                         Program Version 5.0.0 -  RELEASE  -
|  1> ! RI-MP2 cc-pVTZ cc-pVTZ/c TightSCF KeepDens NoKeepInts
|  2>
|  3> %pointcharges "srfp_output"
|  4>
|  5> *xyz  0  1
|  6>     C    -9.6009838   10.9406647   -1.8169212
|  7>     C    -9.0666048   12.2005253   -2.4789014
|  8>     O    -8.8584207   11.9206009   -3.8824675
|  9>     C    -8.2452616   12.9439328   -4.5818604
| 10>     O    -7.9502836   13.9808566   -4.0237812
| 11>     C    -7.9416508   12.6408898   -6.0596773
| 12>     C    -8.3327976   11.5879752   -6.7633209
| 13>     C    -9.2374017   10.4648459   -6.3088962
| 14>     N    -7.8514763   11.4403911   -8.0771821
| 15>     C    -6.9929608   12.2417201   -8.7588340
| 16>     S    -6.3873903   12.1290784  -10.3273547
| 17>     N    -6.5334122   13.2760860   -8.0000802
| 18>     C    -7.0728973   13.7087258   -6.7204455
| 19>     C    -7.7974774   15.0636641   -6.7652566
| 20>     C    -7.0634384   16.1796117   -6.3642865
| 21>     C    -7.5676531   17.4777696   -6.5133496
| 22>     C    -8.8534321   17.6695951   -7.0405718
| 23>     C    -9.6456972   16.5105599   -7.3477777
| 24>     O   -10.9054670   16.6298511   -7.8425923
| 25>     C    -9.0642236   15.2745798   -7.2924863
| 26>     H   -10.5679180   10.6526412   -2.2473469
| 27>     H    -9.7419139   11.1225145   -0.7444200
| 28>     H    -8.8200418   10.1769049   -1.9168785
| 29>     H    -9.7867235   13.0114160   -2.3143560
| 30>     H    -8.1633306   12.5308461   -1.9514798
| 31>     H    -8.8110367    9.9722645   -5.4264228
| 32>     H    -9.2957733    9.8106863   -7.1874505
| 33>     H   -10.2373589   10.7484906   -5.9584318
| 34>     H    -7.9943571   10.5377512   -8.5139805
| 35>     H    -5.8789615   13.9260747   -8.4186196
| 36>     H    -6.1732145   13.7941496   -6.0987838
| 37>     H    -6.0329766   16.0258213   -6.0578602
| 38>     H    -6.9460843   18.3095447   -6.1952327
| 39>     H    -9.2225263   18.6820489   -7.1751495
| 40>     H   -11.4717990   17.3181358   -7.4523855
| 41>     H    -9.7257603   14.4676630   -7.5935685
| 42> *
| 43>
| 44>                          ****END OF INPUT****

CARTESIAN COORDINATES (ANGSTROEM)
---------------------------------
  C     -9.600984   10.940665   -1.816921
  C     -9.066605   12.200525   -2.478901
  O     -8.858421   11.920601   -3.882468
  C     -8.245262   12.943933   -4.581860
  O     -7.950284   13.980857   -4.023781
  C     -7.941651   12.640890   -6.059677
  C     -8.332798   11.587975   -6.763321
  C     -9.237402   10.464846   -6.308896
  N     -7.851476   11.440391   -8.077182
  C     -6.992961   12.241720   -8.758834
  S     -6.387390   12.129078  -10.327355
  N     -6.533412   13.276086   -8.000080
  C     -7.072897   13.708726   -6.720446
  C     -7.797477   15.063664   -6.765257
  C     -7.063438   16.179612   -6.364286
  C     -7.567653   17.477770   -6.513350
  C     -8.853432   17.669595   -7.040572
  C     -9.645697   16.510560   -7.347778
  O    -10.905467   16.629851   -7.842592
  C     -9.064224   15.274580   -7.292486
  H    -10.567918   10.652641   -2.247347
  H     -9.741914   11.122514   -0.744420
  H     -8.820042   10.176905   -1.916878
  H     -9.786724   13.011416   -2.314356
  H     -8.163331   12.530846   -1.951480
  H     -8.811037    9.972264   -5.426423
  H     -9.295773    9.810686   -7.187450
  H    -10.237359   10.748491   -5.958432
  H     -7.994357   10.537751   -8.513981
  H     -5.878961   13.926075   -8.418620
  H     -6.173214   13.794150   -6.098784
  H     -6.032977   16.025821   -6.057860
  H     -6.946084   18.309545   -6.195233
  H     -9.222526   18.682049   -7.175149
  H    -11.471799   17.318136   -7.452386
  H     -9.725760   14.467663   -7.593568

 Total Charge           Charge          ....    0
 Multiplicity           Mult            ....    1
 Number of Electrons    NEL             ....  154
 Basis Dimension        Dim             ....  828

ORBITAL ENERGIES
----------------

  NO   OCC          E(Eh)            E(eV)
   0   2.0000     -95.009635     -2585.3436
   1   2.0000     -23.718192      -645.4048
   2   2.0000     -23.687951      -644.5819
   3   2.0000     -23.674692      -644.2211
   4   2.0000     -18.728140      -509.6186
   5   2.0000     -18.706884      -509.0402
   6   2.0000     -14.521683      -395.1551
   7   2.0000     -14.499662      -394.5559
   8   2.0000     -14.432651      -392.7324
   9   2.0000     -14.415261      -392.2592
  10   2.0000     -14.404625      -391.9698
  11   2.0000     -14.390138      -391.5756
  12   2.0000     -14.363166      -390.8416
  13   2.0000     -14.358431      -390.7128
  14   2.0000     -14.350096      -390.4860
  15   2.0000     -14.346949      -390.4003
  16   2.0000     -14.344598      -390.3363
  17   2.0000     -14.337343      -390.1389
  18   2.0000     -14.334815      -390.0701
  19   2.0000     -14.320794      -389.6886
  20   2.0000     -12.014678      -326.9360
  21   2.0000      -9.696483      -263.8547
  22   2.0000      -9.694497      -263.8007
  23   2.0000      -9.694068      -263.7890
  24   2.0000      -4.571898      -124.4077
  25   2.0000      -4.505516      -122.6013
  26   2.0000      -4.477911      -121.8502
  27   2.0000      -4.448001      -121.0363
  28   2.0000      -4.338545      -118.0578
  29   2.0000      -4.265206      -116.0622
  30   2.0000      -4.228625      -115.0667
  31   2.0000      -4.144929      -112.7893
  32   2.0000      -4.136098      -112.5489
  33   2.0000      -4.123793      -112.2141
  34   2.0000      -4.096853      -111.4810
  35   2.0000      -4.090694      -111.3134
  36   2.0000      -4.019856      -109.3859
  37   2.0000      -3.985968      -108.4637
  38   2.0000      -3.955973      -107.6475
  39   2.0000      -3.941908      -107.2648
  40   2.0000      -3.932178      -107.0000
  41   2.0000      -3.917475      -106.5999
  42   2.0000      -3.867573      -105.2420
  43   2.0000      -3.848631      -104.7266
  44   2.0000      -3.836964      -104.4091
  45   2.0000      -3.801811      -103.4525
  46   2.0000      -3.788475      -103.0896
  47   2.0000      -3.785388      -103.0056
  48   2.0000      -3.778710      -102.8239
  49   2.0000      -3.767577      -102.5210
  50   2.0000      -3.750886      -102.0668
  51   2.0000      -3.741487      -101.8110
  52   2.0000      -3.739764      -101.7642
  53   2.0000      -3.714287      -101.0709
  54   2.0000      -3.705443      -100.8302
  55   2.0000      -3.699366      -100.6649
  56   2.0000      -3.698418      -100.6391
  57   2.0000      -3.685289      -100.2818
  58   2.0000      -3.667814       -99.8063
  59   2.0000      -3.660553       -99.6087
  60   2.0000      -3.654569       -99.4459
  61   2.0000      -3.646265       -99.2199
  62   2.0000      -3.629996       -98.7772
  63   2.0000      -3.629485       -98.7633
  64   2.0000      -3.625989       -98.6682
  65   2.0000      -3.618156       -98.4550
  66   2.0000      -3.605332       -98.1061
  67   2.0000      -3.602882       -98.0394
  68   2.0000      -3.588736       -97.6545
  69   2.0000      -3.572361       -97.2089
  70   2.0000      -3.571080       -97.1740
  71   2.0000      -3.562435       -96.9388
  72   2.0000      -3.460203       -94.1569
  73   2.0000      -3.456595       -94.0587
  74   2.0000      -3.447724       -93.8173
  75   2.0000      -3.439815       -93.6021
  76   2.0000      -3.426748       -93.2465
  77   0.0000      -3.033051       -82.5335
  78   0.0000      -2.990948       -81.3878
  79   0.0000      -2.969546       -80.8055
  80   0.0000      -2.963011       -80.6276
  81   0.0000      -2.947122       -80.1953

MULLIKEN ATOMIC CHARGES
-----------------------
   0 C :   -0.265070
   1 C :    0.042547
   2 O :   -0.333893
   3 C :    0.472167
   4 O :   -0.528781
   5 C :   -0.216036
   6 C :    0.184245
   7 C :   -0.274502
   8 N :   -0.142603
   9 C :    0.297636
  10 S :   -0.625914
  11 N :   -0.207925
  12 C :    0.063056
  13 C :    0.038290
  14 C :   -0.184298
  15 C :   -0.143220
  16 C :   -0.292631
  17 C :    0.262975
  18 O :   -0.449658
  19 C :   -0.307242
  20 H :    0.101308
  21 H :    0.106506
  22 H :    0.096855
  23 H :    0.094564
  24 H :    0.103295
  25 H :    0.129821
  26 H :    0.115901
  27 H :    0.135834
  28 H :    0.242180
  29 H :    0.247081
  30 H :    0.167483
  31 H :    0.174970
  32 H :    0.190198
  33 H :    0.199565
  34 H :    0.326948
  35 H :    0.178350
Sum of atomic charges:   -0.0000000

LOEWDIN ATOMIC CHARGES
----------------------
   0 C :    0.111035
   1 C :   -0.025467
   2 O :    0.290364
   3 C :   -0.370384
   4 O :    0.045856
   5 C :   -0.091829
   6 C :   -0.062879
   7 C :    0.143176
   8 N :    0.422836
   9 C :   -0.408982
  10 S :   -0.188137
  11 N :    0.409631
  12 C :   -0.051910
  13 C :   -0.045004
  14 C :    0.017365
  15 C :    0.037527
  16 C :    0.018448
  17 C :   -0.211803
  18 O :    0.361695
  19 C :   -0.005386
  20 H :   -0.025408
  21 H :   -0.015504
  22 H :   -0.025337
  23 H :   -0.028104
  24 H :   -0.025432
  25 H :   -0.007807
  26 H :   -0.011191
  27 H :   -0.005516
  28 H :   -0.025704
  29 H :   -0.037307
  30 H :   -0.001341
  31 H :   -0.017677
  32 H :   -0.012829
  33 H :   -0.023912
  34 H :   -0.113635
  35 H :   -0.019448

  Mayer bond orders larger than 0.100000
B(  0-C ,  1-C ) :   0.9710 B(  0-C , 20-H ) :   0.9773 B(  0-C , 21-H ) :   0.9768
B(  0-C , 22-H ) :   0.9766 B(  1-C ,  2-O ) :   0.8906 B(  1-C , 23-H ) :   0.9777
B(  1-C , 24-H ) :   0.9728 B(  2-O ,  3-C ) :   1.1947 B(  3-C ,  4-O ) :   1.9331
B(  3-C ,  5-C ) :   1.0891 B(  5-C ,  6-C ) :   1.6239 B(  5-C , 12-C ) :   0.9661
B(  6-C ,  7-C ) :   0.9557 B(  6-C ,  8-N ) :   1.1429 B(  7-C , 25-H ) :   0.9590
B(  7-C , 26-H ) :   0.9871 B(  7-C , 27-H ) :   0.9635 B(  8-N ,  9-C ) :   1.2729
B(  8-N , 28-H ) :   0.9297 B(  9-C , 10-S ) :   1.3701 B(  9-C , 11-N ) :   1.3641
B( 11-N , 12-C ) :   0.9777 B( 11-N , 29-H ) :   0.9291 B( 12-C , 13-C ) :   0.9448
B( 12-C , 30-H ) :   1.0039 B( 13-C , 14-C ) :   1.3754 B( 13-C , 19-C ) :   1.3326
B( 14-C , 15-C ) :   1.3609 B( 14-C , 31-H ) :   0.9658 B( 15-C , 16-C ) :   1.3711
B( 15-C , 32-H ) :   0.9615 B( 16-C , 17-C ) :   1.3140 B( 16-C , 33-H ) :   0.9576
B( 17-C , 18-O ) :   1.0987 B( 17-C , 19-C ) :   1.4194 B( 18-O , 34-H ) :   0.9091
B( 19-C , 35-H ) :   0.9473

MP2 TOTAL ENERGY:    -1274.422507750 Eh
FINAL SINGLE POINT ENERGY     -1274.422507750180

DIPOLE MOMENT
-------------
                                X             Y             Z
Electronic contribution:      6.26934       5.07235     -15.54051
Nuclear contribution   :     -7.72409      -5.71125      18.38491
                        -----------------------------------------
Total Dipole Moment    :     -1.45475      -0.63890       2.84440
                        -----------------------------------------
Magnitude (a.u.)       :      3.25808
Magnitude (Debye)      :      8.28138

Rotational constants in cm-1:     0.010238     0.008438     0.005517
Rotational constants in MHz :   306.940466   252.973350   165.395399

                             ****ORCA TERMINATED NORMALLY****
TOTAL RUN TIME: 0 days 1 hours 36 minutes 21 seconds 812 msec
