                         Program Version 5.0.0 -  RELEASE  -
|  1> ! RI-MP2 cc-pVTZ cc-pVTZ/c TightSCF KeepDens NoKeepInts
|  2>
|  3> *xyz  0  1
|  4>     C    -9.6009838   10.9406647   -1.8169212
|  5>     C    -9.0666048   12.2005253   -2.4789014
|  6>     O    -8.8584207   11.9206009   -3.8824675
|  7>     C    -8.2452616   12.9439328   -4.5818604
|  8>     O    -7.9502836   13.9808566   -4.0237812
|  9>     C    -7.9416508   12.6408898   -6.0596773
| 10>     C    -8.3327976   11.5879752   -6.7633209
| 11>     C    -9.2374017   10.4648459   -6.3088962
| 12>     N    -7.8514763   11.4403911   -8.0771821
| 13>     C    -6.9929608   12.2417201   -8.7588340
| 14>     S    -6.3873903   12.1290784  -10.3273547
| 15>     N    -6.5334122   13.2760860   -8.0000802
| 16>     C    -7.0728973   13.7087258   -6.7204455
| 17>     C    -7.7974774   15.0636641   -6.7652566
| 18>     C    -7.0634384   16.1796117   -6.3642865
| 19>     C    -7.5676531   17.4777696   -6.5133496
| 20>     C    -8.8534321   17.6695951   -7.0405718
| 21>     C    -9.6456972   16.5105599   -7.3477777
| 22>     O   -10.9054670   16.6298511   -7.8425923
| 23>     C    -9.0642236   15.2745798   -7.2924863
| 24>     H   -10.5679180   10.6526412   -2.2473469
| 25>     H    -9.7419139   11.1225145   -0.7444200
| 26>     H    -8.8200418   10.1769049   -1.9168785
| 27>     H    -9.7867235   13.0114160   -2.3143560
| 28>     H    -8.1633306   12.5308461   -1.9514798
| 29>     H    -8.8110367    9.9722645   -5.4264228
| 30>     H    -9.2957733    9.8106863   -7.1874505
| 31>     H   -10.2373589   10.7484906   -5.9584318
| 32>     H    -7.9943571   10.5377512   -8.5139805
| 33>     H    -5.8789615   13.9260747   -8.4186196
| 34>     H    -6.1732145   13.7941496   -6.0987838
| 35>     H    -6.0329766   16.0258213   -6.0578602
| 36>     H    -6.9460843   18.3095447   -6.1952327
| 37>     H    -9.2225263   18.6820489   -7.1751495
| 38>     H   -11.4717990   17.3181358   -7.4523855
| 39>     H    -9.7257603   14.4676630   -7.5935685
| 40> *
| 41>
| 42>                          ****END OF INPUT****

CARTESIAN COORDINATES (ANGSTROEM)
---------------------------------
  C     -9.600984   10.940665   -1.816921
  C     -9.066605   12.200525   -2.478901
  O     -8.858421   11.920601   -3.882468
  C     -8.245262   12.943933   -4.581860
  O     -7.950284   13.980857   -4.023781
  C     -7.941651   12.640890   -6.059677
  C     -8.332798   11.587975   -6.763321
  C     -9.237402   10.464846   -6.308896
  N     -7.851476   11.440391   -8.077182
  C     -6.992961   12.241720   -8.758834
  S     -6.387390   12.129078  -10.327355
  N     -6.533412   13.276086   -8.000080
  C     -7.072897   13.708726   -6.720446
  C     -7.797477   15.063664   -6.765257
  C     -7.063438   16.179612   -6.364286
  C     -7.567653   17.477770   -6.513350
  C     -8.853432   17.669595   -7.040572
  C     -9.645697   16.510560   -7.347778
  O    -10.905467   16.629851   -7.842592
  C     -9.064224   15.274580   -7.292486
  H    -10.567918   10.652641   -2.247347
  H     -9.741914   11.122514   -0.744420
  H     -8.820042   10.176905   -1.916878
  H     -9.786724   13.011416   -2.314356
  H     -8.163331   12.530846   -1.951480
  H     -8.811037    9.972264   -5.426423
  H     -9.295773    9.810686   -7.187450
  H    -10.237359   10.748491   -5.958432
  H     -7.994357   10.537751   -8.513981
  H     -5.878961   13.926075   -8.418620
  H     -6.173214   13.794150   -6.098784
  H     -6.032977   16.025821   -6.057860
  H     -6.946084   18.309545   -6.195233
  H     -9.222526   18.682049   -7.175149
  H    -11.471799   17.318136   -7.452386
  H     -9.725760   14.467663   -7.593568

 Total Charge           Charge          ....    0
 Multiplicity           Mult            ....    1
 Number of Electrons    NEL             ....  154
 Basis Dimension        Dim             ....  828

ORBITAL ENERGIES
----------------

  NO   OCC          E(Eh)            E(eV)
   0   2.0000     -91.888302     -2500.4078
   1   2.0000     -20.610987      -560.8535
   2   2.0000     -20.584481      -560.1322
   3   2.0000     -20.552644      -559.2659
   4   2.0000     -15.630202      -425.3194
   5   2.0000     -15.600409      -424.5087
   6   2.0000     -11.401404      -310.2480
   7   2.0000     -11.384394      -309.7851
   8   2.0000     -11.331209      -308.3379
   9   2.0000     -11.304752      -307.6179
  10   2.0000     -11.300812      -307.5107
  11   2.0000     -11.295066      -307.3544
  12   2.0000     -11.262151      -306.4587
  13   2.0000     -11.260575      -306.4158
  14   2.0000     -11.248637      -306.0910
  15   2.0000     -11.242483      -305.9235
  16   2.0000     -11.239059      -305.8304
  17   2.0000     -11.233597      -305.6817
  18   2.0000     -11.227083      -305.5045
  19   2.0000     -11.226354      -305.4846
  20   2.0000      -8.892063      -241.9653
  21   2.0000      -6.573527      -178.8748
  22   2.0000      -6.571544      -178.8208
  23   2.0000      -6.571001      -178.8060
  24   2.0000      -1.457032       -39.6478
  25   2.0000      -1.399818       -38.0910
  26   2.0000      -1.360670       -37.0257
  27   2.0000      -1.345505       -36.6131
  28   2.0000      -1.236962       -33.6595
  29   2.0000      -1.155223       -31.4352
  30   2.0000      -1.124321       -30.5943
  31   2.0000      -1.045765       -28.4567
  32   2.0000      -1.036562       -28.2063
  33   2.0000      -1.014543       -27.6071
  34   2.0000      -0.999309       -27.1926
  35   2.0000      -0.978095       -26.6153
  36   2.0000      -0.915474       -24.9113
  37   2.0000      -0.884537       -24.0695
  38   2.0000      -0.854048       -23.2398
  39   2.0000      -0.835976       -22.7481
  40   2.0000      -0.824894       -22.4465
  41   2.0000      -0.815247       -22.1840
  42   2.0000      -0.761238       -20.7143
  43   2.0000      -0.742816       -20.2130
  44   2.0000      -0.731166       -19.8960
  45   2.0000      -0.684809       -18.6346
  46   2.0000      -0.681926       -18.5561
  47   2.0000      -0.680077       -18.5058
  48   2.0000      -0.673577       -18.3290
  49   2.0000      -0.663452       -18.0535
  50   2.0000      -0.644926       -17.5493
  51   2.0000      -0.642124       -17.4731
  52   2.0000      -0.638088       -17.3633
  53   2.0000      -0.610321       -16.6077
  54   2.0000      -0.600827       -16.3493
  55   2.0000      -0.597293       -16.2532
  56   2.0000      -0.593108       -16.1393
  57   2.0000      -0.590003       -16.0548
  58   2.0000      -0.568489       -15.4694
  59   2.0000      -0.564186       -15.3523
  60   2.0000      -0.554646       -15.0927
  61   2.0000      -0.548772       -14.9328
  62   2.0000      -0.525075       -14.2880
  63   2.0000      -0.521574       -14.1927
  64   2.0000      -0.515151       -14.0180
  65   2.0000      -0.510020       -13.8784
  66   2.0000      -0.506868       -13.7926
  67   2.0000      -0.493071       -13.4171
  68   2.0000      -0.476689       -12.9714
  69   2.0000      -0.467263       -12.7149
  70   2.0000      -0.460004       -12.5174
  71   2.0000      -0.454912       -12.3788
  72   2.0000      -0.355724        -9.6797
  73   2.0000      -0.342411        -9.3175
  74   2.0000      -0.323259        -8.7963
  75   2.0000      -0.318613        -8.6699
  76   2.0000      -0.312112        -8.4930
  77   0.0000       0.076705         2.0873
  78   0.0000       0.116299         3.1647
  79   0.0000       0.120035         3.2663
  80   0.0000       0.135157         3.6778
  81   0.0000       0.137003         3.7280

MULLIKEN ATOMIC CHARGES
-----------------------
   0 C :   -0.265592
   1 C :    0.047577
   2 O :   -0.348191
   3 C :    0.441496
   4 O :   -0.405797
   5 C :   -0.211237
   6 C :    0.165590
   7 C :   -0.287434
   8 N :   -0.132477
   9 C :    0.204603
  10 S :   -0.446151
  11 N :   -0.184999
  12 C :    0.038753
  13 C :    0.074770
  14 C :   -0.137408
  15 C :   -0.135821
  16 C :   -0.258697
  17 C :    0.278204
  18 O :   -0.379837
  19 C :   -0.256511
  20 H :    0.094787
  21 H :    0.096400
  22 H :    0.091779
  23 H :    0.090255
  24 H :    0.097118
  25 H :    0.133277
  26 H :    0.093128
  27 H :    0.133477
  28 H :    0.183621
  29 H :    0.194777
  30 H :    0.146833
  31 H :    0.134124
  32 H :    0.157964
  33 H :    0.150687
  34 H :    0.246978
  35 H :    0.153954
Sum of atomic charges:   -0.0000000

LOEWDIN ATOMIC CHARGES
----------------------
   0 C :    0.105534
   1 C :   -0.025687
   2 O :    0.279923
   3 C :   -0.387806
   4 O :    0.127333
   5 C :   -0.087053
   6 C :   -0.082199
   7 C :    0.132666
   8 N :    0.406774
   9 C :   -0.437778
  10 S :   -0.069824
  11 N :    0.395221
  12 C :   -0.056619
  13 C :   -0.031358
  14 C :    0.021931
  15 C :    0.035937
  16 C :    0.020698
  17 C :   -0.191675
  18 O :    0.387869
  19 C :    0.014861
  20 H :   -0.028129
  21 H :   -0.020499
  22 H :   -0.027640
  23 H :   -0.029120
  24 H :   -0.026522
  25 H :   -0.009796
  26 H :   -0.023251
  27 H :   -0.008251
  28 H :   -0.055391
  29 H :   -0.060345
  30 H :   -0.008104
  31 H :   -0.028674
  32 H :   -0.023025
  33 H :   -0.034922
  34 H :   -0.152383
  35 H :   -0.022696

  Mayer bond orders larger than 0.100000
B(  0-C ,  1-C ) :   0.9672 B(  0-C , 20-H ) :   0.9788 B(  0-C , 21-H ) :   0.9790
B(  0-C , 22-H ) :   0.9783 B(  1-C ,  2-O ) :   0.9056 B(  1-C , 23-H ) :   0.9793
B(  1-C , 24-H ) :   0.9747 B(  2-O ,  3-C ) :   1.1523 B(  3-C ,  4-O ) :   1.9963
B(  3-C ,  5-C ) :   1.0710 B(  5-C ,  6-C ) :   1.6549 B(  5-C , 12-C ) :   0.9742
B(  6-C ,  7-C ) :   0.9547 B(  6-C ,  8-N ) :   1.1311 B(  7-C , 25-H ) :   0.9618
B(  7-C , 26-H ) :   0.9920 B(  7-C , 27-H ) :   0.9651 B(  8-N ,  9-C ) :   1.2085
B(  8-N , 28-H ) :   0.9601 B(  9-C , 10-S ) :   1.5656 B(  9-C , 11-N ) :   1.3031
B( 11-N , 12-C ) :   0.9783 B( 11-N , 29-H ) :   0.9525 B( 12-C , 13-C ) :   0.9596
B( 12-C , 30-H ) :   1.0054 B( 13-C , 14-C ) :   1.3747 B( 13-C , 19-C ) :   1.3389
B( 14-C , 15-C ) :   1.3624 B( 14-C , 31-H ) :   0.9783 B( 15-C , 16-C ) :   1.3903
B( 15-C , 32-H ) :   0.9709 B( 16-C , 17-C ) :   1.3262 B( 16-C , 33-H ) :   0.9721
B( 17-C , 18-O ) :   1.0716 B( 17-C , 19-C ) :   1.4251 B( 18-O , 34-H ) :   0.9722
B( 19-C , 35-H ) :   0.9581

MP2 TOTAL ENERGY:    -1274.321908956 Eh
FINAL SINGLE POINT ENERGY     -1274.321908955520

DIPOLE MOMENT
-------------
                                X             Y             Z
Electronic contribution:      6.56468       5.48227     -16.18328
Nuclear contribution   :     -7.72409      -5.71125      18.38491
                        -----------------------------------------
Total Dipole Moment    :     -1.15941      -0.22899       2.20163
                        -----------------------------------------
Magnitude (a.u.)       :      2.49876
Magnitude (Debye)      :      6.35135

Rotational constants in cm-1:     0.010238     0.008438     0.005517
Rotational constants in MHz :   306.940466   252.973350   165.395399

                             ****ORCA TERMINATED NORMALLY****
TOTAL RUN TIME: 0 days 2 hours 3 minutes 21 seconds 815 msec
