                         Program Version 5.0.0 -  RELEASE  -
|  1> ! RI-MP2 cc-pVTZ cc-pVTZ/c TightSCF KeepDens NoKeepInts
|  2>
|  3> *xyz  0  1
|  4>     C    -2.3344095    6.3285696   -1.1659302
|  5>     C    -2.7217929    4.8724416   -1.4379743
|  6>     O    -2.8745376    4.7427381   -2.8377081
|  7>     C    -3.9555798    5.2017182   -3.4750427
|  8>     O    -4.9444632    5.4442043   -2.7835678
|  9>     C    -3.7569668    5.3594124   -4.9289086
| 10>     C    -2.5226460    5.4176125   -5.5106724
| 11>     C    -1.1428122    5.3626054   -4.9677481
| 12>     N    -2.5423323    5.7142033   -6.8723237
| 13>     C    -3.5236905    6.3982559   -7.4572871
| 14>     S    -3.1564814    7.0845091   -8.9590056
| 15>     N    -4.7503786    6.3642339   -6.9444086
| 16>     C    -5.0013832    5.6023381   -5.6784379
| 17>     C    -5.8682693    4.3357413   -5.8081684
| 18>     C    -6.8601537    4.1027711   -4.9129468
| 19>     C    -7.6146705    2.9067535   -4.9265781
| 20>     C    -7.3240561    1.9234273   -5.8662376
| 21>     C    -6.3436161    2.1307154   -6.8548065
| 22>     O    -6.0647902    1.2248958   -7.8090891
| 23>     C    -5.5775916    3.3453005   -6.7879588
| 24>     H    -1.4618807    6.6617151   -1.7411711
| 25>     H    -2.1054209    6.4778767   -0.1036394
| 26>     H    -3.1776862    6.9554614   -1.4807010
| 27>     H    -2.0092494    4.1114162   -1.0969291
| 28>     H    -3.6305684    4.5989501   -0.8879570
| 29>     H    -0.9137333    4.4222346   -4.4515925
| 30>     H    -1.1298337    6.0889680   -4.1459095
| 31>     H    -0.4443294    5.5046339   -5.8015000
| 32>     H    -1.6207713    5.7481702   -7.2912961
| 33>     H    -5.5720410    6.7028203   -7.4304091
| 34>     H    -5.5611237    6.3791100   -5.1431757
| 35>     H    -7.0421905    4.7793738   -4.0832011
| 36>     H    -8.2267440    2.5638044   -4.0976342
| 37>     H    -7.8254440    0.9603474   -5.8441203
| 38>     H    -6.8344252    0.6373288   -7.9047784
| 39>     H    -4.8005402    3.6328910   -7.4900121
| 40> *
| 41>
| 42>                          ****END OF INPUT****

CARTESIAN COORDINATES (ANGSTROEM)
---------------------------------
  C     -2.334410    6.328570   -1.165930
  C     -2.721793    4.872442   -1.437974
  O     -2.874538    4.742738   -2.837708
  C     -3.955580    5.201718   -3.475043
  O     -4.944463    5.444204   -2.783568
  C     -3.756967    5.359412   -4.928909
  C     -2.522646    5.417612   -5.510672
  C     -1.142812    5.362605   -4.967748
  N     -2.542332    5.714203   -6.872324
  C     -3.523690    6.398256   -7.457287
  S     -3.156481    7.084509   -8.959006
  N     -4.750379    6.364234   -6.944409
  C     -5.001383    5.602338   -5.678438
  C     -5.868269    4.335741   -5.808168
  C     -6.860154    4.102771   -4.912947
  C     -7.614670    2.906754   -4.926578
  C     -7.324056    1.923427   -5.866238
  C     -6.343616    2.130715   -6.854806
  O     -6.064790    1.224896   -7.809089
  C     -5.577592    3.345301   -6.787959
  H     -1.461881    6.661715   -1.741171
  H     -2.105421    6.477877   -0.103639
  H     -3.177686    6.955461   -1.480701
  H     -2.009249    4.111416   -1.096929
  H     -3.630568    4.598950   -0.887957
  H     -0.913733    4.422235   -4.451593
  H     -1.129834    6.088968   -4.145910
  H     -0.444329    5.504634   -5.801500
  H     -1.620771    5.748170   -7.291296
  H     -5.572041    6.702820   -7.430409
  H     -5.561124    6.379110   -5.143176
  H     -7.042191    4.779374   -4.083201
  H     -8.226744    2.563804   -4.097634
  H     -7.825444    0.960347   -5.844120
  H     -6.834425    0.637329   -7.904778
  H     -4.800540    3.632891   -7.490012

 Total Charge           Charge          ....    0
 Multiplicity           Mult            ....    1
 Number of Electrons    NEL             ....  154
 Basis Dimension        Dim             ....  828

ORBITAL ENERGIES
----------------

  NO   OCC          E(Eh)            E(eV)
   0   2.0000     -91.879834     -2500.1774
   1   2.0000     -20.598487      -560.5133
   2   2.0000     -20.597308      -560.4812
   3   2.0000     -20.537738      -558.8603
   4   2.0000     -15.628198      -425.2649
   5   2.0000     -15.617152      -424.9643
   6   2.0000     -11.390858      -309.9610
   7   2.0000     -11.379428      -309.6500
   8   2.0000     -11.339985      -308.5767
   9   2.0000     -11.315500      -307.9104
  10   2.0000     -11.304881      -307.6214
  11   2.0000     -11.296865      -307.4033
  12   2.0000     -11.266039      -306.5645
  13   2.0000     -11.258667      -306.3639
  14   2.0000     -11.252501      -306.1961
  15   2.0000     -11.246407      -306.0303
  16   2.0000     -11.240856      -305.8792
  17   2.0000     -11.239092      -305.8312
  18   2.0000     -11.231877      -305.6349
  19   2.0000     -11.226534      -305.4895
  20   2.0000      -8.884157      -241.7502
  21   2.0000      -6.565656      -178.6606
  22   2.0000      -6.563698      -178.6073
  23   2.0000      -6.563177      -178.5931
  24   2.0000      -1.469105       -39.9764
  25   2.0000      -1.418277       -38.5933
  26   2.0000      -1.362144       -37.0658
  27   2.0000      -1.347089       -36.6562
  28   2.0000      -1.251301       -34.0496
  29   2.0000      -1.159152       -31.5421
  30   2.0000      -1.130216       -30.7547
  31   2.0000      -1.051597       -28.6154
  32   2.0000      -1.046298       -28.4712
  33   2.0000      -1.014045       -27.5936
  34   2.0000      -1.002420       -27.2772
  35   2.0000      -0.976457       -26.5708
  36   2.0000      -0.926802       -25.2196
  37   2.0000      -0.903225       -24.5780
  38   2.0000      -0.857935       -23.3456
  39   2.0000      -0.837329       -22.7849
  40   2.0000      -0.836264       -22.7559
  41   2.0000      -0.817528       -22.2461
  42   2.0000      -0.761185       -20.7129
  43   2.0000      -0.753437       -20.5021
  44   2.0000      -0.733897       -19.9703
  45   2.0000      -0.696619       -18.9560
  46   2.0000      -0.688950       -18.7473
  47   2.0000      -0.686289       -18.6749
  48   2.0000      -0.677446       -18.4342
  49   2.0000      -0.661281       -17.9944
  50   2.0000      -0.646771       -17.5995
  51   2.0000      -0.644929       -17.5494
  52   2.0000      -0.639203       -17.3936
  53   2.0000      -0.616503       -16.7759
  54   2.0000      -0.611222       -16.6322
  55   2.0000      -0.601918       -16.3790
  56   2.0000      -0.600475       -16.3398
  57   2.0000      -0.595218       -16.1967
  58   2.0000      -0.572404       -15.5759
  59   2.0000      -0.568105       -15.4589
  60   2.0000      -0.563287       -15.3278
  61   2.0000      -0.557029       -15.1575
  62   2.0000      -0.543071       -14.7777
  63   2.0000      -0.538280       -14.6474
  64   2.0000      -0.511546       -13.9199
  65   2.0000      -0.503023       -13.6880
  66   2.0000      -0.491923       -13.3859
  67   2.0000      -0.488327       -13.2880
  68   2.0000      -0.483823       -13.1655
  69   2.0000      -0.467117       -12.7109
  70   2.0000      -0.454321       -12.3627
  71   2.0000      -0.450429       -12.2568
  72   2.0000      -0.357458        -9.7269
  73   2.0000      -0.344410        -9.3719
  74   2.0000      -0.318574        -8.6688
  75   2.0000      -0.314634        -8.5616
  76   2.0000      -0.310863        -8.4590
  77   0.0000       0.073007         1.9866
  78   0.0000       0.109042         2.9672
  79   0.0000       0.120938         3.2909
  80   0.0000       0.133065         3.6209
  81   0.0000       0.137647         3.7456

MULLIKEN ATOMIC CHARGES
-----------------------
   0 C :   -0.310220
   1 C :    0.020832
   2 O :   -0.329590
   3 C :    0.430684
   4 O :   -0.461143
   5 C :   -0.132941
   6 C :    0.176700
   7 C :   -0.297616
   8 N :   -0.085811
   9 C :    0.176236
  10 S :   -0.484967
  11 N :   -0.176658
  12 C :   -0.018054
  13 C :    0.067532
  14 C :   -0.201748
  15 C :   -0.143578
  16 C :   -0.247183
  17 C :    0.262809
  18 O :   -0.343531
  19 C :   -0.251431
  20 H :    0.089743
  21 H :    0.106977
  22 H :    0.117479
  23 H :    0.109466
  24 H :    0.118187
  25 H :    0.139077
  26 H :    0.129085
  27 H :    0.106009
  28 H :    0.184494
  29 H :    0.209957
  30 H :    0.160774
  31 H :    0.171256
  32 H :    0.158322
  33 H :    0.134620
  34 H :    0.242573
  35 H :    0.171659
Sum of atomic charges:   -0.0000000

LOEWDIN ATOMIC CHARGES
----------------------
   0 C :    0.101556
   1 C :   -0.039268
   2 O :    0.352154
   3 C :   -0.432961
   4 O :    0.077734
   5 C :   -0.105447
   6 C :   -0.046564
   7 C :    0.129854
   8 N :    0.414356
   9 C :   -0.472675
  10 S :   -0.099096
  11 N :    0.418558
  12 C :   -0.038090
  13 C :   -0.052243
  14 C :    0.014593
  15 C :    0.045025
  16 C :   -0.003017
  17 C :   -0.194290
  18 O :    0.399350
  19 C :    0.041359
  20 H :   -0.033378
  21 H :   -0.024788
  22 H :   -0.021642
  23 H :   -0.026731
  24 H :   -0.024286
  25 H :   -0.003523
  26 H :   -0.004101
  27 H :   -0.016657
  28 H :   -0.051826
  29 H :   -0.050238
  30 H :   -0.002037
  31 H :   -0.021036
  32 H :   -0.020652
  33 H :   -0.033345
  34 H :   -0.146192
  35 H :   -0.030457

  Mayer bond orders larger than 0.100000
B(  0-C ,  1-C ) :   0.9581 B(  0-C , 20-H ) :   0.9776 B(  0-C , 21-H ) :   0.9789
B(  0-C , 22-H ) :   0.9735 B(  1-C ,  2-O ) :   0.8948 B(  1-C , 23-H ) :   0.9834
B(  1-C , 24-H ) :   0.9776 B(  2-O ,  3-C ) :   1.1747 B(  3-C ,  4-O ) :   1.9313
B(  3-C ,  5-C ) :   1.0772 B(  5-C ,  6-C ) :   1.6302 B(  5-C , 12-C ) :   0.9491
B(  6-C ,  7-C ) :   0.9617 B(  6-C ,  8-N ) :   1.1086 B(  7-C , 25-H ) :   0.9600
B(  7-C , 26-H ) :   0.9628 B(  7-C , 27-H ) :   0.9914 B(  8-N ,  9-C ) :   1.1969
B(  8-N , 28-H ) :   0.9504 B(  9-C , 10-S ) :   1.5255 B(  9-C , 11-N ) :   1.3675
B( 11-N , 12-C ) :   0.9613 B( 11-N , 29-H ) :   0.9455 B( 12-C , 13-C ) :   0.9791
B( 12-C , 30-H ) :   1.0043 B( 13-C , 14-C ) :   1.4069 B( 13-C , 19-C ) :   1.3181
B( 14-C , 15-C ) :   1.3553 B( 14-C , 31-H ) :   0.9580 B( 15-C , 16-C ) :   1.4026
B( 15-C , 32-H ) :   0.9730 B( 16-C , 17-C ) :   1.3219 B( 16-C , 33-H ) :   0.9795
B( 17-C , 18-O ) :   1.1113 B( 17-C , 19-C ) :   1.3956 B( 18-O , 34-H ) :   0.9755
B( 19-C , 35-H ) :   0.9599

MP2 TOTAL ENERGY:    -1274.312189736 Eh
FINAL SINGLE POINT ENERGY     -1274.312189736224

DIPOLE MOMENT
-------------
                                X             Y             Z
Electronic contribution:     -5.97880       0.05080     -15.90033
Nuclear contribution   :      6.33905      -1.28302      17.72157
                        -----------------------------------------
Total Dipole Moment    :      0.36025      -1.23222       1.82124
                        -----------------------------------------
Magnitude (a.u.)       :      2.22824
Magnitude (Debye)      :      5.66375

Rotational constants in cm-1:     0.010643     0.008812     0.005633
Rotational constants in MHz :   319.066429   264.190399   168.864699

                             ****ORCA TERMINATED NORMALLY****
TOTAL RUN TIME: 0 days 1 hours 53 minutes 17 seconds 173 msec
