                         Program Version 5.0.0 -  RELEASE  -
|  1> ! RI-MP2 cc-pVTZ cc-pVTZ/c TightSCF KeepDens NoKeepInts
|  2>
|  3> %pointcharges "srfp_output"
|  4>
|  5> *xyz  0  1
|  6>     C    -2.3344095    6.3285696   -1.1659302
|  7>     C    -2.7217929    4.8724416   -1.4379743
|  8>     O    -2.8745376    4.7427381   -2.8377081
|  9>     C    -3.9555798    5.2017182   -3.4750427
| 10>     O    -4.9444632    5.4442043   -2.7835678
| 11>     C    -3.7569668    5.3594124   -4.9289086
| 12>     C    -2.5226460    5.4176125   -5.5106724
| 13>     C    -1.1428122    5.3626054   -4.9677481
| 14>     N    -2.5423323    5.7142033   -6.8723237
| 15>     C    -3.5236905    6.3982559   -7.4572871
| 16>     S    -3.1564814    7.0845091   -8.9590056
| 17>     N    -4.7503786    6.3642339   -6.9444086
| 18>     C    -5.0013832    5.6023381   -5.6784379
| 19>     C    -5.8682693    4.3357413   -5.8081684
| 20>     C    -6.8601537    4.1027711   -4.9129468
| 21>     C    -7.6146705    2.9067535   -4.9265781
| 22>     C    -7.3240561    1.9234273   -5.8662376
| 23>     C    -6.3436161    2.1307154   -6.8548065
| 24>     O    -6.0647902    1.2248958   -7.8090891
| 25>     C    -5.5775916    3.3453005   -6.7879588
| 26>     H    -1.4618807    6.6617151   -1.7411711
| 27>     H    -2.1054209    6.4778767   -0.1036394
| 28>     H    -3.1776862    6.9554614   -1.4807010
| 29>     H    -2.0092494    4.1114162   -1.0969291
| 30>     H    -3.6305684    4.5989501   -0.8879570
| 31>     H    -0.9137333    4.4222346   -4.4515925
| 32>     H    -1.1298337    6.0889680   -4.1459095
| 33>     H    -0.4443294    5.5046339   -5.8015000
| 34>     H    -1.6207713    5.7481702   -7.2912961
| 35>     H    -5.5720410    6.7028203   -7.4304091
| 36>     H    -5.5611237    6.3791100   -5.1431757
| 37>     H    -7.0421905    4.7793738   -4.0832011
| 38>     H    -8.2267440    2.5638044   -4.0976342
| 39>     H    -7.8254440    0.9603474   -5.8441203
| 40>     H    -6.8344252    0.6373288   -7.9047784
| 41>     H    -4.8005402    3.6328910   -7.4900121
| 42> *
| 43>
| 44>                          ****END OF INPUT****

CARTESIAN COORDINATES (ANGSTROEM)
---------------------------------
  C     -2.334410    6.328570   -1.165930
  C     -2.721793    4.872442   -1.437974
  O     -2.874538    4.742738   -2.837708
  C     -3.955580    5.201718   -3.475043
  O     -4.944463    5.444204   -2.783568
  C     -3.756967    5.359412   -4.928909
  C     -2.522646    5.417612   -5.510672
  C     -1.142812    5.362605   -4.967748
  N     -2.542332    5.714203   -6.872324
  C     -3.523690    6.398256   -7.457287
  S     -3.156481    7.084509   -8.959006
  N     -4.750379    6.364234   -6.944409
  C     -5.001383    5.602338   -5.678438
  C     -5.868269    4.335741   -5.808168
  C     -6.860154    4.102771   -4.912947
  C     -7.614670    2.906754   -4.926578
  C     -7.324056    1.923427   -5.866238
  C     -6.343616    2.130715   -6.854806
  O     -6.064790    1.224896   -7.809089
  C     -5.577592    3.345301   -6.787959
  H     -1.461881    6.661715   -1.741171
  H     -2.105421    6.477877   -0.103639
  H     -3.177686    6.955461   -1.480701
  H     -2.009249    4.111416   -1.096929
  H     -3.630568    4.598950   -0.887957
  H     -0.913733    4.422235   -4.451593
  H     -1.129834    6.088968   -4.145910
  H     -0.444329    5.504634   -5.801500
  H     -1.620771    5.748170   -7.291296
  H     -5.572041    6.702820   -7.430409
  H     -5.561124    6.379110   -5.143176
  H     -7.042191    4.779374   -4.083201
  H     -8.226744    2.563804   -4.097634
  H     -7.825444    0.960347   -5.844120
  H     -6.834425    0.637329   -7.904778
  H     -4.800540    3.632891   -7.490012

 Total Charge           Charge          ....    0
 Multiplicity           Mult            ....    1
 Number of Electrons    NEL             ....  154
 Basis Dimension        Dim             ....  828

ORBITAL ENERGIES
----------------

  NO   OCC          E(Eh)            E(eV)
   0   2.0000     -93.027397     -2531.4042
   1   2.0000     -21.704568      -590.6113
   2   2.0000     -21.704025      -590.5966
   3   2.0000     -21.662332      -589.4620
   4   2.0000     -16.739818      -455.5136
   5   2.0000     -16.735169      -455.3871
   6   2.0000     -12.512291      -340.4767
   7   2.0000     -12.512218      -340.4748
   8   2.0000     -12.447158      -338.7044
   9   2.0000     -12.428948      -338.2089
  10   2.0000     -12.415337      -337.8385
  11   2.0000     -12.389234      -337.1282
  12   2.0000     -12.367471      -336.5360
  13   2.0000     -12.364886      -336.4657
  14   2.0000     -12.357427      -336.2627
  15   2.0000     -12.354732      -336.1894
  16   2.0000     -12.352022      -336.1156
  17   2.0000     -12.348408      -336.0173
  18   2.0000     -12.340546      -335.8033
  19   2.0000     -12.319895      -335.2414
  20   2.0000     -10.033360      -273.0216
  21   2.0000      -7.715284      -209.9435
  22   2.0000      -7.713349      -209.8909
  23   2.0000      -7.713009      -209.8817
  24   2.0000      -2.580357       -70.2151
  25   2.0000      -2.526564       -68.7513
  26   2.0000      -2.477077       -67.4047
  27   2.0000      -2.467859       -67.1539
  28   2.0000      -2.363988       -64.3274
  29   2.0000      -2.273764       -61.8723
  30   2.0000      -2.241677       -60.9991
  31   2.0000      -2.158810       -58.7442
  32   2.0000      -2.145419       -58.3798
  33   2.0000      -2.118097       -57.6363
  34   2.0000      -2.114598       -57.5411
  35   2.0000      -2.100418       -57.1553
  36   2.0000      -2.038182       -55.4617
  37   2.0000      -2.003966       -54.5307
  38   2.0000      -1.974830       -53.7379
  39   2.0000      -1.949222       -53.0410
  40   2.0000      -1.945368       -52.9361
  41   2.0000      -1.925400       -52.3928
  42   2.0000      -1.871647       -50.9301
  43   2.0000      -1.862098       -50.6703
  44   2.0000      -1.843764       -50.1714
  45   2.0000      -1.810803       -49.2744
  46   2.0000      -1.801521       -49.0219
  47   2.0000      -1.795207       -48.8501
  48   2.0000      -1.784803       -48.5670
  49   2.0000      -1.772545       -48.2334
  50   2.0000      -1.760257       -47.8990
  51   2.0000      -1.755706       -47.7752
  52   2.0000      -1.749233       -47.5991
  53   2.0000      -1.723275       -46.8927
  54   2.0000      -1.714904       -46.6649
  55   2.0000      -1.709153       -46.5084
  56   2.0000      -1.703034       -46.3419
  57   2.0000      -1.694009       -46.0963
  58   2.0000      -1.677448       -45.6457
  59   2.0000      -1.674525       -45.5661
  60   2.0000      -1.667977       -45.3880
  61   2.0000      -1.661185       -45.2031
  62   2.0000      -1.646092       -44.7924
  63   2.0000      -1.640355       -44.6363
  64   2.0000      -1.628852       -44.3233
  65   2.0000      -1.622625       -44.1539
  66   2.0000      -1.609371       -43.7932
  67   2.0000      -1.601654       -43.5832
  68   2.0000      -1.587341       -43.1938
  69   2.0000      -1.576060       -42.8868
  70   2.0000      -1.574097       -42.8334
  71   2.0000      -1.561594       -42.4931
  72   2.0000      -1.478330       -40.2274
  73   2.0000      -1.474347       -40.1190
  74   2.0000      -1.463390       -39.8209
  75   2.0000      -1.446701       -39.3667
  76   2.0000      -1.431300       -38.9477
  77   0.0000      -1.041587       -28.3430
  78   0.0000      -1.001871       -27.2623
  79   0.0000      -0.974521       -26.5181
  80   0.0000      -0.967077       -26.3155
  81   0.0000      -0.953914       -25.9573

MULLIKEN ATOMIC CHARGES
-----------------------
   0 C :   -0.309986
   1 C :    0.021610
   2 O :   -0.315757
   3 C :    0.493185
   4 O :   -0.595311
   5 C :   -0.144028
   6 C :    0.204314
   7 C :   -0.295975
   8 N :   -0.105873
   9 C :    0.329132
  10 S :   -0.766801
  11 N :   -0.186413
  12 C :    0.005984
  13 C :    0.035996
  14 C :   -0.256579
  15 C :   -0.165470
  16 C :   -0.269417
  17 C :    0.286546
  18 O :   -0.436666
  19 C :   -0.270357
  20 H :    0.105088
  21 H :    0.120013
  22 H :    0.102431
  23 H :    0.131667
  24 H :    0.109141
  25 H :    0.144366
  26 H :    0.140461
  27 H :    0.126010
  28 H :    0.242417
  29 H :    0.263067
  30 H :    0.181276
  31 H :    0.188400
  32 H :    0.195611
  33 H :    0.179387
  34 H :    0.331070
  35 H :    0.181462
Sum of atomic charges:   -0.0000000

LOEWDIN ATOMIC CHARGES
----------------------
   0 C :    0.105297
   1 C :   -0.034374
   2 O :    0.364124
   3 C :   -0.410429
   4 O :   -0.004636
   5 C :   -0.103859
   6 C :   -0.021609
   7 C :    0.142207
   8 N :    0.432432
   9 C :   -0.434660
  10 S :   -0.275849
  11 N :    0.442635
  12 C :   -0.030582
  13 C :   -0.060636
  14 C :   -0.002864
  15 C :    0.038127
  16 C :    0.002550
  17 C :   -0.202924
  18 O :    0.365809
  19 C :    0.028356
  20 H :   -0.027232
  21 H :   -0.019368
  22 H :   -0.026785
  23 H :   -0.017527
  24 H :   -0.027450
  25 H :    0.001573
  26 H :    0.001542
  27 H :   -0.005932
  28 H :   -0.025134
  29 H :   -0.021714
  30 H :    0.005567
  31 H :   -0.019968
  32 H :   -0.009079
  33 H :   -0.016414
  34 H :   -0.102927
  35 H :   -0.028269

  Mayer bond orders larger than 0.100000
B(  0-C ,  1-C ) :   0.9569 B(  0-C , 20-H ) :   0.9758 B(  0-C , 21-H ) :   0.9759
B(  0-C , 22-H ) :   0.9752 B(  1-C ,  2-O ) :   0.8769 B(  1-C , 23-H ) :   0.9794
B(  1-C , 24-H ) :   0.9781 B(  2-O ,  3-C ) :   1.2202 B(  3-C ,  4-O ) :   1.8479
B(  3-C ,  5-C ) :   1.1237 B(  5-C ,  6-C ) :   1.6085 B(  5-C , 12-C ) :   0.9460
B(  6-C ,  7-C ) :   0.9676 B(  6-C ,  8-N ) :   1.0992 B(  7-C , 25-H ) :   0.9542
B(  7-C , 26-H ) :   0.9566 B(  7-C , 27-H ) :   0.9864 B(  8-N ,  9-C ) :   1.2780
B(  8-N , 28-H ) :   0.9318 B(  9-C , 10-S ) :   1.1969 B(  9-C , 11-N ) :   1.4639
B( 11-N , 12-C ) :   0.9593 B( 11-N , 29-H ) :   0.9145 B( 12-C , 13-C ) :   0.9672
B( 12-C , 30-H ) :   0.9989 B( 13-C , 14-C ) :   1.3783 B( 13-C , 19-C ) :   1.3218
B( 14-C , 15-C ) :   1.3447 B( 14-C , 31-H ) :   0.9551 B( 15-C , 16-C ) :   1.3875
B( 15-C , 32-H ) :   0.9626 B( 16-C , 17-C ) :   1.3172 B( 16-C , 33-H ) :   0.9659
B( 17-C , 18-O ) :   1.1060 B( 17-C , 19-C ) :   1.3907 B( 18-O , 34-H ) :   0.9117
B( 19-C , 35-H ) :   0.9533

MP2 TOTAL ENERGY:    -1274.443900531 Eh
FINAL SINGLE POINT ENERGY     -1274.443900530965

DIPOLE MOMENT
-------------
                                X             Y             Z
Electronic contribution:     -5.77545      -0.60850     -15.04622
Nuclear contribution   :      6.33905      -1.28302      17.72157
                        -----------------------------------------
Total Dipole Moment    :      0.56360      -1.89152       2.67536
                        -----------------------------------------
Magnitude (a.u.)       :      3.32461
Magnitude (Debye)      :      8.45048

Rotational constants in cm-1:     0.010643     0.008812     0.005633
Rotational constants in MHz :   319.066429   264.190399   168.864699

                             ****ORCA TERMINATED NORMALLY****
TOTAL RUN TIME: 0 days 2 hours 1 minutes 6 seconds 977 msec
