                         Program Version 5.0.0 -  RELEASE  -
|  1> ! RI-MP2 cc-pVTZ cc-pVTZ/c TightSCF KeepDens NoKeepInts
|  2>
|  3> %pointcharges "srfp_output"
|  4>
|  5> *xyz  0  1
|  6>     C     3.1853120  -19.7566734   -3.8810327
|  7>     C     3.0820225  -18.3603966   -4.5552863
|  8>     O     1.8812792  -17.7934928   -3.9199719
|  9>     C     1.6525004  -16.4566483   -4.0566664
| 10>     O     2.5584893  -15.6549556   -4.2314761
| 11>     C     0.4114432  -15.9378829   -3.4911458
| 12>     C    -0.6448503  -16.7378299   -3.3393468
| 13>     C    -0.9227283  -18.2466917   -3.5488037
| 14>     N    -1.8470865  -16.2187586   -2.8936852
| 15>     C    -2.1525863  -14.8857398   -2.9079619
| 16>     S    -3.5750403  -14.2428067   -2.4945644
| 17>     N    -1.1146601  -14.1084927   -3.2969499
| 18>     C     0.3351796  -14.4479328   -3.3098636
| 19>     C     1.0205321  -13.9946349   -2.0776926
| 20>     C     0.7457121  -14.4860365   -0.7942263
| 21>     C     1.4189146  -13.9917102    0.3808678
| 22>     C     2.5109172  -13.1442725    0.1237571
| 23>     C     2.8118795  -12.6996797   -1.1575341
| 24>     O     3.8163201  -11.8509593   -1.2844491
| 25>     C     2.0288813  -13.0965565   -2.2458100
| 26>     H     3.5804315  -19.6923959   -2.8597839
| 27>     H     3.8821553  -20.4253664   -4.4010825
| 28>     H     2.2587831  -20.3419882   -3.8347678
| 29>     H     3.9613087  -17.7767120   -4.2563586
| 30>     H     2.8899206  -18.3780773   -5.6350885
| 31>     H    -0.3795549  -18.5808407   -4.4412735
| 32>     H    -1.9715771  -18.5303013   -3.6993761
| 33>     H    -0.5279292  -18.8804222   -2.7452436
| 34>     H    -2.6398105  -16.8295281   -2.7371104
| 35>     H    -1.4524824  -13.1551559   -3.3516429
| 36>     H     0.7878228  -14.0033707   -4.2046643
| 37>     H     0.0297377  -15.2822019   -0.6128499
| 38>     H     1.2110085  -14.4055018    1.3631853
| 39>     H     3.1229909  -12.7656550    0.9370286
| 40>     H     4.0002112  -11.4437221   -2.1487819
| 41>     H     2.4232705  -12.7700910   -3.2035540
| 42> *
| 43>
| 44>                          ****END OF INPUT****

CARTESIAN COORDINATES (ANGSTROEM)
---------------------------------
  C      3.185312  -19.756673   -3.881033
  C      3.082022  -18.360397   -4.555286
  O      1.881279  -17.793493   -3.919972
  C      1.652500  -16.456648   -4.056666
  O      2.558489  -15.654956   -4.231476
  C      0.411443  -15.937883   -3.491146
  C     -0.644850  -16.737830   -3.339347
  C     -0.922728  -18.246692   -3.548804
  N     -1.847087  -16.218759   -2.893685
  C     -2.152586  -14.885740   -2.907962
  S     -3.575040  -14.242807   -2.494564
  N     -1.114660  -14.108493   -3.296950
  C      0.335180  -14.447933   -3.309864
  C      1.020532  -13.994635   -2.077693
  C      0.745712  -14.486037   -0.794226
  C      1.418915  -13.991710    0.380868
  C      2.510917  -13.144272    0.123757
  C      2.811879  -12.699680   -1.157534
  O      3.816320  -11.850959   -1.284449
  C      2.028881  -13.096557   -2.245810
  H      3.580431  -19.692396   -2.859784
  H      3.882155  -20.425366   -4.401083
  H      2.258783  -20.341988   -3.834768
  H      3.961309  -17.776712   -4.256359
  H      2.889921  -18.378077   -5.635089
  H     -0.379555  -18.580841   -4.441274
  H     -1.971577  -18.530301   -3.699376
  H     -0.527929  -18.880422   -2.745244
  H     -2.639810  -16.829528   -2.737110
  H     -1.452482  -13.155156   -3.351643
  H      0.787823  -14.003371   -4.204664
  H      0.029738  -15.282202   -0.612850
  H      1.211008  -14.405502    1.363185
  H      3.122991  -12.765655    0.937029
  H      4.000211  -11.443722   -2.148782
  H      2.423271  -12.770091   -3.203554

 Total Charge           Charge          ....    0
 Multiplicity           Mult            ....    1
 Number of Electrons    NEL             ....  154
 Basis Dimension        Dim             ....  828

ORBITAL ENERGIES
----------------

  NO   OCC          E(Eh)            E(eV)
   0   2.0000     -92.791802     -2524.9933
   1   2.0000     -21.472708      -584.3021
   2   2.0000     -21.457868      -583.8983
   3   2.0000     -21.426119      -583.0343
   4   2.0000     -16.491836      -448.7657
   5   2.0000     -16.477944      -448.3877
   6   2.0000     -12.269944      -333.8821
   7   2.0000     -12.265185      -333.7526
   8   2.0000     -12.200477      -331.9919
   9   2.0000     -12.180201      -331.4401
  10   2.0000     -12.177848      -331.3761
  11   2.0000     -12.165762      -331.0472
  12   2.0000     -12.130290      -330.0820
  13   2.0000     -12.126038      -329.9663
  14   2.0000     -12.119059      -329.7764
  15   2.0000     -12.112874      -329.6081
  16   2.0000     -12.111058      -329.5586
  17   2.0000     -12.106704      -329.4402
  18   2.0000     -12.104405      -329.3776
  19   2.0000     -12.086940      -328.9024
  20   2.0000      -9.800184      -266.6766
  21   2.0000      -7.482387      -203.6061
  22   2.0000      -7.480120      -203.5444
  23   2.0000      -7.479680      -203.5324
  24   2.0000      -2.327368       -63.3309
  25   2.0000      -2.290534       -62.3286
  26   2.0000      -2.234487       -60.8035
  27   2.0000      -2.222102       -60.4665
  28   2.0000      -2.110350       -57.4255
  29   2.0000      -2.040969       -55.5376
  30   2.0000      -2.001305       -54.4583
  31   2.0000      -1.923764       -52.3483
  32   2.0000      -1.902583       -51.7719
  33   2.0000      -1.882927       -51.2370
  34   2.0000      -1.875551       -51.0363
  35   2.0000      -1.863734       -50.7148
  36   2.0000      -1.804562       -49.1046
  37   2.0000      -1.753648       -47.7192
  38   2.0000      -1.730639       -47.0931
  39   2.0000      -1.720018       -46.8041
  40   2.0000      -1.699166       -46.2367
  41   2.0000      -1.687826       -45.9281
  42   2.0000      -1.630794       -44.3762
  43   2.0000      -1.624451       -44.2036
  44   2.0000      -1.608082       -43.7581
  45   2.0000      -1.571519       -42.7632
  46   2.0000      -1.555732       -42.3336
  47   2.0000      -1.551621       -42.2218
  48   2.0000      -1.545179       -42.0464
  49   2.0000      -1.530872       -41.6571
  50   2.0000      -1.520700       -41.3803
  51   2.0000      -1.513170       -41.1754
  52   2.0000      -1.505968       -40.9795
  53   2.0000      -1.483518       -40.3686
  54   2.0000      -1.477545       -40.2061
  55   2.0000      -1.465271       -39.8721
  56   2.0000      -1.461963       -39.7820
  57   2.0000      -1.442859       -39.2622
  58   2.0000      -1.439284       -39.1649
  59   2.0000      -1.434507       -39.0349
  60   2.0000      -1.424616       -38.7658
  61   2.0000      -1.413622       -38.4666
  62   2.0000      -1.400506       -38.1097
  63   2.0000      -1.395494       -37.9733
  64   2.0000      -1.391246       -37.8577
  65   2.0000      -1.386371       -37.7251
  66   2.0000      -1.374239       -37.3949
  67   2.0000      -1.372928       -37.3593
  68   2.0000      -1.357606       -36.9423
  69   2.0000      -1.341783       -36.5118
  70   2.0000      -1.335581       -36.3430
  71   2.0000      -1.330754       -36.2116
  72   2.0000      -1.248997       -33.9869
  73   2.0000      -1.238232       -33.6940
  74   2.0000      -1.227955       -33.4144
  75   2.0000      -1.218597       -33.1597
  76   2.0000      -1.185470       -32.2583
  77   0.0000      -0.801153       -21.8005
  78   0.0000      -0.755585       -20.5605
  79   0.0000      -0.747510       -20.3408
  80   0.0000      -0.727164       -19.7871
  81   0.0000      -0.716853       -19.5066

MULLIKEN ATOMIC CHARGES
-----------------------
   0 C :   -0.283671
   1 C :    0.029054
   2 O :   -0.340044
   3 C :    0.473590
   4 O :   -0.580919
   5 C :   -0.177432
   6 C :    0.180325
   7 C :   -0.275614
   8 N :   -0.135329
   9 C :    0.334684
  10 S :   -0.697788
  11 N :   -0.220965
  12 C :    0.071690
  13 C :    0.075496
  14 C :   -0.301679
  15 C :   -0.182529
  16 C :   -0.247199
  17 C :    0.322171
  18 O :   -0.428745
  19 C :   -0.295807
  20 H :    0.103843
  21 H :    0.101574
  22 H :    0.111107
  23 H :    0.113733
  24 H :    0.125293
  25 H :    0.121253
  26 H :    0.128083
  27 H :    0.136025
  28 H :    0.252547
  29 H :    0.236533
  30 H :    0.171102
  31 H :    0.192442
  32 H :    0.206400
  33 H :    0.179845
  34 H :    0.329317
  35 H :    0.171614
Sum of atomic charges:   -0.0000000

LOEWDIN ATOMIC CHARGES
----------------------
   0 C :    0.105559
   1 C :    0.031759
   2 O :    0.301695
   3 C :   -0.406353
   4 O :    0.011935
   5 C :   -0.107994
   6 C :   -0.037040
   7 C :    0.141717
   8 N :    0.423288
   9 C :   -0.474445
  10 S :   -0.155765
  11 N :    0.423250
  12 C :   -0.033337
  13 C :   -0.078067
  14 C :    0.012835
  15 C :    0.048129
  16 C :   -0.006999
  17 C :   -0.230211
  18 O :    0.406842
  19 C :    0.015837
  20 H :   -0.024199
  21 H :   -0.022016
  22 H :   -0.024564
  23 H :   -0.028391
  24 H :   -0.025646
  25 H :   -0.012665
  26 H :   -0.009232
  27 H :   -0.007513
  28 H :   -0.024301
  29 H :   -0.049948
  30 H :    0.010977
  31 H :   -0.025730
  32 H :   -0.012072
  33 H :   -0.021942
  34 H :   -0.102364
  35 H :   -0.013030

  Mayer bond orders larger than 0.100000
B(  0-C ,  1-C ) :   0.9744 B(  0-C , 20-H ) :   0.9786 B(  0-C , 21-H ) :   0.9751
B(  0-C , 22-H ) :   0.9739 B(  1-C ,  2-O ) :   0.8576 B(  1-C , 23-H ) :   0.9784
B(  1-C , 24-H ) :   0.9758 B(  2-O ,  3-C ) :   1.2240 B(  3-C ,  4-O ) :   1.8636
B(  3-C ,  5-C ) :   1.1164 B(  5-C ,  6-C ) :   1.6164 B(  5-C , 12-C ) :   0.9599
B(  6-C ,  7-C ) :   0.9631 B(  6-C ,  8-N ) :   1.1296 B(  7-C , 25-H ) :   0.9659
B(  7-C , 26-H ) :   0.9848 B(  7-C , 27-H ) :   0.9582 B(  8-N ,  9-C ) :   1.2596
B(  8-N , 28-H ) :   0.9297 B(  9-C , 10-S ) :   1.3400 B(  9-C , 11-N ) :   1.3921
B( 11-N , 12-C ) :   0.9615 B( 11-N , 29-H ) :   0.9327 B( 12-C , 13-C ) :   0.9639
B( 12-C , 30-H ) :   0.9880 B( 13-C , 14-C ) :   1.3430 B( 13-C , 19-C ) :   1.3145
B( 14-C , 15-C ) :   1.3962 B( 14-C , 31-H ) :   0.9609 B( 15-C , 16-C ) :   1.3735
B( 15-C , 32-H ) :   0.9579 B( 16-C , 17-C ) :   1.3250 B( 16-C , 33-H ) :   0.9564
B( 17-C , 18-O ) :   1.1514 B( 17-C , 19-C ) :   1.3617 B( 18-O , 34-H ) :   0.9034
B( 19-C , 35-H ) :   0.9613

MP2 TOTAL ENERGY:    -1274.432666221 Eh
FINAL SINGLE POINT ENERGY     -1274.432666220945

DIPOLE MOMENT
-------------
                                X             Y             Z
Electronic contribution:     -9.06285      14.91452       1.25108
Nuclear contribution   :     10.64821     -17.55516      -2.84798
                        -----------------------------------------
Total Dipole Moment    :      1.58536      -2.64064      -1.59690
                        -----------------------------------------
Magnitude (a.u.)       :      3.46936
Magnitude (Debye)      :      8.81841

Rotational constants in cm-1:     0.009955     0.009251     0.005491
Rotational constants in MHz :   298.429555   277.348344   164.604150

                             ****ORCA TERMINATED NORMALLY****
TOTAL RUN TIME: 0 days 2 hours 5 minutes 7 seconds 458 msec
