                         Program Version 5.0.0 -  RELEASE  -
|  1> ! RI-MP2 cc-pVTZ cc-pVTZ/c TightSCF KeepDens NoKeepInts
|  2>
|  3> *xyz  0  1
|  4>     C     3.1853120  -19.7566734   -3.8810327
|  5>     C     3.0820225  -18.3603966   -4.5552863
|  6>     O     1.8812792  -17.7934928   -3.9199719
|  7>     C     1.6525004  -16.4566483   -4.0566664
|  8>     O     2.5584893  -15.6549556   -4.2314761
|  9>     C     0.4114432  -15.9378829   -3.4911458
| 10>     C    -0.6448503  -16.7378299   -3.3393468
| 11>     C    -0.9227283  -18.2466917   -3.5488037
| 12>     N    -1.8470865  -16.2187586   -2.8936852
| 13>     C    -2.1525863  -14.8857398   -2.9079619
| 14>     S    -3.5750403  -14.2428067   -2.4945644
| 15>     N    -1.1146601  -14.1084927   -3.2969499
| 16>     C     0.3351796  -14.4479328   -3.3098636
| 17>     C     1.0205321  -13.9946349   -2.0776926
| 18>     C     0.7457121  -14.4860365   -0.7942263
| 19>     C     1.4189146  -13.9917102    0.3808678
| 20>     C     2.5109172  -13.1442725    0.1237571
| 21>     C     2.8118795  -12.6996797   -1.1575341
| 22>     O     3.8163201  -11.8509593   -1.2844491
| 23>     C     2.0288813  -13.0965565   -2.2458100
| 24>     H     3.5804315  -19.6923959   -2.8597839
| 25>     H     3.8821553  -20.4253664   -4.4010825
| 26>     H     2.2587831  -20.3419882   -3.8347678
| 27>     H     3.9613087  -17.7767120   -4.2563586
| 28>     H     2.8899206  -18.3780773   -5.6350885
| 29>     H    -0.3795549  -18.5808407   -4.4412735
| 30>     H    -1.9715771  -18.5303013   -3.6993761
| 31>     H    -0.5279292  -18.8804222   -2.7452436
| 32>     H    -2.6398105  -16.8295281   -2.7371104
| 33>     H    -1.4524824  -13.1551559   -3.3516429
| 34>     H     0.7878228  -14.0033707   -4.2046643
| 35>     H     0.0297377  -15.2822019   -0.6128499
| 36>     H     1.2110085  -14.4055018    1.3631853
| 37>     H     3.1229909  -12.7656550    0.9370286
| 38>     H     4.0002112  -11.4437221   -2.1487819
| 39>     H     2.4232705  -12.7700910   -3.2035540
| 40> *
| 41>
| 42>                          ****END OF INPUT****

CARTESIAN COORDINATES (ANGSTROEM)
---------------------------------
  C      3.185312  -19.756673   -3.881033
  C      3.082022  -18.360397   -4.555286
  O      1.881279  -17.793493   -3.919972
  C      1.652500  -16.456648   -4.056666
  O      2.558489  -15.654956   -4.231476
  C      0.411443  -15.937883   -3.491146
  C     -0.644850  -16.737830   -3.339347
  C     -0.922728  -18.246692   -3.548804
  N     -1.847087  -16.218759   -2.893685
  C     -2.152586  -14.885740   -2.907962
  S     -3.575040  -14.242807   -2.494564
  N     -1.114660  -14.108493   -3.296950
  C      0.335180  -14.447933   -3.309864
  C      1.020532  -13.994635   -2.077693
  C      0.745712  -14.486037   -0.794226
  C      1.418915  -13.991710    0.380868
  C      2.510917  -13.144272    0.123757
  C      2.811879  -12.699680   -1.157534
  O      3.816320  -11.850959   -1.284449
  C      2.028881  -13.096557   -2.245810
  H      3.580431  -19.692396   -2.859784
  H      3.882155  -20.425366   -4.401083
  H      2.258783  -20.341988   -3.834768
  H      3.961309  -17.776712   -4.256359
  H      2.889921  -18.378077   -5.635089
  H     -0.379555  -18.580841   -4.441274
  H     -1.971577  -18.530301   -3.699376
  H     -0.527929  -18.880422   -2.745244
  H     -2.639810  -16.829528   -2.737110
  H     -1.452482  -13.155156   -3.351643
  H      0.787823  -14.003371   -4.204664
  H      0.029738  -15.282202   -0.612850
  H      1.211008  -14.405502    1.363185
  H      3.122991  -12.765655    0.937029
  H      4.000211  -11.443722   -2.148782
  H      2.423271  -12.770091   -3.203554

 Total Charge           Charge          ....    0
 Multiplicity           Mult            ....    1
 Number of Electrons    NEL             ....  154
 Basis Dimension        Dim             ....  828

ORBITAL ENERGIES
----------------

  NO   OCC          E(Eh)            E(eV)
   0   2.0000     -91.885855     -2500.3412
   1   2.0000     -20.602244      -560.6156
   2   2.0000     -20.585970      -560.1727
   3   2.0000     -20.537951      -558.8661
   4   2.0000     -15.617842      -424.9831
   5   2.0000     -15.593428      -424.3187
   6   2.0000     -11.383312      -309.7557
   7   2.0000     -11.369565      -309.3816
   8   2.0000     -11.329454      -308.2901
   9   2.0000     -11.308648      -307.7240
  10   2.0000     -11.300916      -307.5136
  11   2.0000     -11.297599      -307.4233
  12   2.0000     -11.261014      -306.4278
  13   2.0000     -11.248188      -306.0788
  14   2.0000     -11.247765      -306.0672
  15   2.0000     -11.242595      -305.9266
  16   2.0000     -11.236892      -305.7714
  17   2.0000     -11.230656      -305.6017
  18   2.0000     -11.224067      -305.4224
  19   2.0000     -11.223875      -305.4172
  20   2.0000      -8.892553      -241.9787
  21   2.0000      -6.574313      -178.8962
  22   2.0000      -6.572101      -178.8360
  23   2.0000      -6.571501      -178.8196
  24   2.0000      -1.448990       -39.4290
  25   2.0000      -1.416432       -38.5431
  26   2.0000      -1.352157       -36.7941
  27   2.0000      -1.343408       -36.5560
  28   2.0000      -1.233293       -33.5596
  29   2.0000      -1.157650       -31.5013
  30   2.0000      -1.122067       -30.5330
  31   2.0000      -1.047073       -28.4923
  32   2.0000      -1.034508       -28.1504
  33   2.0000      -1.006190       -27.3798
  34   2.0000      -0.996672       -27.1208
  35   2.0000      -0.987517       -26.8717
  36   2.0000      -0.927365       -25.2349
  37   2.0000      -0.888508       -24.1775
  38   2.0000      -0.851909       -23.1816
  39   2.0000      -0.846627       -23.0379
  40   2.0000      -0.826300       -22.4848
  41   2.0000      -0.811548       -22.0833
  42   2.0000      -0.757505       -20.6128
  43   2.0000      -0.746419       -20.3111
  44   2.0000      -0.729843       -19.8600
  45   2.0000      -0.694505       -18.8984
  46   2.0000      -0.682589       -18.5742
  47   2.0000      -0.672033       -18.2870
  48   2.0000      -0.667178       -18.1548
  49   2.0000      -0.656129       -17.8542
  50   2.0000      -0.641084       -17.4448
  51   2.0000      -0.636313       -17.3149
  52   2.0000      -0.634775       -17.2731
  53   2.0000      -0.608155       -16.5488
  54   2.0000      -0.599432       -16.3114
  55   2.0000      -0.593457       -16.1488
  56   2.0000      -0.592417       -16.1205
  57   2.0000      -0.577258       -15.7080
  58   2.0000      -0.566544       -15.4165
  59   2.0000      -0.561081       -15.2678
  60   2.0000      -0.555291       -15.1102
  61   2.0000      -0.544544       -14.8178
  62   2.0000      -0.531737       -14.4693
  63   2.0000      -0.527216       -14.3463
  64   2.0000      -0.517847       -14.0913
  65   2.0000      -0.513869       -13.9831
  66   2.0000      -0.505931       -13.7671
  67   2.0000      -0.492193       -13.3933
  68   2.0000      -0.475574       -12.9410
  69   2.0000      -0.465317       -12.6619
  70   2.0000      -0.453290       -12.3346
  71   2.0000      -0.450151       -12.2492
  72   2.0000      -0.359519        -9.7830
  73   2.0000      -0.343760        -9.3542
  74   2.0000      -0.328550        -8.9403
  75   2.0000      -0.320769        -8.7286
  76   2.0000      -0.299207        -8.1418
  77   0.0000       0.082450         2.2436
  78   0.0000       0.117223         3.1898
  79   0.0000       0.128219         3.4890
  80   0.0000       0.131656         3.5825
  81   0.0000       0.139374         3.7926

MULLIKEN ATOMIC CHARGES
-----------------------
   0 C :   -0.274650
   1 C :    0.028274
   2 O :   -0.349455
   3 C :    0.405808
   4 O :   -0.443630
   5 C :   -0.163280
   6 C :    0.154752
   7 C :   -0.285109
   8 N :   -0.123128
   9 C :    0.196614
  10 S :   -0.431651
  11 N :   -0.203649
  12 C :    0.037574
  13 C :    0.109504
  14 C :   -0.239972
  15 C :   -0.142223
  16 C :   -0.202163
  17 C :    0.294306
  18 O :   -0.357093
  19 C :   -0.243375
  20 H :    0.104518
  21 H :    0.090994
  22 H :    0.097127
  23 H :    0.126463
  24 H :    0.101466
  25 H :    0.112580
  26 H :    0.109669
  27 H :    0.128573
  28 H :    0.190452
  29 H :    0.178583
  30 H :    0.153240
  31 H :    0.147888
  32 H :    0.167815
  33 H :    0.153551
  34 H :    0.246142
  35 H :    0.123485
Sum of atomic charges:    0.0000000

LOEWDIN ATOMIC CHARGES
----------------------
   0 C :    0.101696
   1 C :    0.027232
   2 O :    0.292255
   3 C :   -0.432869
   4 O :    0.098561
   5 C :   -0.107047
   6 C :   -0.061234
   7 C :    0.129245
   8 N :    0.403477
   9 C :   -0.512009
  10 S :    0.012670
  11 N :    0.400858
  12 C :   -0.041328
  13 C :   -0.065271
  14 C :    0.031593
  15 C :    0.059798
  16 C :    0.011014
  17 C :   -0.219670
  18 O :    0.428972
  19 C :    0.015966
  20 H :   -0.023615
  21 H :   -0.027646
  22 H :   -0.028973
  23 H :   -0.024418
  24 H :   -0.033766
  25 H :   -0.018113
  26 H :   -0.020160
  27 H :   -0.012746
  28 H :   -0.054868
  29 H :   -0.076046
  30 H :    0.004147
  31 H :   -0.035343
  32 H :   -0.024296
  33 H :   -0.028112
  34 H :   -0.143970
  35 H :   -0.025984

  Mayer bond orders larger than 0.100000
B(  0-C ,  1-C ) :   0.9710 B(  0-C , 20-H ) :   0.9795 B(  0-C , 21-H ) :   0.9767
B(  0-C , 22-H ) :   0.9762 B(  1-C ,  2-O ) :   0.8780 B(  1-C , 23-H ) :   0.9762
B(  1-C , 24-H ) :   0.9804 B(  2-O ,  3-C ) :   1.1796 B(  3-C ,  4-O ) :   1.9426
B(  3-C ,  5-C ) :   1.0791 B(  5-C ,  6-C ) :   1.6364 B(  5-C , 12-C ) :   0.9675
B(  6-C ,  7-C ) :   0.9610 B(  6-C ,  8-N ) :   1.1278 B(  7-C , 25-H ) :   0.9699
B(  7-C , 26-H ) :   0.9907 B(  7-C , 27-H ) :   0.9613 B(  8-N ,  9-C ) :   1.1702
B(  8-N , 28-H ) :   0.9576 B(  9-C , 10-S ) :   1.6522 B(  9-C , 11-N ) :   1.2986
B( 11-N , 12-C ) :   0.9758 B( 11-N , 29-H ) :   0.9542 B( 12-C , 13-C ) :   0.9662
B( 12-C , 30-H ) :   0.9929 B( 13-C , 14-C ) :   1.3794 B( 13-C , 19-C ) :   1.3493
B( 14-C , 15-C ) :   1.4062 B( 14-C , 31-H ) :   0.9702 B( 15-C , 16-C ) :   1.3810
B( 15-C , 32-H ) :   0.9708 B( 16-C , 17-C ) :   1.3510 B( 16-C , 33-H ) :   0.9670
B( 17-C , 18-O ) :   1.1281 B( 17-C , 19-C ) :   1.3761 B( 18-O , 34-H ) :   0.9731
B( 19-C , 35-H ) :   0.9611

MP2 TOTAL ENERGY:    -1274.310409149 Eh
FINAL SINGLE POINT ENERGY     -1274.310409149315

DIPOLE MOMENT
-------------
                                X             Y             Z
Electronic contribution:     -9.48207      15.84507       1.90793
Nuclear contribution   :     10.64821     -17.55516      -2.84798
                        -----------------------------------------
Total Dipole Moment    :      1.16613      -1.71009      -0.94005
                        -----------------------------------------
Magnitude (a.u.)       :      2.27331
Magnitude (Debye)      :      5.77830

Rotational constants in cm-1:     0.009955     0.009251     0.005491
Rotational constants in MHz :   298.429555   277.348344   164.604150

                             ****ORCA TERMINATED NORMALLY****
TOTAL RUN TIME: 0 days 2 hours 2 minutes 52 seconds 240 msec
