                         Program Version 5.0.0 -  RELEASE  -
|  1> ! RI-MP2 cc-pVTZ cc-pVTZ/c TightSCF KeepDens NoKeepInts
|  2>
|  3> %pointcharges "srfp_output"
|  4>
|  5> *xyz  0  1
|  6>     C     0.7867262   -4.6686707   -5.4845543
|  7>     C     0.3906955   -4.0919372   -6.8549002
|  8>     O    -0.7699179   -4.8354443   -7.3665950
|  9>     C    -1.3226075   -4.4572193   -8.5194069
| 10>     O    -0.8850685   -3.5573628   -9.1842576
| 11>     C    -2.6206386   -5.0683052   -8.8439714
| 12>     C    -3.1553016   -6.2178201   -8.3395392
| 13>     C    -2.6027810   -7.1071393   -7.2865904
| 14>     N    -4.4142031   -6.5991624   -8.7881704
| 15>     C    -5.0576112   -6.0812514   -9.9244833
| 16>     S    -6.5725731   -6.6832055  -10.3809510
| 17>     N    -4.2931099   -5.1629098  -10.6224802
| 18>     C    -3.2557244   -4.3005384   -9.9470197
| 19>     C    -3.8703432   -3.0535662   -9.4957022
| 20>     C    -5.0125737   -3.0643896   -8.7455048
| 21>     C    -5.6040110   -1.8796744   -8.3329299
| 22>     C    -5.1606472   -0.6527545   -8.7557997
| 23>     C    -4.0217041   -0.5521972   -9.5116424
| 24>     O    -3.7087462    0.5994659  -10.0830283
| 25>     C    -3.3350409   -1.7569313   -9.8879138
| 26>     H    -0.0692895   -4.6318149   -4.7996682
| 27>     H     1.5466661   -3.9322974   -5.1957024
| 28>     H     1.3173914   -5.6285501   -5.4991962
| 29>     H     0.1466671   -3.0474375   -6.6254224
| 30>     H     1.1508497   -4.1139020   -7.6453924
| 31>     H    -3.2238094   -8.0042586   -7.1739372
| 32>     H    -2.7324837   -6.5427994   -6.3549857
| 33>     H    -1.5830029   -7.4295017   -7.5301603
| 34>     H    -4.9206410   -7.3413729   -8.3206122
| 35>     H    -4.7474525   -4.6871281  -11.3926561
| 36>     H    -2.5085772   -4.0485374  -10.7095524
| 37>     H    -5.5026303   -3.9780393   -8.4222457
| 38>     H    -6.5709204   -1.8902125   -7.8385907
| 39>     H    -5.6509549    0.2721147   -8.4666390
| 40>     H    -2.8339549    0.5765152  -10.5084016
| 41>     H    -2.4993809   -1.8053243  -10.5798144
| 42> *
| 43>
| 44>                          ****END OF INPUT****

CARTESIAN COORDINATES (ANGSTROEM)
---------------------------------
  C      0.786726   -4.668671   -5.484554
  C      0.390695   -4.091937   -6.854900
  O     -0.769918   -4.835444   -7.366595
  C     -1.322607   -4.457219   -8.519407
  O     -0.885068   -3.557363   -9.184258
  C     -2.620639   -5.068305   -8.843971
  C     -3.155302   -6.217820   -8.339539
  C     -2.602781   -7.107139   -7.286590
  N     -4.414203   -6.599162   -8.788170
  C     -5.057611   -6.081251   -9.924483
  S     -6.572573   -6.683205  -10.380951
  N     -4.293110   -5.162910  -10.622480
  C     -3.255724   -4.300538   -9.947020
  C     -3.870343   -3.053566   -9.495702
  C     -5.012574   -3.064390   -8.745505
  C     -5.604011   -1.879674   -8.332930
  C     -5.160647   -0.652755   -8.755800
  C     -4.021704   -0.552197   -9.511642
  O     -3.708746    0.599466  -10.083028
  C     -3.335041   -1.756931   -9.887914
  H     -0.069290   -4.631815   -4.799668
  H      1.546666   -3.932297   -5.195702
  H      1.317391   -5.628550   -5.499196
  H      0.146667   -3.047437   -6.625422
  H      1.150850   -4.113902   -7.645392
  H     -3.223809   -8.004259   -7.173937
  H     -2.732484   -6.542799   -6.354986
  H     -1.583003   -7.429502   -7.530160
  H     -4.920641   -7.341373   -8.320612
  H     -4.747452   -4.687128  -11.392656
  H     -2.508577   -4.048537  -10.709552
  H     -5.502630   -3.978039   -8.422246
  H     -6.570920   -1.890213   -7.838591
  H     -5.650955    0.272115   -8.466639
  H     -2.833955    0.576515  -10.508402
  H     -2.499381   -1.805324  -10.579814

 Total Charge           Charge          ....    0
 Multiplicity           Mult            ....    1
 Number of Electrons    NEL             ....  154
 Basis Dimension        Dim             ....  828

ORBITAL ENERGIES
----------------

  NO   OCC          E(Eh)            E(eV)
   0   2.0000     -94.903376     -2582.4522
   1   2.0000     -23.570337      -641.3815
   2   2.0000     -23.563641      -641.1993
   3   2.0000     -23.525093      -640.1503
   4   2.0000     -18.601480      -506.1720
   5   2.0000     -18.588843      -505.8281
   6   2.0000     -14.388461      -391.5299
   7   2.0000     -14.363987      -390.8640
   8   2.0000     -14.303386      -389.2149
   9   2.0000     -14.283097      -388.6628
  10   2.0000     -14.267702      -388.2439
  11   2.0000     -14.262305      -388.0970
  12   2.0000     -14.224953      -387.0807
  13   2.0000     -14.217060      -386.8659
  14   2.0000     -14.215777      -386.8310
  15   2.0000     -14.212372      -386.7383
  16   2.0000     -14.209902      -386.6711
  17   2.0000     -14.199770      -386.3954
  18   2.0000     -14.199557      -386.3896
  19   2.0000     -14.191350      -386.1663
  20   2.0000     -11.908349      -324.0427
  21   2.0000      -9.590195      -260.9625
  22   2.0000      -9.588369      -260.9128
  23   2.0000      -9.587943      -260.9012
  24   2.0000      -4.440766      -120.8394
  25   2.0000      -4.395932      -119.6194
  26   2.0000      -4.342029      -118.1526
  27   2.0000      -4.308498      -117.2402
  28   2.0000      -4.207690      -114.4971
  29   2.0000      -4.135223      -112.5251
  30   2.0000      -4.097576      -111.5007
  31   2.0000      -4.023520      -109.4856
  32   2.0000      -4.007672      -109.0543
  33   2.0000      -3.980199      -108.3067
  34   2.0000      -3.973259      -108.1179
  35   2.0000      -3.967670      -107.9658
  36   2.0000      -3.896996      -106.0426
  37   2.0000      -3.854538      -104.8873
  38   2.0000      -3.830946      -104.2453
  39   2.0000      -3.819415      -103.9316
  40   2.0000      -3.793647      -103.2304
  41   2.0000      -3.776540      -102.7649
  42   2.0000      -3.732908      -101.5776
  43   2.0000      -3.717414      -101.1560
  44   2.0000      -3.708844      -100.9228
  45   2.0000      -3.672125       -99.9236
  46   2.0000      -3.663232       -99.6816
  47   2.0000      -3.651997       -99.3759
  48   2.0000      -3.648984       -99.2939
  49   2.0000      -3.637581       -98.9836
  50   2.0000      -3.625657       -98.6591
  51   2.0000      -3.612837       -98.3103
  52   2.0000      -3.603673       -98.0609
  53   2.0000      -3.581273       -97.4514
  54   2.0000      -3.579574       -97.4052
  55   2.0000      -3.569262       -97.1246
  56   2.0000      -3.560259       -96.8796
  57   2.0000      -3.548064       -96.5477
  58   2.0000      -3.541895       -96.3799
  59   2.0000      -3.537486       -96.2599
  60   2.0000      -3.528724       -96.0215
  61   2.0000      -3.520203       -95.7896
  62   2.0000      -3.507151       -95.4344
  63   2.0000      -3.494968       -95.1029
  64   2.0000      -3.486047       -94.8602
  65   2.0000      -3.479234       -94.6748
  66   2.0000      -3.474485       -94.5455
  67   2.0000      -3.471308       -94.4591
  68   2.0000      -3.464769       -94.2812
  69   2.0000      -3.441567       -93.6498
  70   2.0000      -3.435075       -93.4731
  71   2.0000      -3.432345       -93.3989
  72   2.0000      -3.350980       -91.1848
  73   2.0000      -3.342055       -90.9419
  74   2.0000      -3.319449       -90.3268
  75   2.0000      -3.306732       -89.9808
  76   2.0000      -3.290461       -89.5380
  77   0.0000      -2.911558       -79.2275
  78   0.0000      -2.853775       -77.6552
  79   0.0000      -2.838881       -77.2499
  80   0.0000      -2.825921       -76.8972
  81   0.0000      -2.823359       -76.8275

MULLIKEN ATOMIC CHARGES
-----------------------
   0 C :   -0.264393
   1 C :    0.025650
   2 O :   -0.320528
   3 C :    0.449820
   4 O :   -0.562504
   5 C :   -0.171751
   6 C :    0.212585
   7 C :   -0.283320
   8 N :   -0.161463
   9 C :    0.341961
  10 S :   -0.705236
  11 N :   -0.210998
  12 C :    0.054038
  13 C :    0.041688
  14 C :   -0.282352
  15 C :   -0.181870
  16 C :   -0.239353
  17 C :    0.302684
  18 O :   -0.432532
  19 C :   -0.256441
  20 H :    0.108703
  21 H :    0.097802
  22 H :    0.105743
  23 H :    0.104117
  24 H :    0.115432
  25 H :    0.123223
  26 H :    0.134914
  27 H :    0.137186
  28 H :    0.261914
  29 H :    0.229529
  30 H :    0.172513
  31 H :    0.188289
  32 H :    0.177036
  33 H :    0.178403
  34 H :    0.330128
  35 H :    0.179382
Sum of atomic charges:    0.0000000

LOEWDIN ATOMIC CHARGES
----------------------
   0 C :    0.117289
   1 C :    0.014450
   2 O :    0.320080
   3 C :   -0.462527
   4 O :    0.056594
   5 C :   -0.098471
   6 C :   -0.048970
   7 C :    0.139980
   8 N :    0.415141
   9 C :   -0.364060
  10 S :   -0.245113
  11 N :    0.407591
  12 C :   -0.056880
  13 C :   -0.059380
  14 C :   -0.004974
  15 C :    0.025617
  16 C :   -0.006856
  17 C :   -0.234265
  18 O :    0.391832
  19 C :    0.046646
  20 H :   -0.021859
  21 H :   -0.014574
  22 H :   -0.027943
  23 H :   -0.021875
  24 H :   -0.027138
  25 H :   -0.005697
  26 H :   -0.000408
  27 H :   -0.002691
  28 H :   -0.028888
  29 H :   -0.039052
  30 H :    0.005733
  31 H :   -0.017563
  32 H :   -0.007068
  33 H :   -0.014438
  34 H :   -0.099723
  35 H :   -0.030538

  Mayer bond orders larger than 0.100000
B(  0-C ,  1-C ) :   0.9774 B(  0-C , 20-H ) :   0.9750 B(  0-C , 21-H ) :   0.9745
B(  0-C , 22-H ) :   0.9781 B(  1-C ,  2-O ) :   0.8620 B(  1-C , 23-H ) :   0.9754
B(  1-C , 24-H ) :   0.9719 B(  2-O ,  3-C ) :   1.2447 B(  3-C ,  4-O ) :   1.8772
B(  3-C ,  5-C ) :   1.0977 B(  5-C ,  6-C ) :   1.6267 B(  5-C , 12-C ) :   0.9630
B(  6-C ,  7-C ) :   0.9481 B(  6-C ,  8-N ) :   1.1435 B(  7-C , 25-H ) :   0.9855
B(  7-C , 26-H ) :   0.9565 B(  7-C , 27-H ) :   0.9663 B(  8-N ,  9-C ) :   1.2400
B(  8-N , 28-H ) :   0.9219 B(  9-C , 10-S ) :   1.2712 B(  9-C , 11-N ) :   1.3875
B( 11-N , 12-C ) :   0.9601 B( 11-N , 29-H ) :   0.9353 B( 12-C , 13-C ) :   0.9380
B( 12-C , 30-H ) :   0.9972 B( 13-C , 14-C ) :   1.3662 B( 13-C , 19-C ) :   1.2969
B( 14-C , 15-C ) :   1.3758 B( 14-C , 31-H ) :   0.9635 B( 15-C , 16-C ) :   1.3826
B( 15-C , 32-H ) :   0.9779 B( 16-C , 17-C ) :   1.3286 B( 16-C , 33-H ) :   0.9609
B( 17-C , 18-O ) :   1.1119 B( 17-C , 19-C ) :   1.3681 B( 18-O , 34-H ) :   0.9099
B( 19-C , 35-H ) :   0.9598

MP2 TOTAL ENERGY:    -1274.442544700 Eh
FINAL SINGLE POINT ENERGY     -1274.442544699867

DIPOLE MOMENT
-------------
                                X             Y             Z
Electronic contribution:    -11.32364      -0.16307     -12.26761
Nuclear contribution   :     14.38862      -0.06904      14.29164
                        -----------------------------------------
Total Dipole Moment    :      3.06498      -0.23212       2.02402
                        -----------------------------------------
Magnitude (a.u.)       :      3.68030
Magnitude (Debye)      :      9.35459

Rotational constants in cm-1:     0.010122     0.009251     0.005473
Rotational constants in MHz :   303.459560   277.342223   164.066631

                             ****ORCA TERMINATED NORMALLY****
TOTAL RUN TIME: 0 days 2 hours 54 minutes 10 seconds 632 msec
