                         Program Version 5.0.0 -  RELEASE  -
|  1> ! RI-MP2 cc-pVTZ cc-pVTZ/c TightSCF KeepDens NoKeepInts
|  2>
|  3> *xyz  0  1
|  4>     C     0.7867262   -4.6686707   -5.4845543
|  5>     C     0.3906955   -4.0919372   -6.8549002
|  6>     O    -0.7699179   -4.8354443   -7.3665950
|  7>     C    -1.3226075   -4.4572193   -8.5194069
|  8>     O    -0.8850685   -3.5573628   -9.1842576
|  9>     C    -2.6206386   -5.0683052   -8.8439714
| 10>     C    -3.1553016   -6.2178201   -8.3395392
| 11>     C    -2.6027810   -7.1071393   -7.2865904
| 12>     N    -4.4142031   -6.5991624   -8.7881704
| 13>     C    -5.0576112   -6.0812514   -9.9244833
| 14>     S    -6.5725731   -6.6832055  -10.3809510
| 15>     N    -4.2931099   -5.1629098  -10.6224802
| 16>     C    -3.2557244   -4.3005384   -9.9470197
| 17>     C    -3.8703432   -3.0535662   -9.4957022
| 18>     C    -5.0125737   -3.0643896   -8.7455048
| 19>     C    -5.6040110   -1.8796744   -8.3329299
| 20>     C    -5.1606472   -0.6527545   -8.7557997
| 21>     C    -4.0217041   -0.5521972   -9.5116424
| 22>     O    -3.7087462    0.5994659  -10.0830283
| 23>     C    -3.3350409   -1.7569313   -9.8879138
| 24>     H    -0.0692895   -4.6318149   -4.7996682
| 25>     H     1.5466661   -3.9322974   -5.1957024
| 26>     H     1.3173914   -5.6285501   -5.4991962
| 27>     H     0.1466671   -3.0474375   -6.6254224
| 28>     H     1.1508497   -4.1139020   -7.6453924
| 29>     H    -3.2238094   -8.0042586   -7.1739372
| 30>     H    -2.7324837   -6.5427994   -6.3549857
| 31>     H    -1.5830029   -7.4295017   -7.5301603
| 32>     H    -4.9206410   -7.3413729   -8.3206122
| 33>     H    -4.7474525   -4.6871281  -11.3926561
| 34>     H    -2.5085772   -4.0485374  -10.7095524
| 35>     H    -5.5026303   -3.9780393   -8.4222457
| 36>     H    -6.5709204   -1.8902125   -7.8385907
| 37>     H    -5.6509549    0.2721147   -8.4666390
| 38>     H    -2.8339549    0.5765152  -10.5084016
| 39>     H    -2.4993809   -1.8053243  -10.5798144
| 40> *
| 41>
| 42>                          ****END OF INPUT****

CARTESIAN COORDINATES (ANGSTROEM)
---------------------------------
  C      0.786726   -4.668671   -5.484554
  C      0.390695   -4.091937   -6.854900
  O     -0.769918   -4.835444   -7.366595
  C     -1.322607   -4.457219   -8.519407
  O     -0.885068   -3.557363   -9.184258
  C     -2.620639   -5.068305   -8.843971
  C     -3.155302   -6.217820   -8.339539
  C     -2.602781   -7.107139   -7.286590
  N     -4.414203   -6.599162   -8.788170
  C     -5.057611   -6.081251   -9.924483
  S     -6.572573   -6.683205  -10.380951
  N     -4.293110   -5.162910  -10.622480
  C     -3.255724   -4.300538   -9.947020
  C     -3.870343   -3.053566   -9.495702
  C     -5.012574   -3.064390   -8.745505
  C     -5.604011   -1.879674   -8.332930
  C     -5.160647   -0.652755   -8.755800
  C     -4.021704   -0.552197   -9.511642
  O     -3.708746    0.599466  -10.083028
  C     -3.335041   -1.756931   -9.887914
  H     -0.069290   -4.631815   -4.799668
  H      1.546666   -3.932297   -5.195702
  H      1.317391   -5.628550   -5.499196
  H      0.146667   -3.047437   -6.625422
  H      1.150850   -4.113902   -7.645392
  H     -3.223809   -8.004259   -7.173937
  H     -2.732484   -6.542799   -6.354986
  H     -1.583003   -7.429502   -7.530160
  H     -4.920641   -7.341373   -8.320612
  H     -4.747452   -4.687128  -11.392656
  H     -2.508577   -4.048537  -10.709552
  H     -5.502630   -3.978039   -8.422246
  H     -6.570920   -1.890213   -7.838591
  H     -5.650955    0.272115   -8.466639
  H     -2.833955    0.576515  -10.508402
  H     -2.499381   -1.805324  -10.579814

 Total Charge           Charge          ....    0
 Multiplicity           Mult            ....    1
 Number of Electrons    NEL             ....  154
 Basis Dimension        Dim             ....  828

ORBITAL ENERGIES
----------------

  NO   OCC          E(Eh)            E(eV)
   0   2.0000     -91.896550     -2500.6323
   1   2.0000     -20.601676      -560.6001
   2   2.0000     -20.590693      -560.3013
   3   2.0000     -20.537367      -558.8502
   4   2.0000     -15.626923      -425.2302
   5   2.0000     -15.606386      -424.6714
   6   2.0000     -11.392121      -309.9954
   7   2.0000     -11.380365      -309.6755
   8   2.0000     -11.332762      -308.3801
   9   2.0000     -11.305013      -307.6251
  10   2.0000     -11.303587      -307.5862
  11   2.0000     -11.291788      -307.2652
  12   2.0000     -11.259326      -306.3818
  13   2.0000     -11.246265      -306.0264
  14   2.0000     -11.245154      -305.9962
  15   2.0000     -11.240629      -305.8731
  16   2.0000     -11.237826      -305.7968
  17   2.0000     -11.233765      -305.6863
  18   2.0000     -11.220422      -305.3232
  19   2.0000     -11.220051      -305.3131
  20   2.0000      -8.899713      -242.1735
  21   2.0000      -6.581067      -179.0799
  22   2.0000      -6.579289      -179.0316
  23   2.0000      -6.578660      -179.0144
  24   2.0000      -1.463512       -39.8242
  25   2.0000      -1.421291       -38.6753
  26   2.0000      -1.361891       -37.0589
  27   2.0000      -1.330819       -36.2134
  28   2.0000      -1.231906       -33.5219
  29   2.0000      -1.154675       -31.4203
  30   2.0000      -1.121141       -30.5078
  31   2.0000      -1.052272       -28.6338
  32   2.0000      -1.045828       -28.4584
  33   2.0000      -1.007474       -27.4148
  34   2.0000      -0.999412       -27.1954
  35   2.0000      -0.976303       -26.5666
  36   2.0000      -0.921420       -25.0731
  37   2.0000      -0.889002       -24.1910
  38   2.0000      -0.854171       -23.2432
  39   2.0000      -0.840741       -22.8777
  40   2.0000      -0.822952       -22.3937
  41   2.0000      -0.802569       -21.8390
  42   2.0000      -0.760865       -20.7042
  43   2.0000      -0.740626       -20.1535
  44   2.0000      -0.731901       -19.9160
  45   2.0000      -0.695759       -18.9326
  46   2.0000      -0.684468       -18.6253
  47   2.0000      -0.677228       -18.4283
  48   2.0000      -0.674857       -18.3638
  49   2.0000      -0.662884       -18.0380
  50   2.0000      -0.649360       -17.6700
  51   2.0000      -0.644002       -17.5242
  52   2.0000      -0.632298       -17.2057
  53   2.0000      -0.613639       -16.6980
  54   2.0000      -0.602302       -16.3895
  55   2.0000      -0.601651       -16.3718
  56   2.0000      -0.585521       -15.9328
  57   2.0000      -0.581466       -15.8225
  58   2.0000      -0.568484       -15.4692
  59   2.0000      -0.566240       -15.4082
  60   2.0000      -0.561125       -15.2690
  61   2.0000      -0.548153       -14.9160
  62   2.0000      -0.537856       -14.6358
  63   2.0000      -0.524950       -14.2846
  64   2.0000      -0.516123       -14.0444
  65   2.0000      -0.508981       -13.8501
  66   2.0000      -0.497730       -13.5439
  67   2.0000      -0.496925       -13.5220
  68   2.0000      -0.482269       -13.1232
  69   2.0000      -0.464753       -12.6466
  70   2.0000      -0.459365       -12.5000
  71   2.0000      -0.452072       -12.3015
  72   2.0000      -0.354551        -9.6478
  73   2.0000      -0.337873        -9.1940
  74   2.0000      -0.328373        -8.9355
  75   2.0000      -0.317297        -8.6341
  76   2.0000      -0.307773        -8.3749
  77   0.0000       0.072531         1.9737
  78   0.0000       0.118215         3.2168
  79   0.0000       0.125691         3.4202
  80   0.0000       0.134329         3.6553
  81   0.0000       0.138167         3.7597

MULLIKEN ATOMIC CHARGES
-----------------------
   0 C :   -0.264111
   1 C :    0.041870
   2 O :   -0.335128
   3 C :    0.391807
   4 O :   -0.441710
   5 C :   -0.153195
   6 C :    0.180878
   7 C :   -0.283157
   8 N :   -0.144366
   9 C :    0.195921
  10 S :   -0.420315
  11 N :   -0.195831
  12 C :    0.023603
  13 C :    0.041687
  14 C :   -0.237068
  15 C :   -0.127643
  16 C :   -0.217827
  17 C :    0.291185
  18 O :   -0.347379
  19 C :   -0.224383
  20 H :    0.104840
  21 H :    0.088616
  22 H :    0.100733
  23 H :    0.095774
  24 H :    0.106627
  25 H :    0.101201
  26 H :    0.128820
  27 H :    0.130414
  28 H :    0.196139
  29 H :    0.171167
  30 H :    0.160558
  31 H :    0.152421
  32 H :    0.146774
  33 H :    0.154543
  34 H :    0.247713
  35 H :    0.138826
Sum of atomic charges:    0.0000000

LOEWDIN ATOMIC CHARGES
----------------------
   0 C :    0.112528
   1 C :    0.013172
   2 O :    0.308258
   3 C :   -0.482129
   4 O :    0.128757
   5 C :   -0.098879
   6 C :   -0.071572
   7 C :    0.129364
   8 N :    0.394733
   9 C :   -0.402630
  10 S :   -0.064510
  11 N :    0.385381
  12 C :   -0.064775
  13 C :   -0.054559
  14 C :    0.008551
  15 C :    0.035596
  16 C :    0.005456
  17 C :   -0.225339
  18 O :    0.420988
  19 C :    0.044011
  20 H :   -0.023716
  21 H :   -0.019091
  22 H :   -0.030367
  23 H :   -0.023622
  24 H :   -0.028894
  25 H :   -0.017123
  26 H :   -0.005296
  27 H :   -0.006843
  28 H :   -0.060666
  29 H :   -0.068028
  30 H :    0.000578
  31 H :   -0.023406
  32 H :   -0.016717
  33 H :   -0.020162
  34 H :   -0.139533
  35 H :   -0.039516

  Mayer bond orders larger than 0.100000
B(  0-C ,  1-C ) :   0.9700 B(  0-C , 20-H ) :   0.9759 B(  0-C , 21-H ) :   0.9778
B(  0-C , 22-H ) :   0.9785 B(  1-C ,  2-O ) :   0.8798 B(  1-C , 23-H ) :   0.9763
B(  1-C , 24-H ) :   0.9759 B(  2-O ,  3-C ) :   1.2060 B(  3-C ,  4-O ) :   1.9533
B(  3-C ,  5-C ) :   1.0593 B(  5-C ,  6-C ) :   1.6416 B(  5-C , 12-C ) :   0.9697
B(  6-C ,  7-C ) :   0.9455 B(  6-C ,  8-N ) :   1.1526 B(  7-C , 25-H ) :   0.9906
B(  7-C , 26-H ) :   0.9606 B(  7-C , 27-H ) :   0.9706 B(  8-N ,  9-C ) :   1.1453
B(  8-N , 28-H ) :   0.9484 B(  9-C , 10-S ) :   1.6052 B(  9-C , 11-N ) :   1.2960
B( 11-N , 12-C ) :   0.9630 B( 11-N , 29-H ) :   0.9657 B( 12-C , 13-C ) :   0.9508
B( 12-C , 30-H ) :   1.0003 B( 13-C , 14-C ) :   1.3877 B( 13-C , 19-C ) :   1.3312
B( 14-C , 15-C ) :   1.3805 B( 14-C , 31-H ) :   0.9699 B( 15-C , 16-C ) :   1.3896
B( 15-C , 32-H ) :   0.9847 B( 16-C , 17-C ) :   1.3453 B( 16-C , 33-H ) :   0.9682
B( 17-C , 18-O ) :   1.1145 B( 17-C , 19-C ) :   1.3588 B( 18-O , 34-H ) :   0.9729
B( 19-C , 35-H ) :   0.9627

MP2 TOTAL ENERGY:    -1274.322831003 Eh
FINAL SINGLE POINT ENERGY     -1274.322831002982

DIPOLE MOMENT
-------------
                                X             Y             Z
Electronic contribution:    -12.38885      -0.03460     -12.86061
Nuclear contribution   :     14.38862      -0.06904      14.29164
                        -----------------------------------------
Total Dipole Moment    :      1.99977      -0.10364       1.43102
                        -----------------------------------------
Magnitude (a.u.)       :      2.46123
Magnitude (Debye)      :      6.25595

Rotational constants in cm-1:     0.010122     0.009251     0.005473
Rotational constants in MHz :   303.459560   277.342223   164.066631

                             ****ORCA TERMINATED NORMALLY****
TOTAL RUN TIME: 0 days 2 hours 55 minutes 34 seconds 404 msec
