                         Program Version 5.0.0 -  RELEASE  -
|  1> ! RI-MP2 cc-pVTZ cc-pVTZ/c TightSCF KeepDens NoKeepInts
|  2>
|  3> %pointcharges "srfp_output"
|  4>
|  5> *xyz  0  1
|  6>     C    -9.4279564  -10.3369168    6.7846366
|  7>     C   -10.8834331  -10.4877623    6.3784985
|  8>     O   -11.2981897  -11.8282492    6.0078743
|  9>     C   -11.2046405  -12.9561161    6.8107670
| 10>     O   -10.6191586  -12.8703794    7.8590177
| 11>     C   -11.9278325  -14.1303754    6.2309457
| 12>     C   -12.9378189  -14.0775784    5.2770052
| 13>     C   -13.6545144  -12.8959314    4.6467346
| 14>     N   -13.5587393  -15.2450771    4.8850260
| 15>     C   -13.1454514  -16.5298158    5.2008046
| 16>     S   -14.0113341  -17.8674542    4.5398928
| 17>     N   -12.1786650  -16.6366505    6.1512701
| 18>     C   -11.4555713  -15.4933444    6.8464085
| 19>     C    -9.9491658  -15.7857407    6.8155029
| 20>     C    -9.1541439  -15.5578459    7.9844249
| 21>     C    -7.8808308  -16.0351455    8.0602849
| 22>     C    -7.3261903  -16.7819555    7.0066059
| 23>     C    -8.0364793  -16.9397956    5.7867028
| 24>     O    -7.4237962  -17.3470041    4.6408120
| 25>     C    -9.3276549  -16.4473882    5.7108162
| 26>     H    -9.1688746  -10.5400568    7.8309652
| 27>     H    -9.0778288   -9.2997218    6.7151579
| 28>     H    -8.7652167  -10.8860114    6.1045919
| 29>     H   -11.4430825  -10.1119696    7.2438106
| 30>     H   -11.2052875   -9.8312917    5.5607908
| 31>     H   -13.7164238  -11.9906679    5.2630541
| 32>     H   -14.7064399  -13.1234409    4.4348811
| 33>     H   -13.0507625  -12.6546863    3.7632870
| 34>     H   -14.4230742  -15.1339831    4.3687344
| 35>     H   -11.9316325  -17.5388757    6.5397685
| 36>     H   -11.7688104  -15.5988751    7.8923216
| 37>     H    -9.6709240  -15.1310116    8.8389112
| 38>     H    -7.3675824  -15.8759774    9.0040240
| 39>     H    -6.3094591  -17.1612721    7.0487272
| 40>     H    -6.5159927  -17.6929752    4.6949034
| 41>     H    -9.9222909  -16.6604456    4.8274035
| 42> *
| 43>
| 44>                          ****END OF INPUT****

CARTESIAN COORDINATES (ANGSTROEM)
---------------------------------
  C     -9.427956  -10.336917    6.784637
  C    -10.883433  -10.487762    6.378499
  O    -11.298190  -11.828249    6.007874
  C    -11.204641  -12.956116    6.810767
  O    -10.619159  -12.870379    7.859018
  C    -11.927832  -14.130375    6.230946
  C    -12.937819  -14.077578    5.277005
  C    -13.654514  -12.895931    4.646735
  N    -13.558739  -15.245077    4.885026
  C    -13.145451  -16.529816    5.200805
  S    -14.011334  -17.867454    4.539893
  N    -12.178665  -16.636650    6.151270
  C    -11.455571  -15.493344    6.846408
  C     -9.949166  -15.785741    6.815503
  C     -9.154144  -15.557846    7.984425
  C     -7.880831  -16.035145    8.060285
  C     -7.326190  -16.781955    7.006606
  C     -8.036479  -16.939796    5.786703
  O     -7.423796  -17.347004    4.640812
  C     -9.327655  -16.447388    5.710816
  H     -9.168875  -10.540057    7.830965
  H     -9.077829   -9.299722    6.715158
  H     -8.765217  -10.886011    6.104592
  H    -11.443082  -10.111970    7.243811
  H    -11.205288   -9.831292    5.560791
  H    -13.716424  -11.990668    5.263054
  H    -14.706440  -13.123441    4.434881
  H    -13.050762  -12.654686    3.763287
  H    -14.423074  -15.133983    4.368734
  H    -11.931632  -17.538876    6.539769
  H    -11.768810  -15.598875    7.892322
  H     -9.670924  -15.131012    8.838911
  H     -7.367582  -15.875977    9.004024
  H     -6.309459  -17.161272    7.048727
  H     -6.515993  -17.692975    4.694903
  H     -9.922291  -16.660446    4.827403

 Total Charge           Charge          ....    0
 Multiplicity           Mult            ....    1
 Number of Electrons    NEL             ....  154
 Basis Dimension        Dim             ....  828

ORBITAL ENERGIES
----------------

  NO   OCC          E(Eh)            E(eV)
   0   2.0000     -91.120835     -2479.5240
   1   2.0000     -19.809329      -539.0392
   2   2.0000     -19.800958      -538.8115
   3   2.0000     -19.776233      -538.1387
   4   2.0000     -14.841525      -403.8584
   5   2.0000     -14.833027      -403.6272
   6   2.0000     -10.623096      -289.0691
   7   2.0000     -10.619626      -288.9747
   8   2.0000     -10.559763      -287.3458
   9   2.0000     -10.532951      -286.6162
  10   2.0000     -10.529324      -286.5175
  11   2.0000     -10.504872      -285.8521
  12   2.0000     -10.481053      -285.2040
  13   2.0000     -10.480751      -285.1957
  14   2.0000     -10.460148      -284.6351
  15   2.0000     -10.458510      -284.5905
  16   2.0000     -10.456146      -284.5262
  17   2.0000     -10.455350      -284.5045
  18   2.0000     -10.447412      -284.2885
  19   2.0000     -10.428666      -283.7784
  20   2.0000      -8.124567      -221.0807
  21   2.0000      -5.806211      -157.9950
  22   2.0000      -5.804389      -157.9454
  23   2.0000      -5.803962      -157.9338
  24   2.0000      -0.672934       -18.3115
  25   2.0000      -0.615463       -16.7476
  26   2.0000      -0.576959       -15.6999
  27   2.0000      -0.551982       -15.0202
  28   2.0000      -0.452277       -12.3071
  29   2.0000      -0.369921       -10.0661
  30   2.0000      -0.325872        -8.8674
  31   2.0000      -0.251793        -6.8516
  32   2.0000      -0.243444        -6.6245
  33   2.0000      -0.236788        -6.4433
  34   2.0000      -0.209058        -5.6888
  35   2.0000      -0.189031        -5.1438
  36   2.0000      -0.135635        -3.6908
  37   2.0000      -0.103578        -2.8185
  38   2.0000      -0.065092        -1.7712
  39   2.0000      -0.052203        -1.4205
  40   2.0000      -0.042620        -1.1597
  41   2.0000      -0.031026        -0.8443
  42   2.0000       0.035626         0.9694
  43   2.0000       0.050142         1.3644
  44   2.0000       0.056816         1.5460
  45   2.0000       0.092938         2.5290
  46   2.0000       0.098940         2.6923
  47   2.0000       0.104486         2.8432
  48   2.0000       0.113311         3.0834
  49   2.0000       0.131479         3.5777
  50   2.0000       0.139699         3.8014
  51   2.0000       0.143525         3.9055
  52   2.0000       0.153964         4.1896
  53   2.0000       0.177320         4.8251
  54   2.0000       0.184780         5.0281
  55   2.0000       0.188070         5.1177
  56   2.0000       0.193451         5.2641
  57   2.0000       0.201609         5.4861
  58   2.0000       0.220258         5.9935
  59   2.0000       0.223876         6.0920
  60   2.0000       0.232938         6.3386
  61   2.0000       0.243106         6.6153
  62   2.0000       0.252553         6.8723
  63   2.0000       0.261832         7.1248
  64   2.0000       0.270672         7.3654
  65   2.0000       0.275913         7.5080
  66   2.0000       0.283595         7.7170
  67   2.0000       0.296049         8.0559
  68   2.0000       0.302050         8.2192
  69   2.0000       0.317885         8.6501
  70   2.0000       0.326622         8.8878
  71   2.0000       0.335474         9.1287
  72   2.0000       0.430092        11.7034
  73   2.0000       0.438215        11.9244
  74   2.0000       0.442491        12.0408
  75   2.0000       0.455134        12.3848
  76   2.0000       0.465464        12.6659
  77   0.0000       0.854326        23.2474
  78   0.0000       0.889494        24.2044
  79   0.0000       0.921165        25.0662
  80   0.0000       0.931203        25.3393
  81   0.0000       0.939091        25.5540

MULLIKEN ATOMIC CHARGES
-----------------------
   0 C :   -0.291595
   1 C :    0.028432
   2 O :   -0.380157
   3 C :    0.504697
   4 O :   -0.521616
   5 C :   -0.237708
   6 C :    0.180961
   7 C :   -0.271195
   8 N :   -0.140512
   9 C :    0.309208
  10 S :   -0.632666
  11 N :   -0.240778
  12 C :    0.096279
  13 C :   -0.045904
  14 C :   -0.180900
  15 C :   -0.138014
  16 C :   -0.294663
  17 C :    0.254894
  18 O :   -0.422140
  19 C :   -0.250501
  20 H :    0.096953
  21 H :    0.118876
  22 H :    0.095853
  23 H :    0.097564
  24 H :    0.136191
  25 H :    0.134306
  26 H :    0.126386
  27 H :    0.131975
  28 H :    0.256680
  29 H :    0.257993
  30 H :    0.178548
  31 H :    0.173531
  32 H :    0.193267
  33 H :    0.176039
  34 H :    0.320881
  35 H :    0.178835
Sum of atomic charges:    0.0000000

LOEWDIN ATOMIC CHARGES
----------------------
   0 C :    0.095332
   1 C :   -0.020350
   2 O :    0.269074
   3 C :   -0.419992
   4 O :    0.061718
   5 C :   -0.102054
   6 C :   -0.040402
   7 C :    0.141408
   8 N :    0.413298
   9 C :   -0.366359
  10 S :   -0.230077
  11 N :    0.412982
  12 C :   -0.004812
  13 C :   -0.030185
  14 C :    0.010214
  15 C :    0.019809
  16 C :    0.011536
  17 C :   -0.212802
  18 O :    0.366523
  19 C :    0.008375
  20 H :   -0.028188
  21 H :   -0.014383
  22 H :   -0.027275
  23 H :   -0.023845
  24 H :   -0.014680
  25 H :   -0.006161
  26 H :   -0.006439
  27 H :   -0.004267
  28 H :   -0.025595
  29 H :   -0.035158
  30 H :   -0.004898
  31 H :   -0.021090
  32 H :   -0.008296
  33 H :   -0.024410
  34 H :   -0.112957
  35 H :   -0.025595

  Mayer bond orders larger than 0.100000
B(  0-C ,  1-C ) :   0.9679 B(  0-C , 20-H ) :   0.9786 B(  0-C , 21-H ) :   0.9723
B(  0-C , 22-H ) :   0.9722 B(  1-C ,  2-O ) :   0.8826 B(  1-C , 23-H ) :   0.9738
B(  1-C , 24-H ) :   0.9788 B(  2-O ,  3-C ) :   1.1631 B(  3-C ,  4-O ) :   1.9429
B(  3-C ,  5-C ) :   1.0893 B(  5-C ,  6-C ) :   1.5842 B(  5-C , 12-C ) :   0.9582
B(  6-C ,  7-C ) :   0.9577 B(  6-C ,  8-N ) :   1.1757 B(  7-C , 25-H ) :   0.9656
B(  7-C , 26-H ) :   0.9801 B(  7-C , 27-H ) :   0.9582 B(  8-N ,  9-C ) :   1.2165
B(  8-N , 28-H ) :   0.9226 B(  9-C , 10-S ) :   1.3331 B(  9-C , 11-N ) :   1.4253
B( 11-N , 12-C ) :   0.9409 B( 11-N , 29-H ) :   0.9187 B( 12-C , 13-C ) :   0.9592
B( 12-C , 30-H ) :   0.9862 B( 13-C , 14-C ) :   1.3472 B( 13-C , 19-C ) :   1.3690
B( 14-C , 15-C ) :   1.4053 B( 14-C , 31-H ) :   0.9629 B( 15-C , 16-C ) :   1.3306
B( 15-C , 32-H ) :   0.9591 B( 16-C , 17-C ) :   1.3470 B( 16-C , 33-H ) :   0.9695
B( 17-C , 18-O ) :   1.1361 B( 17-C , 19-C ) :   1.3605 B( 18-O , 34-H ) :   0.9090
B( 19-C , 35-H ) :   0.9465

MP2 TOTAL ENERGY:    -1274.402283274 Eh
FINAL SINGLE POINT ENERGY     -1274.402283274043

DIPOLE MOMENT
-------------
                                X             Y             Z
Electronic contribution:     -5.46714     -16.49285      -2.54954
Nuclear contribution   :      6.18398      18.75208       2.96780
                        -----------------------------------------
Total Dipole Moment    :      0.71685       2.25923       0.41826
                        -----------------------------------------
Magnitude (a.u.)       :      2.40685
Magnitude (Debye)      :      6.11772

Rotational constants in cm-1:     0.009611     0.009112     0.005307
Rotational constants in MHz :   288.141819   273.168767   159.109576

                             ****ORCA TERMINATED NORMALLY****
TOTAL RUN TIME: 0 days 1 hours 35 minutes 1 seconds 612 msec
