                         Program Version 5.0.0 -  RELEASE  -
|  1> ! RI-MP2 cc-pVTZ cc-pVTZ/c TightSCF KeepDens NoKeepInts
|  2>
|  3> *xyz  0  1
|  4>     C    -9.4279564  -10.3369168    6.7846366
|  5>     C   -10.8834331  -10.4877623    6.3784985
|  6>     O   -11.2981897  -11.8282492    6.0078743
|  7>     C   -11.2046405  -12.9561161    6.8107670
|  8>     O   -10.6191586  -12.8703794    7.8590177
|  9>     C   -11.9278325  -14.1303754    6.2309457
| 10>     C   -12.9378189  -14.0775784    5.2770052
| 11>     C   -13.6545144  -12.8959314    4.6467346
| 12>     N   -13.5587393  -15.2450771    4.8850260
| 13>     C   -13.1454514  -16.5298158    5.2008046
| 14>     S   -14.0113341  -17.8674542    4.5398928
| 15>     N   -12.1786650  -16.6366505    6.1512701
| 16>     C   -11.4555713  -15.4933444    6.8464085
| 17>     C    -9.9491658  -15.7857407    6.8155029
| 18>     C    -9.1541439  -15.5578459    7.9844249
| 19>     C    -7.8808308  -16.0351455    8.0602849
| 20>     C    -7.3261903  -16.7819555    7.0066059
| 21>     C    -8.0364793  -16.9397956    5.7867028
| 22>     O    -7.4237962  -17.3470041    4.6408120
| 23>     C    -9.3276549  -16.4473882    5.7108162
| 24>     H    -9.1688746  -10.5400568    7.8309652
| 25>     H    -9.0778288   -9.2997218    6.7151579
| 26>     H    -8.7652167  -10.8860114    6.1045919
| 27>     H   -11.4430825  -10.1119696    7.2438106
| 28>     H   -11.2052875   -9.8312917    5.5607908
| 29>     H   -13.7164238  -11.9906679    5.2630541
| 30>     H   -14.7064399  -13.1234409    4.4348811
| 31>     H   -13.0507625  -12.6546863    3.7632870
| 32>     H   -14.4230742  -15.1339831    4.3687344
| 33>     H   -11.9316325  -17.5388757    6.5397685
| 34>     H   -11.7688104  -15.5988751    7.8923216
| 35>     H    -9.6709240  -15.1310116    8.8389112
| 36>     H    -7.3675824  -15.8759774    9.0040240
| 37>     H    -6.3094591  -17.1612721    7.0487272
| 38>     H    -6.5159927  -17.6929752    4.6949034
| 39>     H    -9.9222909  -16.6604456    4.8274035
| 40> *
| 41>
| 42>                          ****END OF INPUT****

CARTESIAN COORDINATES (ANGSTROEM)
---------------------------------
  C     -9.427956  -10.336917    6.784637
  C    -10.883433  -10.487762    6.378499
  O    -11.298190  -11.828249    6.007874
  C    -11.204641  -12.956116    6.810767
  O    -10.619159  -12.870379    7.859018
  C    -11.927832  -14.130375    6.230946
  C    -12.937819  -14.077578    5.277005
  C    -13.654514  -12.895931    4.646735
  N    -13.558739  -15.245077    4.885026
  C    -13.145451  -16.529816    5.200805
  S    -14.011334  -17.867454    4.539893
  N    -12.178665  -16.636650    6.151270
  C    -11.455571  -15.493344    6.846408
  C     -9.949166  -15.785741    6.815503
  C     -9.154144  -15.557846    7.984425
  C     -7.880831  -16.035145    8.060285
  C     -7.326190  -16.781955    7.006606
  C     -8.036479  -16.939796    5.786703
  O     -7.423796  -17.347004    4.640812
  C     -9.327655  -16.447388    5.710816
  H     -9.168875  -10.540057    7.830965
  H     -9.077829   -9.299722    6.715158
  H     -8.765217  -10.886011    6.104592
  H    -11.443082  -10.111970    7.243811
  H    -11.205288   -9.831292    5.560791
  H    -13.716424  -11.990668    5.263054
  H    -14.706440  -13.123441    4.434881
  H    -13.050762  -12.654686    3.763287
  H    -14.423074  -15.133983    4.368734
  H    -11.931632  -17.538876    6.539769
  H    -11.768810  -15.598875    7.892322
  H     -9.670924  -15.131012    8.838911
  H     -7.367582  -15.875977    9.004024
  H     -6.309459  -17.161272    7.048727
  H     -6.515993  -17.692975    4.694903
  H     -9.922291  -16.660446    4.827403

 Total Charge           Charge          ....    0
 Multiplicity           Mult            ....    1
 Number of Electrons    NEL             ....  154
 Basis Dimension        Dim             ....  828

ORBITAL ENERGIES
----------------

  NO   OCC          E(Eh)            E(eV)
   0   2.0000     -91.891013     -2500.4816
   1   2.0000     -20.589285      -560.2629
   2   2.0000     -20.588223      -560.2340
   3   2.0000     -20.543812      -559.0255
   4   2.0000     -15.632303      -425.3766
   5   2.0000     -15.617977      -424.9868
   6   2.0000     -11.395449      -310.0859
   7   2.0000     -11.392923      -310.0172
   8   2.0000     -11.347431      -308.7793
   9   2.0000     -11.320405      -308.0439
  10   2.0000     -11.310616      -307.7775
  11   2.0000     -11.298770      -307.4551
  12   2.0000     -11.269694      -306.6640
  13   2.0000     -11.265345      -306.5456
  14   2.0000     -11.261362      -306.4373
  15   2.0000     -11.241549      -305.8981
  16   2.0000     -11.240139      -305.8597
  17   2.0000     -11.236215      -305.7529
  18   2.0000     -11.229047      -305.5579
  19   2.0000     -11.220624      -305.3287
  20   2.0000      -8.893533      -242.0053
  21   2.0000      -6.574852      -178.9108
  22   2.0000      -6.573022      -178.8610
  23   2.0000      -6.572481      -178.8463
  24   2.0000      -1.444694       -39.3121
  25   2.0000      -1.401624       -38.1401
  26   2.0000      -1.349766       -36.7290
  27   2.0000      -1.339976       -36.4626
  28   2.0000      -1.240960       -33.7682
  29   2.0000      -1.150631       -31.3103
  30   2.0000      -1.111793       -30.2534
  31   2.0000      -1.038118       -28.2486
  32   2.0000      -1.034071       -28.1385
  33   2.0000      -1.018304       -27.7095
  34   2.0000      -0.999742       -27.2044
  35   2.0000      -0.968941       -26.3662
  36   2.0000      -0.920935       -25.0599
  37   2.0000      -0.890431       -24.2299
  38   2.0000      -0.849940       -23.1281
  39   2.0000      -0.837693       -22.7948
  40   2.0000      -0.826522       -22.4908
  41   2.0000      -0.816966       -22.2308
  42   2.0000      -0.745482       -20.2856
  43   2.0000      -0.734456       -19.9856
  44   2.0000      -0.728725       -19.8296
  45   2.0000      -0.685598       -18.6561
  46   2.0000      -0.684655       -18.6304
  47   2.0000      -0.680705       -18.5229
  48   2.0000      -0.667769       -18.1709
  49   2.0000      -0.653363       -17.7789
  50   2.0000      -0.648042       -17.6341
  51   2.0000      -0.641464       -17.4551
  52   2.0000      -0.635039       -17.2803
  53   2.0000      -0.609442       -16.5837
  54   2.0000      -0.603461       -16.4210
  55   2.0000      -0.597726       -16.2650
  56   2.0000      -0.590889       -16.0789
  57   2.0000      -0.580088       -15.7850
  58   2.0000      -0.573138       -15.5959
  59   2.0000      -0.562924       -15.3179
  60   2.0000      -0.558884       -15.2080
  61   2.0000      -0.546854       -14.8807
  62   2.0000      -0.530584       -14.4379
  63   2.0000      -0.521695       -14.1960
  64   2.0000      -0.510073       -13.8798
  65   2.0000      -0.505836       -13.7645
  66   2.0000      -0.497431       -13.5358
  67   2.0000      -0.485025       -13.1982
  68   2.0000      -0.479904       -13.0588
  69   2.0000      -0.468628       -12.7520
  70   2.0000      -0.451263       -12.2795
  71   2.0000      -0.442964       -12.0537
  72   2.0000      -0.352284        -9.5861
  73   2.0000      -0.340806        -9.2738
  74   2.0000      -0.323301        -8.7975
  75   2.0000      -0.315544        -8.5864
  76   2.0000      -0.312074        -8.4920
  77   0.0000       0.072921         1.9843
  78   0.0000       0.108014         2.9392
  79   0.0000       0.120965         3.2916
  80   0.0000       0.132349         3.6014
  81   0.0000       0.141902         3.8614

MULLIKEN ATOMIC CHARGES
-----------------------
   0 C :   -0.297247
   1 C :    0.049166
   2 O :   -0.373081
   3 C :    0.469850
   4 O :   -0.417990
   5 C :   -0.209809
   6 C :    0.158045
   7 C :   -0.276280
   8 N :   -0.125968
   9 C :    0.219246
  10 S :   -0.459475
  11 N :   -0.230243
  12 C :    0.080954
  13 C :   -0.033726
  14 C :   -0.141525
  15 C :   -0.132449
  16 C :   -0.254300
  17 C :    0.286356
  18 O :   -0.361536
  19 C :   -0.236136
  20 H :    0.122992
  21 H :    0.094051
  22 H :    0.097468
  23 H :    0.078768
  24 H :    0.108411
  25 H :    0.124497
  26 H :    0.102581
  27 H :    0.133084
  28 H :    0.200044
  29 H :    0.209540
  30 H :    0.152898
  31 H :    0.155758
  32 H :    0.159142
  33 H :    0.132415
  34 H :    0.243791
  35 H :    0.170709
Sum of atomic charges:    0.0000000

LOEWDIN ATOMIC CHARGES
----------------------
   0 C :    0.096475
   1 C :   -0.024500
   2 O :    0.270822
   3 C :   -0.431175
   4 O :    0.129160
   5 C :   -0.094523
   6 C :   -0.060774
   7 C :    0.131574
   8 N :    0.398288
   9 C :   -0.393733
  10 S :   -0.116487
  11 N :    0.396292
  12 C :   -0.010049
  13 C :   -0.026047
  14 C :    0.021082
  15 C :    0.020651
  16 C :    0.013378
  17 C :   -0.192043
  18 O :    0.389939
  19 C :    0.023423
  20 H :   -0.020409
  21 H :   -0.024593
  22 H :   -0.025535
  23 H :   -0.030597
  24 H :   -0.023562
  25 H :   -0.010434
  26 H :   -0.018421
  27 H :   -0.005984
  28 H :   -0.052223
  29 H :   -0.059255
  30 H :   -0.013261
  31 H :   -0.023400
  32 H :   -0.018210
  33 H :   -0.037422
  34 H :   -0.151716
  35 H :   -0.026730

  Mayer bond orders larger than 0.100000
B(  0-C ,  1-C ) :   0.9751 B(  0-C , 20-H ) :   0.9733 B(  0-C , 21-H ) :   0.9740
B(  0-C , 22-H ) :   0.9756 B(  1-C ,  2-O ) :   0.9075 B(  1-C , 23-H ) :   0.9767
B(  1-C , 24-H ) :   0.9827 B(  2-O ,  3-C ) :   1.1333 B(  3-C ,  4-O ) :   2.0009
B(  3-C ,  5-C ) :   1.0483 B(  5-C ,  6-C ) :   1.6189 B(  5-C , 12-C ) :   0.9585
B(  6-C ,  7-C ) :   0.9562 B(  6-C ,  8-N ) :   1.1626 B(  7-C , 25-H ) :   0.9682
B(  7-C , 26-H ) :   0.9863 B(  7-C , 27-H ) :   0.9613 B(  8-N ,  9-C ) :   1.1678
B(  8-N , 28-H ) :   0.9469 B(  9-C , 10-S ) :   1.5131 B(  9-C , 11-N ) :   1.3610
B( 11-N , 12-C ) :   0.9425 B( 11-N , 29-H ) :   0.9437 B( 12-C , 13-C ) :   0.9757
B( 12-C , 30-H ) :   0.9896 B( 13-C , 14-C ) :   1.3583 B( 13-C , 19-C ) :   1.3673
B( 14-C , 15-C ) :   1.4169 B( 14-C , 31-H ) :   0.9676 B( 15-C , 16-C ) :   1.3445
B( 15-C , 32-H ) :   0.9708 B( 16-C , 17-C ) :   1.3524 B( 16-C , 33-H ) :   0.9806
B( 17-C , 18-O ) :   1.1103 B( 17-C , 19-C ) :   1.3611 B( 18-O , 34-H ) :   0.9737
B( 19-C , 35-H ) :   0.9534

MP2 TOTAL ENERGY:    -1274.302281344 Eh
FINAL SINGLE POINT ENERGY     -1274.302281343769

DIPOLE MOMENT
-------------
                                X             Y             Z
Electronic contribution:     -5.44931     -16.97686      -2.60531
Nuclear contribution   :      6.18398      18.75208       2.96780
                        -----------------------------------------
Total Dipole Moment    :      0.73467       1.77521       0.36249
                        -----------------------------------------
Magnitude (a.u.)       :      1.95513
Magnitude (Debye)      :      4.96954

Rotational constants in cm-1:     0.009611     0.009112     0.005307
Rotational constants in MHz :   288.141819   273.168767   159.109576

                             ****ORCA TERMINATED NORMALLY****
TOTAL RUN TIME: 0 days 2 hours 0 minutes 52 seconds 843 msec
