                         Program Version 5.0.0 -  RELEASE  -
|  1> ! ri-mp2 cc-pvtz cc-pvtz/c TightSCF NoKeepInts
|  2>
|  3> %scf
|  4>   MaxCore 4096
|  5> end
|  6> *xyz  0  1
|  7>     C       15.2571403   14.2646863   16.9910556
|  8>     C       15.5278782   14.9640235   15.6377349
|  9>     O       16.4799452   16.0430627   15.7676772
| 10>     C       17.6124810   15.9105357   16.5187334
| 11>     O       18.2213366   14.8560433   16.5954165
| 12>     C       17.8648644   17.0562573   17.4535197
| 13>     C       17.3994783   18.3196062   17.2762029
| 14>     C       16.5866852   18.8560707   16.1160623
| 15>     N       17.7241283   19.3152616   18.2032256
| 16>     C       18.5956878   19.1599273   19.2487872
| 17>     S       19.0034158   20.4214561   20.2376763
| 18>     N       19.1119249   17.9024306   19.4341429
| 19>     C       18.6961798   16.6990989   18.6894235
| 20>     C       17.9233489   15.7457753   19.5971298
| 21>     C       18.3376827   14.4094049   19.7462551
| 22>     C       17.6164633   13.5226317   20.5630791
| 23>     C       16.4693318   13.9747847   21.2370152
| 24>     C       16.0512745   15.3040985   21.0884828
| 25>     O       14.9385554   15.7413326   21.7301608
| 26>     C       16.7712290   16.1844266   20.2749224
| 27>     H       16.1138026   13.6634181   17.3195169
| 28>     H       14.3989134   13.5881103   16.9015499
| 29>     H       15.0285177   14.9997774   17.7730199
| 30>     H       15.9130771   14.2199998   14.9277793
| 31>     H       14.5879508   15.3598717   15.2324386
| 32>     H       15.5523183   18.4941940   16.1684296
| 33>     H       17.0104845   18.5292303   15.1582179
| 34>     H       16.5547904   19.9521465   16.0942012
| 35>     H       17.3556661   20.2454815   18.0851054
| 36>     H       19.7273982   17.8077617   20.2317479
| 37>     H       19.6069063   16.1880066   18.3449663
| 38>     H       19.2123608   14.0517301   19.2083929
| 39>     H       17.9440130   12.4895114   20.6643761
| 40>     H       15.9077733   13.2923989   21.8662692
| 41>     H       14.6132100   15.0101881   22.2765315
| 42>     H       16.4307858   17.2092592   20.1747541
| 43> *
| 44>
| 45>                          ****END OF INPUT****

CARTESIAN COORDINATES (ANGSTROEM)
---------------------------------
  C     15.257140   14.264686   16.991056
  C     15.527878   14.964023   15.637735
  O     16.479945   16.043063   15.767677
  C     17.612481   15.910536   16.518733
  O     18.221337   14.856043   16.595416
  C     17.864864   17.056257   17.453520
  C     17.399478   18.319606   17.276203
  C     16.586685   18.856071   16.116062
  N     17.724128   19.315262   18.203226
  C     18.595688   19.159927   19.248787
  S     19.003416   20.421456   20.237676
  N     19.111925   17.902431   19.434143
  C     18.696180   16.699099   18.689424
  C     17.923349   15.745775   19.597130
  C     18.337683   14.409405   19.746255
  C     17.616463   13.522632   20.563079
  C     16.469332   13.974785   21.237015
  C     16.051275   15.304099   21.088483
  O     14.938555   15.741333   21.730161
  C     16.771229   16.184427   20.274922
  H     16.113803   13.663418   17.319517
  H     14.398913   13.588110   16.901550
  H     15.028518   14.999777   17.773020
  H     15.913077   14.220000   14.927779
  H     14.587951   15.359872   15.232439
  H     15.552318   18.494194   16.168430
  H     17.010485   18.529230   15.158218
  H     16.554790   19.952146   16.094201
  H     17.355666   20.245482   18.085105
  H     19.727398   17.807762   20.231748
  H     19.606906   16.188007   18.344966
  H     19.212361   14.051730   19.208393
  H     17.944013   12.489511   20.664376
  H     15.907773   13.292399   21.866269
  H     14.613210   15.010188   22.276531
  H     16.430786   17.209259   20.174754

 Total Charge           Charge          ....    0
 Multiplicity           Mult            ....    1
 Number of Electrons    NEL             ....  154
 Basis Dimension        Dim             ....  828

ORBITAL ENERGIES
----------------

  NO   OCC          E(Eh)            E(eV)
   0   2.0000     -91.888414     -2500.4109
   1   2.0000     -20.594441      -560.4032
   2   2.0000     -20.593468      -560.3768
   3   2.0000     -20.548117      -559.1427
   4   2.0000     -15.628320      -425.2682
   5   2.0000     -15.607579      -424.7038
   6   2.0000     -11.395646      -310.0913
   7   2.0000     -11.383623      -309.7641
   8   2.0000     -11.335109      -308.4440
   9   2.0000     -11.310371      -307.7708
  10   2.0000     -11.306901      -307.6764
  11   2.0000     -11.302523      -307.5573
  12   2.0000     -11.259796      -306.3946
  13   2.0000     -11.258802      -306.3676
  14   2.0000     -11.255826      -306.2866
  15   2.0000     -11.250565      -306.1434
  16   2.0000     -11.240224      -305.8620
  17   2.0000     -11.236014      -305.7475
  18   2.0000     -11.233166      -305.6700
  19   2.0000     -11.223883      -305.4174
  20   2.0000      -8.893482      -242.0039
  21   2.0000      -6.575060      -178.9165
  22   2.0000      -6.573051      -178.8618
  23   2.0000      -6.572467      -178.8459
  24   2.0000      -1.449468       -39.4420
  25   2.0000      -1.414220       -38.4829
  26   2.0000      -1.355451       -36.8837
  27   2.0000      -1.339384       -36.4465
  28   2.0000      -1.237426       -33.6721
  29   2.0000      -1.154777       -31.4231
  30   2.0000      -1.120394       -30.4875
  31   2.0000      -1.042912       -28.3791
  32   2.0000      -1.031486       -28.0682
  33   2.0000      -1.012110       -27.5409
  34   2.0000      -0.998488       -27.1702
  35   2.0000      -0.984042       -26.7771
  36   2.0000      -0.922771       -25.1099
  37   2.0000      -0.895560       -24.3694
  38   2.0000      -0.848077       -23.0774
  39   2.0000      -0.836949       -22.7746
  40   2.0000      -0.830648       -22.6031
  41   2.0000      -0.816332       -22.2135
  42   2.0000      -0.746156       -20.3039
  43   2.0000      -0.733515       -19.9600
  44   2.0000      -0.726675       -19.7738
  45   2.0000      -0.692457       -18.8427
  46   2.0000      -0.685602       -18.6562
  47   2.0000      -0.677118       -18.4253
  48   2.0000      -0.671970       -18.2852
  49   2.0000      -0.657713       -17.8973
  50   2.0000      -0.653874       -17.7928
  51   2.0000      -0.645098       -17.5540
  52   2.0000      -0.633242       -17.2314
  53   2.0000      -0.618291       -16.8245
  54   2.0000      -0.602604       -16.3977
  55   2.0000      -0.601394       -16.3648
  56   2.0000      -0.598042       -16.2736
  57   2.0000      -0.578043       -15.7293
  58   2.0000      -0.575274       -15.6540
  59   2.0000      -0.563869       -15.3437
  60   2.0000      -0.553720       -15.0675
  61   2.0000      -0.545623       -14.8471
  62   2.0000      -0.535570       -14.5736
  63   2.0000      -0.527507       -14.3542
  64   2.0000      -0.518888       -14.1197
  65   2.0000      -0.509837       -13.8734
  66   2.0000      -0.499539       -13.5931
  67   2.0000      -0.495420       -13.4811
  68   2.0000      -0.480349       -13.0710
  69   2.0000      -0.464303       -12.6343
  70   2.0000      -0.457677       -12.4540
  71   2.0000      -0.449629       -12.2350
  72   2.0000      -0.353876        -9.6295
  73   2.0000      -0.346469        -9.4279
  74   2.0000      -0.327656        -8.9160
  75   2.0000      -0.317607        -8.6425
  76   2.0000      -0.315283        -8.5793
  77   0.0000       0.074424         2.0252
  78   0.0000       0.108580         2.9546
  79   0.0000       0.120661         3.2833
  80   0.0000       0.133183         3.6241
  81   0.0000       0.142055         3.8655

MULLIKEN ATOMIC CHARGES
-----------------------
   0 C :   -0.326777
   1 C :    0.052626
   2 O :   -0.370231
   3 C :    0.453588
   4 O :   -0.421689
   5 C :   -0.182643
   6 C :    0.144417
   7 C :   -0.281819
   8 N :   -0.123332
   9 C :    0.204106
  10 S :   -0.439767
  11 N :   -0.201458
  12 C :    0.051561
  13 C :    0.053794
  14 C :   -0.167569
  15 C :   -0.134011
  16 C :   -0.278116
  17 C :    0.317328
  18 O :   -0.360660
  19 C :   -0.285466
  20 H :    0.130244
  21 H :    0.104180
  22 H :    0.101244
  23 H :    0.101530
  24 H :    0.103950
  25 H :    0.124518
  26 H :    0.127323
  27 H :    0.102344
  28 H :    0.196947
  29 H :    0.194419
  30 H :    0.153681
  31 H :    0.156338
  32 H :    0.161278
  33 H :    0.129916
  34 H :    0.240529
  35 H :    0.167677
Sum of atomic charges:    0.0000000

LOEWDIN ATOMIC CHARGES
----------------------
   0 C :    0.105582
   1 C :   -0.013102
   2 O :    0.293114
   3 C :   -0.415505
   4 O :    0.112804
   5 C :   -0.092473
   6 C :   -0.068961
   7 C :    0.125633
   8 N :    0.404539
   9 C :   -0.457857
  10 S :   -0.036292
  11 N :    0.397622
  12 C :   -0.045857
  13 C :   -0.039938
  14 C :    0.022408
  15 C :    0.041141
  16 C :   -0.002136
  17 C :   -0.193309
  18 O :    0.393518
  19 C :    0.028961
  20 H :   -0.024027
  21 H :   -0.026290
  22 H :   -0.028231
  23 H :   -0.028722
  24 H :   -0.025528
  25 H :   -0.010097
  26 H :   -0.007542
  27 H :   -0.020678
  28 H :   -0.058938
  29 H :   -0.063837
  30 H :   -0.005069
  31 H :   -0.024999
  32 H :   -0.020807
  33 H :   -0.035939
  34 H :   -0.154369
  35 H :   -0.024819

  Mayer bond orders larger than 0.100000
B(  0-C ,  1-C ) :   0.9588 B(  0-C , 20-H ) :   0.9695 B(  0-C , 21-H ) :   0.9766
B(  0-C , 22-H ) :   0.9713 B(  1-C ,  2-O ) :   0.8985 B(  1-C , 23-H ) :   0.9842
B(  1-C , 24-H ) :   0.9831 B(  2-O ,  3-C ) :   1.1148 B(  3-C ,  4-O ) :   2.0016
B(  3-C ,  5-C ) :   1.0410 B(  5-C ,  6-C ) :   1.6556 B(  5-C , 12-C ) :   0.9638
B(  6-C ,  7-C ) :   0.9534 B(  6-C ,  8-N ) :   1.1464 B(  7-C , 25-H ) :   0.9637
B(  7-C , 26-H ) :   0.9671 B(  7-C , 27-H ) :   0.9901 B(  8-N ,  9-C ) :   1.1818
B(  8-N , 28-H ) :   0.9491 B(  9-C , 10-S ) :   1.6101 B(  9-C , 11-N ) :   1.3027
B( 11-N , 12-C ) :   0.9922 B( 11-N , 29-H ) :   0.9516 B( 12-C , 13-C ) :   0.9441
B( 12-C , 30-H ) :   0.9994 B( 13-C , 14-C ) :   1.3758 B( 13-C , 19-C ) :   1.3641
B( 14-C , 15-C ) :   1.3924 B( 14-C , 31-H ) :   0.9640 B( 15-C , 16-C ) :   1.3623
B( 15-C , 32-H ) :   0.9708 B( 16-C , 17-C ) :   1.3320 B( 16-C , 33-H ) :   0.9850
B( 17-C , 18-O ) :   1.1075 B( 17-C , 19-C ) :   1.3720 B( 18-O , 34-H ) :   0.9802
B( 19-C , 35-H ) :   0.9588

MP2 TOTAL ENERGY:    -1274.339837706 Eh
FINAL SINGLE POINT ENERGY     -1274.339837705882

DIPOLE MOMENT
-------------
                                X             Y             Z
Electronic contribution:      9.84238       9.80412       7.19916
Nuclear contribution   :    -11.31938     -11.07686      -8.06250
                        -----------------------------------------
Total Dipole Moment    :     -1.47700      -1.27274      -0.86334
                        -----------------------------------------
Magnitude (a.u.)       :      2.13231
Magnitude (Debye)      :      5.41991

Rotational constants in cm-1:     0.011790     0.009258     0.006470
Rotational constants in MHz :   353.449317   277.549848   193.967104

                             ****ORCA TERMINATED NORMALLY****
TOTAL RUN TIME: 0 days 1 hours 57 minutes 39 seconds 976 msec
