                         Program Version 5.0.0 -  RELEASE  -
|  1> ! ri-mp2 cc-pvtz cc-pvtz/c TightSCF NoKeepInts
|  2>
|  3> %scf
|  4>   MaxCore 4096
|  5> end
|  6> *xyz  0  1
|  7>     C       16.0670428   13.5132655   15.2045744
|  8>     C       15.4236603   14.4342046   16.2547910
|  9>     O       16.4554244   15.3110712   16.7429213
| 10>     C       16.2626112   16.6648099   16.7827261
| 11>     O       15.3254402   17.2125629   16.2274090
| 12>     C       17.2925227   17.3700733   17.6218516
| 13>     C       17.3335142   18.7214696   17.7420462
| 14>     C       16.4041407   19.7279611   17.0980523
| 15>     N       18.3387733   19.3276969   18.5015363
| 16>     C       19.3921515   18.6683015   19.0765937
| 17>     S       20.5953906   19.4722123   19.8777480
| 18>     N       19.4006741   17.3024865   18.9520266
| 19>     C       18.3123270   16.4957133   18.3700887
| 20>     C       17.6500534   15.6584792   19.4608349
| 21>     C       17.7474354   14.2543429   19.4409771
| 22>     C       17.1365598   13.4808863   20.4423575
| 23>     C       16.4246815   14.1162503   21.4741081
| 24>     C       16.3288975   15.5144124   21.4991384
| 25>     O       15.6428556   16.1307838   22.4943660
| 26>     C       16.9374476   16.2814168   20.5008920
| 27>     H       15.3279080   12.8058823   14.8093354
| 28>     H       16.8916065   12.9394206   15.6452312
| 29>     H       16.4612558   14.1012535   14.3662513
| 30>     H       14.5948946   14.9843445   15.7892929
| 31>     H       15.0176827   13.8395181   17.0833978
| 32>     H       15.3711907   19.5660465   17.4319572
| 33>     H       16.4152986   19.6205545   16.0059551
| 34>     H       16.6681846   20.7662305   17.3305594
| 35>     H       18.3493963   20.3300720   18.6023915
| 36>     H       20.1701238   16.8409284   19.4197236
| 37>     H       18.7686126   15.8146210   17.6380156
| 38>     H       18.2922007   13.7605110   18.6407949
| 39>     H       17.2156969   12.3955008   20.4169176
| 40>     H       15.9515000   13.5234316   22.2499374
| 41>     H       15.3225480   15.4429469   23.0968818
| 42>     H       16.8572965   17.3623377   20.5423182
| 43> *
| 44>
| 45>                          ****END OF INPUT****

CARTESIAN COORDINATES (ANGSTROEM)
---------------------------------
  C     16.067043   13.513265   15.204574
  C     15.423660   14.434205   16.254791
  O     16.455424   15.311071   16.742921
  C     16.262611   16.664810   16.782726
  O     15.325440   17.212563   16.227409
  C     17.292523   17.370073   17.621852
  C     17.333514   18.721470   17.742046
  C     16.404141   19.727961   17.098052
  N     18.338773   19.327697   18.501536
  C     19.392151   18.668301   19.076594
  S     20.595391   19.472212   19.877748
  N     19.400674   17.302487   18.952027
  C     18.312327   16.495713   18.370089
  C     17.650053   15.658479   19.460835
  C     17.747435   14.254343   19.440977
  C     17.136560   13.480886   20.442357
  C     16.424681   14.116250   21.474108
  C     16.328898   15.514412   21.499138
  O     15.642856   16.130784   22.494366
  C     16.937448   16.281417   20.500892
  H     15.327908   12.805882   14.809335
  H     16.891607   12.939421   15.645231
  H     16.461256   14.101254   14.366251
  H     14.594895   14.984345   15.789293
  H     15.017683   13.839518   17.083398
  H     15.371191   19.566046   17.431957
  H     16.415299   19.620555   16.005955
  H     16.668185   20.766230   17.330559
  H     18.349396   20.330072   18.602391
  H     20.170124   16.840928   19.419724
  H     18.768613   15.814621   17.638016
  H     18.292201   13.760511   18.640795
  H     17.215697   12.395501   20.416918
  H     15.951500   13.523432   22.249937
  H     15.322548   15.442947   23.096882
  H     16.857297   17.362338   20.542318

 Total Charge           Charge          ....    0
 Multiplicity           Mult            ....    1
 Number of Electrons    NEL             ....  154
 Basis Dimension        Dim             ....  828

ORBITAL ENERGIES
----------------

  NO   OCC          E(Eh)            E(eV)
   0   2.0000     -91.888697     -2500.4186
   1   2.0000     -20.601916      -560.6066
   2   2.0000     -20.595689      -560.4372
   3   2.0000     -20.541346      -558.9584
   4   2.0000     -15.628863      -425.2830
   5   2.0000     -15.608003      -424.7153
   6   2.0000     -11.395481      -310.0868
   7   2.0000     -11.383773      -309.7682
   8   2.0000     -11.335767      -308.4619
   9   2.0000     -11.312811      -307.8372
  10   2.0000     -11.308602      -307.7227
  11   2.0000     -11.295297      -307.3607
  12   2.0000     -11.258837      -306.3685
  13   2.0000     -11.258704      -306.3649
  14   2.0000     -11.254356      -306.2466
  15   2.0000     -11.251737      -306.1753
  16   2.0000     -11.242221      -305.9164
  17   2.0000     -11.237687      -305.7930
  18   2.0000     -11.237507      -305.7881
  19   2.0000     -11.229929      -305.5819
  20   2.0000      -8.893758      -242.0115
  21   2.0000      -6.575332      -178.9239
  22   2.0000      -6.573328      -178.8694
  23   2.0000      -6.572741      -178.8534
  24   2.0000      -1.450875       -39.4803
  25   2.0000      -1.415344       -38.5135
  26   2.0000      -1.355007       -36.8716
  27   2.0000      -1.339812       -36.4581
  28   2.0000      -1.238221       -33.6937
  29   2.0000      -1.156859       -31.4797
  30   2.0000      -1.120055       -30.4782
  31   2.0000      -1.043079       -28.3836
  32   2.0000      -1.039506       -28.2864
  33   2.0000      -1.014245       -27.5990
  34   2.0000      -0.995487       -27.0886
  35   2.0000      -0.984043       -26.7772
  36   2.0000      -0.922088       -25.0913
  37   2.0000      -0.890226       -24.2243
  38   2.0000      -0.846537       -23.0354
  39   2.0000      -0.836945       -22.7744
  40   2.0000      -0.833239       -22.6736
  41   2.0000      -0.817582       -22.2475
  42   2.0000      -0.764253       -20.7964
  43   2.0000      -0.731910       -19.9163
  44   2.0000      -0.722137       -19.6503
  45   2.0000      -0.694779       -18.9059
  46   2.0000      -0.686809       -18.6890
  47   2.0000      -0.680048       -18.5050
  48   2.0000      -0.674029       -18.3413
  49   2.0000      -0.657820       -17.9002
  50   2.0000      -0.645872       -17.5751
  51   2.0000      -0.643902       -17.5215
  52   2.0000      -0.633556       -17.2399
  53   2.0000      -0.606576       -16.5058
  54   2.0000      -0.605636       -16.4802
  55   2.0000      -0.598757       -16.2930
  56   2.0000      -0.597881       -16.2692
  57   2.0000      -0.577592       -15.7171
  58   2.0000      -0.570505       -15.5242
  59   2.0000      -0.567505       -15.4426
  60   2.0000      -0.562855       -15.3161
  61   2.0000      -0.542585       -14.7645
  62   2.0000      -0.539868       -14.6905
  63   2.0000      -0.529331       -14.4038
  64   2.0000      -0.524370       -14.2688
  65   2.0000      -0.513115       -13.9626
  66   2.0000      -0.501229       -13.6391
  67   2.0000      -0.496754       -13.5174
  68   2.0000      -0.485645       -13.2151
  69   2.0000      -0.464367       -12.6361
  70   2.0000      -0.456073       -12.4104
  71   2.0000      -0.448158       -12.1950
  72   2.0000      -0.354158        -9.6371
  73   2.0000      -0.348643        -9.4871
  74   2.0000      -0.327998        -8.9253
  75   2.0000      -0.320551        -8.7226
  76   2.0000      -0.315738        -8.5917
  77   0.0000       0.076540         2.0828
  78   0.0000       0.107263         2.9188
  79   0.0000       0.123613         3.3637
  80   0.0000       0.132234         3.5983
  81   0.0000       0.135811         3.6956

MULLIKEN ATOMIC CHARGES
-----------------------
   0 C :   -0.263246
   1 C :    0.010955
   2 O :   -0.351273
   3 C :    0.476204
   4 O :   -0.434882
   5 C :   -0.227084
   6 C :    0.149355
   7 C :   -0.274235
   8 N :   -0.120477
   9 C :    0.210128
  10 S :   -0.439801
  11 N :   -0.202983
  12 C :    0.048369
  13 C :    0.068220
  14 C :   -0.184343
  15 C :   -0.133475
  16 C :   -0.278588
  17 C :    0.316006
  18 O :   -0.356655
  19 C :   -0.268617
  20 H :    0.090639
  21 H :    0.090281
  22 H :    0.097648
  23 H :    0.128825
  24 H :    0.103385
  25 H :    0.132483
  26 H :    0.130544
  27 H :    0.094816
  28 H :    0.197406
  29 H :    0.194383
  30 H :    0.150832
  31 H :    0.150481
  32 H :    0.159941
  33 H :    0.129543
  34 H :    0.240524
  35 H :    0.164690
Sum of atomic charges:   -0.0000000

LOEWDIN ATOMIC CHARGES
----------------------
   0 C :    0.104581
   1 C :   -0.011716
   2 O :    0.310562
   3 C :   -0.413547
   4 O :    0.095168
   5 C :   -0.094559
   6 C :   -0.058815
   7 C :    0.131460
   8 N :    0.406529
   9 C :   -0.456754
  10 S :   -0.035459
  11 N :    0.396565
  12 C :   -0.052737
  13 C :   -0.038774
  14 C :    0.014070
  15 C :    0.038513
  16 C :   -0.001749
  17 C :   -0.189486
  18 O :    0.395120
  19 C :    0.031678
  20 H :   -0.025611
  21 H :   -0.030455
  22 H :   -0.025796
  23 H :   -0.028003
  24 H :   -0.029693
  25 H :   -0.004423
  26 H :   -0.004076
  27 H :   -0.023485
  28 H :   -0.057592
  29 H :   -0.064552
  30 H :   -0.011229
  31 H :   -0.030680
  32 H :   -0.021615
  33 H :   -0.035707
  34 H :   -0.154043
  35 H :   -0.023690

  Mayer bond orders larger than 0.100000
B(  0-C ,  1-C ) :   0.9730 B(  0-C , 20-H ) :   0.9756 B(  0-C , 21-H ) :   0.9796
B(  0-C , 22-H ) :   0.9786 B(  1-C ,  2-O ) :   0.8816 B(  1-C , 23-H ) :   0.9748
B(  1-C , 24-H ) :   0.9777 B(  2-O ,  3-C ) :   1.1744 B(  3-C ,  4-O ) :   1.9738
B(  3-C ,  5-C ) :   1.0537 B(  5-C ,  6-C ) :   1.6574 B(  5-C , 12-C ) :   0.9719
B(  6-C ,  7-C ) :   0.9673 B(  6-C ,  8-N ) :   1.1648 B(  7-C , 25-H ) :   0.9604
B(  7-C , 26-H ) :   0.9604 B(  7-C , 27-H ) :   0.9903 B(  8-N ,  9-C ) :   1.1827
B(  8-N , 28-H ) :   0.9480 B(  9-C , 10-S ) :   1.6079 B(  9-C , 11-N ) :   1.3045
B( 11-N , 12-C ) :   0.9901 B( 11-N , 29-H ) :   0.9518 B( 12-C , 13-C ) :   0.9352
B( 12-C , 30-H ) :   1.0033 B( 13-C , 14-C ) :   1.3544 B( 13-C , 19-C ) :   1.3831
B( 14-C , 15-C ) :   1.3918 B( 14-C , 31-H ) :   0.9712 B( 15-C , 16-C ) :   1.3633
B( 15-C , 32-H ) :   0.9708 B( 16-C , 17-C ) :   1.3318 B( 16-C , 33-H ) :   0.9853
B( 17-C , 18-O ) :   1.1100 B( 17-C , 19-C ) :   1.3731 B( 18-O , 34-H ) :   0.9800
B( 19-C , 35-H ) :   0.9582

MP2 TOTAL ENERGY:    -1274.349732659 Eh
FINAL SINGLE POINT ENERGY     -1274.349732658848

DIPOLE MOMENT
-------------
                                X             Y             Z
Electronic contribution:      8.88924      10.30726       9.58745
Nuclear contribution   :    -10.08990     -11.91212      -9.96719
                        -----------------------------------------
Total Dipole Moment    :     -1.20067      -1.60486      -0.37974
                        -----------------------------------------
Magnitude (a.u.)       :      2.03995
Magnitude (Debye)      :      5.18513

Rotational constants in cm-1:     0.011113     0.008610     0.006095
Rotational constants in MHz :   333.146057   258.110465   182.735089

                             ****ORCA TERMINATED NORMALLY****
TOTAL RUN TIME: 0 days 2 hours 0 minutes 18 seconds 471 msec
