                         Program Version 5.0.0 -  RELEASE  -
|  1> ! ri-mp2 cc-pvtz cc-pvtz/c TightSCF NoKeepInts
|  2>
|  3> %scf
|  4>   MaxCore 4096
|  5> end
|  6> *xyz  0  1
|  7>     C       15.4778823   13.7236018   16.1342078
|  8>     C       15.2803624   15.1610844   15.6056843
|  9>     O       16.3923998   16.0707692   15.8174042
| 10>     C       17.4710659   15.8564714   16.6335143
| 11>     O       18.0391099   14.7824474   16.7359332
| 12>     C       17.8049464   17.0163860   17.5288954
| 13>     C       17.3959645   18.2988090   17.3388420
| 14>     C       16.5586673   18.8566681   16.2058736
| 15>     N       17.8145809   19.2991119   18.2227871
| 16>     C       18.7393440   19.1303783   19.2190083
| 17>     S       19.2668735   20.3972792   20.1421990
| 18>     N       19.2037135   17.8544196   19.4114510
| 19>     C       18.6738145   16.6536566   18.7388708
| 20>     C       17.8961192   15.7860054   19.7254425
| 21>     C       18.2195442   14.4261054   19.8870807
| 22>     C       17.5010043   13.6202902   20.7860354
| 23>     C       16.4484594   14.1781116   21.5313678
| 24>     C       16.1202862   15.5310858   21.3707544
| 25>     O       15.0996615   16.0709955   22.0835918
| 26>     C       16.8367125   16.3303760   20.4744428
| 27>     H       16.3136168   13.2279961   15.6241661
| 28>     H       14.5765804   13.1259257   15.9531221
| 29>     H       15.6695312   13.7197527   17.2150481
| 30>     H       15.0574729   15.1183990   14.5317863
| 31>     H       14.3950876   15.5812073   16.1002173
| 32>     H       15.5208360   18.5102744   16.2838456
| 33>     H       16.9526372   18.5327389   15.2343488
| 34>     H       16.5404379   19.9532201   16.1932236
| 35>     H       17.4862871   20.2433037   18.0977730
| 36>     H       19.8621244   17.7503670   20.1727548
| 37>     H       19.5330917   16.0732567   18.3725579
| 38>     H       19.0212928   13.9878261   19.2974839
| 39>     H       17.7578691   12.5683161   20.8966544
| 40>     H       15.8898320   13.5589401   22.2252656
| 41>     H       14.7622699   15.3808755   22.6741384
| 42>     H       16.5675207   17.3755479   20.3682276
| 43> *
| 44>
| 45>                          ****END OF INPUT****

CARTESIAN COORDINATES (ANGSTROEM)
---------------------------------
  C     15.477882   13.723602   16.134208
  C     15.280362   15.161084   15.605684
  O     16.392400   16.070769   15.817404
  C     17.471066   15.856471   16.633514
  O     18.039110   14.782447   16.735933
  C     17.804946   17.016386   17.528895
  C     17.395965   18.298809   17.338842
  C     16.558667   18.856668   16.205874
  N     17.814581   19.299112   18.222787
  C     18.739344   19.130378   19.219008
  S     19.266873   20.397279   20.142199
  N     19.203713   17.854420   19.411451
  C     18.673814   16.653657   18.738871
  C     17.896119   15.786005   19.725442
  C     18.219544   14.426105   19.887081
  C     17.501004   13.620290   20.786035
  C     16.448459   14.178112   21.531368
  C     16.120286   15.531086   21.370754
  O     15.099661   16.070995   22.083592
  C     16.836713   16.330376   20.474443
  H     16.313617   13.227996   15.624166
  H     14.576580   13.125926   15.953122
  H     15.669531   13.719753   17.215048
  H     15.057473   15.118399   14.531786
  H     14.395088   15.581207   16.100217
  H     15.520836   18.510274   16.283846
  H     16.952637   18.532739   15.234349
  H     16.540438   19.953220   16.193224
  H     17.486287   20.243304   18.097773
  H     19.862124   17.750367   20.172755
  H     19.533092   16.073257   18.372558
  H     19.021293   13.987826   19.297484
  H     17.757869   12.568316   20.896654
  H     15.889832   13.558940   22.225266
  H     14.762270   15.380876   22.674138
  H     16.567521   17.375548   20.368228

 Total Charge           Charge          ....    0
 Multiplicity           Mult            ....    1
 Number of Electrons    NEL             ....  154
 Basis Dimension        Dim             ....  828

ORBITAL ENERGIES
----------------

  NO   OCC          E(Eh)            E(eV)
   0   2.0000     -91.887861     -2500.3958
   1   2.0000     -20.594186      -560.3963
   2   2.0000     -20.593030      -560.3648
   3   2.0000     -20.546577      -559.1008
   4   2.0000     -15.627882      -425.2563
   5   2.0000     -15.606621      -424.6778
   6   2.0000     -11.397723      -310.1478
   7   2.0000     -11.382736      -309.7400
   8   2.0000     -11.335354      -308.4507
   9   2.0000     -11.308976      -307.7329
  10   2.0000     -11.307386      -307.6896
  11   2.0000     -11.305330      -307.6337
  12   2.0000     -11.259406      -306.3840
  13   2.0000     -11.258453      -306.3581
  14   2.0000     -11.254624      -306.2539
  15   2.0000     -11.249130      -306.1044
  16   2.0000     -11.238795      -305.8232
  17   2.0000     -11.234768      -305.7136
  18   2.0000     -11.231646      -305.6286
  19   2.0000     -11.225193      -305.4530
  20   2.0000      -8.892931      -241.9890
  21   2.0000      -6.574510      -178.9015
  22   2.0000      -6.572502      -178.8469
  23   2.0000      -6.571917      -178.8310
  24   2.0000      -1.444745       -39.3135
  25   2.0000      -1.412782       -38.4438
  26   2.0000      -1.356011       -36.8989
  27   2.0000      -1.338961       -36.4350
  28   2.0000      -1.236748       -33.6536
  29   2.0000      -1.153184       -31.3797
  30   2.0000      -1.118903       -30.4469
  31   2.0000      -1.042197       -28.3596
  32   2.0000      -1.034127       -28.1400
  33   2.0000      -1.010729       -27.5033
  34   2.0000      -0.997553       -27.1448
  35   2.0000      -0.982759       -26.7422
  36   2.0000      -0.921813       -25.0838
  37   2.0000      -0.896117       -24.3846
  38   2.0000      -0.848130       -23.0788
  39   2.0000      -0.836509       -22.7626
  40   2.0000      -0.829221       -22.5642
  41   2.0000      -0.818923       -22.2840
  42   2.0000      -0.742773       -20.2119
  43   2.0000      -0.726331       -19.7645
  44   2.0000      -0.724620       -19.7179
  45   2.0000      -0.690977       -18.8024
  46   2.0000      -0.684089       -18.6150
  47   2.0000      -0.677025       -18.4228
  48   2.0000      -0.674646       -18.3580
  49   2.0000      -0.665157       -18.0999
  50   2.0000      -0.647596       -17.6220
  51   2.0000      -0.644173       -17.5288
  52   2.0000      -0.634643       -17.2695
  53   2.0000      -0.612161       -16.6578
  54   2.0000      -0.601640       -16.3715
  55   2.0000      -0.600302       -16.3350
  56   2.0000      -0.596534       -16.2325
  57   2.0000      -0.574919       -15.6443
  58   2.0000      -0.574480       -15.6324
  59   2.0000      -0.567591       -15.4449
  60   2.0000      -0.556977       -15.1561
  61   2.0000      -0.544183       -14.8080
  62   2.0000      -0.537505       -14.6262
  63   2.0000      -0.526153       -14.3174
  64   2.0000      -0.517455       -14.0807
  65   2.0000      -0.510846       -13.9008
  66   2.0000      -0.499374       -13.5887
  67   2.0000      -0.495042       -13.4708
  68   2.0000      -0.479378       -13.0445
  69   2.0000      -0.462790       -12.5932
  70   2.0000      -0.453929       -12.3520
  71   2.0000      -0.448053       -12.1921
  72   2.0000      -0.353505        -9.6193
  73   2.0000      -0.345174        -9.3927
  74   2.0000      -0.327085        -8.9004
  75   2.0000      -0.316310        -8.6072
  76   2.0000      -0.314498        -8.5579
  77   0.0000       0.075044         2.0420
  78   0.0000       0.110330         3.0022
  79   0.0000       0.121450         3.3048
  80   0.0000       0.134715         3.6658
  81   0.0000       0.139063         3.7841

MULLIKEN ATOMIC CHARGES
-----------------------
   0 C :   -0.294497
   1 C :    0.053281
   2 O :   -0.369503
   3 C :    0.440385
   4 O :   -0.412849
   5 C :   -0.171193
   6 C :    0.145245
   7 C :   -0.283678
   8 N :   -0.122996
   9 C :    0.201286
  10 S :   -0.440089
  11 N :   -0.199976
  12 C :    0.045306
  13 C :    0.052009
  14 C :   -0.168323
  15 C :   -0.134721
  16 C :   -0.280125
  17 C :    0.311988
  18 O :   -0.358771
  19 C :   -0.274783
  20 H :    0.117328
  21 H :    0.097943
  22 H :    0.110959
  23 H :    0.097081
  24 H :    0.085219
  25 H :    0.123412
  26 H :    0.129137
  27 H :    0.103072
  28 H :    0.196768
  29 H :    0.194142
  30 H :    0.154928
  31 H :    0.156375
  32 H :    0.160379
  33 H :    0.129094
  34 H :    0.240230
  35 H :    0.165935
Sum of atomic charges:    0.0000000

LOEWDIN ATOMIC CHARGES
----------------------
   0 C :    0.104524
   1 C :   -0.009860
   2 O :    0.288982
   3 C :   -0.413926
   4 O :    0.118757
   5 C :   -0.092409
   6 C :   -0.066806
   7 C :    0.124774
   8 N :    0.404600
   9 C :   -0.458965
  10 S :   -0.036663
  11 N :    0.397778
  12 C :   -0.046553
  13 C :   -0.039795
  14 C :    0.021502
  15 C :    0.040060
  16 C :   -0.002776
  17 C :   -0.193086
  18 O :    0.393083
  19 C :    0.027938
  20 H :   -0.023513
  21 H :   -0.026882
  22 H :   -0.024294
  23 H :   -0.026289
  24 H :   -0.031354
  25 H :   -0.010504
  26 H :   -0.007417
  27 H :   -0.021043
  28 H :   -0.059246
  29 H :   -0.063779
  30 H :   -0.005279
  31 H :   -0.024889
  32 H :   -0.021007
  33 H :   -0.036228
  34 H :   -0.154718
  35 H :   -0.024718

  Mayer bond orders larger than 0.100000
B(  0-C ,  1-C ) :   0.9805 B(  0-C , 20-H ) :   0.9723 B(  0-C , 21-H ) :   0.9720
B(  0-C , 22-H ) :   0.9718 B(  1-C ,  2-O ) :   0.9034 B(  1-C , 23-H ) :   0.9790
B(  1-C , 24-H ) :   0.9758 B(  2-O ,  3-C ) :   1.1168 B(  3-C ,  4-O ) :   2.0080
B(  3-C ,  5-C ) :   1.0342 B(  5-C ,  6-C ) :   1.6572 B(  5-C , 12-C ) :   0.9634
B(  6-C ,  7-C ) :   0.9528 B(  6-C ,  8-N ) :   1.1439 B(  7-C , 25-H ) :   0.9654
B(  7-C , 26-H ) :   0.9656 B(  7-C , 27-H ) :   0.9914 B(  8-N ,  9-C ) :   1.1810
B(  8-N , 28-H ) :   0.9488 B(  9-C , 10-S ) :   1.6097 B(  9-C , 11-N ) :   1.3038
B( 11-N , 12-C ) :   0.9899 B( 11-N , 29-H ) :   0.9518 B( 12-C , 13-C ) :   0.9444
B( 12-C , 30-H ) :   0.9999 B( 13-C , 14-C ) :   1.3754 B( 13-C , 19-C ) :   1.3692
B( 14-C , 15-C ) :   1.3944 B( 14-C , 31-H ) :   0.9639 B( 15-C , 16-C ) :   1.3619
B( 15-C , 32-H ) :   0.9710 B( 16-C , 17-C ) :   1.3313 B( 16-C , 33-H ) :   0.9857
B( 17-C , 18-O ) :   1.1085 B( 17-C , 19-C ) :   1.3773 B( 18-O , 34-H ) :   0.9804
B( 19-C , 35-H ) :   0.9582

MP2 TOTAL ENERGY:    -1274.333495911 Eh
FINAL SINGLE POINT ENERGY     -1274.333495911442

DIPOLE MOMENT
-------------
                                X             Y             Z
Electronic contribution:     10.04157      10.45626       8.93615
Nuclear contribution   :    -11.67315     -11.69033      -9.84937
                        -----------------------------------------
Total Dipole Moment    :     -1.63157      -1.23408      -0.91322
                        -----------------------------------------
Magnitude (a.u.)       :      2.24030
Magnitude (Debye)      :      5.69439

Rotational constants in cm-1:     0.011139     0.009120     0.006137
Rotational constants in MHz :   333.940014   273.399090   183.971276

                             ****ORCA TERMINATED NORMALLY****
TOTAL RUN TIME: 0 days 1 hours 58 minutes 39 seconds 99 msec
