                         Program Version 5.0.0 -  RELEASE  -
|  1> ! ri-mp2 cc-pvtz cc-pvtz/c TightSCF NoKeepInts
|  2>
|  3> %scf
|  4>   MaxCore 4096
|  5> end
|  6> *xyz  0  1
|  7>     C       14.7542620   14.3135502   15.0209325
|  8>     C       15.4438847   14.6032156   16.3645153
|  9>     O       16.4205826   15.6336107   16.1304786
| 10>     C       17.6135397   15.5828498   16.7909605
| 11>     O       18.1553022   14.5220525   17.0544775
| 12>     C       17.9061956   16.8316940   17.5695999
| 13>     C       17.4741447   18.0711728   17.2214603
| 14>     C       16.6605901   18.4613754   16.0045727
| 15>     N       17.8475685   19.1782917   17.9900817
| 16>     C       18.7556035   19.1490304   19.0156377
| 17>     S       19.2344717   20.5269442   19.7950793
| 18>     N       19.2477605   17.9160286   19.3621182
| 19>     C       18.7597909   16.6311311   18.8263221
| 20>     C       17.9833238   15.8669759   19.8956450
| 21>     C       18.3487696   14.5522643   20.2390855
| 22>     C       17.6334646   13.8420893   21.2178090
| 23>     C       16.5417754   14.4508490   21.8598823
| 24>     C       16.1718097   15.7586232   21.5180157
| 25>     O       15.1135535   16.3466955   22.1308163
| 26>     C       16.8852789   16.4626845   20.5429780
| 27>     H       15.4856549   13.9682250   14.2794050
| 28>     H       14.2658896   15.2159812   14.6330130
| 29>     H       13.9924063   13.5335839   15.1398837
| 30>     H       14.7134554   14.9343499   17.1141112
| 31>     H       15.9109824   13.6760589   16.7241255
| 32>     H       17.0425727   17.9662191   15.1029936
| 33>     H       16.6837453   19.5406005   15.8104778
| 34>     H       15.6110343   18.1675348   16.1302863
| 35>     H       17.4979965   20.0923741   17.7505706
| 36>     H       19.8924947   17.9186441   20.1420481
| 37>     H       19.6379473   16.0327074   18.5435154
| 38>     H       19.1817630   14.0727681   19.7306218
| 39>     H       17.9233121   12.8235943   21.4699300
| 40>     H       15.9856313   13.9052965   22.6149046
| 41>     H       14.7862838   15.7278780   22.8007924
| 42>     H       16.5841581   17.4750557   20.2968531
| 43> *
| 44>
| 45>                          ****END OF INPUT****

CARTESIAN COORDINATES (ANGSTROEM)
---------------------------------
  C     14.754262   14.313550   15.020932
  C     15.443885   14.603216   16.364515
  O     16.420583   15.633611   16.130479
  C     17.613540   15.582850   16.790961
  O     18.155302   14.522052   17.054478
  C     17.906196   16.831694   17.569600
  C     17.474145   18.071173   17.221460
  C     16.660590   18.461375   16.004573
  N     17.847568   19.178292   17.990082
  C     18.755603   19.149030   19.015638
  S     19.234472   20.526944   19.795079
  N     19.247760   17.916029   19.362118
  C     18.759791   16.631131   18.826322
  C     17.983324   15.866976   19.895645
  C     18.348770   14.552264   20.239085
  C     17.633465   13.842089   21.217809
  C     16.541775   14.450849   21.859882
  C     16.171810   15.758623   21.518016
  O     15.113554   16.346695   22.130816
  C     16.885279   16.462685   20.542978
  H     15.485655   13.968225   14.279405
  H     14.265890   15.215981   14.633013
  H     13.992406   13.533584   15.139884
  H     14.713455   14.934350   17.114111
  H     15.910982   13.676059   16.724125
  H     17.042573   17.966219   15.102994
  H     16.683745   19.540601   15.810478
  H     15.611034   18.167535   16.130286
  H     17.497996   20.092374   17.750571
  H     19.892495   17.918644   20.142048
  H     19.637947   16.032707   18.543515
  H     19.181763   14.072768   19.730622
  H     17.923312   12.823594   21.469930
  H     15.985631   13.905296   22.614905
  H     14.786284   15.727878   22.800792
  H     16.584158   17.475056   20.296853

 Total Charge           Charge          ....    0
 Multiplicity           Mult            ....    1
 Number of Electrons    NEL             ....  154
 Basis Dimension        Dim             ....  828

ORBITAL ENERGIES
----------------

  NO   OCC          E(Eh)            E(eV)
   0   2.0000     -91.888258     -2500.4066
   1   2.0000     -20.593817      -560.3863
   2   2.0000     -20.593375      -560.3742
   3   2.0000     -20.550717      -559.2134
   4   2.0000     -15.628257      -425.2665
   5   2.0000     -15.607253      -424.6950
   6   2.0000     -11.395649      -310.0914
   7   2.0000     -11.383419      -309.7586
   8   2.0000     -11.334586      -308.4298
   9   2.0000     -11.309312      -307.7420
  10   2.0000     -11.306839      -307.6747
  11   2.0000     -11.298512      -307.4482
  12   2.0000     -11.260003      -306.4003
  13   2.0000     -11.259507      -306.3868
  14   2.0000     -11.255095      -306.2667
  15   2.0000     -11.249431      -306.1126
  16   2.0000     -11.239044      -305.8299
  17   2.0000     -11.235114      -305.7230
  18   2.0000     -11.232212      -305.6440
  19   2.0000     -11.230629      -305.6009
  20   2.0000      -8.893327      -241.9997
  21   2.0000      -6.574905      -178.9123
  22   2.0000      -6.572897      -178.8576
  23   2.0000      -6.572312      -178.8417
  24   2.0000      -1.453087       -39.5405
  25   2.0000      -1.413119       -38.4529
  26   2.0000      -1.357361       -36.9357
  27   2.0000      -1.339268       -36.4433
  28   2.0000      -1.237183       -33.6654
  29   2.0000      -1.153650       -31.3924
  30   2.0000      -1.120183       -30.4817
  31   2.0000      -1.043933       -28.4069
  32   2.0000      -1.036172       -28.1957
  33   2.0000      -1.011079       -27.5129
  34   2.0000      -0.998083       -27.1592
  35   2.0000      -0.983542       -26.7635
  36   2.0000      -0.921880       -25.0856
  37   2.0000      -0.885061       -24.0837
  38   2.0000      -0.847588       -23.0640
  39   2.0000      -0.836559       -22.7639
  40   2.0000      -0.829573       -22.5738
  41   2.0000      -0.821997       -22.3677
  42   2.0000      -0.759162       -20.6579
  43   2.0000      -0.735841       -20.0233
  44   2.0000      -0.726277       -19.7630
  45   2.0000      -0.691699       -18.8221
  46   2.0000      -0.685356       -18.6495
  47   2.0000      -0.680562       -18.5190
  48   2.0000      -0.673704       -18.3324
  49   2.0000      -0.655395       -17.8342
  50   2.0000      -0.648157       -17.6372
  51   2.0000      -0.641559       -17.4577
  52   2.0000      -0.629824       -17.1384
  53   2.0000      -0.619085       -16.8462
  54   2.0000      -0.601845       -16.3770
  55   2.0000      -0.601383       -16.3645
  56   2.0000      -0.596711       -16.2373
  57   2.0000      -0.578929       -15.7535
  58   2.0000      -0.574606       -15.6358
  59   2.0000      -0.562316       -15.3014
  60   2.0000      -0.561398       -15.2764
  61   2.0000      -0.546753       -14.8779
  62   2.0000      -0.534178       -14.5357
  63   2.0000      -0.526665       -14.3313
  64   2.0000      -0.518792       -14.1170
  65   2.0000      -0.510420       -13.8892
  66   2.0000      -0.500448       -13.6179
  67   2.0000      -0.496036       -13.4978
  68   2.0000      -0.481631       -13.1058
  69   2.0000      -0.464092       -12.6286
  70   2.0000      -0.460657       -12.5351
  71   2.0000      -0.451782       -12.2936
  72   2.0000      -0.353937        -9.6311
  73   2.0000      -0.345457        -9.4004
  74   2.0000      -0.327465        -8.9108
  75   2.0000      -0.316532        -8.6133
  76   2.0000      -0.314980        -8.5710
  77   0.0000       0.073509         2.0003
  78   0.0000       0.109201         2.9715
  79   0.0000       0.119717         3.2577
  80   0.0000       0.134643         3.6638
  81   0.0000       0.137708         3.7472

MULLIKEN ATOMIC CHARGES
-----------------------
   0 C :   -0.261888
   1 C :    0.031427
   2 O :   -0.365541
   3 C :    0.458878
   4 O :   -0.412535
   5 C :   -0.189141
   6 C :    0.142004
   7 C :   -0.283832
   8 N :   -0.124265
   9 C :    0.202220
  10 S :   -0.439795
  11 N :   -0.199093
  12 C :    0.044028
  13 C :    0.053771
  14 C :   -0.163239
  15 C :   -0.133426
  16 C :   -0.279779
  17 C :    0.311375
  18 O :   -0.358939
  19 C :   -0.274977
  20 H :    0.100513
  21 H :    0.089821
  22 H :    0.089846
  23 H :    0.096184
  24 H :    0.116978
  25 H :    0.125574
  26 H :    0.103688
  27 H :    0.125363
  28 H :    0.197076
  29 H :    0.193986
  30 H :    0.154344
  31 H :    0.154578
  32 H :    0.159802
  33 H :    0.128775
  34 H :    0.240369
  35 H :    0.165849
Sum of atomic charges:    0.0000000

LOEWDIN ATOMIC CHARGES
----------------------
   0 C :    0.105920
   1 C :   -0.012643
   2 O :    0.298955
   3 C :   -0.414091
   4 O :    0.115677
   5 C :   -0.092595
   6 C :   -0.070244
   7 C :    0.125312
   8 N :    0.404424
   9 C :   -0.458212
  10 S :   -0.036376
  11 N :    0.397404
  12 C :   -0.045909
  13 C :   -0.039353
  14 C :    0.021601
  15 C :    0.041022
  16 C :   -0.002295
  17 C :   -0.193164
  18 O :    0.393034
  19 C :    0.028106
  20 H :   -0.024248
  21 H :   -0.030305
  22 H :   -0.025728
  23 H :   -0.032001
  24 H :   -0.026386
  25 H :   -0.008187
  26 H :   -0.020229
  27 H :   -0.010197
  28 H :   -0.058924
  29 H :   -0.063898
  30 H :   -0.004818
  31 H :   -0.025094
  32 H :   -0.020955
  33 H :   -0.036185
  34 H :   -0.154621
  35 H :   -0.024798

  Mayer bond orders larger than 0.100000
B(  0-C ,  1-C ) :   0.9763 B(  0-C , 20-H ) :   0.9777 B(  0-C , 21-H ) :   0.9798
B(  0-C , 22-H ) :   0.9762 B(  1-C ,  2-O ) :   0.8863 B(  1-C , 23-H ) :   0.9749
B(  1-C , 24-H ) :   0.9736 B(  2-O ,  3-C ) :   1.1078 B(  3-C ,  4-O ) :   2.0104
B(  3-C ,  5-C ) :   1.0415 B(  5-C ,  6-C ) :   1.6608 B(  5-C , 12-C ) :   0.9646
B(  6-C ,  7-C ) :   0.9525 B(  6-C ,  8-N ) :   1.1414 B(  7-C , 25-H ) :   0.9687
B(  7-C , 26-H ) :   0.9896 B(  7-C , 27-H ) :   0.9637 B(  8-N ,  9-C ) :   1.1820
B(  8-N , 28-H ) :   0.9494 B(  9-C , 10-S ) :   1.6104 B(  9-C , 11-N ) :   1.3021
B( 11-N , 12-C ) :   0.9909 B( 11-N , 29-H ) :   0.9518 B( 12-C , 13-C ) :   0.9472
B( 12-C , 30-H ) :   0.9988 B( 13-C , 14-C ) :   1.3769 B( 13-C , 19-C ) :   1.3684
B( 14-C , 15-C ) :   1.3944 B( 14-C , 31-H ) :   0.9644 B( 15-C , 16-C ) :   1.3632
B( 15-C , 32-H ) :   0.9712 B( 16-C , 17-C ) :   1.3314 B( 16-C , 33-H ) :   0.9857
B( 17-C , 18-O ) :   1.1085 B( 17-C , 19-C ) :   1.3774 B( 18-O , 34-H ) :   0.9803
B( 19-C , 35-H ) :   0.9583

MP2 TOTAL ENERGY:    -1274.334469036 Eh
FINAL SINGLE POINT ENERGY     -1274.334469035790

DIPOLE MOMENT
-------------
                                X             Y             Z
Electronic contribution:     11.25360       9.92040      10.31517
Nuclear contribution   :    -12.74607     -11.22596     -11.02273
                        -----------------------------------------
Total Dipole Moment    :     -1.49248      -1.30556      -0.70756
                        -----------------------------------------
Magnitude (a.u.)       :      2.10538
Magnitude (Debye)      :      5.35144

Rotational constants in cm-1:     0.010627     0.009040     0.006034
Rotational constants in MHz :   318.602998   271.007962   180.908269

                             ****ORCA TERMINATED NORMALLY****
TOTAL RUN TIME: 0 days 1 hours 56 minutes 8 seconds 866 msec
