                         Program Version 5.0.0 -  RELEASE  -
|  1> ! ri-mp2 cc-pvtz cc-pvtz/c TightSCF NoKeepInts
|  2>
|  3> %scf
|  4>   MaxCore 4096
|  5> end
|  6> *xyz  0  1
|  7>     C       14.9845529   16.1137099   17.3961029
|  8>     C       15.6501665   14.7355780   17.1788736
|  9>     O       16.9851967   14.7403300   16.6027761
| 10>     C       17.8603629   15.7767854   16.3857750
| 11>     O       18.5337278   15.7985643   15.3723902
| 12>     C       17.8420783   16.9403427   17.3220510
| 13>     C       17.5902157   18.1878270   16.8624743
| 14>     C       17.1970836   18.5594220   15.4491569
| 15>     N       17.6776237   19.2846453   17.7226327
| 16>     C       18.0039706   19.2103711   19.0510984
| 17>     S       18.0141072   20.5472504   20.0240975
| 18>     N       18.3121068   17.9657346   19.5415479
| 19>     C       18.3637605   16.7184812   18.7532514
| 20>     C       17.7607705   15.5400261   19.5180449
| 21>     C       18.3303444   14.2589759   19.3860367
| 22>     C       17.8059255   13.1627149   20.0906137
| 23>     C       16.7072005   13.3470995   20.9462397
| 24>     C       16.1446740   14.6214948   21.0940089
| 25>     O       15.0822315   14.8039942   21.9171296
| 26>     C       16.6676927   15.7111538   20.3903377
| 27>     H       15.4376592   16.6837526   18.2110321
| 28>     H       13.9301799   15.9710093   17.6626704
| 29>     H       15.0093596   16.7110232   16.4777385
| 30>     H       15.6794442   14.2078740   18.1403908
| 31>     H       15.0033388   14.1417441   16.5202389
| 32>     H       16.5990129   17.7713663   14.9756393
| 33>     H       18.0935420   18.6958901   14.8305533
| 34>     H       16.6091590   19.4841134   15.4089199
| 35>     H       17.4742091   20.2086531   17.3753992
| 36>     H       18.5299158   17.9392646   20.5299989
| 37>     H       19.4319438   16.4835589   18.6389443
| 38>     H       19.1781846   14.1084822   18.7216947
| 39>     H       18.2513382   12.1762084   19.9710112
| 40>     H       16.2989587   12.5025884   21.4920814
| 41>     H       14.8968958   13.9559884   22.3488422
| 42>     H       16.2100658   16.6859821   20.5242058
| 43> *
| 44>
| 45>                          ****END OF INPUT****

CARTESIAN COORDINATES (ANGSTROEM)
---------------------------------
  C     14.984553   16.113710   17.396103
  C     15.650166   14.735578   17.178874
  O     16.985197   14.740330   16.602776
  C     17.860363   15.776785   16.385775
  O     18.533728   15.798564   15.372390
  C     17.842078   16.940343   17.322051
  C     17.590216   18.187827   16.862474
  C     17.197084   18.559422   15.449157
  N     17.677624   19.284645   17.722633
  C     18.003971   19.210371   19.051098
  S     18.014107   20.547250   20.024097
  N     18.312107   17.965735   19.541548
  C     18.363760   16.718481   18.753251
  C     17.760770   15.540026   19.518045
  C     18.330344   14.258976   19.386037
  C     17.805926   13.162715   20.090614
  C     16.707200   13.347100   20.946240
  C     16.144674   14.621495   21.094009
  O     15.082232   14.803994   21.917130
  C     16.667693   15.711154   20.390338
  H     15.437659   16.683753   18.211032
  H     13.930180   15.971009   17.662670
  H     15.009360   16.711023   16.477739
  H     15.679444   14.207874   18.140391
  H     15.003339   14.141744   16.520239
  H     16.599013   17.771366   14.975639
  H     18.093542   18.695890   14.830553
  H     16.609159   19.484113   15.408920
  H     17.474209   20.208653   17.375399
  H     18.529916   17.939265   20.529999
  H     19.431944   16.483559   18.638944
  H     19.178185   14.108482   18.721695
  H     18.251338   12.176208   19.971011
  H     16.298959   12.502588   21.492081
  H     14.896896   13.955988   22.348842
  H     16.210066   16.685982   20.524206

 Total Charge           Charge          ....    0
 Multiplicity           Mult            ....    1
 Number of Electrons    NEL             ....  154
 Basis Dimension        Dim             ....  828

ORBITAL ENERGIES
----------------

  NO   OCC          E(Eh)            E(eV)
   0   2.0000     -91.890302     -2500.4623
   1   2.0000     -20.604927      -560.6886
   2   2.0000     -20.590330      -560.2914
   3   2.0000     -20.549452      -559.1790
   4   2.0000     -15.626261      -425.2122
   5   2.0000     -15.612564      -424.8395
   6   2.0000     -11.396471      -310.1137
   7   2.0000     -11.386792      -309.8504
   8   2.0000     -11.325834      -308.1916
   9   2.0000     -11.322638      -308.1046
  10   2.0000     -11.319494      -308.0191
  11   2.0000     -11.305664      -307.6427
  12   2.0000     -11.272516      -306.7407
  13   2.0000     -11.263384      -306.4923
  14   2.0000     -11.259183      -306.3779
  15   2.0000     -11.257175      -306.3233
  16   2.0000     -11.252235      -306.1889
  17   2.0000     -11.248640      -306.0911
  18   2.0000     -11.247467      -306.0591
  19   2.0000     -11.235573      -305.7355
  20   2.0000      -8.895414      -242.0565
  21   2.0000      -6.577001      -178.9693
  22   2.0000      -6.574976      -178.9142
  23   2.0000      -6.574400      -178.8985
  24   2.0000      -1.439659       -39.1751
  25   2.0000      -1.424801       -38.7708
  26   2.0000      -1.352890       -36.8140
  27   2.0000      -1.339515       -36.4501
  28   2.0000      -1.240554       -33.7572
  29   2.0000      -1.166166       -31.7330
  30   2.0000      -1.123604       -30.5748
  31   2.0000      -1.050722       -28.5916
  32   2.0000      -1.037213       -28.2240
  33   2.0000      -1.024584       -27.8804
  34   2.0000      -1.003482       -27.3061
  35   2.0000      -0.989754       -26.9326
  36   2.0000      -0.928101       -25.2549
  37   2.0000      -0.900903       -24.5148
  38   2.0000      -0.851993       -23.1839
  39   2.0000      -0.845013       -22.9940
  40   2.0000      -0.840432       -22.8693
  41   2.0000      -0.829552       -22.5733
  42   2.0000      -0.747620       -20.3438
  43   2.0000      -0.738397       -20.0928
  44   2.0000      -0.722729       -19.6665
  45   2.0000      -0.703452       -19.1419
  46   2.0000      -0.689579       -18.7644
  47   2.0000      -0.676508       -18.4087
  48   2.0000      -0.675765       -18.3885
  49   2.0000      -0.659590       -17.9483
  50   2.0000      -0.658585       -17.9210
  51   2.0000      -0.652374       -17.7520
  52   2.0000      -0.638512       -17.3748
  53   2.0000      -0.618208       -16.8223
  54   2.0000      -0.613743       -16.7008
  55   2.0000      -0.608113       -16.5476
  56   2.0000      -0.604064       -16.4374
  57   2.0000      -0.582994       -15.8641
  58   2.0000      -0.578943       -15.7538
  59   2.0000      -0.569734       -15.5033
  60   2.0000      -0.568075       -15.4581
  61   2.0000      -0.555981       -15.1290
  62   2.0000      -0.541849       -14.7445
  63   2.0000      -0.532611       -14.4931
  64   2.0000      -0.525544       -14.3008
  65   2.0000      -0.516038       -14.0421
  66   2.0000      -0.505916       -13.7667
  67   2.0000      -0.494653       -13.4602
  68   2.0000      -0.489683       -13.3250
  69   2.0000      -0.468528       -12.7493
  70   2.0000      -0.452157       -12.3038
  71   2.0000      -0.446470       -12.1491
  72   2.0000      -0.359913        -9.7937
  73   2.0000      -0.348950        -9.4954
  74   2.0000      -0.330353        -8.9894
  75   2.0000      -0.329363        -8.9624
  76   2.0000      -0.318846        -8.6762
  77   0.0000       0.088259         2.4016
  78   0.0000       0.097603         2.6559
  79   0.0000       0.119659         3.2561
  80   0.0000       0.124028         3.3750
  81   0.0000       0.127356         3.4655

MULLIKEN ATOMIC CHARGES
-----------------------
   0 C :   -0.337124
   1 C :    0.034077
   2 O :   -0.333397
   3 C :    0.384815
   4 O :   -0.370090
   5 C :   -0.216021
   6 C :    0.158759
   7 C :   -0.294708
   8 N :   -0.137521
   9 C :    0.214966
  10 S :   -0.443115
  11 N :   -0.236123
  12 C :    0.105119
  13 C :   -0.011786
  14 C :   -0.188198
  15 C :   -0.130008
  16 C :   -0.280250
  17 C :    0.322911
  18 O :   -0.356471
  19 C :   -0.276970
  20 H :    0.112315
  21 H :    0.127912
  22 H :    0.104099
  23 H :    0.104972
  24 H :    0.128057
  25 H :    0.116120
  26 H :    0.147246
  27 H :    0.101136
  28 H :    0.196608
  29 H :    0.207541
  30 H :    0.161760
  31 H :    0.153652
  32 H :    0.164641
  33 H :    0.134505
  34 H :    0.242697
  35 H :    0.187872
Sum of atomic charges:   -0.0000000

LOEWDIN ATOMIC CHARGES
----------------------
   0 C :    0.103434
   1 C :   -0.010859
   2 O :    0.292222
   3 C :   -0.422932
   4 O :    0.128174
   5 C :   -0.086831
   6 C :   -0.086840
   7 C :    0.128437
   8 N :    0.404496
   9 C :   -0.455041
  10 S :   -0.038112
  11 N :    0.395639
  12 C :   -0.050635
  13 C :   -0.040366
  14 C :    0.023478
  15 C :    0.045274
  16 C :   -0.000315
  17 C :   -0.195080
  18 O :    0.396754
  19 C :    0.026438
  20 H :   -0.034785
  21 H :   -0.019613
  22 H :   -0.030741
  23 H :   -0.027574
  24 H :   -0.022639
  25 H :   -0.011713
  26 H :   -0.003837
  27 H :   -0.020267
  28 H :   -0.057788
  29 H :   -0.065347
  30 H :   -0.010322
  31 H :   -0.024953
  32 H :   -0.017505
  33 H :   -0.033417
  34 H :   -0.151821
  35 H :   -0.025013

  Mayer bond orders larger than 0.100000
B(  0-C ,  1-C ) :   0.9610 B(  0-C , 20-H ) :   0.9680 B(  0-C , 21-H ) :   0.9752
B(  0-C , 22-H ) :   0.9753 B(  1-C ,  2-O ) :   0.9033 B(  1-C , 23-H ) :   0.9688
B(  1-C , 24-H ) :   0.9817 B(  2-O ,  3-C ) :   1.1775 B(  3-C ,  4-O ) :   2.1107
B(  3-C ,  5-C ) :   0.9044 B(  5-C ,  6-C ) :   1.7145 B(  5-C , 12-C ) :   0.9516
B(  6-C ,  7-C ) :   0.9481 B(  6-C ,  8-N ) :   1.1327 B(  7-C , 25-H ) :   0.9748
B(  7-C , 26-H ) :   0.9600 B(  7-C , 27-H ) :   0.9840 B(  8-N ,  9-C ) :   1.2056
B(  8-N , 28-H ) :   0.9508 B(  9-C , 10-S ) :   1.6034 B(  9-C , 11-N ) :   1.2901
B( 11-N , 12-C ) :   0.9807 B( 11-N , 29-H ) :   0.9407 B( 12-C , 13-C ) :   0.9508
B( 12-C , 30-H ) :   0.9977 B( 13-C , 14-C ) :   1.3770 B( 13-C , 19-C ) :   1.3377
B( 14-C , 15-C ) :   1.4064 B( 14-C , 31-H ) :   0.9728 B( 15-C , 16-C ) :   1.3521
B( 15-C , 32-H ) :   0.9697 B( 16-C , 17-C ) :   1.3358 B( 16-C , 33-H ) :   0.9842
B( 17-C , 18-O ) :   1.1102 B( 17-C , 19-C ) :   1.3591 B( 18-O , 34-H ) :   0.9781
B( 19-C , 35-H ) :   0.9508

MP2 TOTAL ENERGY:    -1274.320700725 Eh
FINAL SINGLE POINT ENERGY     -1274.320700725283

DIPOLE MOMENT
-------------
                                X             Y             Z
Electronic contribution:      8.19849       5.45146       5.76421
Nuclear contribution   :     -9.35564      -7.01599      -5.65269
                        -----------------------------------------
Total Dipole Moment    :     -1.15715      -1.56453       0.11152
                        -----------------------------------------
Magnitude (a.u.)       :      1.94915
Magnitude (Debye)      :      4.95436

Rotational constants in cm-1:     0.013059     0.008983     0.006480
Rotational constants in MHz :   391.484449   269.310913   194.256116

                             ****ORCA TERMINATED NORMALLY****
TOTAL RUN TIME: 0 days 2 hours 15 minutes 34 seconds 732 msec
