                         Program Version 5.0.0 -  RELEASE  -
|  1> ! ri-mp2 cc-pvtz cc-pvtz/c TightSCF NoKeepInts
|  2>
|  3> %scf
|  4>   MaxCore 4096
|  5> end
|  6> *xyz  0  1
|  7>     C       16.2113475   13.1174931   15.8052153
|  8>     C       15.5876189   14.5154881   15.9514815
|  9>     O       16.5266305   15.3298906   16.6711005
| 10>     C       16.3615061   16.6864958   16.6831897
| 11>     O       15.4944127   17.2426418   16.0301952
| 12>     C       17.3568373   17.3853261   17.5676383
| 13>     C       17.4251265   18.7375975   17.6612795
| 14>     C       16.5604563   19.7509425   16.9423736
| 15>     N       18.3981458   19.3363270   18.4672337
| 16>     C       19.3960149   18.6644410   19.1214282
| 17>     S       20.5681577   19.4567332   19.9783142
| 18>     N       19.3759889   17.2962328   19.0279967
| 19>     C       18.3061759   16.5031859   18.3950081
| 20>     C       17.5575499   15.7038674   19.4578050
| 21>     C       17.6211706   14.2977475   19.4697398
| 22>     C       16.9311954   13.5589148   20.4455306
| 23>     C       16.1737122   14.2312707   21.4197623
| 24>     C       16.1113901   15.6315376   21.4132603
| 25>     O       15.3813833   16.2835347   22.3529812
| 26>     C       16.7987664   16.3640761   20.4406075
| 27>     H       16.3985528   12.6740881   16.7911017
| 28>     H       17.1627571   13.1728397   15.2617864
| 29>     H       15.5374570   12.4523175   15.2517128
| 30>     H       15.4016774   14.9318168   14.9517432
| 31>     H       14.6335187   14.4613815   16.4924328
| 32>     H       15.5042488   19.6115690   17.2063748
| 33>     H       16.6446549   19.6283712   15.8550763
| 34>     H       16.8264656   20.7875742   17.1799224
| 35>     H       18.4291933   20.3402285   18.5463771
| 36>     H       20.1020379   16.8266914   19.5535694
| 37>     H       18.7900556   15.7966262   17.7060890
| 38>     H       18.2010313   13.7755141   18.7135342
| 39>     H       16.9841238   12.4716824   20.4444362
| 40>     H       15.6390908   13.6652539   22.1754093
| 41>     H       15.0052909   15.6151145   22.9450122
| 42>     H       16.7432573   17.4471867   20.4572808
| 43> *
| 44>
| 45>                          ****END OF INPUT****

CARTESIAN COORDINATES (ANGSTROEM)
---------------------------------
  C     16.211347   13.117493   15.805215
  C     15.587619   14.515488   15.951481
  O     16.526630   15.329891   16.671101
  C     16.361506   16.686496   16.683190
  O     15.494413   17.242642   16.030195
  C     17.356837   17.385326   17.567638
  C     17.425127   18.737597   17.661279
  C     16.560456   19.750943   16.942374
  N     18.398146   19.336327   18.467234
  C     19.396015   18.664441   19.121428
  S     20.568158   19.456733   19.978314
  N     19.375989   17.296233   19.027997
  C     18.306176   16.503186   18.395008
  C     17.557550   15.703867   19.457805
  C     17.621171   14.297747   19.469740
  C     16.931195   13.558915   20.445531
  C     16.173712   14.231271   21.419762
  C     16.111390   15.631538   21.413260
  O     15.381383   16.283535   22.352981
  C     16.798766   16.364076   20.440607
  H     16.398553   12.674088   16.791102
  H     17.162757   13.172840   15.261786
  H     15.537457   12.452317   15.251713
  H     15.401677   14.931817   14.951743
  H     14.633519   14.461381   16.492433
  H     15.504249   19.611569   17.206375
  H     16.644655   19.628371   15.855076
  H     16.826466   20.787574   17.179922
  H     18.429193   20.340228   18.546377
  H     20.102038   16.826691   19.553569
  H     18.790056   15.796626   17.706089
  H     18.201031   13.775514   18.713534
  H     16.984124   12.471682   20.444436
  H     15.639091   13.665254   22.175409
  H     15.005291   15.615114   22.945012
  H     16.743257   17.447187   20.457281

 Total Charge           Charge          ....    0
 Multiplicity           Mult            ....    1
 Number of Electrons    NEL             ....  154
 Basis Dimension        Dim             ....  828

ORBITAL ENERGIES
----------------

  NO   OCC          E(Eh)            E(eV)
   0   2.0000     -91.888653     -2500.4174
   1   2.0000     -20.603243      -560.6427
   2   2.0000     -20.595498      -560.4320
   3   2.0000     -20.541494      -558.9625
   4   2.0000     -15.628773      -425.2805
   5   2.0000     -15.608012      -424.7156
   6   2.0000     -11.394279      -310.0541
   7   2.0000     -11.383753      -309.7677
   8   2.0000     -11.335663      -308.4591
   9   2.0000     -11.312578      -307.8309
  10   2.0000     -11.308612      -307.7230
  11   2.0000     -11.296449      -307.3920
  12   2.0000     -11.258705      -306.3649
  13   2.0000     -11.258585      -306.3617
  14   2.0000     -11.254090      -306.2393
  15   2.0000     -11.251676      -306.1737
  16   2.0000     -11.242084      -305.9127
  17   2.0000     -11.237623      -305.7913
  18   2.0000     -11.237279      -305.7819
  19   2.0000     -11.232257      -305.6452
  20   2.0000      -8.893715      -242.0103
  21   2.0000      -6.575290      -178.9227
  22   2.0000      -6.573285      -178.8682
  23   2.0000      -6.572698      -178.8522
  24   2.0000      -1.453010       -39.5384
  25   2.0000      -1.415160       -38.5085
  26   2.0000      -1.354991       -36.8712
  27   2.0000      -1.339745       -36.4563
  28   2.0000      -1.238186       -33.6928
  29   2.0000      -1.156755       -31.4769
  30   2.0000      -1.120123       -30.4801
  31   2.0000      -1.043656       -28.3993
  32   2.0000      -1.040108       -28.3028
  33   2.0000      -1.014133       -27.5960
  34   2.0000      -0.995577       -27.0910
  35   2.0000      -0.984199       -26.7814
  36   2.0000      -0.922040       -25.0900
  37   2.0000      -0.889331       -24.1999
  38   2.0000      -0.846357       -23.0306
  39   2.0000      -0.836664       -22.7668
  40   2.0000      -0.833034       -22.6680
  41   2.0000      -0.817327       -22.2406
  42   2.0000      -0.765784       -20.8380
  43   2.0000      -0.731428       -19.9032
  44   2.0000      -0.720563       -19.6075
  45   2.0000      -0.694858       -18.9080
  46   2.0000      -0.685225       -18.6459
  47   2.0000      -0.680504       -18.5175
  48   2.0000      -0.678905       -18.4740
  49   2.0000      -0.664230       -18.0746
  50   2.0000      -0.645727       -17.5711
  51   2.0000      -0.645070       -17.5532
  52   2.0000      -0.635656       -17.2971
  53   2.0000      -0.605780       -16.4841
  54   2.0000      -0.599738       -16.3197
  55   2.0000      -0.598088       -16.2748
  56   2.0000      -0.589513       -16.0415
  57   2.0000      -0.577326       -15.7098
  58   2.0000      -0.571696       -15.5566
  59   2.0000      -0.570327       -15.5194
  60   2.0000      -0.561814       -15.2877
  61   2.0000      -0.552617       -15.0375
  62   2.0000      -0.539837       -14.6897
  63   2.0000      -0.524308       -14.2671
  64   2.0000      -0.519960       -14.1488
  65   2.0000      -0.512931       -13.9576
  66   2.0000      -0.505985       -13.7685
  67   2.0000      -0.498985       -13.5781
  68   2.0000      -0.484663       -13.1883
  69   2.0000      -0.464754       -12.6466
  70   2.0000      -0.459486       -12.5033
  71   2.0000      -0.447751       -12.1839
  72   2.0000      -0.354059        -9.6344
  73   2.0000      -0.348575        -9.4852
  74   2.0000      -0.327950        -8.9240
  75   2.0000      -0.320178        -8.7125
  76   2.0000      -0.315672        -8.5899
  77   0.0000       0.076728         2.0879
  78   0.0000       0.106765         2.9052
  79   0.0000       0.124893         3.3985
  80   0.0000       0.132551         3.6069
  81   0.0000       0.136300         3.7089

MULLIKEN ATOMIC CHARGES
-----------------------
   0 C :   -0.274081
   1 C :    0.040238
   2 O :   -0.338443
   3 C :    0.454799
   4 O :   -0.434229
   5 C :   -0.212867
   6 C :    0.150130
   7 C :   -0.274671
   8 N :   -0.120475
   9 C :    0.210358
  10 S :   -0.439937
  11 N :   -0.202674
  12 C :    0.045700
  13 C :    0.065893
  14 C :   -0.179229
  15 C :   -0.132577
  16 C :   -0.277609
  17 C :    0.315598
  18 O :   -0.356785
  19 C :   -0.269731
  20 H :    0.093930
  21 H :    0.095718
  22 H :    0.099704
  23 H :    0.105270
  24 H :    0.091454
  25 H :    0.132190
  26 H :    0.130883
  27 H :    0.094883
  28 H :    0.197251
  29 H :    0.194348
  30 H :    0.150616
  31 H :    0.150458
  32 H :    0.159343
  33 H :    0.129299
  34 H :    0.240526
  35 H :    0.164717
Sum of atomic charges:   -0.0000000

LOEWDIN ATOMIC CHARGES
----------------------
   0 C :    0.106440
   1 C :   -0.016395
   2 O :    0.310731
   3 C :   -0.413269
   4 O :    0.095118
   5 C :   -0.094530
   6 C :   -0.059106
   7 C :    0.131553
   8 N :    0.406480
   9 C :   -0.456697
  10 S :   -0.035567
  11 N :    0.396572
  12 C :   -0.052803
  13 C :   -0.038990
  14 C :    0.014509
  15 C :    0.038543
  16 C :   -0.001185
  17 C :   -0.189532
  18 O :    0.395034
  19 C :    0.031783
  20 H :   -0.029520
  21 H :   -0.027224
  22 H :   -0.023863
  23 H :   -0.027376
  24 H :   -0.028661
  25 H :   -0.004389
  26 H :   -0.004050
  27 H :   -0.023470
  28 H :   -0.057604
  29 H :   -0.064541
  30 H :   -0.011526
  31 H :   -0.031150
  32 H :   -0.021850
  33 H :   -0.035671
  34 H :   -0.154080
  35 H :   -0.023713

  Mayer bond orders larger than 0.100000
B(  0-C ,  1-C ) :   0.9710 B(  0-C , 20-H ) :   0.9776 B(  0-C , 21-H ) :   0.9766
B(  0-C , 22-H ) :   0.9791 B(  1-C ,  2-O ) :   0.9023 B(  1-C , 23-H ) :   0.9785
B(  1-C , 24-H ) :   0.9763 B(  2-O ,  3-C ) :   1.1835 B(  3-C ,  4-O ) :   1.9654
B(  3-C ,  5-C ) :   1.0603 B(  5-C ,  6-C ) :   1.6593 B(  5-C , 12-C ) :   0.9707
B(  6-C ,  7-C ) :   0.9675 B(  6-C ,  8-N ) :   1.1650 B(  7-C , 25-H ) :   0.9606
B(  7-C , 26-H ) :   0.9601 B(  7-C , 27-H ) :   0.9903 B(  8-N ,  9-C ) :   1.1827
B(  8-N , 28-H ) :   0.9479 B(  9-C , 10-S ) :   1.6078 B(  9-C , 11-N ) :   1.3043
B( 11-N , 12-C ) :   0.9895 B( 11-N , 29-H ) :   0.9516 B( 12-C , 13-C ) :   0.9366
B( 12-C , 30-H ) :   1.0038 B( 13-C , 14-C ) :   1.3613 B( 13-C , 19-C ) :   1.3814
B( 14-C , 15-C ) :   1.3903 B( 14-C , 31-H ) :   0.9701 B( 15-C , 16-C ) :   1.3652
B( 15-C , 32-H ) :   0.9707 B( 16-C , 17-C ) :   1.3321 B( 16-C , 33-H ) :   0.9852
B( 17-C , 18-O ) :   1.1096 B( 17-C , 19-C ) :   1.3735 B( 18-O , 34-H ) :   0.9800
B( 19-C , 35-H ) :   0.9583

MP2 TOTAL ENERGY:    -1274.352325359 Eh
FINAL SINGLE POINT ENERGY     -1274.352325358905

DIPOLE MOMENT
-------------
                                X             Y             Z
Electronic contribution:      8.39074      10.99022       8.84213
Nuclear contribution   :     -9.56697     -12.58913      -9.30348
                        -----------------------------------------
Total Dipole Moment    :     -1.17624      -1.59892      -0.46136
                        -----------------------------------------
Magnitude (a.u.)       :      2.03787
Magnitude (Debye)      :      5.17986

Rotational constants in cm-1:     0.011324     0.008534     0.006135
Rotational constants in MHz :   339.497147   255.852898   183.936762

                             ****ORCA TERMINATED NORMALLY****
TOTAL RUN TIME: 0 days 1 hours 59 minutes 41 seconds 920 msec
