                         Program Version 5.0.0 -  RELEASE  -
|  1> ! ri-mp2 cc-pvtz cc-pvtz/c TightSCF NoKeepInts
|  2>
|  3> %scf
|  4>   MaxCore 4096
|  5> end
|  6> *xyz  0  1
|  7>     C       15.0616040   15.2975402   17.5872104
|  8>     C       15.6188807   15.3724003   16.1548283
|  9>     O       16.9937849   14.9374748   16.1228660
| 10>     C       18.1188928   15.6440716   16.4793247
| 11>     O       19.1914736   15.0690091   16.4630652
| 12>     C       17.9312302   16.8327390   17.3658992
| 13>     C       17.4307635   18.0075461   16.9156739
| 14>     C       17.0175450   18.3464293   15.4991812
| 15>     N       17.3872236   19.1174888   17.7619885
| 16>     C       17.9623451   19.1741926   19.0041353
| 17>     S       17.9357741   20.5564274   19.9111422
| 18>     N       18.5695067   18.0283358   19.4541278
| 19>     C       18.5376040   16.7194185   18.7706835
| 20>     C       17.8454293   15.6538008   19.6207866
| 21>     C       18.2813518   14.3169260   19.5571194
| 22>     C       17.6569286   13.3188784   20.3231460
| 23>     C       16.5862514   13.6577457   21.1668900
| 24>     C       16.1495304   14.9869035   21.2386241
| 25>     O       15.1102292   15.3166021   22.0458829
| 26>     C       16.7730899   15.9790090   20.4750624
| 27>     H       15.4173988   14.3947716   18.1005613
| 28>     H       13.9654606   15.2688747   17.5695786
| 29>     H       15.3572813   16.1757618   18.1699515
| 30>     H       15.0394781   14.6709051   15.5404598
| 31>     H       15.4700959   16.3642166   15.7238739
| 32>     H       17.2310343   17.5335097   14.7943819
| 33>     H       17.5699325   19.2230295   15.1363692
| 34>     H       15.9474229   18.5804679   15.4411468
| 35>     H       16.9707298   19.9770440   17.4399792
| 36>     H       18.9789670   18.0959972   20.3774370
| 37>     H       19.5824252   16.3985195   18.6443078
| 38>     H       19.1054534   14.0469185   18.8999491
| 39>     H       18.0029144   12.2887105   20.2570922
| 40>     H       16.0997729   12.8892888   21.7584713
| 41>     H       14.8420163   14.5131691   22.5167798
| 42>     H       16.4071776   16.9978768   20.5460228
| 43> *
| 44>
| 45>                          ****END OF INPUT****

CARTESIAN COORDINATES (ANGSTROEM)
---------------------------------
  C     15.061604   15.297540   17.587210
  C     15.618881   15.372400   16.154828
  O     16.993785   14.937475   16.122866
  C     18.118893   15.644072   16.479325
  O     19.191474   15.069009   16.463065
  C     17.931230   16.832739   17.365899
  C     17.430764   18.007546   16.915674
  C     17.017545   18.346429   15.499181
  N     17.387224   19.117489   17.761988
  C     17.962345   19.174193   19.004135
  S     17.935774   20.556427   19.911142
  N     18.569507   18.028336   19.454128
  C     18.537604   16.719418   18.770684
  C     17.845429   15.653801   19.620787
  C     18.281352   14.316926   19.557119
  C     17.656929   13.318878   20.323146
  C     16.586251   13.657746   21.166890
  C     16.149530   14.986904   21.238624
  O     15.110229   15.316602   22.045883
  C     16.773090   15.979009   20.475062
  H     15.417399   14.394772   18.100561
  H     13.965461   15.268875   17.569579
  H     15.357281   16.175762   18.169951
  H     15.039478   14.670905   15.540460
  H     15.470096   16.364217   15.723874
  H     17.231034   17.533510   14.794382
  H     17.569933   19.223029   15.136369
  H     15.947423   18.580468   15.441147
  H     16.970730   19.977044   17.439979
  H     18.978967   18.095997   20.377437
  H     19.582425   16.398519   18.644308
  H     19.105453   14.046919   18.899949
  H     18.002914   12.288710   20.257092
  H     16.099773   12.889289   21.758471
  H     14.842016   14.513169   22.516780
  H     16.407178   16.997877   20.546023

 Total Charge           Charge          ....    0
 Multiplicity           Mult            ....    1
 Number of Electrons    NEL             ....  154
 Basis Dimension        Dim             ....  828

ORBITAL ENERGIES
----------------

  NO   OCC          E(Eh)            E(eV)
   0   2.0000     -91.890224     -2500.4601
   1   2.0000     -20.601435      -560.5935
   2   2.0000     -20.597215      -560.4787
   3   2.0000     -20.551029      -559.2219
   4   2.0000     -15.627149      -425.2364
   5   2.0000     -15.611541      -424.8116
   6   2.0000     -11.400774      -310.2308
   7   2.0000     -11.386832      -309.8515
   8   2.0000     -11.330595      -308.3212
   9   2.0000     -11.315676      -307.9152
  10   2.0000     -11.313779      -307.8636
  11   2.0000     -11.306839      -307.6747
  12   2.0000     -11.272658      -306.7446
  13   2.0000     -11.268549      -306.6328
  14   2.0000     -11.262140      -306.4584
  15   2.0000     -11.254243      -306.2435
  16   2.0000     -11.243483      -305.9507
  17   2.0000     -11.239131      -305.8323
  18   2.0000     -11.235822      -305.7422
  19   2.0000     -11.226869      -305.4986
  20   2.0000      -8.895339      -242.0545
  21   2.0000      -6.576931      -178.9674
  22   2.0000      -6.574900      -178.9121
  23   2.0000      -6.574327      -178.8965
  24   2.0000      -1.448165       -39.4066
  25   2.0000      -1.417038       -38.5596
  26   2.0000      -1.359490       -36.9936
  27   2.0000      -1.341067       -36.4923
  28   2.0000      -1.240498       -33.7557
  29   2.0000      -1.158681       -31.5293
  30   2.0000      -1.125491       -30.6262
  31   2.0000      -1.047976       -28.5169
  32   2.0000      -1.038594       -28.2616
  33   2.0000      -1.017220       -27.6800
  34   2.0000      -1.005835       -27.3702
  35   2.0000      -0.990083       -26.9415
  36   2.0000      -0.927958       -25.2510
  37   2.0000      -0.893875       -24.3236
  38   2.0000      -0.855348       -23.2752
  39   2.0000      -0.840664       -22.8756
  40   2.0000      -0.834007       -22.6945
  41   2.0000      -0.831239       -22.6192
  42   2.0000      -0.751383       -20.4462
  43   2.0000      -0.740623       -20.1534
  44   2.0000      -0.730339       -19.8735
  45   2.0000      -0.695257       -18.9189
  46   2.0000      -0.687734       -18.7142
  47   2.0000      -0.680492       -18.5171
  48   2.0000      -0.675649       -18.3853
  49   2.0000      -0.663846       -18.0642
  50   2.0000      -0.652609       -17.7584
  51   2.0000      -0.642315       -17.4783
  52   2.0000      -0.639444       -17.4002
  53   2.0000      -0.619804       -16.8657
  54   2.0000      -0.611672       -16.6445
  55   2.0000      -0.605966       -16.4892
  56   2.0000      -0.601482       -16.3672
  57   2.0000      -0.590817       -16.0769
  58   2.0000      -0.578920       -15.7532
  59   2.0000      -0.571465       -15.5504
  60   2.0000      -0.565739       -15.3945
  61   2.0000      -0.556578       -15.1453
  62   2.0000      -0.537792       -14.6341
  63   2.0000      -0.533024       -14.5043
  64   2.0000      -0.517660       -14.0862
  65   2.0000      -0.512418       -13.9436
  66   2.0000      -0.504538       -13.7292
  67   2.0000      -0.501220       -13.6389
  68   2.0000      -0.483514       -13.1571
  69   2.0000      -0.465805       -12.6752
  70   2.0000      -0.454426       -12.3656
  71   2.0000      -0.450935       -12.2706
  72   2.0000      -0.358242        -9.7483
  73   2.0000      -0.347817        -9.4646
  74   2.0000      -0.329912        -8.9773
  75   2.0000      -0.322652        -8.7798
  76   2.0000      -0.318982        -8.6799
  77   0.0000       0.086594         2.3563
  78   0.0000       0.106776         2.9055
  79   0.0000       0.111030         3.0213
  80   0.0000       0.129466         3.5230
  81   0.0000       0.131200         3.5701

MULLIKEN ATOMIC CHARGES
-----------------------
   0 C :   -0.312366
   1 C :    0.007825
   2 O :   -0.315229
   3 C :    0.411192
   4 O :   -0.382388
   5 C :   -0.214511
   6 C :    0.149753
   7 C :   -0.329859
   8 N :   -0.138708
   9 C :    0.207226
  10 S :   -0.441696
  11 N :   -0.232014
  12 C :    0.101758
  13 C :    0.019905
  14 C :   -0.212120
  15 C :   -0.137190
  16 C :   -0.278882
  17 C :    0.325429
  18 O :   -0.358342
  19 C :   -0.277119
  20 H :    0.124934
  21 H :    0.111622
  22 H :    0.104593
  23 H :    0.129231
  24 H :    0.089259
  25 H :    0.122644
  26 H :    0.143071
  27 H :    0.120665
  28 H :    0.195651
  29 H :    0.204021
  30 H :    0.168381
  31 H :    0.175446
  32 H :    0.164169
  33 H :    0.131799
  34 H :    0.241021
  35 H :    0.180826
Sum of atomic charges:    0.0000000

LOEWDIN ATOMIC CHARGES
----------------------
   0 C :    0.104549
   1 C :   -0.022985
   2 O :    0.307659
   3 C :   -0.415713
   4 O :    0.125039
   5 C :   -0.076234
   6 C :   -0.104348
   7 C :    0.120468
   8 N :    0.401522
   9 C :   -0.457607
  10 S :   -0.038228
  11 N :    0.398480
  12 C :   -0.041311
  13 C :   -0.041191
  14 C :    0.021291
  15 C :    0.043300
  16 C :   -0.001851
  17 C :   -0.193012
  18 O :    0.395445
  19 C :    0.028086
  20 H :   -0.017865
  21 H :   -0.026160
  22 H :   -0.035347
  23 H :   -0.019928
  24 H :   -0.039854
  25 H :   -0.009575
  26 H :   -0.008056
  27 H :   -0.018173
  28 H :   -0.057929
  29 H :   -0.063324
  30 H :   -0.001627
  31 H :   -0.022092
  32 H :   -0.018639
  33 H :   -0.035088
  34 H :   -0.153572
  35 H :   -0.026129

  Mayer bond orders larger than 0.100000
B(  0-C ,  1-C ) :   0.9555 B(  0-C , 20-H ) :   0.9687 B(  0-C , 21-H ) :   0.9770
B(  0-C , 22-H ) :   0.9721 B(  1-C ,  2-O ) :   0.9092 B(  1-C , 23-H ) :   0.9860
B(  1-C , 24-H ) :   0.9740 B(  2-O ,  3-C ) :   1.1657 B(  3-C ,  4-O ) :   2.0796
B(  3-C ,  5-C ) :   0.9229 B(  5-C ,  6-C ) :   1.6982 B(  5-C , 12-C ) :   0.9431
B(  6-C ,  7-C ) :   0.9426 B(  6-C ,  8-N ) :   1.1064 B(  7-C , 25-H ) :   0.9822
B(  7-C , 26-H ) :   0.9679 B(  7-C , 27-H ) :   0.9676 B(  8-N ,  9-C ) :   1.1987
B(  8-N , 28-H ) :   0.9531 B(  9-C , 10-S ) :   1.6066 B(  9-C , 11-N ) :   1.2882
B( 11-N , 12-C ) :   0.9851 B( 11-N , 29-H ) :   0.9466 B( 12-C , 13-C ) :   0.9568
B( 12-C , 30-H ) :   0.9940 B( 13-C , 14-C ) :   1.3885 B( 13-C , 19-C ) :   1.3348
B( 14-C , 15-C ) :   1.4043 B( 14-C , 31-H ) :   0.9583 B( 15-C , 16-C ) :   1.3562
B( 15-C , 32-H ) :   0.9700 B( 16-C , 17-C ) :   1.3325 B( 16-C , 33-H ) :   0.9850
B( 17-C , 18-O ) :   1.1081 B( 17-C , 19-C ) :   1.3651 B( 18-O , 34-H ) :   0.9796
B( 19-C , 35-H ) :   0.9566

MP2 TOTAL ENERGY:    -1274.326631403 Eh
FINAL SINGLE POINT ENERGY     -1274.326631403474

DIPOLE MOMENT
-------------
                                X             Y             Z
Electronic contribution:      8.90052       6.46158       6.26341
Nuclear contribution   :    -10.37267      -7.47572      -7.04228
                        -----------------------------------------
Total Dipole Moment    :     -1.47216      -1.01415      -0.77888
                        -----------------------------------------
Magnitude (a.u.)       :      1.94997
Magnitude (Debye)      :      4.95643

Rotational constants in cm-1:     0.012010     0.009505     0.006762
Rotational constants in MHz :   360.042346   284.939189   202.729666

                             ****ORCA TERMINATED NORMALLY****
TOTAL RUN TIME: 0 days 1 hours 45 minutes 56 seconds 704 msec
