                         Program Version 5.0.0 -  RELEASE  -
|  1> ! ri-mp2 cc-pvtz cc-pvtz/c TightSCF NoKeepInts
|  2>
|  3> %scf
|  4>   MaxCore 4096
|  5> end
|  6> *xyz  0  1
|  7>     C       14.7625010   14.2338671   16.1631069
|  8>     C       15.7269461   14.9043909   15.1655785
|  9>     O       16.3600131   16.0193318   15.8201767
| 10>     C       17.4063925   15.8031126   16.6710936
| 11>     O       17.9537136   14.7165512   16.7702102
| 12>     C       17.7600050   16.9678628   17.5529583
| 13>     C       17.3177782   18.2432279   17.3895254
| 14>     C       16.4001861   18.7876530   16.3136843
| 15>     N       17.7701167   19.2497579   18.2497440
| 16>     C       18.7589378   19.0974512   19.1852911
| 17>     S       19.3253283   20.3740457   20.0714040
| 18>     N       19.2543610   17.8291478   19.3484393
| 19>     C       18.6956151   16.6194530   18.7166685
| 20>     C       17.9811189   15.7563138   19.7536444
| 21>     C       18.3327404   14.4038497   19.9190474
| 22>     C       17.6748875   13.6030177   20.8676155
| 23>     C       16.6553389   14.1583379   21.6592517
| 24>     C       16.2993207   15.5038642   21.4953817
| 25>     O       15.3108031   16.0414168   22.2538442
| 26>     C       16.9556298   16.2983103   20.5500953
| 27>     H       15.3117706   13.8107054   17.0140455
| 28>     H       14.2129636   13.4191809   15.6763285
| 29>     H       14.0341391   14.9588096   16.5469139
| 30>     H       16.4696132   14.1834858   14.7965983
| 31>     H       15.1509678   15.2692034   14.3055688
| 32>     H       16.7770673   18.5330290   15.3153098
| 33>     H       16.3019594   19.8792823   16.3516942
| 34>     H       15.3928119   18.3645501   16.4140529
| 35>     H       17.4185732   20.1881224   18.1460782
| 36>     H       19.9600100   17.7362830   20.0676899
| 37>     H       19.5369495   16.0408642   18.3084670
| 38>     H       19.1086289   13.9671256   19.2949224
| 39>     H       17.9523228   12.5565897   20.9807257
| 40>     H       16.1433056   13.5429423   22.3913611
| 41>     H       15.0081100   15.3530235   22.8647574
| 42>     H       16.6660732   17.3378396   20.4427252
| 43> *
| 44>
| 45>                          ****END OF INPUT****

CARTESIAN COORDINATES (ANGSTROEM)
---------------------------------
  C     14.762501   14.233867   16.163107
  C     15.726946   14.904391   15.165578
  O     16.360013   16.019332   15.820177
  C     17.406392   15.803113   16.671094
  O     17.953714   14.716551   16.770210
  C     17.760005   16.967863   17.552958
  C     17.317778   18.243228   17.389525
  C     16.400186   18.787653   16.313684
  N     17.770117   19.249758   18.249744
  C     18.758938   19.097451   19.185291
  S     19.325328   20.374046   20.071404
  N     19.254361   17.829148   19.348439
  C     18.695615   16.619453   18.716668
  C     17.981119   15.756314   19.753644
  C     18.332740   14.403850   19.919047
  C     17.674888   13.603018   20.867615
  C     16.655339   14.158338   21.659252
  C     16.299321   15.503864   21.495382
  O     15.310803   16.041417   22.253844
  C     16.955630   16.298310   20.550095
  H     15.311771   13.810705   17.014046
  H     14.212964   13.419181   15.676329
  H     14.034139   14.958810   16.546914
  H     16.469613   14.183486   14.796598
  H     15.150968   15.269203   14.305569
  H     16.777067   18.533029   15.315310
  H     16.301959   19.879282   16.351694
  H     15.392812   18.364550   16.414053
  H     17.418573   20.188122   18.146078
  H     19.960010   17.736283   20.067690
  H     19.536949   16.040864   18.308467
  H     19.108629   13.967126   19.294922
  H     17.952323   12.556590   20.980726
  H     16.143306   13.542942   22.391361
  H     15.008110   15.353024   22.864757
  H     16.666073   17.337840   20.442725

 Total Charge           Charge          ....    0
 Multiplicity           Mult            ....    1
 Number of Electrons    NEL             ....  154
 Basis Dimension        Dim             ....  828

ORBITAL ENERGIES
----------------

  NO   OCC          E(Eh)            E(eV)
   0   2.0000     -91.888206     -2500.4052
   1   2.0000     -20.603885      -560.6602
   2   2.0000     -20.591512      -560.3235
   3   2.0000     -20.545117      -559.0611
   4   2.0000     -15.628692      -425.2783
   5   2.0000     -15.606769      -424.6818
   6   2.0000     -11.396548      -310.1158
   7   2.0000     -11.383017      -309.7476
   8   2.0000     -11.337139      -308.4992
   9   2.0000     -11.307360      -307.6889
  10   2.0000     -11.305346      -307.6341
  11   2.0000     -11.299874      -307.4852
  12   2.0000     -11.260854      -306.4234
  13   2.0000     -11.258814      -306.3679
  14   2.0000     -11.253275      -306.2172
  15   2.0000     -11.247520      -306.0606
  16   2.0000     -11.237177      -305.7791
  17   2.0000     -11.233310      -305.6739
  18   2.0000     -11.230231      -305.5901
  19   2.0000     -11.227116      -305.5054
  20   2.0000      -8.893266      -241.9981
  21   2.0000      -6.574842      -178.9105
  22   2.0000      -6.572836      -178.8560
  23   2.0000      -6.572250      -178.8400
  24   2.0000      -1.454125       -39.5688
  25   2.0000      -1.411253       -38.4022
  26   2.0000      -1.357091       -36.9283
  27   2.0000      -1.339570       -36.4516
  28   2.0000      -1.237100       -33.6632
  29   2.0000      -1.152074       -31.3495
  30   2.0000      -1.119511       -30.4634
  31   2.0000      -1.042155       -28.3585
  32   2.0000      -1.034434       -28.1484
  33   2.0000      -1.009374       -27.4665
  34   2.0000      -0.997485       -27.1429
  35   2.0000      -0.982966       -26.7479
  36   2.0000      -0.921315       -25.0703
  37   2.0000      -0.893995       -24.3268
  38   2.0000      -0.847681       -23.0666
  39   2.0000      -0.835102       -22.7243
  40   2.0000      -0.827718       -22.5234
  41   2.0000      -0.815242       -22.1839
  42   2.0000      -0.755020       -20.5451
  43   2.0000      -0.736047       -20.0289
  44   2.0000      -0.724715       -19.7205
  45   2.0000      -0.690809       -18.7979
  46   2.0000      -0.685677       -18.6582
  47   2.0000      -0.679340       -18.4858
  48   2.0000      -0.671051       -18.2602
  49   2.0000      -0.654428       -17.8079
  50   2.0000      -0.651329       -17.7236
  51   2.0000      -0.644405       -17.5352
  52   2.0000      -0.631199       -17.1758
  53   2.0000      -0.611669       -16.6444
  54   2.0000      -0.600179       -16.3317
  55   2.0000      -0.599290       -16.3075
  56   2.0000      -0.594846       -16.1866
  57   2.0000      -0.581778       -15.8310
  58   2.0000      -0.573806       -15.6140
  59   2.0000      -0.563657       -15.3379
  60   2.0000      -0.558292       -15.1919
  61   2.0000      -0.547507       -14.8984
  62   2.0000      -0.535616       -14.5749
  63   2.0000      -0.530313       -14.4306
  64   2.0000      -0.516767       -14.0619
  65   2.0000      -0.509161       -13.8550
  66   2.0000      -0.497965       -13.5503
  67   2.0000      -0.495004       -13.4698
  68   2.0000      -0.481779       -13.1099
  69   2.0000      -0.463338       -12.6081
  70   2.0000      -0.459292       -12.4980
  71   2.0000      -0.452443       -12.3116
  72   2.0000      -0.354447        -9.6450
  73   2.0000      -0.343958        -9.3596
  74   2.0000      -0.327302        -8.9063
  75   2.0000      -0.315733        -8.5915
  76   2.0000      -0.313641        -8.5346
  77   0.0000       0.075744         2.0611
  78   0.0000       0.113355         3.0846
  79   0.0000       0.120850         3.2885
  80   0.0000       0.136122         3.7041
  81   0.0000       0.141446         3.8490

MULLIKEN ATOMIC CHARGES
-----------------------
   0 C :   -0.290227
   1 C :    0.026148
   2 O :   -0.348792
   3 C :    0.451785
   4 O :   -0.434258
   5 C :   -0.174505
   6 C :    0.142510
   7 C :   -0.283109
   8 N :   -0.120939
   9 C :    0.201404
  10 S :   -0.438819
  11 N :   -0.197606
  12 C :    0.035458
  13 C :    0.058102
  14 C :   -0.162522
  15 C :   -0.134386
  16 C :   -0.279079
  17 C :    0.311908
  18 O :   -0.359111
  19 C :   -0.273080
  20 H :    0.117761
  21 H :    0.094869
  22 H :    0.092875
  23 H :    0.111758
  24 H :    0.106790
  25 H :    0.127094
  26 H :    0.101317
  27 H :    0.127018
  28 H :    0.196782
  29 H :    0.193674
  30 H :    0.153571
  31 H :    0.153781
  32 H :    0.159236
  33 H :    0.128140
  34 H :    0.240044
  35 H :    0.164410
Sum of atomic charges:   -0.0000000

LOEWDIN ATOMIC CHARGES
----------------------
   0 C :    0.105766
   1 C :   -0.017815
   2 O :    0.306315
   3 C :   -0.414389
   4 O :    0.101569
   5 C :   -0.090871
   6 C :   -0.064427
   7 C :    0.125154
   8 N :    0.405003
   9 C :   -0.458985
  10 S :   -0.035632
  11 N :    0.398017
  12 C :   -0.046611
  13 C :   -0.039006
  14 C :    0.022032
  15 C :    0.040432
  16 C :   -0.002334
  17 C :   -0.192588
  18 O :    0.393019
  19 C :    0.028431
  20 H :   -0.022802
  21 H :   -0.026429
  22 H :   -0.029482
  23 H :   -0.027543
  24 H :   -0.026619
  25 H :   -0.008242
  26 H :   -0.021265
  27 H :   -0.009884
  28 H :   -0.059178
  29 H :   -0.063586
  30 H :   -0.005137
  31 H :   -0.025249
  32 H :   -0.021235
  33 H :   -0.036385
  34 H :   -0.154914
  35 H :   -0.025128

  Mayer bond orders larger than 0.100000
B(  0-C ,  1-C ) :   0.9634 B(  0-C , 20-H ) :   0.9746 B(  0-C , 21-H ) :   0.9758
B(  0-C , 22-H ) :   0.9774 B(  1-C ,  2-O ) :   0.8919 B(  1-C , 23-H ) :   0.9770
B(  1-C , 24-H ) :   0.9845 B(  2-O ,  3-C ) :   1.1583 B(  3-C ,  4-O ) :   1.9695
B(  3-C ,  5-C ) :   1.0614 B(  5-C ,  6-C ) :   1.6429 B(  5-C , 12-C ) :   0.9673
B(  6-C ,  7-C ) :   0.9563 B(  6-C ,  8-N ) :   1.1515 B(  7-C , 25-H ) :   0.9650
B(  7-C , 26-H ) :   0.9912 B(  7-C , 27-H ) :   0.9638 B(  8-N ,  9-C ) :   1.1774
B(  8-N , 28-H ) :   0.9487 B(  9-C , 10-S ) :   1.6112 B(  9-C , 11-N ) :   1.3048
B( 11-N , 12-C ) :   0.9922 B( 11-N , 29-H ) :   0.9519 B( 12-C , 13-C ) :   0.9465
B( 12-C , 30-H ) :   1.0004 B( 13-C , 14-C ) :   1.3749 B( 13-C , 19-C ) :   1.3694
B( 14-C , 15-C ) :   1.3946 B( 14-C , 31-H ) :   0.9648 B( 15-C , 16-C ) :   1.3622
B( 15-C , 32-H ) :   0.9714 B( 16-C , 17-C ) :   1.3316 B( 16-C , 33-H ) :   0.9860
B( 17-C , 18-O ) :   1.1080 B( 17-C , 19-C ) :   1.3790 B( 18-O , 34-H ) :   0.9806
B( 19-C , 35-H ) :   0.9585

MP2 TOTAL ENERGY:    -1274.349689575 Eh
FINAL SINGLE POINT ENERGY     -1274.349689575060

DIPOLE MOMENT
-------------
                                X             Y             Z
Electronic contribution:     10.95017       9.75928       9.22332
Nuclear contribution   :    -12.44722     -10.97907     -10.29666
                        -----------------------------------------
Total Dipole Moment    :     -1.49705      -1.21979      -1.07334
                        -----------------------------------------
Magnitude (a.u.)       :      2.20932
Magnitude (Debye)      :      5.61565

Rotational constants in cm-1:     0.010717     0.009171     0.006047
Rotational constants in MHz :   321.298845   274.945707   181.277188

                             ****ORCA TERMINATED NORMALLY****
TOTAL RUN TIME: 0 days 1 hours 33 minutes 4 seconds 446 msec
