                         Program Version 5.0.0 -  RELEASE  -
|  1> ! ri-mp2 cc-pvtz cc-pvtz/c TightSCF NoKeepInts
|  2>
|  3> %scf
|  4>   MaxCore 4096
|  5> end
|  6> *xyz  0  1
|  7>     C       14.8684971   15.1981607   17.5953357
|  8>     C       15.6502916   15.3123073   16.2765820
|  9>     O       17.0023165   14.8785189   16.5021669
| 10>     C       18.0891739   15.7087991   16.4411266
| 11>     O       19.1830346   15.1977032   16.2901196
| 12>     C       17.9727149   16.8803300   17.3578764
| 13>     C       17.4958471   18.0757776   16.9424465
| 14>     C       17.0164552   18.4340499   15.5520400
| 15>     N       17.5031740   19.1688153   17.8115195
| 16>     C       18.0948946   19.1769876   19.0476690
| 17>     S       18.1244279   20.5378603   19.9865591
| 18>     N       18.6653982   18.0000931   19.4662578
| 19>     C       18.5846026   16.7093523   18.7522185
| 20>     C       17.8604435   15.6473973   19.5784200
| 21>     C       18.2571270   14.3003699   19.4839968
| 22>     C       17.6029555   13.3041497   20.2272322
| 23>     C       16.5418926   13.6556626   21.0780917
| 24>     C       16.1433437   14.9950854   21.1781826
| 25>     O       15.1120729   15.3365781   21.9908988
| 26>     C       16.7963759   15.9854186   20.4372692
| 27>     H       15.1531713   16.0018278   18.2828247
| 28>     H       15.0646085   14.2350668   18.0842043
| 29>     H       13.7901635   15.2782418   17.4128652
| 30>     H       15.1901064   14.6379095   15.5426313
| 31>     H       15.5873592   16.3266764   15.8759519
| 32>     H       17.2404816   17.6507275   14.8177823
| 33>     H       17.5120499   19.3458493   15.1940371
| 34>     H       15.9346143   18.6155535   15.5407483
| 35>     H       17.1081379   20.0477110   17.5159576
| 36>     H       19.0848434   18.0321371   20.3869028
| 37>     H       19.6164324   16.3561208   18.6074056
| 38>     H       19.0693309   14.0222612   18.8153193
| 39>     H       17.9170539   12.2657954   20.1364410
| 40>     H       16.0320185   12.8888042   21.6516461
| 41>     H       14.8211178   14.5310467   22.4442858
| 42>     H       16.4604711   17.0128541   20.5289874
| 43> *
| 44>
| 45>                          ****END OF INPUT****

CARTESIAN COORDINATES (ANGSTROEM)
---------------------------------
  C     14.868497   15.198161   17.595336
  C     15.650292   15.312307   16.276582
  O     17.002316   14.878519   16.502167
  C     18.089174   15.708799   16.441127
  O     19.183035   15.197703   16.290120
  C     17.972715   16.880330   17.357876
  C     17.495847   18.075778   16.942446
  C     17.016455   18.434050   15.552040
  N     17.503174   19.168815   17.811519
  C     18.094895   19.176988   19.047669
  S     18.124428   20.537860   19.986559
  N     18.665398   18.000093   19.466258
  C     18.584603   16.709352   18.752218
  C     17.860443   15.647397   19.578420
  C     18.257127   14.300370   19.483997
  C     17.602955   13.304150   20.227232
  C     16.541893   13.655663   21.078092
  C     16.143344   14.995085   21.178183
  O     15.112073   15.336578   21.990899
  C     16.796376   15.985419   20.437269
  H     15.153171   16.001828   18.282825
  H     15.064609   14.235067   18.084204
  H     13.790164   15.278242   17.412865
  H     15.190106   14.637909   15.542631
  H     15.587359   16.326676   15.875952
  H     17.240482   17.650727   14.817782
  H     17.512050   19.345849   15.194037
  H     15.934614   18.615554   15.540748
  H     17.108138   20.047711   17.515958
  H     19.084843   18.032137   20.386903
  H     19.616432   16.356121   18.607406
  H     19.069331   14.022261   18.815319
  H     17.917054   12.265795   20.136441
  H     16.032018   12.888804   21.651646
  H     14.821118   14.531047   22.444286
  H     16.460471   17.012854   20.528987

 Total Charge           Charge          ....    0
 Multiplicity           Mult            ....    1
 Number of Electrons    NEL             ....  154
 Basis Dimension        Dim             ....  828

ORBITAL ENERGIES
----------------

  NO   OCC          E(Eh)            E(eV)
   0   2.0000     -91.888092     -2500.4021
   1   2.0000     -20.600545      -560.5693
   2   2.0000     -20.596538      -560.4603
   3   2.0000     -20.559282      -559.4465
   4   2.0000     -15.623456      -425.1358
   5   2.0000     -15.610535      -424.7843
   6   2.0000     -11.398359      -310.1651
   7   2.0000     -11.384922      -309.7995
   8   2.0000     -11.324405      -308.1527
   9   2.0000     -11.316288      -307.9319
  10   2.0000     -11.312818      -307.8374
  11   2.0000     -11.305398      -307.6355
  12   2.0000     -11.271720      -306.7191
  13   2.0000     -11.267236      -306.5971
  14   2.0000     -11.261288      -306.4352
  15   2.0000     -11.253344      -306.2191
  16   2.0000     -11.242500      -305.9240
  17   2.0000     -11.238366      -305.8115
  18   2.0000     -11.235541      -305.7346
  19   2.0000     -11.227039      -305.5033
  20   2.0000      -8.893229      -241.9971
  21   2.0000      -6.574828      -178.9102
  22   2.0000      -6.572790      -178.8547
  23   2.0000      -6.572225      -178.8393
  24   2.0000      -1.455539       -39.6072
  25   2.0000      -1.416347       -38.5408
  26   2.0000      -1.363803       -37.1110
  27   2.0000      -1.338135       -36.4125
  28   2.0000      -1.238392       -33.6984
  29   2.0000      -1.157677       -31.5020
  30   2.0000      -1.123996       -30.5855
  31   2.0000      -1.047147       -28.4943
  32   2.0000      -1.039289       -28.2805
  33   2.0000      -1.016053       -27.6482
  34   2.0000      -1.004148       -27.3243
  35   2.0000      -0.988085       -26.8872
  36   2.0000      -0.926585       -25.2137
  37   2.0000      -0.888890       -24.1879
  38   2.0000      -0.853125       -23.2147
  39   2.0000      -0.839313       -22.8389
  40   2.0000      -0.833258       -22.6741
  41   2.0000      -0.832605       -22.6563
  42   2.0000      -0.758204       -20.6318
  43   2.0000      -0.737764       -20.0756
  44   2.0000      -0.729612       -19.8537
  45   2.0000      -0.694923       -18.9098
  46   2.0000      -0.689218       -18.7546
  47   2.0000      -0.682816       -18.5804
  48   2.0000      -0.676219       -18.4008
  49   2.0000      -0.664199       -18.0738
  50   2.0000      -0.651872       -17.7383
  51   2.0000      -0.639189       -17.3932
  52   2.0000      -0.632575       -17.2132
  53   2.0000      -0.622446       -16.9376
  54   2.0000      -0.611502       -16.6398
  55   2.0000      -0.605173       -16.4676
  56   2.0000      -0.600685       -16.3455
  57   2.0000      -0.590004       -16.0548
  58   2.0000      -0.577158       -15.7053
  59   2.0000      -0.571721       -15.5573
  60   2.0000      -0.564092       -15.3497
  61   2.0000      -0.557662       -15.1747
  62   2.0000      -0.538589       -14.6557
  63   2.0000      -0.528747       -14.3879
  64   2.0000      -0.517277       -14.0758
  65   2.0000      -0.511941       -13.9306
  66   2.0000      -0.502674       -13.6785
  67   2.0000      -0.500388       -13.6163
  68   2.0000      -0.487281       -13.2596
  69   2.0000      -0.466251       -12.6873
  70   2.0000      -0.456889       -12.4326
  71   2.0000      -0.451312       -12.2808
  72   2.0000      -0.356164        -9.6917
  73   2.0000      -0.347171        -9.4470
  74   2.0000      -0.327952        -8.9240
  75   2.0000      -0.320726        -8.7274
  76   2.0000      -0.316798        -8.6205
  77   0.0000       0.092139         2.5072
  78   0.0000       0.100079         2.7233
  79   0.0000       0.109900         2.9905
  80   0.0000       0.127529         3.4702
  81   0.0000       0.130836         3.5602

MULLIKEN ATOMIC CHARGES
-----------------------
   0 C :   -0.292858
   1 C :    0.003916
   2 O :   -0.309081
   3 C :    0.384301
   4 O :   -0.364882
   5 C :   -0.153668
   6 C :    0.124295
   7 C :   -0.330250
   8 N :   -0.138454
   9 C :    0.210389
  10 S :   -0.445252
  11 N :   -0.231707
  12 C :    0.077499
  13 C :    0.050157
  14 C :   -0.203121
  15 C :   -0.135450
  16 C :   -0.282600
  17 C :    0.335604
  18 O :   -0.359390
  19 C :   -0.302061
  20 H :    0.104795
  21 H :    0.116124
  22 H :    0.105955
  23 H :    0.123721
  24 H :    0.082233
  25 H :    0.117404
  26 H :    0.138969
  27 H :    0.122598
  28 H :    0.194264
  29 H :    0.203692
  30 H :    0.168879
  31 H :    0.165775
  32 H :    0.163138
  33 H :    0.131481
  34 H :    0.240976
  35 H :    0.182610
Sum of atomic charges:   -0.0000000

LOEWDIN ATOMIC CHARGES
----------------------
   0 C :    0.107198
   1 C :   -0.026879
   2 O :    0.321325
   3 C :   -0.423177
   4 O :    0.139417
   5 C :   -0.075210
   6 C :   -0.114146
   7 C :    0.119224
   8 N :    0.399744
   9 C :   -0.456248
  10 S :   -0.041305
  11 N :    0.398379
  12 C :   -0.040205
  13 C :   -0.040251
  14 C :    0.024247
  15 C :    0.043695
  16 C :   -0.002132
  17 C :   -0.192787
  18 O :    0.395189
  19 C :    0.027900
  20 H :   -0.031797
  21 H :   -0.019735
  22 H :   -0.027330
  23 H :   -0.025390
  24 H :   -0.038422
  25 H :   -0.012197
  26 H :   -0.009409
  27 H :   -0.017862
  28 H :   -0.059336
  29 H :   -0.063629
  30 H :   -0.002042
  31 H :   -0.022493
  32 H :   -0.019158
  33 H :   -0.035471
  34 H :   -0.153743
  35 H :   -0.025965

  Mayer bond orders larger than 0.100000
B(  0-C ,  1-C ) :   0.9681 B(  0-C , 20-H ) :   0.9725 B(  0-C , 21-H ) :   0.9716
B(  0-C , 22-H ) :   0.9779 B(  1-C ,  2-O ) :   0.9187 B(  1-C , 23-H ) :   0.9861
B(  1-C , 24-H ) :   0.9733 B(  2-O ,  3-C ) :   1.1090 B(  3-C ,  4-O ) :   2.0940
B(  3-C ,  5-C ) :   0.9230 B(  5-C ,  6-C ) :   1.7194 B(  5-C , 12-C ) :   0.9567
B(  6-C ,  7-C ) :   0.9374 B(  6-C ,  8-N ) :   1.1029 B(  7-C , 25-H ) :   0.9839
B(  7-C , 26-H ) :   0.9705 B(  7-C , 27-H ) :   0.9681 B(  8-N ,  9-C ) :   1.2038
B(  8-N , 28-H ) :   0.9543 B(  9-C , 10-S ) :   1.6032 B(  9-C , 11-N ) :   1.2853
B( 11-N , 12-C ) :   0.9827 B( 11-N , 29-H ) :   0.9460 B( 12-C , 13-C ) :   0.9493
B( 12-C , 30-H ) :   0.9963 B( 13-C , 14-C ) :   1.3837 B( 13-C , 19-C ) :   1.3356
B( 14-C , 15-C ) :   1.4044 B( 14-C , 31-H ) :   0.9633 B( 15-C , 16-C ) :   1.3540
B( 15-C , 32-H ) :   0.9701 B( 16-C , 17-C ) :   1.3339 B( 16-C , 33-H ) :   0.9852
B( 17-C , 18-O ) :   1.1063 B( 17-C , 19-C ) :   1.3568 B( 18-O , 34-H ) :   0.9798
B( 19-C , 35-H ) :   0.9567

MP2 TOTAL ENERGY:    -1274.316535242 Eh
FINAL SINGLE POINT ENERGY     -1274.316535241815

DIPOLE MOMENT
-------------
                                X             Y             Z
Electronic contribution:      9.67678       6.58256       6.34850
Nuclear contribution   :    -11.20370      -7.73178      -7.27492
                        -----------------------------------------
Total Dipole Moment    :     -1.52692      -1.14922      -0.92642
                        -----------------------------------------
Magnitude (a.u.)       :      2.12378
Magnitude (Debye)      :      5.39823

Rotational constants in cm-1:     0.012264     0.009380     0.006800
Rotational constants in MHz :   367.679876   281.198397   203.855518

                             ****ORCA TERMINATED NORMALLY****
TOTAL RUN TIME: 0 days 1 hours 55 minutes 0 seconds 45 msec
