                         Program Version 5.0.0 -  RELEASE  -
|  1> ! ri-mp2 cc-pvtz cc-pvtz/c TightSCF NoKeepInts
|  2>
|  3> %scf
|  4>   MaxCore 4096
|  5> end
|  6> *xyz  0  1
|  7>     C       15.0442537   14.5762076   16.8018112
|  8>     C       16.4818984   14.0195829   16.6823381
|  9>     O       17.4955343   15.0234976   16.4175626
| 10>     C       17.2104137   16.3481359   16.2341249
| 11>     O       16.5069310   16.7254104   15.3135538
| 12>     C       17.7092454   17.2294029   17.3477203
| 13>     C       17.4562941   18.5630631   17.3853032
| 14>     C       16.6406123   19.3720216   16.3994212
| 15>     N       18.0039456   19.3523551   18.4010997
| 16>     C       18.9210756   18.9179454   19.3202179
| 17>     S       19.6201906   19.9440271   20.4130335
| 18>     N       19.2397462   17.5847425   19.2815484
| 19>     C       18.5564910   16.5751425   18.4531450
| 20>     C       17.7444115   15.6541976   19.3580317
| 21>     C       18.2362162   14.3782947   19.6921729
| 22>     C       17.4955210   13.5218023   20.5240305
| 23>     C       16.2558002   13.9466450   21.0312986
| 24>     C       15.7702487   15.2222179   20.7129337
| 25>     O       14.5751584   15.6368994   21.2029090
| 26>     C       16.5100409   16.0728934   19.8860398
| 27>     H       14.9809488   15.3653504   17.5605308
| 28>     H       14.3547997   13.7758110   17.0957802
| 29>     H       14.6931021   14.9776885   15.8429580
| 30>     H       16.7335984   13.4922030   17.6104064
| 31>     H       16.5019718   13.2764712   15.8747859
| 32>     H       15.6164730   18.9827837   16.3348479
| 33>     H       17.0775861   19.3092171   15.3945380
| 34>     H       16.5741425   20.4334409   16.6654059
| 35>     H       17.7876535   20.3357069   18.4379064
| 36>     H       19.8959789   17.2886725   19.9924797
| 37>     H       19.3332840   15.9743957   17.9591090
| 38>     H       19.1941747   14.0468323   19.2999619
| 39>     H       17.8831482   12.5357116   20.7749194
| 40>     H       15.6800163   13.2889655   21.6743849
| 41>     H       14.2457271   14.9443419   21.7954781
| 42>     H       16.1203661   17.0599225   19.6622117
| 43> *
| 44>
| 45>                          ****END OF INPUT****

CARTESIAN COORDINATES (ANGSTROEM)
---------------------------------
  C     15.044254   14.576208   16.801811
  C     16.481898   14.019583   16.682338
  O     17.495534   15.023498   16.417563
  C     17.210414   16.348136   16.234125
  O     16.506931   16.725410   15.313554
  C     17.709245   17.229403   17.347720
  C     17.456294   18.563063   17.385303
  C     16.640612   19.372022   16.399421
  N     18.003946   19.352355   18.401100
  C     18.921076   18.917945   19.320218
  S     19.620191   19.944027   20.413034
  N     19.239746   17.584743   19.281548
  C     18.556491   16.575142   18.453145
  C     17.744411   15.654198   19.358032
  C     18.236216   14.378295   19.692173
  C     17.495521   13.521802   20.524030
  C     16.255800   13.946645   21.031299
  C     15.770249   15.222218   20.712934
  O     14.575158   15.636899   21.202909
  C     16.510041   16.072893   19.886040
  H     14.980949   15.365350   17.560531
  H     14.354800   13.775811   17.095780
  H     14.693102   14.977688   15.842958
  H     16.733598   13.492203   17.610406
  H     16.501972   13.276471   15.874786
  H     15.616473   18.982784   16.334848
  H     17.077586   19.309217   15.394538
  H     16.574143   20.433441   16.665406
  H     17.787653   20.335707   18.437906
  H     19.895979   17.288673   19.992480
  H     19.333284   15.974396   17.959109
  H     19.194175   14.046832   19.299962
  H     17.883148   12.535712   20.774919
  H     15.680016   13.288965   21.674385
  H     14.245727   14.944342   21.795478
  H     16.120366   17.059922   19.662212

 Total Charge           Charge          ....    0
 Multiplicity           Mult            ....    1
 Number of Electrons    NEL             ....  154
 Basis Dimension        Dim             ....  828

ORBITAL ENERGIES
----------------

  NO   OCC          E(Eh)            E(eV)
   0   2.0000     -91.890026     -2500.4547
   1   2.0000     -20.602097      -560.6116
   2   2.0000     -20.583418      -560.1033
   3   2.0000     -20.543677      -559.0219
   4   2.0000     -15.630419      -425.3253
   5   2.0000     -15.609361      -424.7523
   6   2.0000     -11.393454      -310.0316
   7   2.0000     -11.384955      -309.8004
   8   2.0000     -11.337092      -308.4980
   9   2.0000     -11.319458      -308.0181
  10   2.0000     -11.310831      -307.7833
  11   2.0000     -11.297937      -307.4325
  12   2.0000     -11.264479      -306.5221
  13   2.0000     -11.260891      -306.4244
  14   2.0000     -11.258692      -306.3646
  15   2.0000     -11.252963      -306.2087
  16   2.0000     -11.248444      -306.0857
  17   2.0000     -11.243118      -305.9408
  18   2.0000     -11.243073      -305.9396
  19   2.0000     -11.223782      -305.4146
  20   2.0000      -8.895075      -242.0473
  21   2.0000      -6.576647      -178.9596
  22   2.0000      -6.574645      -178.9052
  23   2.0000      -6.574056      -178.8891
  24   2.0000      -1.441403       -39.2226
  25   2.0000      -1.421724       -38.6871
  26   2.0000      -1.349701       -36.7272
  27   2.0000      -1.341530       -36.5049
  28   2.0000      -1.240179       -33.7470
  29   2.0000      -1.162356       -31.6293
  30   2.0000      -1.121269       -30.5113
  31   2.0000      -1.046030       -28.4639
  32   2.0000      -1.031033       -28.0558
  33   2.0000      -1.020733       -27.7756
  34   2.0000      -0.997953       -27.1557
  35   2.0000      -0.985858       -26.8266
  36   2.0000      -0.925047       -25.1718
  37   2.0000      -0.895676       -24.3726
  38   2.0000      -0.849086       -23.1048
  39   2.0000      -0.842672       -22.9303
  40   2.0000      -0.838723       -22.8228
  41   2.0000      -0.819691       -22.3049
  42   2.0000      -0.744377       -20.2555
  43   2.0000      -0.734709       -19.9925
  44   2.0000      -0.719051       -19.5664
  45   2.0000      -0.700643       -19.0655
  46   2.0000      -0.690580       -18.7916
  47   2.0000      -0.673131       -18.3168
  48   2.0000      -0.670614       -18.2483
  49   2.0000      -0.659332       -17.9413
  50   2.0000      -0.654364       -17.8061
  51   2.0000      -0.644476       -17.5371
  52   2.0000      -0.637698       -17.3526
  53   2.0000      -0.623239       -16.9592
  54   2.0000      -0.612568       -16.6688
  55   2.0000      -0.604207       -16.4413
  56   2.0000      -0.601284       -16.3618
  57   2.0000      -0.581806       -15.8317
  58   2.0000      -0.571910       -15.5625
  59   2.0000      -0.567134       -15.4325
  60   2.0000      -0.547390       -14.8952
  61   2.0000      -0.541524       -14.7356
  62   2.0000      -0.534916       -14.5558
  63   2.0000      -0.529971       -14.4212
  64   2.0000      -0.523890       -14.2558
  65   2.0000      -0.515222       -14.0199
  66   2.0000      -0.504388       -13.7251
  67   2.0000      -0.493175       -13.4200
  68   2.0000      -0.488097       -13.2818
  69   2.0000      -0.463013       -12.5992
  70   2.0000      -0.454912       -12.3788
  71   2.0000      -0.441252       -12.0071
  72   2.0000      -0.355760        -9.6807
  73   2.0000      -0.354415        -9.6441
  74   2.0000      -0.330326        -8.9886
  75   2.0000      -0.326330        -8.8799
  76   2.0000      -0.317571        -8.6416
  77   0.0000       0.072034         1.9601
  78   0.0000       0.100773         2.7422
  79   0.0000       0.121556         3.3077
  80   0.0000       0.129136         3.5140
  81   0.0000       0.132409         3.6030

MULLIKEN ATOMIC CHARGES
-----------------------
   0 C :   -0.326181
   1 C :    0.037014
   2 O :   -0.394327
   3 C :    0.496968
   4 O :   -0.415242
   5 C :   -0.276902
   6 C :    0.165937
   7 C :   -0.270865
   8 N :   -0.123606
   9 C :    0.215088
  10 S :   -0.439744
  11 N :   -0.207723
  12 C :    0.069464
  13 C :    0.074493
  14 C :   -0.202502
  15 C :   -0.127757
  16 C :   -0.274387
  17 C :    0.326960
  18 O :   -0.358643
  19 C :   -0.302113
  20 H :    0.103033
  21 H :    0.105561
  22 H :    0.128620
  23 H :    0.109162
  24 H :    0.116979
  25 H :    0.129585
  26 H :    0.134525
  27 H :    0.095242
  28 H :    0.197764
  29 H :    0.194625
  30 H :    0.151034
  31 H :    0.151248
  32 H :    0.165035
  33 H :    0.133521
  34 H :    0.242052
  35 H :    0.176082
Sum of atomic charges:    0.0000000

LOEWDIN ATOMIC CHARGES
----------------------
   0 C :    0.104912
   1 C :   -0.008955
   2 O :    0.283431
   3 C :   -0.419741
   4 O :    0.113095
   5 C :   -0.098913
   6 C :   -0.058332
   7 C :    0.131452
   8 N :    0.407185
   9 C :   -0.455520
  10 S :   -0.034624
  11 N :    0.396263
  12 C :   -0.052620
  13 C :   -0.036585
  14 C :    0.014169
  15 C :    0.040704
  16 C :   -0.001955
  17 C :   -0.189306
  18 O :    0.396489
  19 C :    0.032356
  20 H :   -0.031142
  21 H :   -0.024120
  22 H :   -0.025169
  23 H :   -0.030654
  24 H :   -0.027856
  25 H :   -0.005432
  26 H :   -0.002970
  27 H :   -0.023355
  28 H :   -0.057375
  29 H :   -0.065275
  30 H :   -0.008613
  31 H :   -0.029326
  32 H :   -0.020060
  33 H :   -0.034558
  34 H :   -0.152478
  35 H :   -0.025124

  Mayer bond orders larger than 0.100000
B(  0-C ,  1-C ) :   0.9640 B(  0-C , 20-H ) :   0.9720 B(  0-C , 21-H ) :   0.9752
B(  0-C , 22-H ) :   0.9716 B(  1-C ,  2-O ) :   0.8856 B(  1-C , 23-H ) :   0.9716
B(  1-C , 24-H ) :   0.9853 B(  2-O ,  3-C ) :   1.1073 B(  3-C ,  4-O ) :   2.0035
B(  3-C ,  5-C ) :   1.0608 B(  5-C ,  6-C ) :   1.6459 B(  5-C , 12-C ) :   0.9727
B(  6-C ,  7-C ) :   0.9668 B(  6-C ,  8-N ) :   1.1622 B(  7-C , 25-H ) :   0.9619
B(  7-C , 26-H ) :   0.9583 B(  7-C , 27-H ) :   0.9898 B(  8-N ,  9-C ) :   1.1824
B(  8-N , 28-H ) :   0.9478 B(  9-C , 10-S ) :   1.6056 B(  9-C , 11-N ) :   1.3075
B( 11-N , 12-C ) :   0.9707 B( 11-N , 29-H ) :   0.9523 B( 12-C , 13-C ) :   0.9429
B( 12-C , 30-H ) :   1.0014 B( 13-C , 14-C ) :   1.3481 B( 13-C , 19-C ) :   1.3574
B( 14-C , 15-C ) :   1.3897 B( 14-C , 31-H ) :   0.9751 B( 15-C , 16-C ) :   1.3609
B( 15-C , 32-H ) :   0.9695 B( 16-C , 17-C ) :   1.3319 B( 16-C , 33-H ) :   0.9837
B( 17-C , 18-O ) :   1.1101 B( 17-C , 19-C ) :   1.3619 B( 18-O , 34-H ) :   0.9792
B( 19-C , 35-H ) :   0.9570

MP2 TOTAL ENERGY:    -1274.334907611 Eh
FINAL SINGLE POINT ENERGY     -1274.334907611273

DIPOLE MOMENT
-------------
                                X             Y             Z
Electronic contribution:      9.74260       9.03990       5.81986
Nuclear contribution   :    -10.73525     -10.70572      -5.70318
                        -----------------------------------------
Total Dipole Moment    :     -0.99265      -1.66582       0.11668
                        -----------------------------------------
Magnitude (a.u.)       :      1.94266
Magnitude (Debye)      :      4.93785

Rotational constants in cm-1:     0.012557     0.009049     0.006598
Rotational constants in MHz :   376.447053   271.290941   197.810883

                             ****ORCA TERMINATED NORMALLY****
TOTAL RUN TIME: 0 days 2 hours 23 minutes 53 seconds 498 msec
