                         Program Version 5.0.0 -  RELEASE  -
|  1> ! ri-mp2 cc-pvtz cc-pvtz/c TightSCF NoKeepInts
|  2>
|  3> %scf
|  4>   MaxCore 4096
|  5> end
|  6> *xyz  0  1
|  7>     C       15.2424350   13.8390017   15.8816352
|  8>     C       15.5699742   15.1065521   15.0594808
|  9>     O       16.3525027   16.0910982   15.7793827
| 10>     C       17.2933306   15.8076474   16.7316445
| 11>     O       17.8352333   14.7195630   16.8292668
| 12>     C       17.6917217   16.9730973   17.5963396
| 13>     C       17.2790899   18.2596685   17.4365353
| 14>     C       16.3416608   18.8262327   16.3892475
| 15>     N       17.7784545   19.2583057   18.2801578
| 16>     C       18.7837365   19.0854143   19.1940523
| 17>     S       19.4054349   20.3520901   20.0570540
| 18>     N       19.2459025   17.8048886   19.3564487
| 19>     C       18.6373930   16.6077184   18.7476154
| 20>     C       17.9167506   15.7769463   19.8067155
| 21>     C       18.2239714   14.4138292   19.9731251
| 22>     C       17.5613143   13.6427183   20.9427272
| 23>     C       16.5817117   14.2388512   21.7548413
| 24>     C       16.2698427   15.5951908   21.5902174
| 25>     O       15.3198318   16.1722999   22.3685624
| 26>     C       16.9306456   16.3599402   20.6237711
| 27>     H       16.1075698   13.1684068   15.9513298
| 28>     H       14.4342538   13.2756591   15.4000090
| 29>     H       14.9153663   14.1001853   16.8959116
| 30>     H       16.1190129   14.7992680   14.1597671
| 31>     H       14.6345406   15.5754441   14.7283795
| 32>     H       15.3450931   18.3760401   16.4771726
| 33>     H       16.7194364   18.6230616   15.3794153
| 34>     H       16.2156792   19.9123503   16.4742913
| 35>     H       17.4524955   20.2058002   18.1764132
| 36>     H       19.9654237   17.6967586   20.0596071
| 37>     H       19.4534665   15.9998318   18.3306775
| 38>     H       18.9687514   13.9460405   19.3336937
| 39>     H       17.8041994   12.5877906   21.0563618
| 40>     H       16.0661619   13.6465676   22.5033623
| 41>     H       15.0087650   15.4992042   22.9922006
| 42>     H       16.6758468   17.4085376   20.5165867
| 43> *
| 44>
| 45>                          ****END OF INPUT****

CARTESIAN COORDINATES (ANGSTROEM)
---------------------------------
  C     15.242435   13.839002   15.881635
  C     15.569974   15.106552   15.059481
  O     16.352503   16.091098   15.779383
  C     17.293331   15.807647   16.731645
  O     17.835233   14.719563   16.829267
  C     17.691722   16.973097   17.596340
  C     17.279090   18.259669   17.436535
  C     16.341661   18.826233   16.389247
  N     17.778454   19.258306   18.280158
  C     18.783736   19.085414   19.194052
  S     19.405435   20.352090   20.057054
  N     19.245902   17.804889   19.356449
  C     18.637393   16.607718   18.747615
  C     17.916751   15.776946   19.806715
  C     18.223971   14.413829   19.973125
  C     17.561314   13.642718   20.942727
  C     16.581712   14.238851   21.754841
  C     16.269843   15.595191   21.590217
  O     15.319832   16.172300   22.368562
  C     16.930646   16.359940   20.623771
  H     16.107570   13.168407   15.951330
  H     14.434254   13.275659   15.400009
  H     14.915366   14.100185   16.895912
  H     16.119013   14.799268   14.159767
  H     14.634541   15.575444   14.728380
  H     15.345093   18.376040   16.477173
  H     16.719436   18.623062   15.379415
  H     16.215679   19.912350   16.474291
  H     17.452495   20.205800   18.176413
  H     19.965424   17.696759   20.059607
  H     19.453467   15.999832   18.330678
  H     18.968751   13.946041   19.333694
  H     17.804199   12.587791   21.056362
  H     16.066162   13.646568   22.503362
  H     15.008765   15.499204   22.992201
  H     16.675847   17.408538   20.516587

 Total Charge           Charge          ....    0
 Multiplicity           Mult            ....    1
 Number of Electrons    NEL             ....  154
 Basis Dimension        Dim             ....  828

ORBITAL ENERGIES
----------------

  NO   OCC          E(Eh)            E(eV)
   0   2.0000     -91.887666     -2500.3905
   1   2.0000     -20.600818      -560.5768
   2   2.0000     -20.591223      -560.3157
   3   2.0000     -20.543595      -559.0196
   4   2.0000     -15.628060      -425.2611
   5   2.0000     -15.606137      -424.6646
   6   2.0000     -11.397535      -310.1427
   7   2.0000     -11.382287      -309.7278
   8   2.0000     -11.336615      -308.4850
   9   2.0000     -11.306967      -307.6782
  10   2.0000     -11.306033      -307.6528
  11   2.0000     -11.304338      -307.6067
  12   2.0000     -11.260364      -306.4101
  13   2.0000     -11.258190      -306.3509
  14   2.0000     -11.252780      -306.2037
  15   2.0000     -11.247041      -306.0476
  16   2.0000     -11.236747      -305.7674
  17   2.0000     -11.232888      -305.6624
  18   2.0000     -11.229645      -305.5742
  19   2.0000     -11.226033      -305.4759
  20   2.0000      -8.892730      -241.9835
  21   2.0000      -6.574308      -178.8960
  22   2.0000      -6.572301      -178.8414
  23   2.0000      -6.571715      -178.8255
  24   2.0000      -1.448049       -39.4034
  25   2.0000      -1.410965       -38.3943
  26   2.0000      -1.355975       -36.8979
  27   2.0000      -1.339018       -36.4365
  28   2.0000      -1.236505       -33.6470
  29   2.0000      -1.151422       -31.3318
  30   2.0000      -1.118288       -30.4302
  31   2.0000      -1.041451       -28.3393
  32   2.0000      -1.034138       -28.1403
  33   2.0000      -1.008894       -27.4534
  34   2.0000      -0.996808       -27.1245
  35   2.0000      -0.982135       -26.7253
  36   2.0000      -0.920985       -25.0613
  37   2.0000      -0.897610       -24.4252
  38   2.0000      -0.847661       -23.0660
  39   2.0000      -0.835233       -22.7278
  40   2.0000      -0.827277       -22.5114
  41   2.0000      -0.816424       -22.2160
  42   2.0000      -0.744505       -20.2590
  43   2.0000      -0.730517       -19.8784
  44   2.0000      -0.724072       -19.7030
  45   2.0000      -0.689645       -18.7662
  46   2.0000      -0.684555       -18.6277
  47   2.0000      -0.677932       -18.4475
  48   2.0000      -0.671678       -18.2773
  49   2.0000      -0.660501       -17.9731
  50   2.0000      -0.648878       -17.6569
  51   2.0000      -0.643578       -17.5126
  52   2.0000      -0.632408       -17.2087
  53   2.0000      -0.613690       -16.6994
  54   2.0000      -0.600054       -16.3283
  55   2.0000      -0.598941       -16.2980
  56   2.0000      -0.594710       -16.1829
  57   2.0000      -0.579624       -15.7724
  58   2.0000      -0.572889       -15.5891
  59   2.0000      -0.565667       -15.3926
  60   2.0000      -0.557338       -15.1659
  61   2.0000      -0.541649       -14.7390
  62   2.0000      -0.538509       -14.6536
  63   2.0000      -0.524002       -14.2588
  64   2.0000      -0.516000       -14.0411
  65   2.0000      -0.510896       -13.9022
  66   2.0000      -0.501507       -13.6467
  67   2.0000      -0.494884       -13.4665
  68   2.0000      -0.478644       -13.0246
  69   2.0000      -0.463262       -12.6060
  70   2.0000      -0.455159       -12.3855
  71   2.0000      -0.448605       -12.2072
  72   2.0000      -0.353653        -9.6234
  73   2.0000      -0.343499        -9.3471
  74   2.0000      -0.326792        -8.8925
  75   2.0000      -0.315236        -8.5780
  76   2.0000      -0.313013        -8.5175
  77   0.0000       0.075906         2.0655
  78   0.0000       0.113790         3.0964
  79   0.0000       0.122029         3.3206
  80   0.0000       0.136364         3.7106
  81   0.0000       0.140346         3.8190

MULLIKEN ATOMIC CHARGES
-----------------------
   0 C :   -0.305427
   1 C :    0.047677
   2 O :   -0.351862
   3 C :    0.457865
   4 O :   -0.433017
   5 C :   -0.181141
   6 C :    0.142922
   7 C :   -0.281322
   8 N :   -0.120613
   9 C :    0.201010
  10 S :   -0.439534
  11 N :   -0.197065
  12 C :    0.036594
  13 C :    0.058596
  14 C :   -0.162520
  15 C :   -0.134076
  16 C :   -0.279253
  17 C :    0.311653
  18 O :   -0.359231
  19 C :   -0.275094
  20 H :    0.128010
  21 H :    0.096414
  22 H :    0.100483
  23 H :    0.094487
  24 H :    0.099748
  25 H :    0.124443
  26 H :    0.128759
  27 H :    0.101612
  28 H :    0.196555
  29 H :    0.193583
  30 H :    0.154289
  31 H :    0.153851
  32 H :    0.158903
  33 H :    0.127929
  34 H :    0.240008
  35 H :    0.164763
Sum of atomic charges:   -0.0000000

LOEWDIN ATOMIC CHARGES
----------------------
   0 C :    0.104595
   1 C :   -0.009816
   2 O :    0.296457
   3 C :   -0.415078
   4 O :    0.108605
   5 C :   -0.090880
   6 C :   -0.063684
   7 C :    0.124581
   8 N :    0.404929
   9 C :   -0.459453
  10 S :   -0.036256
  11 N :    0.398214
  12 C :   -0.046868
  13 C :   -0.038861
  14 C :    0.022261
  15 C :    0.040511
  16 C :   -0.002621
  17 C :   -0.192936
  18 O :    0.392862
  19 C :    0.027922
  20 H :   -0.024163
  21 H :   -0.027537
  22 H :   -0.026264
  23 H :   -0.028749
  24 H :   -0.026139
  25 H :   -0.010146
  26 H :   -0.008019
  27 H :   -0.021655
  28 H :   -0.059438
  29 H :   -0.063574
  30 H :   -0.005533
  31 H :   -0.025250
  32 H :   -0.021345
  33 H :   -0.036500
  34 H :   -0.154965
  35 H :   -0.025212

  Mayer bond orders larger than 0.100000
B(  0-C ,  1-C ) :   0.9644 B(  0-C , 20-H ) :   0.9716 B(  0-C , 21-H ) :   0.9756
B(  0-C , 22-H ) :   0.9750 B(  1-C ,  2-O ) :   0.9014 B(  1-C , 23-H ) :   0.9815
B(  1-C , 24-H ) :   0.9829 B(  2-O ,  3-C ) :   1.1617 B(  3-C ,  4-O ) :   1.9682
B(  3-C ,  5-C ) :   1.0562 B(  5-C ,  6-C ) :   1.6425 B(  5-C , 12-C ) :   0.9666
B(  6-C ,  7-C ) :   0.9567 B(  6-C ,  8-N ) :   1.1521 B(  7-C , 25-H ) :   0.9651
B(  7-C , 26-H ) :   0.9634 B(  7-C , 27-H ) :   0.9922 B(  8-N ,  9-C ) :   1.1772
B(  8-N , 28-H ) :   0.9486 B(  9-C , 10-S ) :   1.6105 B(  9-C , 11-N ) :   1.3056
B( 11-N , 12-C ) :   0.9922 B( 11-N , 29-H ) :   0.9520 B( 12-C , 13-C ) :   0.9456
B( 12-C , 30-H ) :   1.0011 B( 13-C , 14-C ) :   1.3754 B( 13-C , 19-C ) :   1.3687
B( 14-C , 15-C ) :   1.3947 B( 14-C , 31-H ) :   0.9646 B( 15-C , 16-C ) :   1.3620
B( 15-C , 32-H ) :   0.9715 B( 16-C , 17-C ) :   1.3318 B( 16-C , 33-H ) :   0.9860
B( 17-C , 18-O ) :   1.1079 B( 17-C , 19-C ) :   1.3789 B( 18-O , 34-H ) :   0.9806
B( 19-C , 35-H ) :   0.9583

MP2 TOTAL ENERGY:    -1274.341270599 Eh
FINAL SINGLE POINT ENERGY     -1274.341270599065

DIPOLE MOMENT
-------------
                                X             Y             Z
Electronic contribution:     10.22875      10.25682       9.95332
Nuclear contribution   :    -11.84686     -11.47487     -11.03556
                        -----------------------------------------
Total Dipole Moment    :     -1.61811      -1.21805      -1.08225
                        -----------------------------------------
Magnitude (a.u.)       :      2.29634
Magnitude (Debye)      :      5.83684

Rotational constants in cm-1:     0.010652     0.009097     0.005917
Rotational constants in MHz :   319.330991   272.716406   177.390557

                             ****ORCA TERMINATED NORMALLY****
TOTAL RUN TIME: 0 days 2 hours 1 minutes 16 seconds 658 msec
