                         Program Version 5.0.0 -  RELEASE  -
|  1> ! ri-mp2 cc-pvtz cc-pvtz/c TightSCF NoKeepInts
|  2>
|  3> %scf
|  4>   MaxCore 4096
|  5> end
|  6> *xyz  0  1
|  7>     C       14.6586540   14.2430438   15.8450502
|  8>     C       15.8020449   14.9060823   15.0555761
|  9>     O       16.3224105   15.9882005   15.8494105
| 10>     C       17.3334481   15.7572503   16.7382336
| 11>     O       17.8747251   14.6683281   16.8439025
| 12>     C       17.7146801   16.9336613   17.5940074
| 13>     C       17.2706737   18.2087291   17.4297390
| 14>     C       16.3130760   18.7439967   16.3844517
| 15>     N       17.7566156   19.2246787   18.2602604
| 16>     C       18.7795443   19.0818119   19.1598633
| 17>     S       19.3844303   20.3687140   20.0046627
| 18>     N       19.2752260   17.8137361   19.3229888
| 19>     C       18.6849454   16.5979001   18.7332528
| 20>     C       17.9991873   15.7606629   19.8101680
| 21>     C       18.3438178   14.4079045   19.9875775
| 22>     C       17.7140527   13.6311710   20.9744867
| 23>     C       16.7299981   14.2111426   21.7929012
| 24>     C       16.3809776   15.5570296   21.6174086
| 25>     O       15.4267365   16.1184204   22.4020656
| 26>     C       17.0092611   16.3274629   20.6339565
| 27>     H       15.0374760   13.8000258   16.7751313
| 28>     H       14.1946189   13.4453605   15.2525069
| 29>     H       13.8848609   14.9774930   16.1004261
| 30>     H       16.5808853   14.1745172   14.7994390
| 31>     H       15.3954305   15.3088504   14.1191362
| 32>     H       16.6737897   18.5163503   15.3737017
| 33>     H       16.1835379   19.8313979   16.4436137
| 34>     H       15.3204992   18.2910300   16.5008940
| 35>     H       17.4053839   20.1630823   18.1560483
| 36>     H       20.0070291   17.7278226   20.0165016
| 37>     H       19.5075171   16.0042917   18.3087142
| 38>     H       19.0920114   13.9520498   19.3436384
| 39>     H       17.9854277   12.5841691   21.0965565
| 40>     H       16.2396503   13.6143827   22.5546734
| 41>     H       15.1384114   15.4434203   23.0344814
| 42>     H       16.7259659   17.3678296   20.5185742
| 43> *
| 44>
| 45>                          ****END OF INPUT****

CARTESIAN COORDINATES (ANGSTROEM)
---------------------------------
  C     14.658654   14.243044   15.845050
  C     15.802045   14.906082   15.055576
  O     16.322411   15.988200   15.849410
  C     17.333448   15.757250   16.738234
  O     17.874725   14.668328   16.843902
  C     17.714680   16.933661   17.594007
  C     17.270674   18.208729   17.429739
  C     16.313076   18.743997   16.384452
  N     17.756616   19.224679   18.260260
  C     18.779544   19.081812   19.159863
  S     19.384430   20.368714   20.004663
  N     19.275226   17.813736   19.322989
  C     18.684945   16.597900   18.733253
  C     17.999187   15.760663   19.810168
  C     18.343818   14.407904   19.987577
  C     17.714053   13.631171   20.974487
  C     16.729998   14.211143   21.792901
  C     16.380978   15.557030   21.617409
  O     15.426736   16.118420   22.402066
  C     17.009261   16.327463   20.633957
  H     15.037476   13.800026   16.775131
  H     14.194619   13.445360   15.252507
  H     13.884861   14.977493   16.100426
  H     16.580885   14.174517   14.799439
  H     15.395430   15.308850   14.119136
  H     16.673790   18.516350   15.373702
  H     16.183538   19.831398   16.443614
  H     15.320499   18.291030   16.500894
  H     17.405384   20.163082   18.156048
  H     20.007029   17.727823   20.016502
  H     19.507517   16.004292   18.308714
  H     19.092011   13.952050   19.343638
  H     17.985428   12.584169   21.096556
  H     16.239650   13.614383   22.554673
  H     15.138411   15.443420   23.034481
  H     16.725966   17.367830   20.518574

 Total Charge           Charge          ....    0
 Multiplicity           Mult            ....    1
 Number of Electrons    NEL             ....  154
 Basis Dimension        Dim             ....  828

ORBITAL ENERGIES
----------------

  NO   OCC          E(Eh)            E(eV)
   0   2.0000     -91.888193     -2500.4048
   1   2.0000     -20.604997      -560.6905
   2   2.0000     -20.590969      -560.3088
   3   2.0000     -20.544577      -559.0464
   4   2.0000     -15.628796      -425.2812
   5   2.0000     -15.606616      -424.6776
   6   2.0000     -11.396729      -310.1208
   7   2.0000     -11.382900      -309.7445
   8   2.0000     -11.337568      -308.5109
   9   2.0000     -11.306756      -307.6725
  10   2.0000     -11.304977      -307.6241
  11   2.0000     -11.299582      -307.4772
  12   2.0000     -11.261045      -306.4286
  13   2.0000     -11.258917      -306.3707
  14   2.0000     -11.252733      -306.2024
  15   2.0000     -11.246874      -306.0430
  16   2.0000     -11.236551      -305.7621
  17   2.0000     -11.232742      -305.6584
  18   2.0000     -11.229598      -305.5729
  19   2.0000     -11.228227      -305.5356
  20   2.0000      -8.893250      -241.9976
  21   2.0000      -6.574825      -178.9101
  22   2.0000      -6.572821      -178.8555
  23   2.0000      -6.572233      -178.8396
  24   2.0000      -1.454447       -39.5775
  25   2.0000      -1.410707       -38.3873
  26   2.0000      -1.357218       -36.9318
  27   2.0000      -1.339628       -36.4531
  28   2.0000      -1.237044       -33.6617
  29   2.0000      -1.151524       -31.3346
  30   2.0000      -1.119267       -30.4568
  31   2.0000      -1.042402       -28.3652
  32   2.0000      -1.035084       -28.1661
  33   2.0000      -1.008842       -27.4520
  34   2.0000      -0.997325       -27.1386
  35   2.0000      -0.982808       -26.7436
  36   2.0000      -0.921008       -25.0619
  37   2.0000      -0.893252       -24.3066
  38   2.0000      -0.847642       -23.0655
  39   2.0000      -0.834788       -22.7157
  40   2.0000      -0.827125       -22.5072
  41   2.0000      -0.815542       -22.1920
  42   2.0000      -0.757163       -20.6034
  43   2.0000      -0.736128       -20.0311
  44   2.0000      -0.724311       -19.7095
  45   2.0000      -0.690558       -18.7910
  46   2.0000      -0.685635       -18.6571
  47   2.0000      -0.679509       -18.4904
  48   2.0000      -0.670750       -18.2520
  49   2.0000      -0.654023       -17.7969
  50   2.0000      -0.650012       -17.6877
  51   2.0000      -0.644249       -17.5309
  52   2.0000      -0.630543       -17.1579
  53   2.0000      -0.611506       -16.6399
  54   2.0000      -0.599889       -16.3238
  55   2.0000      -0.598750       -16.2928
  56   2.0000      -0.594254       -16.1705
  57   2.0000      -0.582976       -15.8636
  58   2.0000      -0.573392       -15.6028
  59   2.0000      -0.563620       -15.3369
  60   2.0000      -0.558994       -15.2110
  61   2.0000      -0.547921       -14.9097
  62   2.0000      -0.535335       -14.5672
  63   2.0000      -0.530448       -14.4342
  64   2.0000      -0.516350       -14.0506
  65   2.0000      -0.508961       -13.8495
  66   2.0000      -0.498371       -13.5614
  67   2.0000      -0.495040       -13.4707
  68   2.0000      -0.481871       -13.1124
  69   2.0000      -0.463626       -12.6159
  70   2.0000      -0.458373       -12.4730
  71   2.0000      -0.453020       -12.3273
  72   2.0000      -0.354523        -9.6471
  73   2.0000      -0.343463        -9.3461
  74   2.0000      -0.327252        -8.9050
  75   2.0000      -0.315590        -8.5876
  76   2.0000      -0.313046        -8.5184
  77   0.0000       0.075690         2.0596
  78   0.0000       0.114326         3.1110
  79   0.0000       0.120951         3.2912
  80   0.0000       0.136612         3.7174
  81   0.0000       0.141026         3.8375

MULLIKEN ATOMIC CHARGES
-----------------------
   0 C :   -0.283702
   1 C :    0.024107
   2 O :   -0.345748
   3 C :    0.458544
   4 O :   -0.438008
   5 C :   -0.180382
   6 C :    0.142639
   7 C :   -0.282805
   8 N :   -0.119951
   9 C :    0.200896
  10 S :   -0.438613
  11 N :   -0.196605
  12 C :    0.031929
  13 C :    0.060366
  14 C :   -0.160896
  15 C :   -0.134290
  16 C :   -0.278781
  17 C :    0.311683
  18 O :   -0.359242
  19 C :   -0.273247
  20 H :    0.112477
  21 H :    0.094574
  22 H :    0.092352
  23 H :    0.114320
  24 H :    0.104854
  25 H :    0.127099
  26 H :    0.101344
  27 H :    0.127615
  28 H :    0.196673
  29 H :    0.193464
  30 H :    0.153298
  31 H :    0.153149
  32 H :    0.158863
  33 H :    0.127825
  34 H :    0.239989
  35 H :    0.164212
Sum of atomic charges:    0.0000000

LOEWDIN ATOMIC CHARGES
----------------------
   0 C :    0.105268
   1 C :   -0.017022
   2 O :    0.308288
   3 C :   -0.414588
   4 O :    0.099879
   5 C :   -0.090832
   6 C :   -0.063576
   7 C :    0.125002
   8 N :    0.405083
   9 C :   -0.459214
  10 S :   -0.035485
  11 N :    0.398120
  12 C :   -0.046819
  13 C :   -0.038780
  14 C :    0.022311
  15 C :    0.040671
  16 C :   -0.002321
  17 C :   -0.192576
  18 O :    0.392942
  19 C :    0.028306
  20 H :   -0.023019
  21 H :   -0.026326
  22 H :   -0.029370
  23 H :   -0.027381
  24 H :   -0.027644
  25 H :   -0.008387
  26 H :   -0.021373
  27 H :   -0.009750
  28 H :   -0.059245
  29 H :   -0.063533
  30 H :   -0.005245
  31 H :   -0.025327
  32 H :   -0.021312
  33 H :   -0.036462
  34 H :   -0.154975
  35 H :   -0.025309

  Mayer bond orders larger than 0.100000
B(  0-C ,  1-C ) :   0.9656 B(  0-C , 20-H ) :   0.9763 B(  0-C , 21-H ) :   0.9756
B(  0-C , 22-H ) :   0.9779 B(  1-C ,  2-O ) :   0.8889 B(  1-C , 23-H ) :   0.9752
B(  1-C , 24-H ) :   0.9844 B(  2-O ,  3-C ) :   1.1666 B(  3-C ,  4-O ) :   1.9591
B(  3-C ,  5-C ) :   1.0693 B(  5-C ,  6-C ) :   1.6400 B(  5-C , 12-C ) :   0.9682
B(  6-C ,  7-C ) :   0.9566 B(  6-C ,  8-N ) :   1.1542 B(  7-C , 25-H ) :   0.9644
B(  7-C , 26-H ) :   0.9914 B(  7-C , 27-H ) :   0.9641 B(  8-N ,  9-C ) :   1.1762
B(  8-N , 28-H ) :   0.9486 B(  9-C , 10-S ) :   1.6114 B(  9-C , 11-N ) :   1.3054
B( 11-N , 12-C ) :   0.9925 B( 11-N , 29-H ) :   0.9520 B( 12-C , 13-C ) :   0.9469
B( 12-C , 30-H ) :   1.0009 B( 13-C , 14-C ) :   1.3749 B( 13-C , 19-C ) :   1.3690
B( 14-C , 15-C ) :   1.3948 B( 14-C , 31-H ) :   0.9650 B( 15-C , 16-C ) :   1.3622
B( 15-C , 32-H ) :   0.9715 B( 16-C , 17-C ) :   1.3317 B( 16-C , 33-H ) :   0.9861
B( 17-C , 18-O ) :   1.1079 B( 17-C , 19-C ) :   1.3796 B( 18-O , 34-H ) :   0.9807
B( 19-C , 35-H ) :   0.9585

MP2 TOTAL ENERGY:    -1274.350205600 Eh
FINAL SINGLE POINT ENERGY     -1274.350205600044

DIPOLE MOMENT
-------------
                                X             Y             Z
Electronic contribution:     11.13272       9.67326       9.95322
Nuclear contribution   :    -12.61993     -10.87723     -11.05921
                        -----------------------------------------
Total Dipole Moment    :     -1.48720      -1.20397      -1.10599
                        -----------------------------------------
Magnitude (a.u.)       :      2.21010
Magnitude (Debye)      :      5.61762

Rotational constants in cm-1:     0.010539     0.009049     0.005925
Rotational constants in MHz :   315.952382   271.283227   177.617860

                             ****ORCA TERMINATED NORMALLY****
TOTAL RUN TIME: 0 days 1 hours 44 minutes 27 seconds 81 msec
