                         Program Version 5.0.0 -  RELEASE  -
|  1> ! ri-mp2 cc-pvtz cc-pvtz/c TightSCF NoKeepInts
|  2>
|  3> %scf
|  4>   MaxCore 4096
|  5> end
|  6> *xyz  0  1
|  7>     C       15.2118289   14.4520231   17.2549480
|  8>     C       15.3943791   15.6183293   16.2642387
|  9>     O       16.7105519   15.5490183   15.6741645
| 10>     C       17.8468190   15.6666136   16.4293445
| 11>     O       18.6370687   14.7432150   16.5027158
| 12>     C       17.9196601   16.8525229   17.3472395
| 13>     C       17.4636598   18.0888129   17.0201277
| 14>     C       16.8531920   18.5377274   15.7070266
| 15>     N       17.6471310   19.1551282   17.9047406
| 16>     C       18.4168104   19.1081351   19.0368275
| 17>     S       18.6740415   20.4487999   19.9698675
| 18>     N       18.9650523   17.8911843   19.3543645
| 19>     C       18.6646212   16.6206199   18.6665621
| 20>     C       17.8885731   15.6830806   19.5851289
| 21>     C       18.2913906   14.3431824   19.7337841
| 22>     C       17.5738310   13.4678253   20.5659073
| 23>     C       16.4422871   13.9350053   21.2558605
| 24>     C       16.0356961   15.2679300   21.1083108
| 25>     O       14.9365955   15.7190475   21.7632901
| 26>     C       16.7512947   16.1372676   20.2788900
| 27>     H       15.9133262   14.5176900   18.0913612
| 28>     H       15.3745273   13.4911045   16.7506948
| 29>     H       14.1957293   14.4533863   17.6674101
| 30>     H       14.6382718   15.5407656   15.4722808
| 31>     H       15.2357872   16.5654353   16.7923534
| 32>     H       17.1744066   17.9053389   14.8702264
| 33>     H       17.1618466   19.5591877   15.4506099
| 34>     H       15.7580309   18.5236134   15.7466312
| 35>     H       17.2658690   20.0609676   17.6812107
| 36>     H       19.5117569   17.8789730   20.2061413
| 37>     H       19.6248119   16.1409218   18.4256681
| 38>     H       19.1556119   13.9741237   19.1855805
| 39>     H       17.8927629   12.4317976   20.6671439
| 40>     H       15.8838072   13.2609042   21.8968972
| 41>     H       14.6177138   14.9974576   22.3263388
| 42>     H       16.4182570   17.1648644   20.1801127
| 43> *
| 44>
| 45>                          ****END OF INPUT****

CARTESIAN COORDINATES (ANGSTROEM)
---------------------------------
  C     15.211829   14.452023   17.254948
  C     15.394379   15.618329   16.264239
  O     16.710552   15.549018   15.674164
  C     17.846819   15.666614   16.429344
  O     18.637069   14.743215   16.502716
  C     17.919660   16.852523   17.347240
  C     17.463660   18.088813   17.020128
  C     16.853192   18.537727   15.707027
  N     17.647131   19.155128   17.904741
  C     18.416810   19.108135   19.036828
  S     18.674041   20.448800   19.969867
  N     18.965052   17.891184   19.354364
  C     18.664621   16.620620   18.666562
  C     17.888573   15.683081   19.585129
  C     18.291391   14.343182   19.733784
  C     17.573831   13.467825   20.565907
  C     16.442287   13.935005   21.255860
  C     16.035696   15.267930   21.108311
  O     14.936595   15.719047   21.763290
  C     16.751295   16.137268   20.278890
  H     15.913326   14.517690   18.091361
  H     15.374527   13.491105   16.750695
  H     14.195729   14.453386   17.667410
  H     14.638272   15.540766   15.472281
  H     15.235787   16.565435   16.792353
  H     17.174407   17.905339   14.870226
  H     17.161847   19.559188   15.450610
  H     15.758031   18.523613   15.746631
  H     17.265869   20.060968   17.681211
  H     19.511757   17.878973   20.206141
  H     19.624812   16.140922   18.425668
  H     19.155612   13.974124   19.185581
  H     17.892763   12.431798   20.667144
  H     15.883807   13.260904   21.896897
  H     14.617714   14.997458   22.326339
  H     16.418257   17.164864   20.180113

 Total Charge           Charge          ....    0
 Multiplicity           Mult            ....    1
 Number of Electrons    NEL             ....  154
 Basis Dimension        Dim             ....  828

ORBITAL ENERGIES
----------------

  NO   OCC          E(Eh)            E(eV)
   0   2.0000     -91.891108     -2500.4842
   1   2.0000     -20.598333      -560.5091
   2   2.0000     -20.591477      -560.3226
   3   2.0000     -20.552378      -559.2586
   4   2.0000     -15.630584      -425.3298
   5   2.0000     -15.610572      -424.7853
   6   2.0000     -11.396962      -310.1271
   7   2.0000     -11.386757      -309.8494
   8   2.0000     -11.337936      -308.5209
   9   2.0000     -11.315084      -307.8991
  10   2.0000     -11.311038      -307.7890
  11   2.0000     -11.306754      -307.6724
  12   2.0000     -11.265631      -306.5534
  13   2.0000     -11.265343      -306.5456
  14   2.0000     -11.260714      -306.4196
  15   2.0000     -11.255200      -306.2696
  16   2.0000     -11.244746      -305.9851
  17   2.0000     -11.240486      -305.8692
  18   2.0000     -11.237307      -305.7827
  19   2.0000     -11.224487      -305.4338
  20   2.0000      -8.896184      -242.0775
  21   2.0000      -6.577763      -178.9900
  22   2.0000      -6.575749      -178.9352
  23   2.0000      -6.575164      -178.9193
  24   2.0000      -1.447248       -39.3816
  25   2.0000      -1.418116       -38.5889
  26   2.0000      -1.358580       -36.9688
  27   2.0000      -1.342771       -36.5387
  28   2.0000      -1.240918       -33.7671
  29   2.0000      -1.159424       -31.5495
  30   2.0000      -1.124058       -30.5872
  31   2.0000      -1.046948       -28.4889
  32   2.0000      -1.033778       -28.1305
  33   2.0000      -1.017051       -27.6754
  34   2.0000      -1.004479       -27.3333
  35   2.0000      -0.988835       -26.9076
  36   2.0000      -0.927107       -25.2279
  37   2.0000      -0.890846       -24.2412
  38   2.0000      -0.854488       -23.2518
  39   2.0000      -0.841804       -22.9067
  40   2.0000      -0.835206       -22.7271
  41   2.0000      -0.830400       -22.5963
  42   2.0000      -0.746401       -20.3106
  43   2.0000      -0.736506       -20.0414
  44   2.0000      -0.730079       -19.8665
  45   2.0000      -0.696437       -18.9510
  46   2.0000      -0.687226       -18.7004
  47   2.0000      -0.681127       -18.5344
  48   2.0000      -0.676843       -18.4178
  49   2.0000      -0.662155       -18.0181
  50   2.0000      -0.655311       -17.8319
  51   2.0000      -0.648968       -17.6593
  52   2.0000      -0.639482       -17.4012
  53   2.0000      -0.619578       -16.8596
  54   2.0000      -0.607872       -16.5410
  55   2.0000      -0.605942       -16.4885
  56   2.0000      -0.601460       -16.3666
  57   2.0000      -0.583289       -15.8721
  58   2.0000      -0.575998       -15.6737
  59   2.0000      -0.567054       -15.4303
  60   2.0000      -0.558688       -15.2027
  61   2.0000      -0.549129       -14.9426
  62   2.0000      -0.543990       -14.8027
  63   2.0000      -0.531448       -14.4614
  64   2.0000      -0.521029       -14.1779
  65   2.0000      -0.513158       -13.9637
  66   2.0000      -0.501511       -13.6468
  67   2.0000      -0.493881       -13.4392
  68   2.0000      -0.485440       -13.2095
  69   2.0000      -0.469104       -12.7650
  70   2.0000      -0.459525       -12.5043
  71   2.0000      -0.448296       -12.1988
  72   2.0000      -0.358983        -9.7684
  73   2.0000      -0.350775        -9.5451
  74   2.0000      -0.330467        -8.9925
  75   2.0000      -0.322935        -8.7875
  76   2.0000      -0.319406        -8.6915
  77   0.0000       0.073344         1.9958
  78   0.0000       0.104476         2.8429
  79   0.0000       0.116982         3.1832
  80   0.0000       0.129886         3.5344
  81   0.0000       0.136021         3.7013

MULLIKEN ATOMIC CHARGES
-----------------------
   0 C :   -0.280470
   1 C :    0.021589
   2 O :   -0.354257
   3 C :    0.443410
   4 O :   -0.384462
   5 C :   -0.221281
   6 C :    0.146361
   7 C :   -0.314766
   8 N :   -0.128618
   9 C :    0.196398
  10 S :   -0.437565
  11 N :   -0.202390
  12 C :    0.058290
  13 C :   -0.000324
  14 C :   -0.166330
  15 C :   -0.136937
  16 C :   -0.270373
  17 C :    0.301891
  18 O :   -0.358981
  19 C :   -0.241081
  20 H :    0.106610
  21 H :    0.111719
  22 H :    0.095590
  23 H :    0.120624
  24 H :    0.083586
  25 H :    0.142016
  26 H :    0.123312
  27 H :    0.121527
  28 H :    0.197512
  29 H :    0.195725
  30 H :    0.160742
  31 H :    0.164424
  32 H :    0.162019
  33 H :    0.132213
  34 H :    0.241292
  35 H :    0.170989
Sum of atomic charges:    0.0000000

LOEWDIN ATOMIC CHARGES
----------------------
   0 C :    0.111695
   1 C :   -0.022512
   2 O :    0.291474
   3 C :   -0.418070
   4 O :    0.126771
   5 C :   -0.089801
   6 C :   -0.081011
   7 C :    0.126998
   8 N :    0.403869
   9 C :   -0.459570
  10 S :   -0.034691
  11 N :    0.397712
  12 C :   -0.045573
  13 C :   -0.045769
  14 C :    0.020958
  15 C :    0.043703
  16 C :   -0.000477
  17 C :   -0.193014
  18 O :    0.394848
  19 C :    0.027062
  20 H :   -0.027766
  21 H :   -0.022387
  22 H :   -0.025722
  23 H :   -0.021620
  24 H :   -0.040995
  25 H :   -0.006955
  26 H :   -0.014019
  27 H :   -0.017050
  28 H :   -0.057325
  29 H :   -0.063142
  30 H :   -0.003127
  31 H :   -0.022667
  32 H :   -0.019091
  33 H :   -0.034833
  34 H :   -0.153357
  35 H :   -0.024545

  Mayer bond orders larger than 0.100000
B(  0-C ,  1-C ) :   0.9777 B(  0-C , 20-H ) :   0.9665 B(  0-C , 21-H ) :   0.9782
B(  0-C , 22-H ) :   0.9763 B(  1-C ,  2-O ) :   0.8968 B(  1-C , 23-H ) :   0.9798
B(  1-C , 24-H ) :   0.9686 B(  2-O ,  3-C ) :   1.1314 B(  3-C ,  4-O ) :   2.0746
B(  3-C ,  5-C ) :   0.9637 B(  5-C ,  6-C ) :   1.6737 B(  5-C , 12-C ) :   0.9585
B(  6-C ,  7-C ) :   0.9423 B(  6-C ,  8-N ) :   1.1311 B(  7-C , 25-H ) :   0.9702
B(  7-C , 26-H ) :   0.9823 B(  7-C , 27-H ) :   0.9650 B(  8-N ,  9-C ) :   1.1847
B(  8-N , 28-H ) :   0.9506 B(  9-C , 10-S ) :   1.6142 B(  9-C , 11-N ) :   1.2969
B( 11-N , 12-C ) :   0.9960 B( 11-N , 29-H ) :   0.9512 B( 12-C , 13-C ) :   0.9443
B( 12-C , 30-H ) :   0.9975 B( 13-C , 14-C ) :   1.3895 B( 13-C , 19-C ) :   1.3638
B( 14-C , 15-C ) :   1.3923 B( 14-C , 31-H ) :   0.9611 B( 15-C , 16-C ) :   1.3633
B( 15-C , 32-H ) :   0.9713 B( 16-C , 17-C ) :   1.3315 B( 16-C , 33-H ) :   0.9844
B( 17-C , 18-O ) :   1.1113 B( 17-C , 19-C ) :   1.3710 B( 18-O , 34-H ) :   0.9794
B( 19-C , 35-H ) :   0.9572

MP2 TOTAL ENERGY:    -1274.335761786 Eh
FINAL SINGLE POINT ENERGY     -1274.335761785656

DIPOLE MOMENT
-------------
                                X             Y             Z
Electronic contribution:      9.74806       8.03002       5.82773
Nuclear contribution   :    -11.27482      -8.91566      -6.23359
                        -----------------------------------------
Total Dipole Moment    :     -1.52676      -0.88564      -0.40587
                        -----------------------------------------
Magnitude (a.u.)       :      1.81110
Magnitude (Debye)      :      4.60344

Rotational constants in cm-1:     0.011816     0.009542     0.006746
Rotational constants in MHz :   354.229627   286.052304   202.245805

                             ****ORCA TERMINATED NORMALLY****
TOTAL RUN TIME: 0 days 2 hours 7 minutes 23 seconds 370 msec
