                         Program Version 5.0.0 -  RELEASE  -
|  1> ! ri-mp2 cc-pvtz cc-pvtz/c TightSCF NoKeepInts
|  2>
|  3> %scf
|  4>   MaxCore 4096
|  5> end
|  6> *xyz  0  1
|  7>     C       15.1952560   14.8119697   17.3629303
|  8>     C       15.4707446   15.5381735   16.0331400
|  9>     O       16.8510292   15.3731182   15.6367321
| 10>     C       17.9375784   15.6231043   16.4372688
| 11>     O       18.8461052   14.8145544   16.4910951
| 12>     C       17.8916465   16.8106880   17.3549732
| 13>     C       17.4146682   18.0294175   16.9930972
| 14>     C       16.9009734   18.4713531   15.6370321
| 15>     N       17.5165320   19.1073886   17.8764406
| 16>     C       18.2513873   19.1040878   19.0320107
| 17>     S       18.4261717   20.4639114   19.9562769
| 18>     N       18.8415100   17.9151385   19.3777417
| 19>     C       18.6022597   16.6237705   18.7040700
| 20>     C       17.8566173   15.6553111   19.6204035
| 21>     C       18.1935828   14.2888387   19.6227348
| 22>     C       17.5110039   13.3815856   20.4497240
| 23>     C       16.4815684   13.8427090   21.2870428
| 24>     C       16.1427208   15.2021520   21.2915715
| 25>     O       15.1430171   15.6493649   22.0922385
| 26>     C       16.8230763   16.1035106   20.4664103
| 27>     H       15.5433595   15.4044167   18.2121728
| 28>     H       15.6895305   13.8320577   17.3888933
| 29>     H       14.1181212   14.6532097   17.4943614
| 30>     H       14.8333637   15.1035185   15.2521264
| 31>     H       15.1911553   16.5903322   16.1353162
| 32>     H       17.1036119   17.7370823   14.8489551
| 33>     H       17.3963732   19.3977188   15.3185960
| 34>     H       15.8224347   18.6670146   15.6595803
| 35>     H       17.1104926   19.9958249   17.6280201
| 36>     H       19.3691920   17.9353780   20.2413399
| 37>     H       19.5885456   16.1827289   18.4962713
| 38>     H       18.9843503   13.9250806   18.9698526
| 39>     H       17.7804387   12.3267968   20.4362270
| 40>     H       15.9507887   13.1447273   21.9260437
| 41>     H       14.8321742   14.8964839   22.6173586
| 42>     H       16.5356191   17.1494818   20.4859514
| 43> *
| 44>
| 45>                          ****END OF INPUT****

CARTESIAN COORDINATES (ANGSTROEM)
---------------------------------
  C     15.195256   14.811970   17.362930
  C     15.470745   15.538173   16.033140
  O     16.851029   15.373118   15.636732
  C     17.937578   15.623104   16.437269
  O     18.846105   14.814554   16.491095
  C     17.891647   16.810688   17.354973
  C     17.414668   18.029418   16.993097
  C     16.900973   18.471353   15.637032
  N     17.516532   19.107389   17.876441
  C     18.251387   19.104088   19.032011
  S     18.426172   20.463911   19.956277
  N     18.841510   17.915138   19.377742
  C     18.602260   16.623770   18.704070
  C     17.856617   15.655311   19.620403
  C     18.193583   14.288839   19.622735
  C     17.511004   13.381586   20.449724
  C     16.481568   13.842709   21.287043
  C     16.142721   15.202152   21.291571
  O     15.143017   15.649365   22.092238
  C     16.823076   16.103511   20.466410
  H     15.543359   15.404417   18.212173
  H     15.689531   13.832058   17.388893
  H     14.118121   14.653210   17.494361
  H     14.833364   15.103518   15.252126
  H     15.191155   16.590332   16.135316
  H     17.103612   17.737082   14.848955
  H     17.396373   19.397719   15.318596
  H     15.822435   18.667015   15.659580
  H     17.110493   19.995825   17.628020
  H     19.369192   17.935378   20.241340
  H     19.588546   16.182729   18.496271
  H     18.984350   13.925081   18.969853
  H     17.780439   12.326797   20.436227
  H     15.950789   13.144727   21.926044
  H     14.832174   14.896484   22.617359
  H     16.535619   17.149482   20.485951

 Total Charge           Charge          ....    0
 Multiplicity           Mult            ....    1
 Number of Electrons    NEL             ....  154
 Basis Dimension        Dim             ....  828

ORBITAL ENERGIES
----------------

  NO   OCC          E(Eh)            E(eV)
   0   2.0000     -91.891142     -2500.4851
   1   2.0000     -20.597424      -560.4844
   2   2.0000     -20.596088      -560.4480
   3   2.0000     -20.550911      -559.2187
   4   2.0000     -15.629761      -425.3074
   5   2.0000     -15.610700      -424.7887
   6   2.0000     -11.399607      -310.1991
   7   2.0000     -11.386869      -309.8525
   8   2.0000     -11.337879      -308.5194
   9   2.0000     -11.314279      -307.8772
  10   2.0000     -11.312217      -307.8211
  11   2.0000     -11.307987      -307.7060
  12   2.0000     -11.268686      -306.6365
  13   2.0000     -11.267475      -306.6036
  14   2.0000     -11.261218      -306.4333
  15   2.0000     -11.254397      -306.2477
  16   2.0000     -11.243599      -305.9539
  17   2.0000     -11.239324      -305.8376
  18   2.0000     -11.235376      -305.7301
  19   2.0000     -11.226886      -305.4991
  20   2.0000      -8.896229      -242.0787
  21   2.0000      -6.577812      -178.9914
  22   2.0000      -6.575792      -178.9364
  23   2.0000      -6.575210      -178.9206
  24   2.0000      -1.446741       -39.3678
  25   2.0000      -1.417238       -38.5650
  26   2.0000      -1.358879       -36.9770
  27   2.0000      -1.342886       -36.5418
  28   2.0000      -1.241111       -33.7723
  29   2.0000      -1.158369       -31.5208
  30   2.0000      -1.124205       -30.5912
  31   2.0000      -1.046597       -28.4793
  32   2.0000      -1.036692       -28.2098
  33   2.0000      -1.016945       -27.6725
  34   2.0000      -1.005266       -27.3547
  35   2.0000      -0.989398       -26.9229
  36   2.0000      -0.927431       -25.2367
  37   2.0000      -0.895463       -24.3668
  38   2.0000      -0.855164       -23.2702
  39   2.0000      -0.841479       -22.8978
  40   2.0000      -0.834113       -22.6974
  41   2.0000      -0.829240       -22.5648
  42   2.0000      -0.745820       -20.2948
  43   2.0000      -0.737904       -20.0794
  44   2.0000      -0.729950       -19.8629
  45   2.0000      -0.695264       -18.9191
  46   2.0000      -0.687023       -18.6948
  47   2.0000      -0.681800       -18.5527
  48   2.0000      -0.675383       -18.3781
  49   2.0000      -0.660665       -17.9776
  50   2.0000      -0.656848       -17.8737
  51   2.0000      -0.649806       -17.6821
  52   2.0000      -0.639252       -17.3949
  53   2.0000      -0.624558       -16.9951
  54   2.0000      -0.609465       -16.5844
  55   2.0000      -0.605289       -16.4708
  56   2.0000      -0.601256       -16.3610
  57   2.0000      -0.586509       -15.9597
  58   2.0000      -0.575435       -15.6584
  59   2.0000      -0.565466       -15.3871
  60   2.0000      -0.562971       -15.3192
  61   2.0000      -0.548101       -14.9146
  62   2.0000      -0.542683       -14.7672
  63   2.0000      -0.534911       -14.5557
  64   2.0000      -0.520368       -14.1599
  65   2.0000      -0.512958       -13.9583
  66   2.0000      -0.501282       -13.6406
  67   2.0000      -0.497408       -13.5352
  68   2.0000      -0.482615       -13.1326
  69   2.0000      -0.469750       -12.7825
  70   2.0000      -0.458671       -12.4811
  71   2.0000      -0.449547       -12.2328
  72   2.0000      -0.359829        -9.7914
  73   2.0000      -0.348821        -9.4919
  74   2.0000      -0.330599        -8.9961
  75   2.0000      -0.322738        -8.7821
  76   2.0000      -0.319569        -8.6959
  77   0.0000       0.076783         2.0894
  78   0.0000       0.106611         2.9010
  79   0.0000       0.116201         3.1620
  80   0.0000       0.130629         3.5546
  81   0.0000       0.131876         3.5885

MULLIKEN ATOMIC CHARGES
-----------------------
   0 C :   -0.318825
   1 C :    0.031859
   2 O :   -0.342443
   3 C :    0.452177
   4 O :   -0.386479
   5 C :   -0.240960
   6 C :    0.161561
   7 C :   -0.332242
   8 N :   -0.134026
   9 C :    0.194366
  10 S :   -0.437807
  11 N :   -0.217921
  12 C :    0.074898
  13 C :    0.013650
  14 C :   -0.202673
  15 C :   -0.140666
  16 C :   -0.270027
  17 C :    0.311209
  18 O :   -0.357266
  19 C :   -0.254131
  20 H :    0.111394
  21 H :    0.119073
  22 H :    0.108405
  23 H :    0.123557
  24 H :    0.083003
  25 H :    0.140089
  26 H :    0.134630
  27 H :    0.122147
  28 H :    0.197073
  29 H :    0.200216
  30 H :    0.165812
  31 H :    0.176710
  32 H :    0.164570
  33 H :    0.131992
  34 H :    0.240686
  35 H :    0.176389
Sum of atomic charges:   -0.0000000

LOEWDIN ATOMIC CHARGES
----------------------
   0 C :    0.108315
   1 C :   -0.020780
   2 O :    0.293990
   3 C :   -0.415276
   4 O :    0.124259
   5 C :   -0.084140
   6 C :   -0.086135
   7 C :    0.123356
   8 N :    0.403754
   9 C :   -0.460306
  10 S :   -0.035478
  11 N :    0.397764
  12 C :   -0.043607
  13 C :   -0.043236
  14 C :    0.020792
  15 C :    0.043819
  16 C :   -0.001197
  17 C :   -0.193047
  18 O :    0.395409
  19 C :    0.025533
  20 H :   -0.032874
  21 H :   -0.020318
  22 H :   -0.024860
  23 H :   -0.020324
  24 H :   -0.039676
  25 H :   -0.008404
  26 H :   -0.010541
  27 H :   -0.019261
  28 H :   -0.056630
  29 H :   -0.063088
  30 H :   -0.002265
  31 H :   -0.022755
  32 H :   -0.019040
  33 H :   -0.035103
  34 H :   -0.153562
  35 H :   -0.025088

  Mayer bond orders larger than 0.100000
B(  0-C ,  1-C ) :   0.9626 B(  0-C , 20-H ) :   0.9696 B(  0-C , 21-H ) :   0.9713
B(  0-C , 22-H ) :   0.9784 B(  1-C ,  2-O ) :   0.8996 B(  1-C , 23-H ) :   0.9819
B(  1-C , 24-H ) :   0.9714 B(  2-O ,  3-C ) :   1.1546 B(  3-C ,  4-O ) :   2.0691
B(  3-C ,  5-C ) :   0.9521 B(  5-C ,  6-C ) :   1.6739 B(  5-C , 12-C ) :   0.9499
B(  6-C ,  7-C ) :   0.9401 B(  6-C ,  8-N ) :   1.1216 B(  7-C , 25-H ) :   0.9744
B(  7-C , 26-H ) :   0.9736 B(  7-C , 27-H ) :   0.9657 B(  8-N ,  9-C ) :   1.1897
B(  8-N , 28-H ) :   0.9519 B(  9-C , 10-S ) :   1.6125 B(  9-C , 11-N ) :   1.2934
B( 11-N , 12-C ) :   0.9860 B( 11-N , 29-H ) :   0.9495 B( 12-C , 13-C ) :   0.9521
B( 12-C , 30-H ) :   0.9961 B( 13-C , 14-C ) :   1.3890 B( 13-C , 19-C ) :   1.3435
B( 14-C , 15-C ) :   1.3989 B( 14-C , 31-H ) :   0.9570 B( 15-C , 16-C ) :   1.3600
B( 15-C , 32-H ) :   0.9698 B( 16-C , 17-C ) :   1.3311 B( 16-C , 33-H ) :   0.9844
B( 17-C , 18-O ) :   1.1113 B( 17-C , 19-C ) :   1.3675 B( 18-O , 34-H ) :   0.9799
B( 19-C , 35-H ) :   0.9595

MP2 TOTAL ENERGY:    -1274.334580879 Eh
FINAL SINGLE POINT ENERGY     -1274.334580878648

DIPOLE MOMENT
-------------
                                X             Y             Z
Electronic contribution:      9.45814       7.25052       6.19022
Nuclear contribution   :    -11.05249      -8.18126      -6.72261
                        -----------------------------------------
Total Dipole Moment    :     -1.59435      -0.93074      -0.53239
                        -----------------------------------------
Magnitude (a.u.)       :      1.92137
Magnitude (Debye)      :      4.88374

Rotational constants in cm-1:     0.011466     0.009744     0.006642
Rotational constants in MHz :   343.755653   292.112193   199.108113

                             ****ORCA TERMINATED NORMALLY****
TOTAL RUN TIME: 0 days 2 hours 11 minutes 15 seconds 735 msec
