                         Program Version 5.0.0 -  RELEASE  -
|  1> ! ri-mp2 cc-pvtz cc-pvtz/c TightSCF NoKeepInts
|  2>
|  3> %scf
|  4>   MaxCore 4096
|  5> end
|  6> *xyz  0  1
|  7>     C       14.1694580   15.0196419   15.8118269
|  8>     C       15.6189261   14.6503456   16.1686683
|  9>     O       16.4175658   15.8330151   16.0088453
| 10>     C       17.6596074   15.8386097   16.5704165
| 11>     O       18.3187708   14.8153430   16.6553456
| 12>     C       17.8680293   16.9907380   17.5077794
| 13>     C       17.2902212   18.2102560   17.3591170
| 14>     C       16.3736568   18.6698054   16.2440838
| 15>     N       17.5871975   19.2345489   18.2637000
| 16>     C       18.5452332   19.1625895   19.2406153
| 17>     S       18.9175565   20.4623858   20.1931940
| 18>     N       19.1807011   17.9552707   19.3872873
| 19>     C       18.8046977   16.7121110   18.6876618
| 20>     C       18.1707730   15.7218727   19.6611543
| 21>     C       18.6953617   14.4236750   19.8004286
| 22>     C       18.1097792   13.5056565   20.6882615
| 23>     C       16.9885662   13.8877461   21.4442661
| 24>     C       16.4603784   15.1784143   21.3056484
| 25>     O       15.3731456   15.5480647   22.0285032
| 26>     C       17.0450522   16.0896957   20.4207319
| 27>     H       13.7972056   15.8105125   16.4747256
| 28>     H       13.5139297   14.1466231   15.9173110
| 29>     H       14.1049114   15.3745778   14.7757320
| 30>     H       15.6596626   14.2999053   17.2096033
| 31>     H       15.9870485   13.8479814   15.5151529
| 32>     H       16.7474275   18.3375965   15.2674760
| 33>     H       16.2824071   19.7617615   16.1970324
| 34>     H       15.3663237   18.2556550   16.3763484
| 35>     H       17.1318707   20.1286258   18.1718805
| 36>     H       19.8607872   17.9202798   20.1357772
| 37>     H       19.7248230   16.2625153   18.2871140
| 38>     H       19.5513507   14.1198452   19.2027292
| 39>     H       18.5221386   12.5026376   20.7822541
| 40>     H       16.5322254   13.1812768   22.1295754
| 41>     H       15.1480135   14.8080270   22.6120838
| 42>     H       16.6221973   17.0843936   20.3316689
| 43> *
| 44>
| 45>                          ****END OF INPUT****

CARTESIAN COORDINATES (ANGSTROEM)
---------------------------------
  C     14.169458   15.019642   15.811827
  C     15.618926   14.650346   16.168668
  O     16.417566   15.833015   16.008845
  C     17.659607   15.838610   16.570417
  O     18.318771   14.815343   16.655346
  C     17.868029   16.990738   17.507779
  C     17.290221   18.210256   17.359117
  C     16.373657   18.669805   16.244084
  N     17.587197   19.234549   18.263700
  C     18.545233   19.162589   19.240615
  S     18.917556   20.462386   20.193194
  N     19.180701   17.955271   19.387287
  C     18.804698   16.712111   18.687662
  C     18.170773   15.721873   19.661154
  C     18.695362   14.423675   19.800429
  C     18.109779   13.505656   20.688261
  C     16.988566   13.887746   21.444266
  C     16.460378   15.178414   21.305648
  O     15.373146   15.548065   22.028503
  C     17.045052   16.089696   20.420732
  H     13.797206   15.810512   16.474726
  H     13.513930   14.146623   15.917311
  H     14.104911   15.374578   14.775732
  H     15.659663   14.299905   17.209603
  H     15.987049   13.847981   15.515153
  H     16.747428   18.337597   15.267476
  H     16.282407   19.761761   16.197032
  H     15.366324   18.255655   16.376348
  H     17.131871   20.128626   18.171881
  H     19.860787   17.920280   20.135777
  H     19.724823   16.262515   18.287114
  H     19.551351   14.119845   19.202729
  H     18.522139   12.502638   20.782254
  H     16.532225   13.181277   22.129575
  H     15.148013   14.808027   22.612084
  H     16.622197   17.084394   20.331669

 Total Charge           Charge          ....    0
 Multiplicity           Mult            ....    1
 Number of Electrons    NEL             ....  154
 Basis Dimension        Dim             ....  828

ORBITAL ENERGIES
----------------

  NO   OCC          E(Eh)            E(eV)
   0   2.0000     -91.888340     -2500.4089
   1   2.0000     -20.593943      -560.3897
   2   2.0000     -20.593835      -560.3867
   3   2.0000     -20.550879      -559.2178
   4   2.0000     -15.628231      -425.2658
   5   2.0000     -15.607488      -424.7014
   6   2.0000     -11.394297      -310.0546
   7   2.0000     -11.383583      -309.7630
   8   2.0000     -11.334196      -308.4192
   9   2.0000     -11.309929      -307.7588
  10   2.0000     -11.307277      -307.6866
  11   2.0000     -11.298842      -307.4571
  12   2.0000     -11.260051      -306.4016
  13   2.0000     -11.259514      -306.3870
  14   2.0000     -11.255595      -306.2803
  15   2.0000     -11.249984      -306.1276
  16   2.0000     -11.239673      -305.8470
  17   2.0000     -11.235687      -305.7386
  18   2.0000     -11.234127      -305.6961
  19   2.0000     -11.232742      -305.6584
  20   2.0000      -8.893410      -242.0020
  21   2.0000      -6.574988      -178.9145
  22   2.0000      -6.572980      -178.8599
  23   2.0000      -6.572395      -178.8440
  24   2.0000      -1.454840       -39.5882
  25   2.0000      -1.413698       -38.4687
  26   2.0000      -1.357034       -36.9268
  27   2.0000      -1.339284       -36.4438
  28   2.0000      -1.237303       -33.6687
  29   2.0000      -1.154213       -31.4077
  30   2.0000      -1.120498       -30.4903
  31   2.0000      -1.044477       -28.4217
  32   2.0000      -1.036958       -28.2171
  33   2.0000      -1.011614       -27.5274
  34   2.0000      -0.998471       -27.1698
  35   2.0000      -0.984150       -26.7801
  36   2.0000      -0.922163       -25.0933
  37   2.0000      -0.885725       -24.1018
  38   2.0000      -0.847287       -23.0558
  39   2.0000      -0.836640       -22.7661
  40   2.0000      -0.830097       -22.5881
  41   2.0000      -0.821174       -22.3453
  42   2.0000      -0.759645       -20.6710
  43   2.0000      -0.735947       -20.0261
  44   2.0000      -0.726589       -19.7715
  45   2.0000      -0.692270       -18.8376
  46   2.0000      -0.683885       -18.6094
  47   2.0000      -0.681939       -18.5565
  48   2.0000      -0.676375       -18.4051
  49   2.0000      -0.657204       -17.8834
  50   2.0000      -0.651959       -17.7407
  51   2.0000      -0.643836       -17.5197
  52   2.0000      -0.635484       -17.2924
  53   2.0000      -0.604971       -16.4621
  54   2.0000      -0.602258       -16.3883
  55   2.0000      -0.601619       -16.3709
  56   2.0000      -0.597354       -16.2548
  57   2.0000      -0.576044       -15.6749
  58   2.0000      -0.574938       -15.6449
  59   2.0000      -0.564639       -15.3646
  60   2.0000      -0.559683       -15.2298
  61   2.0000      -0.551488       -15.0067
  62   2.0000      -0.543365       -14.7857
  63   2.0000      -0.519708       -14.1420
  64   2.0000      -0.515980       -14.0405
  65   2.0000      -0.510866       -13.9014
  66   2.0000      -0.506931       -13.7943
  67   2.0000      -0.496962       -13.5230
  68   2.0000      -0.481845       -13.1117
  69   2.0000      -0.463709       -12.6182
  70   2.0000      -0.459830       -12.5126
  71   2.0000      -0.454185       -12.3590
  72   2.0000      -0.353931        -9.6310
  73   2.0000      -0.346024        -9.4158
  74   2.0000      -0.327573        -8.9137
  75   2.0000      -0.317042        -8.6272
  76   2.0000      -0.315113        -8.5747
  77   0.0000       0.073668         2.0046
  78   0.0000       0.108640         2.9562
  79   0.0000       0.119467         3.2509
  80   0.0000       0.134102         3.6491
  81   0.0000       0.138573         3.7708

MULLIKEN ATOMIC CHARGES
-----------------------
   0 C :   -0.280490
   1 C :    0.055755
   2 O :   -0.353855
   3 C :    0.430603
   4 O :   -0.407833
   5 C :   -0.176410
   6 C :    0.140895
   7 C :   -0.285222
   8 N :   -0.124611
   9 C :    0.202911
  10 S :   -0.439898
  11 N :   -0.199613
  12 C :    0.048270
  13 C :    0.050765
  14 C :   -0.161109
  15 C :   -0.133281
  16 C :   -0.280890
  17 C :    0.311793
  18 O :   -0.358803
  19 C :   -0.276695
  20 H :    0.093007
  21 H :    0.101561
  22 H :    0.098003
  23 H :    0.091542
  24 H :    0.101901
  25 H :    0.125280
  26 H :    0.104695
  27 H :    0.125832
  28 H :    0.197141
  29 H :    0.194026
  30 H :    0.154260
  31 H :    0.154488
  32 H :    0.160079
  33 H :    0.129394
  34 H :    0.240441
  35 H :    0.166068
Sum of atomic charges:   -0.0000000

LOEWDIN ATOMIC CHARGES
----------------------
   0 C :    0.107645
   1 C :   -0.017913
   2 O :    0.298682
   3 C :   -0.415911
   4 O :    0.117438
   5 C :   -0.092661
   6 C :   -0.071183
   7 C :    0.125736
   8 N :    0.404296
   9 C :   -0.457936
  10 S :   -0.036435
  11 N :    0.397353
  12 C :   -0.045688
  13 C :   -0.039692
  14 C :    0.021826
  15 C :    0.041154
  16 C :   -0.002509
  17 C :   -0.193507
  18 O :    0.393127
  19 C :    0.027749
  20 H :   -0.028973
  21 H :   -0.022881
  22 H :   -0.026927
  23 H :   -0.026898
  24 H :   -0.028419
  25 H :   -0.008156
  26 H :   -0.020075
  27 H :   -0.010558
  28 H :   -0.058903
  29 H :   -0.063926
  30 H :   -0.004739
  31 H :   -0.024979
  32 H :   -0.020779
  33 H :   -0.036067
  34 H :   -0.154560
  35 H :   -0.024731

  Mayer bond orders larger than 0.100000
B(  0-C ,  1-C ) :   0.9703 B(  0-C , 20-H ) :   0.9780 B(  0-C , 21-H ) :   0.9782
B(  0-C , 22-H ) :   0.9769 B(  1-C ,  2-O ) :   0.9045 B(  1-C , 23-H ) :   0.9712
B(  1-C , 24-H ) :   0.9814 B(  2-O ,  3-C ) :   1.1164 B(  3-C ,  4-O ) :   2.0126
B(  3-C ,  5-C ) :   1.0352 B(  5-C ,  6-C ) :   1.6608 B(  5-C , 12-C ) :   0.9659
B(  6-C ,  7-C ) :   0.9526 B(  6-C ,  8-N ) :   1.1390 B(  7-C , 25-H ) :   0.9688
B(  7-C , 26-H ) :   0.9898 B(  7-C , 27-H ) :   0.9628 B(  8-N ,  9-C ) :   1.1828
B(  8-N , 28-H ) :   0.9495 B(  9-C , 10-S ) :   1.6102 B(  9-C , 11-N ) :   1.3017
B( 11-N , 12-C ) :   0.9916 B( 11-N , 29-H ) :   0.9518 B( 12-C , 13-C ) :   0.9455
B( 12-C , 30-H ) :   0.9988 B( 13-C , 14-C ) :   1.3769 B( 13-C , 19-C ) :   1.3687
B( 14-C , 15-C ) :   1.3947 B( 14-C , 31-H ) :   0.9644 B( 15-C , 16-C ) :   1.3630
B( 15-C , 32-H ) :   0.9712 B( 16-C , 17-C ) :   1.3309 B( 16-C , 33-H ) :   0.9855
B( 17-C , 18-O ) :   1.1088 B( 17-C , 19-C ) :   1.3774 B( 18-O , 34-H ) :   0.9802
B( 19-C , 35-H ) :   0.9583

MP2 TOTAL ENERGY:    -1274.335555587 Eh
FINAL SINGLE POINT ENERGY     -1274.335555587445

DIPOLE MOMENT
-------------
                                X             Y             Z
Electronic contribution:     12.02193       8.58545       8.92006
Nuclear contribution   :    -13.42538      -9.91829      -9.69629
                        -----------------------------------------
Total Dipole Moment    :     -1.40345      -1.33284      -0.77624
                        -----------------------------------------
Magnitude (a.u.)       :      2.08535
Magnitude (Debye)      :      5.30053

Rotational constants in cm-1:     0.010729     0.009188     0.006329
Rotational constants in MHz :   321.652990   275.435618   189.746374

                             ****ORCA TERMINATED NORMALLY****
TOTAL RUN TIME: 0 days 1 hours 55 minutes 49 seconds 287 msec
