                         Program Version 5.0.0 -  RELEASE  -
|  1> ! ri-mp2 cc-pvtz cc-pvtz/c TightSCF NoKeepInts
|  2>
|  3> %scf
|  4>   MaxCore 4096
|  5> end
|  6> *xyz  0  1
|  7>     C       15.0893420   14.9476248   16.8499531
|  8>     C       16.4030399   14.1339435   16.7716328
|  9>     O       17.5609245   14.9107865   16.3679981
| 10>     C       17.4886683   16.2480842   16.0997263
| 11>     O       16.9881249   16.6379698   15.0599349
| 12>     C       17.7548360   17.1256765   17.2941184
| 13>     C       17.3937279   18.4343686   17.3266395
| 14>     C       16.5990839   19.1956200   16.2873395
| 15>     N       17.8013586   19.2456056   18.3902413
| 16>     C       18.7348997   18.8866268   19.3261961
| 17>     S       19.3098512   19.9579487   20.4474239
| 18>     N       19.1813437   17.5904192   19.2743347
| 19>     C       18.5724202   16.5279622   18.4535980
| 20>     C       17.7690272   15.6070400   19.3652607
| 21>     C       18.2629197   14.3299257   19.6927279
| 22>     C       17.5355836   13.4779554   20.5409332
| 23>     C       16.3087202   13.9092106   21.0734701
| 24>     C       15.8234104   15.1872291   20.7649354
| 25>     O       14.6414026   15.6088906   21.2799320
| 26>     C       16.5501679   16.0333859   19.9221079
| 27>     H       15.1703041   15.7876620   17.5483667
| 28>     H       14.2708772   14.3057531   17.1974152
| 29>     H       14.8084989   15.3368190   15.8629963
| 30>     H       16.5924109   13.6696139   17.7460751
| 31>     H       16.2630625   13.3169008   16.0521576
| 32>     H       15.6617816   18.6731786   16.0574335
| 33>     H       17.1667553   19.2744845   15.3511814
| 34>     H       16.3387678   20.2116561   16.6061942
| 35>     H       17.4963081   20.2051194   18.4294943
| 36>     H       19.8521722   17.3476886   19.9919454
| 37>     H       19.3896030   15.9417859   18.0097694
| 38>     H       19.2114170   13.9932006   19.2822448
| 39>     H       17.9238437   12.4903277   20.7849154
| 40>     H       15.7433319   13.2548165   21.7290677
| 41>     H       14.3259326   14.9231564   21.8879511
| 42>     H       16.1630809   17.0235633   19.7082882
| 43> *
| 44>
| 45>                          ****END OF INPUT****

CARTESIAN COORDINATES (ANGSTROEM)
---------------------------------
  C     15.089342   14.947625   16.849953
  C     16.403040   14.133943   16.771633
  O     17.560924   14.910787   16.367998
  C     17.488668   16.248084   16.099726
  O     16.988125   16.637970   15.059935
  C     17.754836   17.125677   17.294118
  C     17.393728   18.434369   17.326639
  C     16.599084   19.195620   16.287340
  N     17.801359   19.245606   18.390241
  C     18.734900   18.886627   19.326196
  S     19.309851   19.957949   20.447424
  N     19.181344   17.590419   19.274335
  C     18.572420   16.527962   18.453598
  C     17.769027   15.607040   19.365261
  C     18.262920   14.329926   19.692728
  C     17.535584   13.477955   20.540933
  C     16.308720   13.909211   21.073470
  C     15.823410   15.187229   20.764935
  O     14.641403   15.608891   21.279932
  C     16.550168   16.033386   19.922108
  H     15.170304   15.787662   17.548367
  H     14.270877   14.305753   17.197415
  H     14.808499   15.336819   15.862996
  H     16.592411   13.669614   17.746075
  H     16.263063   13.316901   16.052158
  H     15.661782   18.673179   16.057433
  H     17.166755   19.274484   15.351181
  H     16.338768   20.211656   16.606194
  H     17.496308   20.205119   18.429494
  H     19.852172   17.347689   19.991945
  H     19.389603   15.941786   18.009769
  H     19.211417   13.993201   19.282245
  H     17.923844   12.490328   20.784915
  H     15.743332   13.254816   21.729068
  H     14.325933   14.923156   21.887951
  H     16.163081   17.023563   19.708288

 Total Charge           Charge          ....    0
 Multiplicity           Mult            ....    1
 Number of Electrons    NEL             ....  154
 Basis Dimension        Dim             ....  828

ORBITAL ENERGIES
----------------

  NO   OCC          E(Eh)            E(eV)
   0   2.0000     -91.891016     -2500.4817
   1   2.0000     -20.602672      -560.6272
   2   2.0000     -20.578594      -559.9720
   3   2.0000     -20.547518      -559.1264
   4   2.0000     -15.631287      -425.3489
   5   2.0000     -15.609978      -424.7691
   6   2.0000     -11.393257      -310.0263
   7   2.0000     -11.385639      -309.8190
   8   2.0000     -11.337310      -308.5039
   9   2.0000     -11.320170      -308.0375
  10   2.0000     -11.312647      -307.8328
  11   2.0000     -11.298103      -307.4370
  12   2.0000     -11.264855      -306.5323
  13   2.0000     -11.261206      -306.4330
  14   2.0000     -11.259431      -306.3847
  15   2.0000     -11.253859      -306.2331
  16   2.0000     -11.249255      -306.1078
  17   2.0000     -11.244010      -305.9651
  18   2.0000     -11.243588      -305.9536
  19   2.0000     -11.226004      -305.4751
  20   2.0000      -8.896042      -242.0736
  21   2.0000      -6.577607      -178.9858
  22   2.0000      -6.575613      -178.9315
  23   2.0000      -6.575017      -178.9153
  24   2.0000      -1.441936       -39.2371
  25   2.0000      -1.422323       -38.7034
  26   2.0000      -1.349343       -36.7175
  27   2.0000      -1.342512       -36.5316
  28   2.0000      -1.241030       -33.7702
  29   2.0000      -1.162870       -31.6433
  30   2.0000      -1.121645       -30.5215
  31   2.0000      -1.046809       -28.4851
  32   2.0000      -1.030218       -28.0336
  33   2.0000      -1.021342       -27.7921
  34   2.0000      -0.999740       -27.2043
  35   2.0000      -0.986897       -26.8548
  36   2.0000      -0.925998       -25.1977
  37   2.0000      -0.895712       -24.3736
  38   2.0000      -0.849538       -23.1171
  39   2.0000      -0.844264       -22.9736
  40   2.0000      -0.839555       -22.8454
  41   2.0000      -0.821161       -22.3449
  42   2.0000      -0.745048       -20.2738
  43   2.0000      -0.735744       -20.0206
  44   2.0000      -0.718782       -19.5591
  45   2.0000      -0.701420       -19.0866
  46   2.0000      -0.691828       -18.8256
  47   2.0000      -0.673102       -18.3160
  48   2.0000      -0.671109       -18.2618
  49   2.0000      -0.659120       -17.9356
  50   2.0000      -0.655787       -17.8449
  51   2.0000      -0.646446       -17.5907
  52   2.0000      -0.636916       -17.3314
  53   2.0000      -0.627883       -17.0856
  54   2.0000      -0.613035       -16.6815
  55   2.0000      -0.604601       -16.4520
  56   2.0000      -0.601847       -16.3771
  57   2.0000      -0.582381       -15.8474
  58   2.0000      -0.572934       -15.5903
  59   2.0000      -0.566668       -15.4198
  60   2.0000      -0.544393       -14.8137
  61   2.0000      -0.543189       -14.7809
  62   2.0000      -0.535729       -14.5779
  63   2.0000      -0.530952       -14.4479
  64   2.0000      -0.529352       -14.4044
  65   2.0000      -0.516219       -14.0470
  66   2.0000      -0.505708       -13.7610
  67   2.0000      -0.493048       -13.4165
  68   2.0000      -0.484560       -13.1855
  69   2.0000      -0.465473       -12.6662
  70   2.0000      -0.453036       -12.3277
  71   2.0000      -0.442234       -12.0338
  72   2.0000      -0.357395        -9.7252
  73   2.0000      -0.354971        -9.6592
  74   2.0000      -0.331146        -9.0109
  75   2.0000      -0.327186        -8.9032
  76   2.0000      -0.318153        -8.6574
  77   0.0000       0.068788         1.8718
  78   0.0000       0.101848         2.7714
  79   0.0000       0.120930         3.2907
  80   0.0000       0.127456         3.4683
  81   0.0000       0.132089         3.5943

MULLIKEN ATOMIC CHARGES
-----------------------
   0 C :   -0.337834
   1 C :    0.039725
   2 O :   -0.400099
   3 C :    0.524284
   4 O :   -0.408007
   5 C :   -0.295361
   6 C :    0.162671
   7 C :   -0.272055
   8 N :   -0.124143
   9 C :    0.211505
  10 S :   -0.436174
  11 N :   -0.200206
  12 C :    0.052726
  13 C :    0.067458
  14 C :   -0.179011
  15 C :   -0.132487
  16 C :   -0.274509
  17 C :    0.324214
  18 O :   -0.358007
  19 C :   -0.305709
  20 H :    0.101328
  21 H :    0.112454
  22 H :    0.127428
  23 H :    0.111835
  24 H :    0.119542
  25 H :    0.127511
  26 H :    0.137710
  27 H :    0.094730
  28 H :    0.198228
  29 H :    0.192897
  30 H :    0.150107
  31 H :    0.149815
  32 H :    0.164323
  33 H :    0.133710
  34 H :    0.242258
  35 H :    0.177144
Sum of atomic charges:    0.0000000

LOEWDIN ATOMIC CHARGES
----------------------
   0 C :    0.105212
   1 C :   -0.006821
   2 O :    0.276241
   3 C :   -0.422534
   4 O :    0.121665
   5 C :   -0.099548
   6 C :   -0.060713
   7 C :    0.130914
   8 N :    0.407041
   9 C :   -0.456405
  10 S :   -0.032446
  11 N :    0.396438
  12 C :   -0.052941
  13 C :   -0.037690
  14 C :    0.014414
  15 C :    0.040754
  16 C :   -0.001625
  17 C :   -0.189708
  18 O :    0.396505
  19 C :    0.033856
  20 H :   -0.034466
  21 H :   -0.022227
  22 H :   -0.025802
  23 H :   -0.031139
  24 H :   -0.026777
  25 H :   -0.006370
  26 H :   -0.002678
  27 H :   -0.023145
  28 H :   -0.057473
  29 H :   -0.065337
  30 H :   -0.006516
  31 H :   -0.028897
  32 H :   -0.019815
  33 H :   -0.034280
  34 H :   -0.152361
  35 H :   -0.025324

  Mayer bond orders larger than 0.100000
B(  0-C ,  1-C ) :   0.9640 B(  0-C , 20-H ) :   0.9705 B(  0-C , 21-H ) :   0.9753
B(  0-C , 22-H ) :   0.9712 B(  1-C ,  2-O ) :   0.8833 B(  1-C , 23-H ) :   0.9701
B(  1-C , 24-H ) :   0.9853 B(  2-O ,  3-C ) :   1.0975 B(  3-C ,  4-O ) :   2.0203
B(  3-C ,  5-C ) :   1.0504 B(  5-C ,  6-C ) :   1.6501 B(  5-C , 12-C ) :   0.9732
B(  6-C ,  7-C ) :   0.9689 B(  6-C ,  8-N ) :   1.1564 B(  7-C , 25-H ) :   0.9647
B(  7-C , 26-H ) :   0.9568 B(  7-C , 27-H ) :   0.9883 B(  8-N ,  9-C ) :   1.1792
B(  8-N , 28-H ) :   0.9483 B(  9-C , 10-S ) :   1.6130 B(  9-C , 11-N ) :   1.3031
B( 11-N , 12-C ) :   0.9729 B( 11-N , 29-H ) :   0.9536 B( 12-C , 13-C ) :   0.9449
B( 12-C , 30-H ) :   1.0028 B( 13-C , 14-C ) :   1.3476 B( 13-C , 19-C ) :   1.3580
B( 14-C , 15-C ) :   1.3922 B( 14-C , 31-H ) :   0.9749 B( 15-C , 16-C ) :   1.3629
B( 15-C , 32-H ) :   0.9699 B( 16-C , 17-C ) :   1.3296 B( 16-C , 33-H ) :   0.9836
B( 17-C , 18-O ) :   1.1131 B( 17-C , 19-C ) :   1.3672 B( 18-O , 34-H ) :   0.9791
B( 19-C , 35-H ) :   0.9548

MP2 TOTAL ENERGY:    -1274.328050854 Eh
FINAL SINGLE POINT ENERGY     -1274.328050854370

DIPOLE MOMENT
-------------
                                X             Y             Z
Electronic contribution:      9.85970       8.07364       5.55264
Nuclear contribution   :    -10.94097      -9.66217      -5.28904
                        -----------------------------------------
Total Dipole Moment    :     -1.08127      -1.58852       0.26360
                        -----------------------------------------
Magnitude (a.u.)       :      1.93960
Magnitude (Debye)      :      4.93006

Rotational constants in cm-1:     0.012090     0.009568     0.006733
Rotational constants in MHz :   362.456038   286.848830   201.841983

                             ****ORCA TERMINATED NORMALLY****
TOTAL RUN TIME: 0 days 2 hours 29 minutes 14 seconds 275 msec
