                         Program Version 5.0.0 -  RELEASE  -
|  1> ! ri-mp2 cc-pvtz cc-pvtz/c TightSCF NoKeepInts
|  2>
|  3> %scf
|  4>   MaxCore 4096
|  5> end
|  6> *xyz  0  1
|  7>     C       15.5022489   14.2491783   14.8227911
|  8>     C       15.9050184   13.9528460   16.2848381
|  9>     O       16.6737012   15.0131715   16.9012894
| 10>     C       16.3985146   16.3533372   16.8000353
| 11>     O       15.4456145   16.8027519   16.1885699
| 12>     C       17.3413122   17.1899352   17.6226864
| 13>     C       17.2925353   18.5468736   17.6330695
| 14>     C       16.3349126   19.4379386   16.8708361
| 15>     N       18.2228584   19.2766420   18.3794170
| 16>     C       19.2929691   18.7370912   19.0416181
| 17>     S       20.4102134   19.6804367   19.8148511
| 18>     N       19.3944118   17.3695855   19.0274495
| 19>     C       18.3803126   16.4491313   18.4815313
| 20>     C       17.7273168   15.6705773   19.6202502
| 21>     C       17.9374148   14.2847112   19.7494623
| 22>     C       17.3384036   13.5652702   20.7972784
| 23>     C       16.5248150   14.2370457   21.7255866
| 24>     C       16.3169689   15.6177250   21.6024818
| 25>     O       15.5333076   16.2694059   22.4982034
| 26>     C       16.9144717   16.3309761   20.5587840
| 27>     H       14.6472128   14.9339928   14.7705249
| 28>     H       15.2056926   13.3219886   14.3179596
| 29>     H       16.3397845   14.6864709   14.2653829
| 30>     H       14.9926373   13.7785286   16.8702717
| 31>     H       16.4968448   13.0291712   16.3155038
| 32>     H       15.2999507   19.2422364   17.1795869
| 33>     H       16.3974549   19.2400933   15.7932597
| 34>     H       16.5290970   20.5061684   17.0222157
| 35>     H       18.1644025   20.2822041   18.3997392
| 36>     H       20.1725153   16.9989949   19.5575128
| 37>     H       18.9057134   15.7369855   17.8299587
| 38>     H       18.5624787   13.7622655   19.0304397
| 39>     H       17.5051163   12.4933728   20.8875879
| 40>     H       16.0601708   13.6860237   22.5365635
| 41>     H       15.2335272   15.6187578   23.1504807
| 42>     H       16.7470797   17.4001153   20.4859828
| 43> *
| 44>
| 45>                          ****END OF INPUT****

CARTESIAN COORDINATES (ANGSTROEM)
---------------------------------
  C     15.502249   14.249178   14.822791
  C     15.905018   13.952846   16.284838
  O     16.673701   15.013171   16.901289
  C     16.398515   16.353337   16.800035
  O     15.445614   16.802752   16.188570
  C     17.341312   17.189935   17.622686
  C     17.292535   18.546874   17.633070
  C     16.334913   19.437939   16.870836
  N     18.222858   19.276642   18.379417
  C     19.292969   18.737091   19.041618
  S     20.410213   19.680437   19.814851
  N     19.394412   17.369585   19.027449
  C     18.380313   16.449131   18.481531
  C     17.727317   15.670577   19.620250
  C     17.937415   14.284711   19.749462
  C     17.338404   13.565270   20.797278
  C     16.524815   14.237046   21.725587
  C     16.316969   15.617725   21.602482
  O     15.533308   16.269406   22.498203
  C     16.914472   16.330976   20.558784
  H     14.647213   14.933993   14.770525
  H     15.205693   13.321989   14.317960
  H     16.339785   14.686471   14.265383
  H     14.992637   13.778529   16.870272
  H     16.496845   13.029171   16.315504
  H     15.299951   19.242236   17.179587
  H     16.397455   19.240093   15.793260
  H     16.529097   20.506168   17.022216
  H     18.164403   20.282204   18.399739
  H     20.172515   16.998995   19.557513
  H     18.905713   15.736985   17.829959
  H     18.562479   13.762265   19.030440
  H     17.505116   12.493373   20.887588
  H     16.060171   13.686024   22.536563
  H     15.233527   15.618758   23.150481
  H     16.747080   17.400115   20.485983

 Total Charge           Charge          ....    0
 Multiplicity           Mult            ....    1
 Number of Electrons    NEL             ....  154
 Basis Dimension        Dim             ....  828

ORBITAL ENERGIES
----------------

  NO   OCC          E(Eh)            E(eV)
   0   2.0000     -91.887862     -2500.3958
   1   2.0000     -20.600249      -560.5613
   2   2.0000     -20.594632      -560.4084
   3   2.0000     -20.540940      -558.9474
   4   2.0000     -15.627996      -425.2594
   5   2.0000     -15.606992      -424.6878
   6   2.0000     -11.397118      -310.1313
   7   2.0000     -11.382837      -309.7427
   8   2.0000     -11.334809      -308.4358
   9   2.0000     -11.311545      -307.8028
  10   2.0000     -11.307410      -307.6903
  11   2.0000     -11.302709      -307.5623
  12   2.0000     -11.258280      -306.3534
  13   2.0000     -11.257524      -306.3328
  14   2.0000     -11.253064      -306.2114
  15   2.0000     -11.251246      -306.1620
  16   2.0000     -11.240860      -305.8793
  17   2.0000     -11.236277      -305.7546
  18   2.0000     -11.236166      -305.7516
  19   2.0000     -11.223255      -305.4003
  20   2.0000      -8.892931      -241.9890
  21   2.0000      -6.574508      -178.9015
  22   2.0000      -6.572502      -178.8469
  23   2.0000      -6.571917      -178.8310
  24   2.0000      -1.445999       -39.3476
  25   2.0000      -1.414270       -38.4842
  26   2.0000      -1.354855       -36.8675
  27   2.0000      -1.339013       -36.4364
  28   2.0000      -1.237341       -33.6698
  29   2.0000      -1.155493       -31.4426
  30   2.0000      -1.118798       -30.4440
  31   2.0000      -1.041177       -28.3319
  32   2.0000      -1.036251       -28.1978
  33   2.0000      -1.012901       -27.5624
  34   2.0000      -0.994313       -27.0566
  35   2.0000      -0.982721       -26.7412
  36   2.0000      -0.921083       -25.0639
  37   2.0000      -0.897742       -24.4288
  38   2.0000      -0.846206       -23.0264
  39   2.0000      -0.836304       -22.7570
  40   2.0000      -0.831977       -22.6392
  41   2.0000      -0.817749       -22.2521
  42   2.0000      -0.748286       -20.3619
  43   2.0000      -0.729313       -19.8456
  44   2.0000      -0.720024       -19.5928
  45   2.0000      -0.693997       -18.8846
  46   2.0000      -0.687269       -18.7015
  47   2.0000      -0.679058       -18.4781
  48   2.0000      -0.668469       -18.1900
  49   2.0000      -0.654361       -17.8061
  50   2.0000      -0.651217       -17.7205
  51   2.0000      -0.643887       -17.5211
  52   2.0000      -0.633191       -17.2300
  53   2.0000      -0.608818       -16.5668
  54   2.0000      -0.604659       -16.4536
  55   2.0000      -0.597866       -16.2688
  56   2.0000      -0.597016       -16.2456
  57   2.0000      -0.579239       -15.7619
  58   2.0000      -0.572273       -15.5723
  59   2.0000      -0.569872       -15.5070
  60   2.0000      -0.561165       -15.2701
  61   2.0000      -0.538230       -14.6460
  62   2.0000      -0.536459       -14.5978
  63   2.0000      -0.523620       -14.2484
  64   2.0000      -0.521847       -14.2002
  65   2.0000      -0.512067       -13.9341
  66   2.0000      -0.503166       -13.6919
  67   2.0000      -0.498372       -13.5614
  68   2.0000      -0.482785       -13.1372
  69   2.0000      -0.462897       -12.5961
  70   2.0000      -0.455043       -12.3823
  71   2.0000      -0.440917       -11.9980
  72   2.0000      -0.353218        -9.6115
  73   2.0000      -0.347418        -9.4537
  74   2.0000      -0.327188        -8.9032
  75   2.0000      -0.319226        -8.6866
  76   2.0000      -0.314780        -8.5656
  77   0.0000       0.077535         2.1098
  78   0.0000       0.109650         2.9837
  79   0.0000       0.124542         3.3890
  80   0.0000       0.133724         3.6388
  81   0.0000       0.137202         3.7335

MULLIKEN ATOMIC CHARGES
-----------------------
   0 C :   -0.296510
   1 C :    0.048939
   2 O :   -0.355620
   3 C :    0.472053
   4 O :   -0.435777
   5 C :   -0.212757
   6 C :    0.146452
   7 C :   -0.274319
   8 N :   -0.119845
   9 C :    0.211528
  10 S :   -0.441373
  11 N :   -0.202914
  12 C :    0.045924
  13 C :    0.075530
  14 C :   -0.181910
  15 C :   -0.132008
  16 C :   -0.278360
  17 C :    0.315531
  18 O :   -0.357058
  19 C :   -0.269290
  20 H :    0.126846
  21 H :    0.095062
  22 H :    0.093931
  23 H :    0.089968
  24 H :    0.101234
  25 H :    0.132588
  26 H :    0.129172
  27 H :    0.095036
  28 H :    0.197078
  29 H :    0.194006
  30 H :    0.148413
  31 H :    0.146554
  32 H :    0.158641
  33 H :    0.128797
  34 H :    0.240404
  35 H :    0.164054
Sum of atomic charges:    0.0000000

LOEWDIN ATOMIC CHARGES
----------------------
   0 C :    0.103367
   1 C :   -0.009471
   2 O :    0.299087
   3 C :   -0.412381
   4 O :    0.103527
   5 C :   -0.093003
   6 C :   -0.059460
   7 C :    0.130736
   8 N :    0.406348
   9 C :   -0.456832
  10 S :   -0.036572
  11 N :    0.396473
  12 C :   -0.053044
  13 C :   -0.037848
  14 C :    0.013770
  15 C :    0.039191
  16 C :   -0.001834
  17 C :   -0.189407
  18 O :    0.394913
  19 C :    0.031554
  20 H :   -0.025313
  21 H :   -0.028681
  22 H :   -0.027865
  23 H :   -0.028042
  24 H :   -0.025157
  25 H :   -0.004651
  26 H :   -0.004630
  27 H :   -0.023606
  28 H :   -0.057777
  29 H :   -0.064763
  30 H :   -0.011684
  31 H :   -0.030954
  32 H :   -0.021779
  33 H :   -0.035927
  34 H :   -0.154230
  35 H :   -0.024055

  Mayer bond orders larger than 0.100000
B(  0-C ,  1-C ) :   0.9709 B(  0-C , 20-H ) :   0.9714 B(  0-C , 21-H ) :   0.9774
B(  0-C , 22-H ) :   0.9760 B(  1-C ,  2-O ) :   0.9020 B(  1-C , 23-H ) :   0.9773
B(  1-C , 24-H ) :   0.9835 B(  2-O ,  3-C ) :   1.1651 B(  3-C ,  4-O ) :   1.9621
B(  3-C ,  5-C ) :   1.0580 B(  5-C ,  6-C ) :   1.6568 B(  5-C , 12-C ) :   0.9741
B(  6-C ,  7-C ) :   0.9676 B(  6-C ,  8-N ) :   1.1640 B(  7-C , 25-H ) :   0.9604
B(  7-C , 26-H ) :   0.9605 B(  7-C , 27-H ) :   0.9909 B(  8-N ,  9-C ) :   1.1827
B(  8-N , 28-H ) :   0.9482 B(  9-C , 10-S ) :   1.6061 B(  9-C , 11-N ) :   1.3056
B( 11-N , 12-C ) :   0.9868 B( 11-N , 29-H ) :   0.9519 B( 12-C , 13-C ) :   0.9383
B( 12-C , 30-H ) :   1.0028 B( 13-C , 14-C ) :   1.3544 B( 13-C , 19-C ) :   1.3828
B( 14-C , 15-C ) :   1.3936 B( 14-C , 31-H ) :   0.9723 B( 15-C , 16-C ) :   1.3643
B( 15-C , 32-H ) :   0.9711 B( 16-C , 17-C ) :   1.3318 B( 16-C , 33-H ) :   0.9855
B( 17-C , 18-O ) :   1.1096 B( 17-C , 19-C ) :   1.3739 B( 18-O , 34-H ) :   0.9802
B( 19-C , 35-H ) :   0.9584

MP2 TOTAL ENERGY:    -1274.343241025 Eh
FINAL SINGLE POINT ENERGY     -1274.343241024603

DIPOLE MOMENT
-------------
                                X             Y             Z
Electronic contribution:      9.48938       9.35337      10.47326
Nuclear contribution   :    -10.55057     -11.08790     -10.90614
                        -----------------------------------------
Total Dipole Moment    :     -1.06119      -1.73452      -0.43288
                        -----------------------------------------
Magnitude (a.u.)       :      2.07896
Magnitude (Debye)      :      5.28429

Rotational constants in cm-1:     0.010744     0.008901     0.005992
Rotational constants in MHz :   322.111688   266.832034   179.629006

                             ****ORCA TERMINATED NORMALLY****
TOTAL RUN TIME: 0 days 1 hours 52 minutes 36 seconds 635 msec
