                         Program Version 5.0.0 -  RELEASE  -
|  1> ! ri-mp2 cc-pvtz cc-pvtz/c TightSCF NoKeepInts
|  2>
|  3> %scf
|  4>   MaxCore 4096
|  5> end
|  6> *xyz  0  1
|  7>     C       15.1003499   15.6077467   17.4676721
|  8>     C       15.5394861   15.3194121   16.0162289
|  9>     O       16.9573804   15.0604653   15.8513816
| 10>     C       18.0677612   15.5835425   16.4781412
| 11>     O       19.0918155   14.9253890   16.4906192
| 12>     C       17.9276251   16.7651732   17.3853091
| 13>     C       17.3988908   17.9438954   16.9758303
| 14>     C       16.8686873   18.2874430   15.6004949
| 15>     N       17.4078801   19.0475137   17.8320498
| 16>     C       18.0742266   19.1008948   19.0278549
| 17>     S       18.1173411   20.4809312   19.9376058
| 18>     N       18.7080373   17.9516398   19.4296848
| 19>     C       18.6043915   16.6420928   18.7550970
| 20>     C       17.9000915   15.6143956   19.6378944
| 21>     C       18.3341228   14.2758017   19.6389998
| 22>     C       17.6901409   13.3126670   20.4331713
| 23>     C       16.6005000   13.6891153   21.2361564
| 24>     C       16.1627492   15.0200870   21.2383332
| 25>     O       15.1036234   15.3847275   22.0037297
| 26>     C       16.8052497   15.9771611   20.4464004
| 27>     H       15.5744980   14.9006127   18.1587833
| 28>     H       14.0159083   15.4708257   17.5580328
| 29>     H       15.3139789   16.6301546   17.7899100
| 30>     H       14.9965104   14.4340580   15.6603139
| 31>     H       15.2291092   16.1516472   15.3746337
| 32>     H       17.1424263   17.5365939   14.8495007
| 33>     H       17.2850386   19.2400475   15.2483389
| 34>     H       15.7765514   18.3846120   15.6104617
| 35>     H       16.9673584   19.9074258   17.5450179
| 36>     H       19.1817665   18.0147214   20.3219960
| 37>     H       19.6299675   16.2820584   18.5847344
| 38>     H       19.1703636   13.9776876   19.0097007
| 39>     H       18.0349537   12.2800574   20.4198275
| 40>     H       16.0990307   12.9475207   21.8491592
| 41>     H       14.8282257   14.6049541   22.5090241
| 42>     H       16.4409625   16.9989282   20.4619103
| 43> *
| 44>
| 45>                          ****END OF INPUT****

CARTESIAN COORDINATES (ANGSTROEM)
---------------------------------
  C     15.100350   15.607747   17.467672
  C     15.539486   15.319412   16.016229
  O     16.957380   15.060465   15.851382
  C     18.067761   15.583543   16.478141
  O     19.091815   14.925389   16.490619
  C     17.927625   16.765173   17.385309
  C     17.398891   17.943895   16.975830
  C     16.868687   18.287443   15.600495
  N     17.407880   19.047514   17.832050
  C     18.074227   19.100895   19.027855
  S     18.117341   20.480931   19.937606
  N     18.708037   17.951640   19.429685
  C     18.604391   16.642093   18.755097
  C     17.900091   15.614396   19.637894
  C     18.334123   14.275802   19.639000
  C     17.690141   13.312667   20.433171
  C     16.600500   13.689115   21.236156
  C     16.162749   15.020087   21.238333
  O     15.103623   15.384727   22.003730
  C     16.805250   15.977161   20.446400
  H     15.574498   14.900613   18.158783
  H     14.015908   15.470826   17.558033
  H     15.313979   16.630155   17.789910
  H     14.996510   14.434058   15.660314
  H     15.229109   16.151647   15.374634
  H     17.142426   17.536594   14.849501
  H     17.285039   19.240047   15.248339
  H     15.776551   18.384612   15.610462
  H     16.967358   19.907426   17.545018
  H     19.181766   18.014721   20.321996
  H     19.629967   16.282058   18.584734
  H     19.170364   13.977688   19.009701
  H     18.034954   12.280057   20.419828
  H     16.099031   12.947521   21.849159
  H     14.828226   14.604954   22.509024
  H     16.440963   16.998928   20.461910

 Total Charge           Charge          ....    0
 Multiplicity           Mult            ....    1
 Number of Electrons    NEL             ....  154
 Basis Dimension        Dim             ....  828

ORBITAL ENERGIES
----------------

  NO   OCC          E(Eh)            E(eV)
   0   2.0000     -91.890929     -2500.4793
   1   2.0000     -20.597648      -560.4905
   2   2.0000     -20.597522      -560.4871
   3   2.0000     -20.546571      -559.1006
   4   2.0000     -15.629293      -425.2947
   5   2.0000     -15.611180      -424.8018
   6   2.0000     -11.400565      -310.2251
   7   2.0000     -11.387138      -309.8598
   8   2.0000     -11.332919      -308.3844
   9   2.0000     -11.314235      -307.8760
  10   2.0000     -11.313056      -307.8439
  11   2.0000     -11.311877      -307.8118
  12   2.0000     -11.270317      -306.6809
  13   2.0000     -11.266453      -306.5758
  14   2.0000     -11.261393      -306.4381
  15   2.0000     -11.254752      -306.2574
  16   2.0000     -11.243996      -305.9647
  17   2.0000     -11.239372      -305.8389
  18   2.0000     -11.236277      -305.7546
  19   2.0000     -11.232748      -305.6586
  20   2.0000      -8.896021      -242.0730
  21   2.0000      -6.577607      -178.9858
  22   2.0000      -6.575584      -178.9307
  23   2.0000      -6.575005      -178.9150
  24   2.0000      -1.442236       -39.2452
  25   2.0000      -1.417462       -38.5711
  26   2.0000      -1.354687       -36.8629
  27   2.0000      -1.342092       -36.5202
  28   2.0000      -1.240778       -33.7633
  29   2.0000      -1.159062       -31.5397
  30   2.0000      -1.125238       -30.6193
  31   2.0000      -1.047675       -28.5087
  32   2.0000      -1.039979       -28.2993
  33   2.0000      -1.017199       -27.6794
  34   2.0000      -1.005931       -27.3728
  35   2.0000      -0.990416       -26.9506
  36   2.0000      -0.928225       -25.2583
  37   2.0000      -0.899880       -24.4870
  38   2.0000      -0.855088       -23.2681
  39   2.0000      -0.841052       -22.8862
  40   2.0000      -0.834539       -22.7090
  41   2.0000      -0.828213       -22.5368
  42   2.0000      -0.745290       -20.2804
  43   2.0000      -0.736981       -20.0543
  44   2.0000      -0.730615       -19.8810
  45   2.0000      -0.695197       -18.9173
  46   2.0000      -0.687015       -18.6946
  47   2.0000      -0.679008       -18.4767
  48   2.0000      -0.674572       -18.3560
  49   2.0000      -0.661072       -17.9887
  50   2.0000      -0.656330       -17.8596
  51   2.0000      -0.652051       -17.7432
  52   2.0000      -0.641206       -17.4481
  53   2.0000      -0.617166       -16.7939
  54   2.0000      -0.609235       -16.5781
  55   2.0000      -0.605603       -16.4793
  56   2.0000      -0.602203       -16.3868
  57   2.0000      -0.590373       -16.0649
  58   2.0000      -0.577453       -15.7133
  59   2.0000      -0.571208       -15.5434
  60   2.0000      -0.565677       -15.3928
  61   2.0000      -0.556034       -15.1305
  62   2.0000      -0.542841       -14.7714
  63   2.0000      -0.530408       -14.4331
  64   2.0000      -0.521529       -14.1915
  65   2.0000      -0.513604       -13.9759
  66   2.0000      -0.501269       -13.6402
  67   2.0000      -0.498528       -13.5656
  68   2.0000      -0.483068       -13.1449
  69   2.0000      -0.467501       -12.7214
  70   2.0000      -0.454932       -12.3793
  71   2.0000      -0.448965       -12.2169
  72   2.0000      -0.356983        -9.7140
  73   2.0000      -0.348776        -9.4907
  74   2.0000      -0.330430        -8.9914
  75   2.0000      -0.323074        -8.7913
  76   2.0000      -0.319124        -8.6838
  77   0.0000       0.081092         2.2066
  78   0.0000       0.107762         2.9324
  79   0.0000       0.114114         3.1052
  80   0.0000       0.130758         3.5581
  81   0.0000       0.131062         3.5664

MULLIKEN ATOMIC CHARGES
-----------------------
   0 C :   -0.339256
   1 C :    0.036067
   2 O :   -0.330385
   3 C :    0.426291
   4 O :   -0.387050
   5 C :   -0.206840
   6 C :    0.143376
   7 C :   -0.338361
   8 N :   -0.136110
   9 C :    0.199179
  10 S :   -0.438971
  11 N :   -0.219888
  12 C :    0.077222
  13 C :    0.020504
  14 C :   -0.209160
  15 C :   -0.135156
  16 C :   -0.277511
  17 C :    0.316742
  18 O :   -0.358221
  19 C :   -0.269486
  20 H :    0.129935
  21 H :    0.119030
  22 H :    0.109909
  23 H :    0.133311
  24 H :    0.084950
  25 H :    0.134209
  26 H :    0.138557
  27 H :    0.121952
  28 H :    0.197353
  29 H :    0.200813
  30 H :    0.167279
  31 H :    0.176280
  32 H :    0.163807
  33 H :    0.131996
  34 H :    0.241095
  35 H :    0.176538
Sum of atomic charges:   -0.0000000

LOEWDIN ATOMIC CHARGES
----------------------
   0 C :    0.104122
   1 C :   -0.016087
   2 O :    0.292773
   3 C :   -0.415104
   4 O :    0.120278
   5 C :   -0.081091
   6 C :   -0.094279
   7 C :    0.124755
   8 N :    0.403030
   9 C :   -0.458511
  10 S :   -0.036317
  11 N :    0.398354
  12 C :   -0.042935
  13 C :   -0.043422
  14 C :    0.019740
  15 C :    0.043331
  16 C :   -0.001770
  17 C :   -0.194067
  18 O :    0.395215
  19 C :    0.028762
  20 H :   -0.019719
  21 H :   -0.022841
  22 H :   -0.036434
  23 H :   -0.017241
  24 H :   -0.038959
  25 H :   -0.007209
  26 H :   -0.009467
  27 H :   -0.018069
  28 H :   -0.057365
  29 H :   -0.063243
  30 H :   -0.001732
  31 H :   -0.021754
  32 H :   -0.018668
  33 H :   -0.035005
  34 H :   -0.153594
  35 H :   -0.025475

  Mayer bond orders larger than 0.100000
B(  0-C ,  1-C ) :   0.9561 B(  0-C , 20-H ) :   0.9671 B(  0-C , 21-H ) :   0.9771
B(  0-C , 22-H ) :   0.9729 B(  1-C ,  2-O ) :   0.9060 B(  1-C , 23-H ) :   0.9798
B(  1-C , 24-H ) :   0.9736 B(  2-O ,  3-C ) :   1.1829 B(  3-C ,  4-O ) :   2.0735
B(  3-C ,  5-C ) :   0.9303 B(  5-C ,  6-C ) :   1.6923 B(  5-C , 12-C ) :   0.9566
B(  6-C ,  7-C ) :   0.9441 B(  6-C ,  8-N ) :   1.1061 B(  7-C , 25-H ) :   0.9786
B(  7-C , 26-H ) :   0.9733 B(  7-C , 27-H ) :   0.9644 B(  8-N ,  9-C ) :   1.1919
B(  8-N , 28-H ) :   0.9517 B(  9-C , 10-S ) :   1.6117 B(  9-C , 11-N ) :   1.2899
B( 11-N , 12-C ) :   0.9890 B( 11-N , 29-H ) :   0.9489 B( 12-C , 13-C ) :   0.9467
B( 12-C , 30-H ) :   0.9954 B( 13-C , 14-C ) :   1.3914 B( 13-C , 19-C ) :   1.3432
B( 14-C , 15-C ) :   1.3987 B( 14-C , 31-H ) :   0.9575 B( 15-C , 16-C ) :   1.3599
B( 15-C , 32-H ) :   0.9703 B( 16-C , 17-C ) :   1.3297 B( 16-C , 33-H ) :   0.9848
B( 17-C , 18-O ) :   1.1109 B( 17-C , 19-C ) :   1.3711 B( 18-O , 34-H ) :   0.9797
B( 19-C , 35-H ) :   0.9572

MP2 TOTAL ENERGY:    -1274.327727122 Eh
FINAL SINGLE POINT ENERGY     -1274.327727121821

DIPOLE MOMENT
-------------
                                X             Y             Z
Electronic contribution:      9.39335       5.88699       6.35895
Nuclear contribution   :    -11.00609      -6.87480      -6.96770
                        -----------------------------------------
Total Dipole Moment    :     -1.61273      -0.98781      -0.60876
                        -----------------------------------------
Magnitude (a.u.)       :      1.98677
Magnitude (Debye)      :      5.04997

Rotational constants in cm-1:     0.011606     0.009670     0.006823
Rotational constants in MHz :   347.953300   289.894468   204.548032

                             ****ORCA TERMINATED NORMALLY****
TOTAL RUN TIME: 0 days 2 hours 15 minutes 3 seconds 524 msec
