                         Program Version 5.0.0 -  RELEASE  -
|  1> ! ri-mp2 cc-pvtz cc-pvtz/c TightSCF NoKeepInts
|  2>
|  3> %scf
|  4>   MaxCore 4096
|  5> end
|  6> *xyz  0  1
|  7>     C       14.1728577   14.9954849   15.5556963
|  8>     C       15.6095916   14.6133021   15.9488888
|  9>     O       16.3772874   15.8256016   16.0081245
| 10>     C       17.5859586   15.7903093   16.6382246
| 11>     O       18.2274394   14.7562427   16.7298139
| 12>     C       17.8236060   16.9588812   17.5498771
| 13>     C       17.2543215   18.1831206   17.3997274
| 14>     C       16.3074518   18.6408575   16.3092467
| 15>     N       17.5908604   19.2177593   18.2787236
| 16>     C       18.5827049   19.1531018   19.2216017
| 17>     S       19.0028890   20.4656072   20.1361194
| 18>     N       19.2101797   17.9417668   19.3668430
| 19>     C       18.7912809   16.6904608   18.7076401
| 20>     C       18.1747286   15.7325377   19.7238226
| 21>     C       18.6807378   14.4278752   19.8716907
| 22>     C       18.1136658   13.5403780   20.8015886
| 23>     C       17.0300290   13.9598803   21.5917615
| 24>     C       16.5203832   15.2571067   21.4450514
| 25>     O       15.4697193   15.6630526   22.2017861
| 26>     C       17.0865760   16.1379797   20.5182772
| 27>     H       13.7371631   15.6770031   16.2968174
| 28>     H       13.5400694   14.1014834   15.4976825
| 29>     H       14.1586691   15.4905638   14.5767664
| 30>     H       15.5984901   14.1198169   16.9307932
| 31>     H       16.0421703   13.9207275   15.2143748
| 32>     H       16.6706501   18.3320113   15.3210628
| 33>     H       16.1909186   19.7310256   16.2810261
| 34>     H       15.3114889   18.2037632   16.4534450
| 35>     H       17.1419074   20.1150592   18.1874597
| 36>     H       19.9163374   17.9120438   20.0910031
| 37>     H       19.6913377   16.2169338   18.2894631
| 38>     H       19.5074498   14.0951845   19.2487028
| 39>     H       18.5110121   12.5319462   20.9017693
| 40>     H       16.5880096   13.2771302   22.3096822
| 41>     H       15.2502452   14.9375528   22.8053541
| 42>     H       16.6788126   17.1384483   20.4240924
| 43> *
| 44>
| 45>                          ****END OF INPUT****

CARTESIAN COORDINATES (ANGSTROEM)
---------------------------------
  C     14.172858   14.995485   15.555696
  C     15.609592   14.613302   15.948889
  O     16.377287   15.825602   16.008125
  C     17.585959   15.790309   16.638225
  O     18.227439   14.756243   16.729814
  C     17.823606   16.958881   17.549877
  C     17.254321   18.183121   17.399727
  C     16.307452   18.640857   16.309247
  N     17.590860   19.217759   18.278724
  C     18.582705   19.153102   19.221602
  S     19.002889   20.465607   20.136119
  N     19.210180   17.941767   19.366843
  C     18.791281   16.690461   18.707640
  C     18.174729   15.732538   19.723823
  C     18.680738   14.427875   19.871691
  C     18.113666   13.540378   20.801589
  C     17.030029   13.959880   21.591762
  C     16.520383   15.257107   21.445051
  O     15.469719   15.663053   22.201786
  C     17.086576   16.137980   20.518277
  H     13.737163   15.677003   16.296817
  H     13.540069   14.101483   15.497682
  H     14.158669   15.490564   14.576766
  H     15.598490   14.119817   16.930793
  H     16.042170   13.920727   15.214375
  H     16.670650   18.332011   15.321063
  H     16.190919   19.731026   16.281026
  H     15.311489   18.203763   16.453445
  H     17.141907   20.115059   18.187460
  H     19.916337   17.912044   20.091003
  H     19.691338   16.216934   18.289463
  H     19.507450   14.095185   19.248703
  H     18.511012   12.531946   20.901769
  H     16.588010   13.277130   22.309682
  H     15.250245   14.937553   22.805354
  H     16.678813   17.138448   20.424092

 Total Charge           Charge          ....    0
 Multiplicity           Mult            ....    1
 Number of Electrons    NEL             ....  154
 Basis Dimension        Dim             ....  828

ORBITAL ENERGIES
----------------

  NO   OCC          E(Eh)            E(eV)
   0   2.0000     -91.888202     -2500.4051
   1   2.0000     -20.598050      -560.5014
   2   2.0000     -20.592812      -560.3589
   3   2.0000     -20.548706      -559.1587
   4   2.0000     -15.628326      -425.2684
   5   2.0000     -15.607085      -424.6904
   6   2.0000     -11.394577      -310.0622
   7   2.0000     -11.383272      -309.7546
   8   2.0000     -11.335177      -308.4459
   9   2.0000     -11.308682      -307.7249
  10   2.0000     -11.306470      -307.6647
  11   2.0000     -11.299263      -307.4686
  12   2.0000     -11.260322      -306.4089
  13   2.0000     -11.259269      -306.3803
  14   2.0000     -11.254490      -306.2502
  15   2.0000     -11.248778      -306.0948
  16   2.0000     -11.238449      -305.8137
  17   2.0000     -11.234824      -305.7151
  18   2.0000     -11.234517      -305.7068
  19   2.0000     -11.231527      -305.6254
  20   2.0000      -8.893267      -241.9981
  21   2.0000      -6.574845      -178.9106
  22   2.0000      -6.572838      -178.8560
  23   2.0000      -6.572253      -178.8401
  24   2.0000      -1.455192       -39.5978
  25   2.0000      -1.412555       -38.4376
  26   2.0000      -1.357152       -36.9300
  27   2.0000      -1.339307       -36.4444
  28   2.0000      -1.237121       -33.6638
  29   2.0000      -1.153125       -31.3781
  30   2.0000      -1.120049       -30.4781
  31   2.0000      -1.044544       -28.4235
  32   2.0000      -1.037152       -28.2223
  33   2.0000      -1.010514       -27.4975
  34   2.0000      -0.998100       -27.1597
  35   2.0000      -0.983773       -26.7698
  36   2.0000      -0.921602       -25.0781
  37   2.0000      -0.887154       -24.1407
  38   2.0000      -0.847100       -23.0508
  39   2.0000      -0.835775       -22.7426
  40   2.0000      -0.828928       -22.5563
  41   2.0000      -0.819615       -22.3029
  42   2.0000      -0.760734       -20.7006
  43   2.0000      -0.735902       -20.0249
  44   2.0000      -0.725704       -19.7474
  45   2.0000      -0.691419       -18.8145
  46   2.0000      -0.683183       -18.5903
  47   2.0000      -0.682536       -18.5728
  48   2.0000      -0.676384       -18.4053
  49   2.0000      -0.658378       -17.9154
  50   2.0000      -0.650955       -17.7134
  51   2.0000      -0.643749       -17.5173
  52   2.0000      -0.635254       -17.2861
  53   2.0000      -0.602253       -16.3881
  54   2.0000      -0.601030       -16.3549
  55   2.0000      -0.600425       -16.3384
  56   2.0000      -0.596180       -16.2229
  57   2.0000      -0.576820       -15.6961
  58   2.0000      -0.574167       -15.6239
  59   2.0000      -0.564651       -15.3649
  60   2.0000      -0.560898       -15.2628
  61   2.0000      -0.553320       -15.0566
  62   2.0000      -0.542213       -14.7544
  63   2.0000      -0.518761       -14.1162
  64   2.0000      -0.516441       -14.0531
  65   2.0000      -0.511504       -13.9187
  66   2.0000      -0.506266       -13.7762
  67   2.0000      -0.496319       -13.5055
  68   2.0000      -0.481281       -13.0963
  69   2.0000      -0.462550       -12.5866
  70   2.0000      -0.460991       -12.5442
  71   2.0000      -0.455129       -12.3847
  72   2.0000      -0.354035        -9.6338
  73   2.0000      -0.344963        -9.3869
  74   2.0000      -0.327376        -8.9084
  75   2.0000      -0.316107        -8.6017
  76   2.0000      -0.314643        -8.5619
  77   0.0000       0.074767         2.0345
  78   0.0000       0.110674         3.0116
  79   0.0000       0.119904         3.2628
  80   0.0000       0.135059         3.6751
  81   0.0000       0.138840         3.7780

MULLIKEN ATOMIC CHARGES
-----------------------
   0 C :   -0.279986
   1 C :    0.055216
   2 O :   -0.346359
   3 C :    0.428498
   4 O :   -0.414167
   5 C :   -0.172076
   6 C :    0.142819
   7 C :   -0.286895
   8 N :   -0.123978
   9 C :    0.202188
  10 S :   -0.439608
  11 N :   -0.198493
  12 C :    0.042437
  13 C :    0.053903
  14 C :   -0.161075
  15 C :   -0.133803
  16 C :   -0.280025
  17 C :    0.311314
  18 O :   -0.359005
  19 C :   -0.274150
  20 H :    0.094137
  21 H :    0.102197
  22 H :    0.097085
  23 H :    0.090702
  24 H :    0.099367
  25 H :    0.126343
  26 H :    0.104551
  27 H :    0.126310
  28 H :    0.197021
  29 H :    0.193844
  30 H :    0.153930
  31 H :    0.153930
  32 H :    0.159657
  33 H :    0.128665
  34 H :    0.240243
  35 H :    0.165261
Sum of atomic charges:   -0.0000000

LOEWDIN ATOMIC CHARGES
----------------------
   0 C :    0.107232
   1 C :   -0.017812
   2 O :    0.302077
   3 C :   -0.415458
   4 O :    0.111782
   5 C :   -0.092146
   6 C :   -0.068888
   7 C :    0.125394
   8 N :    0.404518
   9 C :   -0.458374
  10 S :   -0.036234
  11 N :    0.397557
  12 C :   -0.045997
  13 C :   -0.039211
  14 C :    0.021988
  15 C :    0.040913
  16 C :   -0.002515
  17 C :   -0.193075
  18 O :    0.392986
  19 C :    0.028008
  20 H :   -0.028515
  21 H :   -0.022760
  22 H :   -0.027361
  23 H :   -0.026654
  24 H :   -0.028622
  25 H :   -0.008269
  26 H :   -0.020452
  27 H :   -0.010420
  28 H :   -0.059016
  29 H :   -0.063817
  30 H :   -0.004767
  31 H :   -0.025118
  32 H :   -0.021009
  33 H :   -0.036272
  34 H :   -0.154763
  35 H :   -0.024927

  Mayer bond orders larger than 0.100000
B(  0-C ,  1-C ) :   0.9698 B(  0-C , 20-H ) :   0.9778 B(  0-C , 21-H ) :   0.9785
B(  0-C , 22-H ) :   0.9770 B(  1-C ,  2-O ) :   0.9067 B(  1-C , 23-H ) :   0.9727
B(  1-C , 24-H ) :   0.9810 B(  2-O ,  3-C ) :   1.1348 B(  3-C ,  4-O ) :   2.0063
B(  3-C ,  5-C ) :   1.0401 B(  5-C ,  6-C ) :   1.6554 B(  5-C , 12-C ) :   0.9664
B(  6-C ,  7-C ) :   0.9532 B(  6-C ,  8-N ) :   1.1408 B(  7-C , 25-H ) :   0.9676
B(  7-C , 26-H ) :   0.9908 B(  7-C , 27-H ) :   0.9630 B(  8-N ,  9-C ) :   1.1812
B(  8-N , 28-H ) :   0.9491 B(  9-C , 10-S ) :   1.6105 B(  9-C , 11-N ) :   1.3028
B( 11-N , 12-C ) :   0.9912 B( 11-N , 29-H ) :   0.9519 B( 12-C , 13-C ) :   0.9465
B( 12-C , 30-H ) :   0.9991 B( 13-C , 14-C ) :   1.3764 B( 13-C , 19-C ) :   1.3693
B( 14-C , 15-C ) :   1.3946 B( 14-C , 31-H ) :   0.9646 B( 15-C , 16-C ) :   1.3627
B( 15-C , 32-H ) :   0.9713 B( 16-C , 17-C ) :   1.3312 B( 16-C , 33-H ) :   0.9858
B( 17-C , 18-O ) :   1.1083 B( 17-C , 19-C ) :   1.3783 B( 18-O , 34-H ) :   0.9804
B( 19-C , 35-H ) :   0.9584

MP2 TOTAL ENERGY:    -1274.340911439 Eh
FINAL SINGLE POINT ENERGY     -1274.340911438891

DIPOLE MOMENT
-------------
                                X             Y             Z
Electronic contribution:     12.08589       8.65364       9.66597
Nuclear contribution   :    -13.53886      -9.99044     -10.52003
                        -----------------------------------------
Total Dipole Moment    :     -1.45297      -1.33680      -0.85405
                        -----------------------------------------
Magnitude (a.u.)       :      2.15117
Magnitude (Debye)      :      5.46785

Rotational constants in cm-1:     0.010455     0.009148     0.006157
Rotational constants in MHz :   313.431212   274.258660   184.578393

                             ****ORCA TERMINATED NORMALLY****
TOTAL RUN TIME: 0 days 1 hours 51 minutes 16 seconds 915 msec
