                         Program Version 5.0.0 -  RELEASE  -
|  1> ! ri-mp2 cc-pvtz cc-pvtz/c TightSCF NoKeepInts
|  2>
|  3> %scf
|  4>   MaxCore 4096
|  5> end
|  6> *xyz  0  1
|  7>     C       15.1503625   15.4958150   17.4178196
|  8>     C       15.5220013   15.3146276   15.9303777
|  9>     O       16.9432109   15.3059347   15.6311195
| 10>     C       18.0026403   15.5887236   16.4592439
| 11>     O       18.9311179   14.8042499   16.5293053
| 12>     C       17.9195366   16.7742850   17.3760587
| 13>     C       17.3710751   17.9640556   17.0217699
| 14>     C       16.7627312   18.3486190   15.6893708
| 15>     N       17.4270535   19.0467109   17.9036836
| 16>     C       18.1647547   19.0769758   19.0573911
| 17>     S       18.2721383   20.4411458   19.9856394
| 18>     N       18.8111234   17.9166516   19.4014109
| 19>     C       18.6392788   16.6177958   18.7214876
| 20>     C       17.9233457   15.6164646   19.6247886
| 21>     C       18.3565978   14.2786885   19.6769693
| 22>     C       17.6980100   13.3420276   20.4906886
| 23>     C       16.5944245   13.7445494   21.2614350
| 24>     C       16.1576364   15.0749725   21.2125348
| 25>     O       15.0853588   15.4646595   21.9466603
| 26>     C       16.8150044   16.0054730   20.4015244
| 27>     H       15.7262528   14.8077852   18.0484677
| 28>     H       14.0900888   15.2563616   17.5643096
| 29>     H       15.2926368   16.5218061   17.7696239
| 30>     H       15.1068129   14.3561646   15.5921033
| 31>     H       15.0260440   16.0934506   15.3385721
| 32>     H       17.1282727   17.7154955   14.8720268
| 33>     H       17.0236094   19.3787736   15.4152325
| 34>     H       15.6693508   18.2804405   15.7193564
| 35>     H       16.9722547   19.9126932   17.6608934
| 36>     H       19.3353554   17.9600719   20.2661724
| 37>     H       19.6449653   16.2220901   18.5158860
| 38>     H       19.2023007   13.9599532   19.0710379
| 39>     H       18.0419974   12.3094027   20.5168207
| 40>     H       16.0815437   13.0233779   21.8891827
| 41>     H       14.8040358   14.7034987   22.4764791
| 42>     H       16.4540769   17.0282090   20.3785566
| 43> *
| 44>
| 45>                          ****END OF INPUT****

CARTESIAN COORDINATES (ANGSTROEM)
---------------------------------
  C     15.150362   15.495815   17.417820
  C     15.522001   15.314628   15.930378
  O     16.943211   15.305935   15.631120
  C     18.002640   15.588724   16.459244
  O     18.931118   14.804250   16.529305
  C     17.919537   16.774285   17.376059
  C     17.371075   17.964056   17.021770
  C     16.762731   18.348619   15.689371
  N     17.427053   19.046711   17.903684
  C     18.164755   19.076976   19.057391
  S     18.272138   20.441146   19.985639
  N     18.811123   17.916652   19.401411
  C     18.639279   16.617796   18.721488
  C     17.923346   15.616465   19.624789
  C     18.356598   14.278688   19.676969
  C     17.698010   13.342028   20.490689
  C     16.594424   13.744549   21.261435
  C     16.157636   15.074972   21.212535
  O     15.085359   15.464659   21.946660
  C     16.815004   16.005473   20.401524
  H     15.726253   14.807785   18.048468
  H     14.090089   15.256362   17.564310
  H     15.292637   16.521806   17.769624
  H     15.106813   14.356165   15.592103
  H     15.026044   16.093451   15.338572
  H     17.128273   17.715495   14.872027
  H     17.023609   19.378774   15.415233
  H     15.669351   18.280441   15.719356
  H     16.972255   19.912693   17.660893
  H     19.335355   17.960072   20.266172
  H     19.644965   16.222090   18.515886
  H     19.202301   13.959953   19.071038
  H     18.041997   12.309403   20.516821
  H     16.081544   13.023378   21.889183
  H     14.804036   14.703499   22.476479
  H     16.454077   17.028209   20.378557

 Total Charge           Charge          ....    0
 Multiplicity           Mult            ....    1
 Number of Electrons    NEL             ....  154
 Basis Dimension        Dim             ....  828

ORBITAL ENERGIES
----------------

  NO   OCC          E(Eh)            E(eV)
   0   2.0000     -91.891063     -2500.4829
   1   2.0000     -20.597280      -560.4805
   2   2.0000     -20.592832      -560.3594
   3   2.0000     -20.548079      -559.1417
   4   2.0000     -15.630363      -425.3238
   5   2.0000     -15.610395      -424.7804
   6   2.0000     -11.398768      -310.1762
   7   2.0000     -11.386710      -309.8481
   8   2.0000     -11.335964      -308.4673
   9   2.0000     -11.313678      -307.8608
  10   2.0000     -11.311952      -307.8139
  11   2.0000     -11.310850      -307.7839
  12   2.0000     -11.267046      -306.5919
  13   2.0000     -11.265435      -306.5481
  14   2.0000     -11.260062      -306.4019
  15   2.0000     -11.254053      -306.2384
  16   2.0000     -11.243571      -305.9531
  17   2.0000     -11.238908      -305.8262
  18   2.0000     -11.235651      -305.7376
  19   2.0000     -11.235091      -305.7224
  20   2.0000      -8.896142      -242.0763
  21   2.0000      -6.577723      -178.9889
  22   2.0000      -6.575706      -178.9341
  23   2.0000      -6.575123      -178.9182
  24   2.0000      -1.442341       -39.2481
  25   2.0000      -1.417098       -38.5612
  26   2.0000      -1.354622       -36.8611
  27   2.0000      -1.342562       -36.5330
  28   2.0000      -1.240630       -33.7593
  29   2.0000      -1.158240       -31.5173
  30   2.0000      -1.123831       -30.5810
  31   2.0000      -1.046347       -28.4726
  32   2.0000      -1.039747       -28.2929
  33   2.0000      -1.016295       -27.6548
  34   2.0000      -1.005108       -27.3504
  35   2.0000      -0.989644       -26.9296
  36   2.0000      -0.927504       -25.2387
  37   2.0000      -0.900620       -24.5071
  38   2.0000      -0.854050       -23.2399
  39   2.0000      -0.840907       -22.8822
  40   2.0000      -0.834030       -22.6951
  41   2.0000      -0.825642       -22.4669
  42   2.0000      -0.745010       -20.2728
  43   2.0000      -0.732722       -19.9384
  44   2.0000      -0.730167       -19.8688
  45   2.0000      -0.694783       -18.9060
  46   2.0000      -0.686884       -18.6911
  47   2.0000      -0.679698       -18.4955
  48   2.0000      -0.674418       -18.3519
  49   2.0000      -0.662017       -18.0144
  50   2.0000      -0.656404       -17.8617
  51   2.0000      -0.651693       -17.7335
  52   2.0000      -0.642127       -17.4732
  53   2.0000      -0.620453       -16.8834
  54   2.0000      -0.607638       -16.5347
  55   2.0000      -0.605047       -16.4642
  56   2.0000      -0.601713       -16.3734
  57   2.0000      -0.587302       -15.9813
  58   2.0000      -0.576037       -15.6748
  59   2.0000      -0.565380       -15.3848
  60   2.0000      -0.564555       -15.3623
  61   2.0000      -0.553473       -15.0608
  62   2.0000      -0.544396       -14.8138
  63   2.0000      -0.532972       -14.5029
  64   2.0000      -0.522368       -14.2144
  65   2.0000      -0.513406       -13.9705
  66   2.0000      -0.500781       -13.6270
  67   2.0000      -0.491293       -13.3688
  68   2.0000      -0.484254       -13.1772
  69   2.0000      -0.471606       -12.8331
  70   2.0000      -0.456973       -12.4349
  71   2.0000      -0.447660       -12.1814
  72   2.0000      -0.356930        -9.7126
  73   2.0000      -0.348463        -9.4821
  74   2.0000      -0.330423        -8.9913
  75   2.0000      -0.322365        -8.7720
  76   2.0000      -0.318960        -8.6794
  77   0.0000       0.075791         2.0624
  78   0.0000       0.107890         2.9358
  79   0.0000       0.115806         3.1512
  80   0.0000       0.131217         3.5706
  81   0.0000       0.132809         3.6139

MULLIKEN ATOMIC CHARGES
-----------------------
   0 C :   -0.346724
   1 C :    0.039529
   2 O :   -0.348983
   3 C :    0.446631
   4 O :   -0.386000
   5 C :   -0.215853
   6 C :    0.146001
   7 C :   -0.336165
   8 N :   -0.132348
   9 C :    0.193529
  10 S :   -0.437394
  11 N :   -0.211008
  12 C :    0.064562
  13 C :    0.023899
  14 C :   -0.196422
  15 C :   -0.134961
  16 C :   -0.278657
  17 C :    0.315960
  18 O :   -0.358661
  19 C :   -0.269303
  20 H :    0.130911
  21 H :    0.124019
  22 H :    0.110056
  23 H :    0.128038
  24 H :    0.090472
  25 H :    0.145034
  26 H :    0.129933
  27 H :    0.119653
  28 H :    0.197897
  29 H :    0.198083
  30 H :    0.164312
  31 H :    0.173006
  32 H :    0.163325
  33 H :    0.131730
  34 H :    0.241030
  35 H :    0.174871
Sum of atomic charges:   -0.0000000

LOEWDIN ATOMIC CHARGES
----------------------
   0 C :    0.104519
   1 C :   -0.014931
   2 O :    0.286516
   3 C :   -0.417529
   4 O :    0.122472
   5 C :   -0.086151
   6 C :   -0.083819
   7 C :    0.126930
   8 N :    0.404023
   9 C :   -0.459769
  10 S :   -0.035177
  11 N :    0.398079
  12 C :   -0.044313
  13 C :   -0.043669
  14 C :    0.019644
  15 C :    0.042262
  16 C :   -0.001924
  17 C :   -0.194236
  18 O :    0.394772
  19 C :    0.029326
  20 H :   -0.019698
  21 H :   -0.020840
  22 H :   -0.035349
  23 H :   -0.020045
  24 H :   -0.035476
  25 H :   -0.006462
  26 H :   -0.012295
  27 H :   -0.018236
  28 H :   -0.057475
  29 H :   -0.063181
  30 H :   -0.002391
  31 H :   -0.022187
  32 H :   -0.019087
  33 H :   -0.035147
  34 H :   -0.153726
  35 H :   -0.025429

  Mayer bond orders larger than 0.100000
B(  0-C ,  1-C ) :   0.9621 B(  0-C , 20-H ) :   0.9663 B(  0-C , 21-H ) :   0.9762
B(  0-C , 22-H ) :   0.9709 B(  1-C ,  2-O ) :   0.8991 B(  1-C , 23-H ) :   0.9805
B(  1-C , 24-H ) :   0.9761 B(  2-O ,  3-C ) :   1.1557 B(  3-C ,  4-O ) :   2.0702
B(  3-C ,  5-C ) :   0.9510 B(  5-C ,  6-C ) :   1.6815 B(  5-C , 12-C ) :   0.9595
B(  6-C ,  7-C ) :   0.9433 B(  6-C ,  8-N ) :   1.1172 B(  7-C , 25-H ) :   0.9720
B(  7-C , 26-H ) :   0.9807 B(  7-C , 27-H ) :   0.9642 B(  8-N ,  9-C ) :   1.1862
B(  8-N , 28-H ) :   0.9506 B(  9-C , 10-S ) :   1.6138 B(  9-C , 11-N ) :   1.2937
B( 11-N , 12-C ) :   0.9886 B( 11-N , 29-H ) :   0.9505 B( 12-C , 13-C ) :   0.9457
B( 12-C , 30-H ) :   0.9973 B( 13-C , 14-C ) :   1.3907 B( 13-C , 19-C ) :   1.3457
B( 14-C , 15-C ) :   1.3968 B( 14-C , 31-H ) :   0.9580 B( 15-C , 16-C ) :   1.3610
B( 15-C , 32-H ) :   0.9705 B( 16-C , 17-C ) :   1.3294 B( 16-C , 33-H ) :   0.9848
B( 17-C , 18-O ) :   1.1108 B( 17-C , 19-C ) :   1.3731 B( 18-O , 34-H ) :   0.9798
B( 19-C , 35-H ) :   0.9577

MP2 TOTAL ENERGY:    -1274.329317608 Eh
FINAL SINGLE POINT ENERGY     -1274.329317608031

DIPOLE MOMENT
-------------
                                X             Y             Z
Electronic contribution:      9.64688       6.21643       6.22691
Nuclear contribution   :    -11.27625      -7.21747      -6.76176
                        -----------------------------------------
Total Dipole Moment    :     -1.62937      -1.00104      -0.53486
                        -----------------------------------------
Magnitude (a.u.)       :      1.98570
Magnitude (Debye)      :      5.04725

Rotational constants in cm-1:     0.011423     0.009794     0.006825
Rotational constants in MHz :   342.455282   293.606718   204.621139

                             ****ORCA TERMINATED NORMALLY****
TOTAL RUN TIME: 0 days 2 hours 12 minutes 23 seconds 910 msec
