                         Program Version 5.0.0 -  RELEASE  -
|  1> ! ri-mp2 cc-pvtz cc-pvtz/c TightSCF NoKeepInts
|  2>
|  3> %scf
|  4>   MaxCore 4096
|  5> end
|  6> *xyz  0  1
|  7>     C       15.1570601   13.7612282   16.0294092
|  8>     C       15.2836321   15.1288580   16.7269130
|  9>     O       16.3033840   15.8996688   16.0649728
| 10>     C       17.5803658   15.8141347   16.5379460
| 11>     O       18.1222894   14.7329915   16.6929921
| 12>     C       17.9163728   16.9778987   17.4195876
| 13>     C       17.5235322   18.2506526   17.1645941
| 14>     C       16.7380389   18.7452779   15.9680957
| 15>     N       17.9127166   19.2834627   18.0227440
| 16>     C       18.7910071   19.1437137   19.0654984
| 17>     S       19.2840261   20.4389883   19.9679113
| 18>     N       19.2396237   17.8723565   19.3239227
| 19>     C       18.7417679   16.6487912   18.6663659
| 20>     C       17.9217876   15.8088219   19.6421885
| 21>     C       18.2363022   14.4542693   19.8562000
| 22>     C       17.4715798   13.6715788   20.7372737
| 23>     C       16.3809254   14.2471610   21.4108589
| 24>     C       16.0614758   15.5947882   21.1974717
| 25>     O       15.0023583   16.1510301   21.8375340
| 26>     C       16.8237034   16.3709485   20.3188897
| 27>     H       16.0761054   13.1735443   16.1461660
| 28>     H       14.9631801   13.8893799   14.9573894
| 29>     H       14.3305236   13.1850746   16.4621701
| 30>     H       14.3241236   15.6554803   16.6471215
| 31>     H       15.5148775   14.9984969   17.7937204
| 32>     H       17.0670716   18.2465876   15.0477277
| 33>     H       16.8565108   19.8237213   15.8066911
| 34>     H       15.6679556   18.5398156   16.0955796
| 35>     H       17.5952795   20.2238681   17.8488693
| 36>     H       19.8635725   17.7939092   20.1167894
| 37>     H       19.6139952   16.0596113   18.3478426
| 38>     H       19.0669019   14.0012952   19.3200123
| 39>     H       17.7224042   12.6231685   20.8889898
| 40>     H       15.7864805   13.6453950   22.0903239
| 41>     H       14.6462276   15.4836523   22.4433636
| 42>     H       16.5598412   17.4123790   20.1698741
| 43> *
| 44>
| 45>                          ****END OF INPUT****

CARTESIAN COORDINATES (ANGSTROEM)
---------------------------------
  C     15.157060   13.761228   16.029409
  C     15.283632   15.128858   16.726913
  O     16.303384   15.899669   16.064973
  C     17.580366   15.814135   16.537946
  O     18.122289   14.732991   16.692992
  C     17.916373   16.977899   17.419588
  C     17.523532   18.250653   17.164594
  C     16.738039   18.745278   15.968096
  N     17.912717   19.283463   18.022744
  C     18.791007   19.143714   19.065498
  S     19.284026   20.438988   19.967911
  N     19.239624   17.872356   19.323923
  C     18.741768   16.648791   18.666366
  C     17.921788   15.808822   19.642188
  C     18.236302   14.454269   19.856200
  C     17.471580   13.671579   20.737274
  C     16.380925   14.247161   21.410859
  C     16.061476   15.594788   21.197472
  O     15.002358   16.151030   21.837534
  C     16.823703   16.370949   20.318890
  H     16.076105   13.173544   16.146166
  H     14.963180   13.889380   14.957389
  H     14.330524   13.185075   16.462170
  H     14.324124   15.655480   16.647122
  H     15.514877   14.998497   17.793720
  H     17.067072   18.246588   15.047728
  H     16.856511   19.823721   15.806691
  H     15.667956   18.539816   16.095580
  H     17.595280   20.223868   17.848869
  H     19.863572   17.793909   20.116789
  H     19.613995   16.059611   18.347843
  H     19.066902   14.001295   19.320012
  H     17.722404   12.623169   20.888990
  H     15.786480   13.645395   22.090324
  H     14.646228   15.483652   22.443364
  H     16.559841   17.412379   20.169874

 Total Charge           Charge          ....    0
 Multiplicity           Mult            ....    1
 Number of Electrons    NEL             ....  154
 Basis Dimension        Dim             ....  828

ORBITAL ENERGIES
----------------

  NO   OCC          E(Eh)            E(eV)
   0   2.0000     -91.889063     -2500.4285
   1   2.0000     -20.596565      -560.4610
   2   2.0000     -20.583284      -560.0996
   3   2.0000     -20.557200      -559.3899
   4   2.0000     -15.628509      -425.2734
   5   2.0000     -15.608662      -424.7333
   6   2.0000     -11.395854      -310.0969
   7   2.0000     -11.384565      -309.7898
   8   2.0000     -11.333068      -308.3885
   9   2.0000     -11.312992      -307.8422
  10   2.0000     -11.309136      -307.7372
  11   2.0000     -11.299823      -307.4838
  12   2.0000     -11.260264      -306.4074
  13   2.0000     -11.259448      -306.3852
  14   2.0000     -11.258451      -306.3580
  15   2.0000     -11.253153      -306.2138
  16   2.0000     -11.242804      -305.9322
  17   2.0000     -11.238547      -305.8164
  18   2.0000     -11.235848      -305.7430
  19   2.0000     -11.219038      -305.2856
  20   2.0000      -8.894135      -242.0217
  21   2.0000      -6.575714      -178.9343
  22   2.0000      -6.573704      -178.8796
  23   2.0000      -6.573120      -178.8637
  24   2.0000      -1.452400       -39.5218
  25   2.0000      -1.416374       -38.5415
  26   2.0000      -1.357699       -36.9449
  27   2.0000      -1.339691       -36.4549
  28   2.0000      -1.238062       -33.6894
  29   2.0000      -1.157082       -31.4858
  30   2.0000      -1.121601       -30.5203
  31   2.0000      -1.044817       -28.4309
  32   2.0000      -1.030162       -28.0321
  33   2.0000      -1.014541       -27.6071
  34   2.0000      -0.999102       -27.1870
  35   2.0000      -0.984384       -26.7864
  36   2.0000      -0.923786       -25.1375
  37   2.0000      -0.882851       -24.0236
  38   2.0000      -0.849275       -23.1099
  39   2.0000      -0.839474       -22.8432
  40   2.0000      -0.833126       -22.6705
  41   2.0000      -0.826618       -22.4934
  42   2.0000      -0.750969       -20.4349
  43   2.0000      -0.732542       -19.9335
  44   2.0000      -0.728850       -19.8330
  45   2.0000      -0.694926       -18.9099
  46   2.0000      -0.686780       -18.6882
  47   2.0000      -0.681212       -18.5367
  48   2.0000      -0.672894       -18.3104
  49   2.0000      -0.664796       -18.0900
  50   2.0000      -0.647421       -17.6172
  51   2.0000      -0.643521       -17.5111
  52   2.0000      -0.635962       -17.3054
  53   2.0000      -0.605774       -16.4840
  54   2.0000      -0.603980       -16.4351
  55   2.0000      -0.600407       -16.3379
  56   2.0000      -0.590516       -16.0688
  57   2.0000      -0.586141       -15.9497
  58   2.0000      -0.576890       -15.6980
  59   2.0000      -0.570307       -15.5188
  60   2.0000      -0.562548       -15.3077
  61   2.0000      -0.549710       -14.9584
  62   2.0000      -0.534850       -14.5540
  63   2.0000      -0.522082       -14.2066
  64   2.0000      -0.514323       -13.9955
  65   2.0000      -0.511267       -13.9123
  66   2.0000      -0.503202       -13.6928
  67   2.0000      -0.497971       -13.5505
  68   2.0000      -0.481221       -13.0947
  69   2.0000      -0.465945       -12.6790
  70   2.0000      -0.452920       -12.3246
  71   2.0000      -0.451171       -12.2770
  72   2.0000      -0.354433        -9.6446
  73   2.0000      -0.348704        -9.4887
  74   2.0000      -0.328392        -8.9360
  75   2.0000      -0.320263        -8.7148
  76   2.0000      -0.315972        -8.5980
  77   0.0000       0.070710         1.9241
  78   0.0000       0.104657         2.8479
  79   0.0000       0.119561         3.2534
  80   0.0000       0.131638         3.5820
  81   0.0000       0.135590         3.6896

MULLIKEN ATOMIC CHARGES
-----------------------
   0 C :   -0.269998
   1 C :    0.040536
   2 O :   -0.376573
   3 C :    0.444268
   4 O :   -0.400922
   5 C :   -0.177216
   6 C :    0.132302
   7 C :   -0.279171
   8 N :   -0.123681
   9 C :    0.202219
  10 S :   -0.439372
  11 N :   -0.201427
  12 C :    0.056539
  13 C :    0.029416
  14 C :   -0.157058
  15 C :   -0.135373
  16 C :   -0.278929
  17 C :    0.312810
  18 O :   -0.359047
  19 C :   -0.274944
  20 H :    0.116893
  21 H :    0.091849
  22 H :    0.086423
  23 H :    0.098625
  24 H :    0.101336
  25 H :    0.123338
  26 H :    0.103818
  27 H :    0.125509
  28 H :    0.197199
  29 H :    0.194252
  30 H :    0.155607
  31 H :    0.157978
  32 H :    0.161342
  33 H :    0.131427
  34 H :    0.240906
  35 H :    0.169120
Sum of atomic charges:   -0.0000000

LOEWDIN ATOMIC CHARGES
----------------------
   0 C :    0.105753
   1 C :   -0.014909
   2 O :    0.286825
   3 C :   -0.415557
   4 O :    0.132739
   5 C :   -0.093911
   6 C :   -0.074394
   7 C :    0.126525
   8 N :    0.404109
   9 C :   -0.457508
  10 S :   -0.036140
  11 N :    0.396994
  12 C :   -0.045385
  13 C :   -0.041917
  14 C :    0.020795
  15 C :    0.041632
  16 C :   -0.002174
  17 C :   -0.194646
  18 O :    0.393880
  19 C :    0.027850
  20 H :   -0.025177
  21 H :   -0.028712
  22 H :   -0.030339
  23 H :   -0.026915
  24 H :   -0.026908
  25 H :   -0.007871
  26 H :   -0.019399
  27 H :   -0.009633
  28 H :   -0.058628
  29 H :   -0.064119
  30 H :   -0.004760
  31 H :   -0.024452
  32 H :   -0.020109
  33 H :   -0.035399
  34 H :   -0.153888
  35 H :   -0.024255

  Mayer bond orders larger than 0.100000
B(  0-C ,  1-C ) :   0.9813 B(  0-C , 20-H ) :   0.9722 B(  0-C , 21-H ) :   0.9774
B(  0-C , 22-H ) :   0.9758 B(  1-C ,  2-O ) :   0.8898 B(  1-C , 23-H ) :   0.9825
B(  1-C , 24-H ) :   0.9675 B(  2-O ,  3-C ) :   1.0781 B(  3-C ,  4-O ) :   2.0083
B(  3-C ,  5-C ) :   1.0317 B(  5-C ,  6-C ) :   1.6717 B(  5-C , 12-C ) :   0.9604
B(  6-C ,  7-C ) :   0.9513 B(  6-C ,  8-N ) :   1.1381 B(  7-C , 25-H ) :   0.9707
B(  7-C , 26-H ) :   0.9881 B(  7-C , 27-H ) :   0.9629 B(  8-N ,  9-C ) :   1.1845
B(  8-N , 28-H ) :   0.9499 B(  9-C , 10-S ) :   1.6114 B(  9-C , 11-N ) :   1.2989
B( 11-N , 12-C ) :   0.9936 B( 11-N , 29-H ) :   0.9516 B( 12-C , 13-C ) :   0.9430
B( 12-C , 30-H ) :   0.9987 B( 13-C , 14-C ) :   1.3795 B( 13-C , 19-C ) :   1.3682
B( 14-C , 15-C ) :   1.3946 B( 14-C , 31-H ) :   0.9630 B( 15-C , 16-C ) :   1.3636
B( 15-C , 32-H ) :   0.9709 B( 16-C , 17-C ) :   1.3300 B( 16-C , 33-H ) :   0.9847
B( 17-C , 18-O ) :   1.1104 B( 17-C , 19-C ) :   1.3733 B( 18-O , 34-H ) :   0.9797
B( 19-C , 35-H ) :   0.9580

MP2 TOTAL ENERGY:    -1274.323612619 Eh
FINAL SINGLE POINT ENERGY     -1274.323612619450

DIPOLE MOMENT
-------------
                                X             Y             Z
Electronic contribution:     10.62816      10.50770       7.71689
Nuclear contribution   :    -12.06291     -11.63669      -8.21186
                        -----------------------------------------
Total Dipole Moment    :     -1.43475      -1.12899      -0.49497
                        -----------------------------------------
Magnitude (a.u.)       :      1.89160
Magnitude (Debye)      :      4.80805

Rotational constants in cm-1:     0.011954     0.009033     0.006400
Rotational constants in MHz :   358.362129   270.792424   191.872416

                             ****ORCA TERMINATED NORMALLY****
TOTAL RUN TIME: 0 days 1 hours 51 minutes 7 seconds 591 msec
