                         Program Version 5.0.0 -  RELEASE  -
|  1> ! ri-mp2 cc-pvtz cc-pvtz/c TightSCF NoKeepInts
|  2>
|  3> %scf
|  4>   MaxCore 4096
|  5> end
|  6> *xyz  0  1
|  7>     C       14.3268437   15.6533212   16.1601384
|  8>     C       15.4262544   15.4398697   17.2156818
|  9>     O       16.6336935   15.0577708   16.5243537
| 10>     C       17.8179056   15.7547802   16.5045731
| 11>     O       18.8275912   15.1877504   16.1309297
| 12>     C       17.9204721   16.9033536   17.4508362
| 13>     C       17.3520716   18.1037461   17.2006495
| 14>     C       16.5626130   18.4920241   15.9712669
| 15>     N       17.5174614   19.1534546   18.1064497
| 16>     C       18.3022976   19.0964032   19.2293752
| 17>     S       18.4771522   20.3992968   20.2322253
| 18>     N       18.9291033   17.9008417   19.4860605
| 19>     C       18.7606291   16.6605725   18.7019296
| 20>     C       18.1489174   15.5436987   19.5414040
| 21>     C       18.6518308   14.2334897   19.4447672
| 22>     C       18.0748186   13.1886313   20.1854315
| 23>     C       16.9816276   13.4540698   21.0274394
| 24>     C       16.4723252   14.7561080   21.1201769
| 25>     O       15.4061271   15.0132339   21.9185326
| 26>     C       17.0484673   15.7947716   20.3820270
| 27>     H       14.6049022   16.4330122   15.4430358
| 28>     H       13.3847866   15.9453997   16.6400261
| 29>     H       14.1505599   14.7253591   15.6014530
| 30>     H       15.5377792   16.3405743   17.8284262
| 31>     H       15.1262126   14.6245156   17.8872364
| 32>     H       16.6554194   17.7498064   15.1688840
| 33>     H       16.9209767   19.4444507   15.5601481
| 34>     H       15.4977250   18.6061402   16.2074618
| 35>     H       17.0767762   20.0428622   17.9303457
| 36>     H       19.4841910   17.8830458   20.3324410
| 37>     H       19.7585189   16.3345692   18.3727604
| 38>     H       19.4834698   14.0210270   18.7760544
| 39>     H       18.4705196   12.1781359   20.0972513
| 40>     H       16.5307099   12.6484038   21.5974683
| 41>     H       15.1913674   14.1933897   22.3891905
| 42>     H       16.6348832   16.7941204   20.4675688
| 43> *
| 44>
| 45>                          ****END OF INPUT****

CARTESIAN COORDINATES (ANGSTROEM)
---------------------------------
  C     14.326844   15.653321   16.160138
  C     15.426254   15.439870   17.215682
  O     16.633693   15.057771   16.524354
  C     17.817906   15.754780   16.504573
  O     18.827591   15.187750   16.130930
  C     17.920472   16.903354   17.450836
  C     17.352072   18.103746   17.200650
  C     16.562613   18.492024   15.971267
  N     17.517461   19.153455   18.106450
  C     18.302298   19.096403   19.229375
  S     18.477152   20.399297   20.232225
  N     18.929103   17.900842   19.486061
  C     18.760629   16.660573   18.701930
  C     18.148917   15.543699   19.541404
  C     18.651831   14.233490   19.444767
  C     18.074819   13.188631   20.185431
  C     16.981628   13.454070   21.027439
  C     16.472325   14.756108   21.120177
  O     15.406127   15.013234   21.918533
  C     17.048467   15.794772   20.382027
  H     14.604902   16.433012   15.443036
  H     13.384787   15.945400   16.640026
  H     14.150560   14.725359   15.601453
  H     15.537779   16.340574   17.828426
  H     15.126213   14.624516   17.887236
  H     16.655419   17.749806   15.168884
  H     16.920977   19.444451   15.560148
  H     15.497725   18.606140   16.207462
  H     17.076776   20.042862   17.930346
  H     19.484191   17.883046   20.332441
  H     19.758519   16.334569   18.372760
  H     19.483470   14.021027   18.776054
  H     18.470520   12.178136   20.097251
  H     16.530710   12.648404   21.597468
  H     15.191367   14.193390   22.389191
  H     16.634883   16.794120   20.467569

 Total Charge           Charge          ....    0
 Multiplicity           Mult            ....    1
 Number of Electrons    NEL             ....  154
 Basis Dimension        Dim             ....  828

ORBITAL ENERGIES
----------------

  NO   OCC          E(Eh)            E(eV)
   0   2.0000     -91.889728     -2500.4466
   1   2.0000     -20.601655      -560.5995
   2   2.0000     -20.600378      -560.5648
   3   2.0000     -20.550709      -559.2132
   4   2.0000     -15.626126      -425.2085
   5   2.0000     -15.611945      -424.8226
   6   2.0000     -11.398459      -310.1678
   7   2.0000     -11.386737      -309.8489
   8   2.0000     -11.326708      -308.2154
   9   2.0000     -11.316989      -307.9509
  10   2.0000     -11.316034      -307.9249
  11   2.0000     -11.303717      -307.5898
  12   2.0000     -11.269894      -306.6694
  13   2.0000     -11.264779      -306.5302
  14   2.0000     -11.263797      -306.5035
  15   2.0000     -11.256981      -306.3180
  16   2.0000     -11.246372      -306.0293
  17   2.0000     -11.242559      -305.9256
  18   2.0000     -11.239727      -305.8485
  19   2.0000     -11.235363      -305.7298
  20   2.0000      -8.894852      -242.0412
  21   2.0000      -6.576443      -178.9541
  22   2.0000      -6.574414      -178.8989
  23   2.0000      -6.573842      -178.8833
  24   2.0000      -1.448079       -39.4042
  25   2.0000      -1.420181       -38.6451
  26   2.0000      -1.359149       -36.9843
  27   2.0000      -1.339818       -36.4583
  28   2.0000      -1.239899       -33.7394
  29   2.0000      -1.161809       -31.6144
  30   2.0000      -1.126222       -30.6461
  31   2.0000      -1.049724       -28.5645
  32   2.0000      -1.041352       -28.3366
  33   2.0000      -1.019161       -27.7328
  34   2.0000      -1.005474       -27.3603
  35   2.0000      -0.989794       -26.9337
  36   2.0000      -0.928222       -25.2582
  37   2.0000      -0.889267       -24.1982
  38   2.0000      -0.853919       -23.2363
  39   2.0000      -0.841920       -22.9098
  40   2.0000      -0.837281       -22.7836
  41   2.0000      -0.836562       -22.7640
  42   2.0000      -0.756519       -20.5859
  43   2.0000      -0.737479       -20.0678
  44   2.0000      -0.732489       -19.9321
  45   2.0000      -0.697982       -18.9930
  46   2.0000      -0.688906       -18.7461
  47   2.0000      -0.680213       -18.5095
  48   2.0000      -0.677142       -18.4260
  49   2.0000      -0.668122       -18.1805
  50   2.0000      -0.653201       -17.7745
  51   2.0000      -0.641926       -17.4677
  52   2.0000      -0.639846       -17.4111
  53   2.0000      -0.615747       -16.7553
  54   2.0000      -0.608709       -16.5638
  55   2.0000      -0.605628       -16.4800
  56   2.0000      -0.603512       -16.4224
  57   2.0000      -0.589708       -16.0468
  58   2.0000      -0.578936       -15.7536
  59   2.0000      -0.569587       -15.4992
  60   2.0000      -0.566602       -15.4180
  61   2.0000      -0.560342       -15.2477
  62   2.0000      -0.542736       -14.7686
  63   2.0000      -0.534658       -14.5488
  64   2.0000      -0.523221       -14.2376
  65   2.0000      -0.516252       -14.0479
  66   2.0000      -0.502985       -13.6869
  67   2.0000      -0.502527       -13.6745
  68   2.0000      -0.488688       -13.2979
  69   2.0000      -0.471072       -12.8185
  70   2.0000      -0.452495       -12.3130
  71   2.0000      -0.448730       -12.2106
  72   2.0000      -0.356480        -9.7003
  73   2.0000      -0.352126        -9.5818
  74   2.0000      -0.329488        -8.9658
  75   2.0000      -0.324774        -8.8376
  76   2.0000      -0.318114        -8.6563
  77   0.0000       0.087930         2.3927
  78   0.0000       0.104685         2.8486
  79   0.0000       0.112978         3.0743
  80   0.0000       0.127491         3.4692
  81   0.0000       0.129658         3.5282

MULLIKEN ATOMIC CHARGES
-----------------------
   0 C :   -0.269657
   1 C :    0.013727
   2 O :   -0.313518
   3 C :    0.387168
   4 O :   -0.379535
   5 C :   -0.165788
   6 C :    0.124924
   7 C :   -0.336218
   8 N :   -0.137300
   9 C :    0.206216
  10 S :   -0.441946
  11 N :   -0.214590
  12 C :    0.066626
  13 C :    0.028578
  14 C :   -0.188702
  15 C :   -0.129294
  16 C :   -0.277004
  17 C :    0.311096
  18 O :   -0.358194
  19 C :   -0.278824
  20 H :    0.086121
  21 H :    0.094535
  22 H :    0.112779
  23 H :    0.098087
  24 H :    0.129388
  25 H :    0.124388
  26 H :    0.142114
  27 H :    0.125756
  28 H :    0.196094
  29 H :    0.198895
  30 H :    0.164455
  31 H :    0.164990
  32 H :    0.163356
  33 H :    0.132860
  34 H :    0.241972
  35 H :    0.176443
Sum of atomic charges:   -0.0000000

LOEWDIN ATOMIC CHARGES
----------------------
   0 C :    0.103811
   1 C :   -0.017937
   2 O :    0.312647
   3 C :   -0.418332
   4 O :    0.125886
   5 C :   -0.081292
   6 C :   -0.108411
   7 C :    0.124964
   8 N :    0.400543
   9 C :   -0.455471
  10 S :   -0.038619
  11 N :    0.397347
  12 C :   -0.044034
  13 C :   -0.042918
  14 C :    0.024106
  15 C :    0.046450
  16 C :   -0.000187
  17 C :   -0.194170
  18 O :    0.394337
  19 C :    0.028221
  20 H :   -0.034328
  21 H :   -0.025500
  22 H :   -0.022829
  23 H :   -0.040948
  24 H :   -0.021277
  25 H :   -0.009415
  26 H :   -0.009786
  27 H :   -0.015823
  28 H :   -0.058448
  29 H :   -0.063631
  30 H :   -0.002267
  31 H :   -0.022020
  32 H :   -0.018344
  33 H :   -0.034569
  34 H :   -0.152807
  35 H :   -0.024948

  Mayer bond orders larger than 0.100000
B(  0-C ,  1-C ) :   0.9723 B(  0-C , 20-H ) :   0.9776 B(  0-C , 21-H ) :   0.9755
B(  0-C , 22-H ) :   0.9794 B(  1-C ,  2-O ) :   0.8989 B(  1-C , 23-H ) :   0.9616
B(  1-C , 24-H ) :   0.9772 B(  2-O ,  3-C ) :   1.1787 B(  3-C ,  4-O ) :   2.0949
B(  3-C ,  5-C ) :   0.9217 B(  5-C ,  6-C ) :   1.6965 B(  5-C , 12-C ) :   0.9613
B(  6-C ,  7-C ) :   0.9425 B(  6-C ,  8-N ) :   1.1097 B(  7-C , 25-H ) :   0.9816
B(  7-C , 26-H ) :   0.9729 B(  7-C , 27-H ) :   0.9648 B(  8-N ,  9-C ) :   1.1971
B(  8-N , 28-H ) :   0.9525 B(  9-C , 10-S ) :   1.6104 B(  9-C , 11-N ) :   1.2860
B( 11-N , 12-C ) :   0.9979 B( 11-N , 29-H ) :   0.9485 B( 12-C , 13-C ) :   0.9449
B( 12-C , 30-H ) :   0.9969 B( 13-C , 14-C ) :   1.3866 B( 13-C , 19-C ) :   1.3430
B( 14-C , 15-C ) :   1.3971 B( 14-C , 31-H ) :   0.9625 B( 15-C , 16-C ) :   1.3642
B( 15-C , 32-H ) :   0.9700 B( 16-C , 17-C ) :   1.3286 B( 16-C , 33-H ) :   0.9842
B( 17-C , 18-O ) :   1.1101 B( 17-C , 19-C ) :   1.3716 B( 18-O , 34-H ) :   0.9789
B( 19-C , 35-H ) :   0.9578

MP2 TOTAL ENERGY:    -1274.328657608 Eh
FINAL SINGLE POINT ENERGY     -1274.328657608453

DIPOLE MOMENT
-------------
                                X             Y             Z
Electronic contribution:     11.55164       5.42663       8.02042
Nuclear contribution   :    -13.13698      -6.46713      -8.33567
                        -----------------------------------------
Total Dipole Moment    :     -1.58534      -1.04050      -0.31525
                        -----------------------------------------
Magnitude (a.u.)       :      1.92232
Magnitude (Debye)      :      4.88615

Rotational constants in cm-1:     0.011578     0.009244     0.006855
Rotational constants in MHz :   347.092546   277.114981   205.516095

                             ****ORCA TERMINATED NORMALLY****
TOTAL RUN TIME: 0 days 1 hours 59 minutes 4 seconds 186 msec
