                         Program Version 5.0.0 -  RELEASE  -
|  1> ! ri-mp2 cc-pvtz cc-pvtz/c TightSCF NoKeepInts
|  2>
|  3> %scf
|  4>   MaxCore 4096
|  5> end
|  6> *xyz  0  1
|  7>     C       15.0283327   15.6093758   17.5285844
|  8>     C       15.6481043   15.1940760   16.1781351
|  9>     O       17.0376768   14.8243412   16.3048223
| 10>     C       18.1279522   15.6451086   16.4725644
| 11>     O       19.2300738   15.1342901   16.3969885
| 12>     C       17.9488439   16.8194638   17.3747336
| 13>     C       17.4023889   17.9792690   16.9429293
| 14>     C       16.8763375   18.2776800   15.5560097
| 15>     N       17.3590557   19.0874187   17.7917482
| 16>     C       17.9736877   19.1548635   19.0148816
| 17>     S       17.9459153   20.5350965   19.9250105
| 18>     N       18.6158003   18.0198820   19.4456723
| 19>     C       18.5824634   16.7095775   18.7641729
| 20>     C       17.8930423   15.6448966   19.6151424
| 21>     C       18.3406946   14.3118035   19.5624655
| 22>     C       17.7162504   13.3132184   20.3278244
| 23>     C       16.6328949   13.6482591   21.1571023
| 24>     C       16.1814199   14.9734299   21.2128903
| 25>     O       15.1277136   15.2981118   22.0033884
| 26>     C       16.8038772   15.9658668   20.4488557
| 27>     H       15.2782998   14.8731324   18.3025209
| 28>     H       13.9353310   15.6412461   17.4446328
| 29>     H       15.3544220   16.5964894   17.8659965
| 30>     H       15.1012438   14.3122819   15.8194172
| 31>     H       15.5121149   15.9794000   15.4269214
| 32>     H       17.1989683   17.5310447   14.8202066
| 33>     H       17.2471985   19.2465359   15.1972211
| 34>     H       15.7802379   18.3163112   15.5500832
| 35>     H       16.9094798   19.9363423   17.4866393
| 36>     H       19.0506838   18.0945408   20.3566420
| 37>     H       19.6256271   16.3897869   18.6227375
| 38>     H       19.1717038   14.0460502   18.9120569
| 39>     H       18.0710256   12.2855183   20.2715061
| 40>     H       16.1464576   12.8793149   21.7480331
| 41>     H       14.8645785   14.4963956   22.4799986
| 42>     H       16.4271020   16.9815803   20.5054649
| 43> *
| 44>
| 45>                          ****END OF INPUT****

CARTESIAN COORDINATES (ANGSTROEM)
---------------------------------
  C     15.028333   15.609376   17.528584
  C     15.648104   15.194076   16.178135
  O     17.037677   14.824341   16.304822
  C     18.127952   15.645109   16.472564
  O     19.230074   15.134290   16.396988
  C     17.948844   16.819464   17.374734
  C     17.402389   17.979269   16.942929
  C     16.876338   18.277680   15.556010
  N     17.359056   19.087419   17.791748
  C     17.973688   19.154864   19.014882
  S     17.945915   20.535096   19.925010
  N     18.615800   18.019882   19.445672
  C     18.582463   16.709578   18.764173
  C     17.893042   15.644897   19.615142
  C     18.340695   14.311803   19.562465
  C     17.716250   13.313218   20.327824
  C     16.632895   13.648259   21.157102
  C     16.181420   14.973430   21.212890
  O     15.127714   15.298112   22.003388
  C     16.803877   15.965867   20.448856
  H     15.278300   14.873132   18.302521
  H     13.935331   15.641246   17.444633
  H     15.354422   16.596489   17.865997
  H     15.101244   14.312282   15.819417
  H     15.512115   15.979400   15.426921
  H     17.198968   17.531045   14.820207
  H     17.247198   19.246536   15.197221
  H     15.780238   18.316311   15.550083
  H     16.909480   19.936342   17.486639
  H     19.050684   18.094541   20.356642
  H     19.625627   16.389787   18.622737
  H     19.171704   14.046050   18.912057
  H     18.071026   12.285518   20.271506
  H     16.146458   12.879315   21.748033
  H     14.864579   14.496396   22.479999
  H     16.427102   16.981580   20.505465

 Total Charge           Charge          ....    0
 Multiplicity           Mult            ....    1
 Number of Electrons    NEL             ....  154
 Basis Dimension        Dim             ....  828

ORBITAL ENERGIES
----------------

  NO   OCC          E(Eh)            E(eV)
   0   2.0000     -91.889349     -2500.4363
   1   2.0000     -20.599848      -560.5504
   2   2.0000     -20.596930      -560.4710
   3   2.0000     -20.553141      -559.2794
   4   2.0000     -15.626036      -425.2061
   5   2.0000     -15.610954      -424.7956
   6   2.0000     -11.399334      -310.1916
   7   2.0000     -11.386019      -309.8293
   8   2.0000     -11.326480      -308.2092
   9   2.0000     -11.315131      -307.9004
  10   2.0000     -11.313325      -307.8512
  11   2.0000     -11.309197      -307.7389
  12   2.0000     -11.272125      -306.7301
  13   2.0000     -11.265942      -306.5619
  14   2.0000     -11.261302      -306.4356
  15   2.0000     -11.253975      -306.2362
  16   2.0000     -11.243182      -305.9425
  17   2.0000     -11.238693      -305.8204
  18   2.0000     -11.235890      -305.7441
  19   2.0000     -11.229295      -305.5646
  20   2.0000      -8.894464      -242.0307
  21   2.0000      -6.576057      -178.9436
  22   2.0000      -6.574026      -178.8884
  23   2.0000      -6.573455      -178.8728
  24   2.0000      -1.449081       -39.4315
  25   2.0000      -1.416766       -38.5522
  26   2.0000      -1.358889       -36.9773
  27   2.0000      -1.339683       -36.4546
  28   2.0000      -1.239331       -33.7239
  29   2.0000      -1.158415       -31.5221
  30   2.0000      -1.124882       -30.6096
  31   2.0000      -1.047716       -28.5098
  32   2.0000      -1.038888       -28.2696
  33   2.0000      -1.016559       -27.6620
  34   2.0000      -1.005059       -27.3491
  35   2.0000      -0.989546       -26.9269
  36   2.0000      -0.927432       -25.2367
  37   2.0000      -0.895997       -24.3813
  38   2.0000      -0.853970       -23.2377
  39   2.0000      -0.839979       -22.8570
  40   2.0000      -0.833792       -22.6886
  41   2.0000      -0.829968       -22.5846
  42   2.0000      -0.750856       -20.4318
  43   2.0000      -0.738815       -20.1042
  44   2.0000      -0.730152       -19.8684
  45   2.0000      -0.694652       -18.9024
  46   2.0000      -0.687308       -18.7026
  47   2.0000      -0.680096       -18.5063
  48   2.0000      -0.675101       -18.3704
  49   2.0000      -0.664345       -18.0777
  50   2.0000      -0.651841       -17.7375
  51   2.0000      -0.646004       -17.5787
  52   2.0000      -0.640341       -17.4246
  53   2.0000      -0.614235       -16.7142
  54   2.0000      -0.609529       -16.5861
  55   2.0000      -0.605158       -16.4672
  56   2.0000      -0.601645       -16.3716
  57   2.0000      -0.590932       -16.0801
  58   2.0000      -0.582225       -15.8431
  59   2.0000      -0.573850       -15.6152
  60   2.0000      -0.565098       -15.3771
  61   2.0000      -0.557722       -15.1764
  62   2.0000      -0.541731       -14.7412
  63   2.0000      -0.528056       -14.3691
  64   2.0000      -0.516702       -14.0602
  65   2.0000      -0.512504       -13.9459
  66   2.0000      -0.504138       -13.7183
  67   2.0000      -0.500751       -13.6261
  68   2.0000      -0.484875       -13.1941
  69   2.0000      -0.462768       -12.5926
  70   2.0000      -0.455289       -12.3890
  71   2.0000      -0.452530       -12.3140
  72   2.0000      -0.355872        -9.6838
  73   2.0000      -0.347791        -9.4639
  74   2.0000      -0.329054        -8.9540
  75   2.0000      -0.321981        -8.7615
  76   2.0000      -0.317510        -8.6399
  77   0.0000       0.087807         2.3894
  78   0.0000       0.103885         2.8269
  79   0.0000       0.112193         3.0529
  80   0.0000       0.129242         3.5169
  81   0.0000       0.131127         3.5682

MULLIKEN ATOMIC CHARGES
-----------------------
   0 C :   -0.318514
   1 C :    0.009660
   2 O :   -0.318416
   3 C :    0.396672
   4 O :   -0.373584
   5 C :   -0.166379
   6 C :    0.127140
   7 C :   -0.333756
   8 N :   -0.135895
   9 C :    0.206715
  10 S :   -0.442274
  11 N :   -0.228067
  12 C :    0.079854
  13 C :    0.034637
  14 C :   -0.205638
  15 C :   -0.135090
  16 C :   -0.277083
  17 C :    0.314647
  18 O :   -0.359181
  19 C :   -0.276262
  20 H :    0.126052
  21 H :    0.113199
  22 H :    0.105264
  23 H :    0.132631
  24 H :    0.089326
  25 H :    0.122248
  26 H :    0.136971
  27 H :    0.123959
  28 H :    0.195811
  29 H :    0.202454
  30 H :    0.169570
  31 H :    0.169965
  32 H :    0.163159
  33 H :    0.131843
  34 H :    0.240994
  35 H :    0.177366
Sum of atomic charges:    0.0000000

LOEWDIN ATOMIC CHARGES
----------------------
   0 C :    0.104318
   1 C :   -0.021792
   2 O :    0.307193
   3 C :   -0.418016
   4 O :    0.131465
   5 C :   -0.076643
   6 C :   -0.107353
   7 C :    0.122507
   8 N :    0.401074
   9 C :   -0.456832
  10 S :   -0.039050
  11 N :    0.398665
  12 C :   -0.041594
  13 C :   -0.041136
  14 C :    0.022827
  15 C :    0.044063
  16 C :   -0.002346
  17 C :   -0.194511
  18 O :    0.395249
  19 C :    0.028854
  20 H :   -0.019166
  21 H :   -0.025626
  22 H :   -0.037825
  23 H :   -0.017833
  24 H :   -0.040249
  25 H :   -0.010629
  26 H :   -0.009466
  27 H :   -0.017247
  28 H :   -0.058760
  29 H :   -0.063583
  30 H :   -0.001346
  31 H :   -0.021872
  32 H :   -0.018755
  33 H :   -0.035187
  34 H :   -0.153716
  35 H :   -0.025682

  Mayer bond orders larger than 0.100000
B(  0-C ,  1-C ) :   0.9554 B(  0-C , 20-H ) :   0.9701 B(  0-C , 21-H ) :   0.9768
B(  0-C , 22-H ) :   0.9730 B(  1-C ,  2-O ) :   0.9147 B(  1-C , 23-H ) :   0.9833
B(  1-C , 24-H ) :   0.9771 B(  2-O ,  3-C ) :   1.1362 B(  3-C ,  4-O ) :   2.0847
B(  3-C ,  5-C ) :   0.9172 B(  5-C ,  6-C ) :   1.7086 B(  5-C , 12-C ) :   0.9554
B(  6-C ,  7-C ) :   0.9415 B(  6-C ,  8-N ) :   1.0990 B(  7-C , 25-H ) :   0.9818
B(  7-C , 26-H ) :   0.9734 B(  7-C , 27-H ) :   0.9651 B(  8-N ,  9-C ) :   1.1980
B(  8-N , 28-H ) :   0.9533 B(  9-C , 10-S ) :   1.6070 B(  9-C , 11-N ) :   1.2862
B( 11-N , 12-C ) :   0.9850 B( 11-N , 29-H ) :   0.9474 B( 12-C , 13-C ) :   0.9510
B( 12-C , 30-H ) :   0.9954 B( 13-C , 14-C ) :   1.3865 B( 13-C , 19-C ) :   1.3383
B( 14-C , 15-C ) :   1.4028 B( 14-C , 31-H ) :   0.9609 B( 15-C , 16-C ) :   1.3572
B( 15-C , 32-H ) :   0.9703 B( 16-C , 17-C ) :   1.3314 B( 16-C , 33-H ) :   0.9851
B( 17-C , 18-O ) :   1.1091 B( 17-C , 19-C ) :   1.3696 B( 18-O , 34-H ) :   0.9797
B( 19-C , 35-H ) :   0.9574

MP2 TOTAL ENERGY:    -1274.320578664 Eh
FINAL SINGLE POINT ENERGY     -1274.320578664474

DIPOLE MOMENT
-------------
                                X             Y             Z
Electronic contribution:      9.33357       6.02494       6.40703
Nuclear contribution   :    -10.87514      -7.15560      -7.23289
                        -----------------------------------------
Total Dipole Moment    :     -1.54157      -1.13066      -0.82586
                        -----------------------------------------
Magnitude (a.u.)       :      2.08251
Magnitude (Debye)      :      5.29333

Rotational constants in cm-1:     0.012016     0.009563     0.006879
Rotational constants in MHz :   360.237150   286.689315   206.240117

                             ****ORCA TERMINATED NORMALLY****
TOTAL RUN TIME: 0 days 1 hours 42 minutes 0 seconds 614 msec
