                         Program Version 5.0.0 -  RELEASE  -
|  1> ! ri-mp2 cc-pvtz cc-pvtz/c TightSCF NoKeepInts
|  2>
|  3> %scf
|  4>   MaxCore 4096
|  5> end
|  6> *xyz  0  1
|  7>     C       14.2651024   15.1971410   16.2295661
|  8>     C       15.6684034   15.0089547   16.8300165
|  9>     O       16.6158074   15.6249171   15.9409862
| 10>     C       17.8710224   15.8310792   16.4300023
| 11>     O       18.6531369   14.8992140   16.4911826
| 12>     C       17.9362925   16.9666688   17.4055509
| 13>     C       17.2897781   18.1437016   17.2216812
| 14>     C       16.4452814   18.5487555   16.0324400
| 15>     N       17.4402129   19.1724852   18.1559034
| 16>     C       18.3241364   19.1516460   19.2032599
| 17>     S       18.5258792   20.4573070   20.1977485
| 18>     N       19.0315374   17.9892394   19.3864524
| 19>     C       18.8004834   16.7328342   18.6472364
| 20>     C       18.1621559   15.6813520   19.5515360
| 21>     C       18.6992760   14.3829251   19.6220824
| 22>     C       18.1034724   13.4035692   20.4341281
| 23>     C       16.9583250   13.7234158   21.1829110
| 24>     C       16.4173519   15.0140592   21.1130397
| 25>     O       15.3043033   15.3233721   21.8243201
| 26>     C       17.0120067   15.9865364   20.3030323
| 27>     H       13.5099477   14.7175875   16.8642720
| 28>     H       14.2101134   14.7449414   15.2313275
| 29>     H       14.0134253   16.2602986   16.1429307
| 30>     H       15.6982690   15.4769478   17.8227732
| 31>     H       15.8977037   13.9407816   16.9447741
| 32>     H       15.4083445   18.2184354   16.1611709
| 33>     H       16.8257734   18.1066683   15.1030469
| 34>     H       16.4363424   19.6356183   15.8837225
| 35>     H       16.9328681   20.0349758   18.0359249
| 36>     H       19.6578220   17.9923580   20.1815258
| 37>     H       19.7779714   16.3553959   18.3128894
| 38>     H       19.5735369   14.1267467   19.0277553
| 39>     H       18.5267382   12.4013166   20.4745605
| 40>     H       16.4937368   12.9689032   21.8091462
| 41>     H       15.0842991   14.5527091   22.3694451
| 42>     H       16.5761430   16.9791424   20.2656590
| 43> *
| 44>
| 45>                          ****END OF INPUT****

CARTESIAN COORDINATES (ANGSTROEM)
---------------------------------
  C     14.265102   15.197141   16.229566
  C     15.668403   15.008955   16.830016
  O     16.615807   15.624917   15.940986
  C     17.871022   15.831079   16.430002
  O     18.653137   14.899214   16.491183
  C     17.936293   16.966669   17.405551
  C     17.289778   18.143702   17.221681
  C     16.445281   18.548755   16.032440
  N     17.440213   19.172485   18.155903
  C     18.324136   19.151646   19.203260
  S     18.525879   20.457307   20.197748
  N     19.031537   17.989239   19.386452
  C     18.800483   16.732834   18.647236
  C     18.162156   15.681352   19.551536
  C     18.699276   14.382925   19.622082
  C     18.103472   13.403569   20.434128
  C     16.958325   13.723416   21.182911
  C     16.417352   15.014059   21.113040
  O     15.304303   15.323372   21.824320
  C     17.012007   15.986536   20.303032
  H     13.509948   14.717587   16.864272
  H     14.210113   14.744941   15.231327
  H     14.013425   16.260299   16.142931
  H     15.698269   15.476948   17.822773
  H     15.897704   13.940782   16.944774
  H     15.408344   18.218435   16.161171
  H     16.825773   18.106668   15.103047
  H     16.436342   19.635618   15.883722
  H     16.932868   20.034976   18.035925
  H     19.657822   17.992358   20.181526
  H     19.777971   16.355396   18.312889
  H     19.573537   14.126747   19.027755
  H     18.526738   12.401317   20.474560
  H     16.493737   12.968903   21.809146
  H     15.084299   14.552709   22.369445
  H     16.576143   16.979142   20.265659

 Total Charge           Charge          ....    0
 Multiplicity           Mult            ....    1
 Number of Electrons    NEL             ....  154
 Basis Dimension        Dim             ....  828

ORBITAL ENERGIES
----------------

  NO   OCC          E(Eh)            E(eV)
   0   2.0000     -91.890486     -2500.4673
   1   2.0000     -20.597641      -560.4903
   2   2.0000     -20.581961      -560.0636
   3   2.0000     -20.557365      -559.3943
   4   2.0000     -15.630008      -425.3141
   5   2.0000     -15.609914      -424.7673
   6   2.0000     -11.393667      -310.0375
   7   2.0000     -11.386098      -309.8315
   8   2.0000     -11.334866      -308.4374
   9   2.0000     -11.313972      -307.8688
  10   2.0000     -11.310437      -307.7726
  11   2.0000     -11.299371      -307.4715
  12   2.0000     -11.262987      -306.4815
  13   2.0000     -11.261222      -306.4334
  14   2.0000     -11.259600      -306.3893
  15   2.0000     -11.253880      -306.2337
  16   2.0000     -11.243522      -305.9518
  17   2.0000     -11.239463      -305.8413
  18   2.0000     -11.236272      -305.7545
  19   2.0000     -11.233972      -305.6919
  20   2.0000      -8.895554      -242.0603
  21   2.0000      -6.577130      -178.9728
  22   2.0000      -6.575121      -178.9181
  23   2.0000      -6.574534      -178.9022
  24   2.0000      -1.452284       -39.5187
  25   2.0000      -1.417463       -38.5711
  26   2.0000      -1.357454       -36.9382
  27   2.0000      -1.341317       -36.4991
  28   2.0000      -1.239499       -33.7285
  29   2.0000      -1.158064       -31.5125
  30   2.0000      -1.122999       -30.5584
  31   2.0000      -1.046163       -28.4675
  32   2.0000      -1.036205       -28.1966
  33   2.0000      -1.015692       -27.6384
  34   2.0000      -1.001683       -27.2572
  35   2.0000      -0.987424       -26.8692
  36   2.0000      -0.925223       -25.1766
  37   2.0000      -0.879705       -23.9380
  38   2.0000      -0.851001       -23.1569
  39   2.0000      -0.841452       -22.8971
  40   2.0000      -0.834070       -22.6962
  41   2.0000      -0.831769       -22.6336
  42   2.0000      -0.757265       -20.6062
  43   2.0000      -0.736242       -20.0342
  44   2.0000      -0.730036       -19.8653
  45   2.0000      -0.695745       -18.9322
  46   2.0000      -0.687382       -18.7046
  47   2.0000      -0.682279       -18.5658
  48   2.0000      -0.675621       -18.3846
  49   2.0000      -0.657784       -17.8992
  50   2.0000      -0.651746       -17.7349
  51   2.0000      -0.642763       -17.4905
  52   2.0000      -0.629655       -17.1338
  53   2.0000      -0.626514       -17.0483
  54   2.0000      -0.606281       -16.4978
  55   2.0000      -0.605394       -16.4736
  56   2.0000      -0.601280       -16.3617
  57   2.0000      -0.580432       -15.7944
  58   2.0000      -0.576137       -15.6775
  59   2.0000      -0.566000       -15.4016
  60   2.0000      -0.558966       -15.2103
  61   2.0000      -0.550202       -14.9718
  62   2.0000      -0.541677       -14.7398
  63   2.0000      -0.524018       -14.2593
  64   2.0000      -0.522248       -14.2111
  65   2.0000      -0.514277       -13.9942
  66   2.0000      -0.502630       -13.6773
  67   2.0000      -0.498284       -13.5590
  68   2.0000      -0.482006       -13.1161
  69   2.0000      -0.466398       -12.6913
  70   2.0000      -0.458998       -12.4900
  71   2.0000      -0.453385       -12.3372
  72   2.0000      -0.356796        -9.7089
  73   2.0000      -0.349382        -9.5072
  74   2.0000      -0.329748        -8.9729
  75   2.0000      -0.321278        -8.7424
  76   2.0000      -0.317961        -8.6522
  77   0.0000       0.069990         1.9045
  78   0.0000       0.102958         2.8016
  79   0.0000       0.118367         3.2209
  80   0.0000       0.131052         3.5661
  81   0.0000       0.133948         3.6449

MULLIKEN ATOMIC CHARGES
-----------------------
   0 C :   -0.269051
   1 C :    0.029318
   2 O :   -0.369256
   3 C :    0.473322
   4 O :   -0.385886
   5 C :   -0.235879
   6 C :    0.148215
   7 C :   -0.292811
   8 N :   -0.124841
   9 C :    0.196406
  10 S :   -0.437087
  11 N :   -0.202791
  12 C :    0.058491
  13 C :    0.044638
  14 C :   -0.170064
  15 C :   -0.134309
  16 C :   -0.277663
  17 C :    0.321374
  18 O :   -0.359416
  19 C :   -0.301675
  20 H :    0.097801
  21 H :    0.105705
  22 H :    0.088545
  23 H :    0.095290
  24 H :    0.114226
  25 H :    0.120383
  26 H :    0.130199
  27 H :    0.114108
  28 H :    0.197713
  29 H :    0.194687
  30 H :    0.158737
  31 H :    0.161994
  32 H :    0.162282
  33 H :    0.131439
  34 H :    0.241210
  35 H :    0.174649
Sum of atomic charges:   -0.0000000

LOEWDIN ATOMIC CHARGES
----------------------
   0 C :    0.110550
   1 C :   -0.017742
   2 O :    0.285974
   3 C :   -0.419672
   4 O :    0.136565
   5 C :   -0.094720
   6 C :   -0.077761
   7 C :    0.127438
   8 N :    0.404218
   9 C :   -0.458127
  10 S :   -0.034633
  11 N :    0.396994
  12 C :   -0.045277
  13 C :   -0.041875
  14 C :    0.022069
  15 C :    0.043192
  16 C :   -0.001539
  17 C :   -0.195152
  18 O :    0.393803
  19 C :    0.026829
  20 H :   -0.023019
  21 H :   -0.024153
  22 H :   -0.032728
  23 H :   -0.035155
  24 H :   -0.026024
  25 H :   -0.013607
  26 H :   -0.006642
  27 H :   -0.017312
  28 H :   -0.058142
  29 H :   -0.063883
  30 H :   -0.003586
  31 H :   -0.023436
  32 H :   -0.019602
  33 H :   -0.035235
  34 H :   -0.153482
  35 H :   -0.025131

  Mayer bond orders larger than 0.100000
B(  0-C ,  1-C ) :   0.9786 B(  0-C , 20-H ) :   0.9761 B(  0-C , 21-H ) :   0.9786
B(  0-C , 22-H ) :   0.9779 B(  1-C ,  2-O ) :   0.8936 B(  1-C , 23-H ) :   0.9609
B(  1-C , 24-H ) :   0.9808 B(  2-O ,  3-C ) :   1.1020 B(  3-C ,  4-O ) :   2.0582
B(  3-C ,  5-C ) :   0.9926 B(  5-C ,  6-C ) :   1.6633 B(  5-C , 12-C ) :   0.9595
B(  6-C ,  7-C ) :   0.9538 B(  6-C ,  8-N ) :   1.1343 B(  7-C , 25-H ) :   0.9641
B(  7-C , 26-H ) :   0.9700 B(  7-C , 27-H ) :   0.9855 B(  8-N ,  9-C ) :   1.1841
B(  8-N , 28-H ) :   0.9501 B(  9-C , 10-S ) :   1.6148 B(  9-C , 11-N ) :   1.2971
B( 11-N , 12-C ) :   0.9932 B( 11-N , 29-H ) :   0.9517 B( 12-C , 13-C ) :   0.9455
B( 12-C , 30-H ) :   0.9986 B( 13-C , 14-C ) :   1.3843 B( 13-C , 19-C ) :   1.3474
B( 14-C , 15-C ) :   1.3956 B( 14-C , 31-H ) :   0.9611 B( 15-C , 16-C ) :   1.3644
B( 15-C , 32-H ) :   0.9704 B( 16-C , 17-C ) :   1.3309 B( 16-C , 33-H ) :   0.9845
B( 17-C , 18-O ) :   1.1109 B( 17-C , 19-C ) :   1.3669 B( 18-O , 34-H ) :   0.9797
B( 19-C , 35-H ) :   0.9591

MP2 TOTAL ENERGY:    -1274.323725118 Eh
FINAL SINGLE POINT ENERGY     -1274.323725118422

DIPOLE MOMENT
-------------
                                X             Y             Z
Electronic contribution:     11.66092       7.66867       7.31159
Nuclear contribution   :    -12.96327      -8.83508      -7.73573
                        -----------------------------------------
Total Dipole Moment    :     -1.30235      -1.16641      -0.42414
                        -----------------------------------------
Magnitude (a.u.)       :      1.79904
Magnitude (Debye)      :      4.57279

Rotational constants in cm-1:     0.011264     0.009395     0.006796
Rotational constants in MHz :   337.695891   281.666408   203.742437

                             ****ORCA TERMINATED NORMALLY****
TOTAL RUN TIME: 0 days 2 hours 4 minutes 1 seconds 557 msec
