                         Program Version 5.0.0 -  RELEASE  -
|  1> ! ri-mp2 cc-pvtz cc-pvtz/c TightSCF NoKeepInts
|  2>
|  3> %scf
|  4>   MaxCore 4096
|  5> end
|  6> *xyz  0  1
|  7>     C       15.0037071   15.9020020   17.3202324
|  8>     C       15.5161178   15.1635106   16.0664222
|  9>     O       16.9543324   15.0358621   15.8855136
| 10>     C       18.0566032   15.6050731   16.4873849
| 11>     O       19.1089274   14.9936667   16.4626534
| 12>     C       17.8983969   16.7678131   17.4100861
| 13>     C       17.3980170   17.9503647   16.9794406
| 14>     C       16.9011675   18.2820887   15.5861621
| 15>     N       17.4035035   19.0606237   17.8263013
| 16>     C       18.0338684   19.1096037   19.0418186
| 17>     S       18.0616946   20.4905994   19.9508303
| 18>     N       18.6478888   17.9564935   19.4641688
| 19>     C       18.5730136   16.6486330   18.7816044
| 20>     C       17.9038908   15.5922020   19.6592060
| 21>     C       18.3404576   14.2555555   19.6006022
| 22>     C       17.7343416   13.2659363   20.3919464
| 23>     C       16.6806011   13.6133682   21.2535970
| 24>     C       16.2411423   14.9421958   21.3170042
| 25>     O       15.2174378   15.2794931   22.1409230
| 26>     C       16.8462580   15.9258832   20.5281116
| 27>     H       15.5365051   15.5699517   18.2154889
| 28>     H       13.9456196   15.6574813   17.4747496
| 29>     H       15.0550802   16.9888351   17.2340640
| 30>     H       15.0982409   14.1482856   16.0799278
| 31>     H       15.0940478   15.6585730   15.1824227
| 32>     H       17.0948123   17.4776418   14.8670827
| 33>     H       17.4084908   19.1740817   15.1967937
| 34>     H       15.8233323   18.4828956   15.5821770
| 35>     H       16.9813263   19.9241395   17.5230489
| 36>     H       19.0971996   18.0188879   20.3690744
| 37>     H       19.6070268   16.3156386   18.6070109
| 38>     H       19.1511477   13.9799693   18.9290269
| 39>     H       18.0813392   12.2357019   20.3321476
| 40>     H       16.2086143   12.8514810   21.8651268
| 41>     H       14.9633128   14.4824137   22.6300788
| 42>     H       16.4795367   16.9450540   20.5917702
| 43> *
| 44>
| 45>                          ****END OF INPUT****

CARTESIAN COORDINATES (ANGSTROEM)
---------------------------------
  C     15.003707   15.902002   17.320232
  C     15.516118   15.163511   16.066422
  O     16.954332   15.035862   15.885514
  C     18.056603   15.605073   16.487385
  O     19.108927   14.993667   16.462653
  C     17.898397   16.767813   17.410086
  C     17.398017   17.950365   16.979441
  C     16.901167   18.282089   15.586162
  N     17.403503   19.060624   17.826301
  C     18.033868   19.109604   19.041819
  S     18.061695   20.490599   19.950830
  N     18.647889   17.956494   19.464169
  C     18.573014   16.648633   18.781604
  C     17.903891   15.592202   19.659206
  C     18.340458   14.255555   19.600602
  C     17.734342   13.265936   20.391946
  C     16.680601   13.613368   21.253597
  C     16.241142   14.942196   21.317004
  O     15.217438   15.279493   22.140923
  C     16.846258   15.925883   20.528112
  H     15.536505   15.569952   18.215489
  H     13.945620   15.657481   17.474750
  H     15.055080   16.988835   17.234064
  H     15.098241   14.148286   16.079928
  H     15.094048   15.658573   15.182423
  H     17.094812   17.477642   14.867083
  H     17.408491   19.174082   15.196794
  H     15.823332   18.482896   15.582177
  H     16.981326   19.924139   17.523049
  H     19.097200   18.018888   20.369074
  H     19.607027   16.315639   18.607011
  H     19.151148   13.979969   18.929027
  H     18.081339   12.235702   20.332148
  H     16.208614   12.851481   21.865127
  H     14.963313   14.482414   22.630079
  H     16.479537   16.945054   20.591770

 Total Charge           Charge          ....    0
 Multiplicity           Mult            ....    1
 Number of Electrons    NEL             ....  154
 Basis Dimension        Dim             ....  828

ORBITAL ENERGIES
----------------

  NO   OCC          E(Eh)            E(eV)
   0   2.0000     -91.890431     -2500.4658
   1   2.0000     -20.598179      -560.5050
   2   2.0000     -20.596380      -560.4560
   3   2.0000     -20.546001      -559.0851
   4   2.0000     -15.628120      -425.2628
   5   2.0000     -15.611130      -424.8004
   6   2.0000     -11.400596      -310.2260
   7   2.0000     -11.386925      -309.8540
   8   2.0000     -11.331121      -308.3355
   9   2.0000     -11.315090      -307.8993
  10   2.0000     -11.313851      -307.8655
  11   2.0000     -11.313664      -307.8605
  12   2.0000     -11.269126      -306.6485
  13   2.0000     -11.264820      -306.5313
  14   2.0000     -11.262913      -306.4795
  15   2.0000     -11.255329      -306.2731
  16   2.0000     -11.244235      -305.9712
  17   2.0000     -11.240240      -305.8625
  18   2.0000     -11.236654      -305.7649
  19   2.0000     -11.235964      -305.7461
  20   2.0000      -8.895532      -242.0597
  21   2.0000      -6.577119      -178.9725
  22   2.0000      -6.575095      -178.9174
  23   2.0000      -6.574518      -178.9017
  24   2.0000      -1.440572       -39.2000
  25   2.0000      -1.417989       -38.5854
  26   2.0000      -1.352952       -36.8157
  27   2.0000      -1.340993       -36.4903
  28   2.0000      -1.240160       -33.7465
  29   2.0000      -1.159354       -31.5476
  30   2.0000      -1.124941       -30.6112
  31   2.0000      -1.047572       -28.5059
  32   2.0000      -1.042251       -28.3611
  33   2.0000      -1.017795       -27.6956
  34   2.0000      -1.005210       -27.3531
  35   2.0000      -0.990424       -26.9508
  36   2.0000      -0.927963       -25.2512
  37   2.0000      -0.902547       -24.5596
  38   2.0000      -0.853920       -23.2363
  39   2.0000      -0.840721       -22.8772
  40   2.0000      -0.834762       -22.7150
  41   2.0000      -0.827941       -22.5294
  42   2.0000      -0.745073       -20.2745
  43   2.0000      -0.733444       -19.9580
  44   2.0000      -0.730728       -19.8841
  45   2.0000      -0.695170       -18.9165
  46   2.0000      -0.686256       -18.6740
  47   2.0000      -0.677760       -18.4428
  48   2.0000      -0.674302       -18.3487
  49   2.0000      -0.660938       -17.9850
  50   2.0000      -0.658850       -17.9282
  51   2.0000      -0.652208       -17.7475
  52   2.0000      -0.641431       -17.4542
  53   2.0000      -0.614427       -16.7194
  54   2.0000      -0.607308       -16.5257
  55   2.0000      -0.604554       -16.4508
  56   2.0000      -0.602135       -16.3849
  57   2.0000      -0.593963       -16.1626
  58   2.0000      -0.576899       -15.6982
  59   2.0000      -0.574163       -15.6238
  60   2.0000      -0.565434       -15.3862
  61   2.0000      -0.558194       -15.1892
  62   2.0000      -0.543442       -14.7878
  63   2.0000      -0.530590       -14.4381
  64   2.0000      -0.520482       -14.1630
  65   2.0000      -0.514020       -13.9872
  66   2.0000      -0.501428       -13.6445
  67   2.0000      -0.496123       -13.5002
  68   2.0000      -0.483791       -13.1646
  69   2.0000      -0.467554       -12.7228
  70   2.0000      -0.454645       -12.3715
  71   2.0000      -0.448368       -12.2007
  72   2.0000      -0.356258        -9.6943
  73   2.0000      -0.349047        -9.4980
  74   2.0000      -0.330013        -8.9801
  75   2.0000      -0.323346        -8.7987
  76   2.0000      -0.319021        -8.6810
  77   0.0000       0.084699         2.3048
  78   0.0000       0.107334         2.9207
  79   0.0000       0.113765         3.0957
  80   0.0000       0.128110         3.4861
  81   0.0000       0.130989         3.5644

MULLIKEN ATOMIC CHARGES
-----------------------
   0 C :   -0.351399
   1 C :    0.053377
   2 O :   -0.339063
   3 C :    0.423100
   4 O :   -0.385679
   5 C :   -0.216661
   6 C :    0.146156
   7 C :   -0.325919
   8 N :   -0.141311
   9 C :    0.204209
  10 S :   -0.440747
  11 N :   -0.229328
  12 C :    0.102221
  13 C :    0.013942
  14 C :   -0.218007
  15 C :   -0.135137
  16 C :   -0.275589
  17 C :    0.323818
  18 O :   -0.357458
  19 C :   -0.279844
  20 H :    0.136377
  21 H :    0.124225
  22 H :    0.102314
  23 H :    0.125333
  24 H :    0.089578
  25 H :    0.130035
  26 H :    0.139812
  27 H :    0.119963
  28 H :    0.196964
  29 H :    0.203210
  30 H :    0.166911
  31 H :    0.178742
  32 H :    0.164304
  33 H :    0.132024
  34 H :    0.241052
  35 H :    0.178475
Sum of atomic charges:   -0.0000000

LOEWDIN ATOMIC CHARGES
----------------------
   0 C :    0.105652
   1 C :   -0.013230
   2 O :    0.289378
   3 C :   -0.417217
   4 O :    0.120010
   5 C :   -0.081558
   6 C :   -0.096141
   7 C :    0.126480
   8 N :    0.403051
   9 C :   -0.456764
  10 S :   -0.037322
  11 N :    0.398114
  12 C :   -0.042185
  13 C :   -0.043550
  14 C :    0.019865
  15 C :    0.044386
  16 C :   -0.001371
  17 C :   -0.193667
  18 O :    0.395313
  19 C :    0.025873
  20 H :   -0.025337
  21 H :   -0.020151
  22 H :   -0.035981
  23 H :   -0.018285
  24 H :   -0.031999
  25 H :   -0.008342
  26 H :   -0.009326
  27 H :   -0.018772
  28 H :   -0.057430
  29 H :   -0.063672
  30 H :   -0.002151
  31 H :   -0.021613
  32 H :   -0.018476
  33 H :   -0.035040
  34 H :   -0.153467
  35 H :   -0.025077

  Mayer bond orders larger than 0.100000
B(  0-C ,  1-C ) :   0.9585 B(  0-C , 20-H ) :   0.9627 B(  0-C , 21-H ) :   0.9788
B(  0-C , 22-H ) :   0.9741 B(  1-C ,  2-O ) :   0.9063 B(  1-C , 23-H ) :   0.9780
B(  1-C , 24-H ) :   0.9776 B(  2-O ,  3-C ) :   1.1723 B(  3-C ,  4-O ) :   2.0735
B(  3-C ,  5-C ) :   0.9370 B(  5-C ,  6-C ) :   1.6930 B(  5-C , 12-C ) :   0.9455
B(  6-C ,  7-C ) :   0.9443 B(  6-C ,  8-N ) :   1.1037 B(  7-C , 25-H ) :   0.9779
B(  7-C , 26-H ) :   0.9716 B(  7-C , 27-H ) :   0.9646 B(  8-N ,  9-C ) :   1.1968
B(  8-N , 28-H ) :   0.9517 B(  9-C , 10-S ) :   1.6085 B(  9-C , 11-N ) :   1.2894
B( 11-N , 12-C ) :   0.9864 B( 11-N , 29-H ) :   0.9472 B( 12-C , 13-C ) :   0.9531
B( 12-C , 30-H ) :   0.9934 B( 13-C , 14-C ) :   1.3904 B( 13-C , 19-C ) :   1.3398
B( 14-C , 15-C ) :   1.4020 B( 14-C , 31-H ) :   0.9566 B( 15-C , 16-C ) :   1.3593
B( 15-C , 32-H ) :   0.9699 B( 16-C , 17-C ) :   1.3319 B( 16-C , 33-H ) :   0.9846
B( 17-C , 18-O ) :   1.1088 B( 17-C , 19-C ) :   1.3652 B( 18-O , 34-H ) :   0.9795
B( 19-C , 35-H ) :   0.9589

MP2 TOTAL ENERGY:    -1274.323043525 Eh
FINAL SINGLE POINT ENERGY     -1274.323043525223

DIPOLE MOMENT
-------------
                                X             Y             Z
Electronic contribution:      9.43806       5.56233       6.82429
Nuclear contribution   :    -11.05694      -6.65077      -7.41995
                        -----------------------------------------
Total Dipole Moment    :     -1.61888      -1.08844      -0.59565
                        -----------------------------------------
Magnitude (a.u.)       :      2.03967
Magnitude (Debye)      :      5.18444

Rotational constants in cm-1:     0.011507     0.009557     0.006717
Rotational constants in MHz :   344.956754   286.503260   201.379291

                             ****ORCA TERMINATED NORMALLY****
TOTAL RUN TIME: 0 days 2 hours 12 minutes 54 seconds 557 msec
