                         Program Version 5.0.0 -  RELEASE  -
|  1> ! ri-mp2 cc-pvtz cc-pvtz/c TightSCF NoKeepInts
|  2>
|  3> %scf
|  4>   MaxCore 4096
|  5> end
|  6> *xyz  0  1
|  7>     C       15.2787034   14.9966596   17.3567369
|  8>     C       15.5265913   15.3591612   15.8770426
|  9>     O       16.9280817   15.5012937   15.5368905
| 10>     C       17.9405319   15.6290960   16.4492491
| 11>     O       18.7520956   14.7312911   16.5839216
| 12>     C       17.9132747   16.8226818   17.3632216
| 13>     C       17.3751183   18.0292441   17.0471249
| 14>     C       16.7418676   18.4673910   15.7425195
| 15>     N       17.4777553   19.0928308   17.9489077
| 16>     C       18.2561235   19.0917355   19.0757596
| 17>     S       18.4293853   20.4409959   20.0158231
| 18>     N       18.8842463   17.9117647   19.3824143
| 19>     C       18.6417334   16.6259175   18.7006592
| 20>     C       17.8934246   15.6582311   19.6160723
| 21>     C       18.2919658   14.3110328   19.6983004
| 22>     C       17.6047285   13.4075710   20.5257321
| 23>     C       16.5080883   13.8534216   21.2822132
| 24>     C       16.1079558   15.1940041   21.2065595
| 25>     O       15.0437939   15.6262962   21.9285716
| 26>     C       16.7942352   16.0913116   20.3822285
| 27>     H       15.9281025   14.1734102   17.6825185
| 28>     H       14.2396400   14.6747092   17.4961972
| 29>     H       15.4392924   15.8614026   18.0086598
| 30>     H       15.1037478   14.5651600   15.2476825
| 31>     H       14.9807017   16.2781178   15.6364854
| 32>     H       17.1056775   17.8822641   14.8897848
| 33>     H       16.9842376   19.5127941   15.5127276
| 34>     H       15.6502404   18.3857201   15.7842400
| 35>     H       17.0330721   19.9716163   17.7353747
| 36>     H       19.4375695   17.9299121   20.2297405
| 37>     H       19.6251716   16.1848677   18.4805755
| 38>     H       19.1322003   13.9582945   19.1040089
| 39>     H       17.9213622   12.3670362   20.5733597
| 40>     H       15.9729139   13.1581318   21.9204197
| 41>     H       14.7403904   14.8832374   22.4717011
| 42>     H       16.4629798   17.1233948   20.3405762
| 43> *
| 44>
| 45>                          ****END OF INPUT****

CARTESIAN COORDINATES (ANGSTROEM)
---------------------------------
  C     15.278703   14.996660   17.356737
  C     15.526591   15.359161   15.877043
  O     16.928082   15.501294   15.536891
  C     17.940532   15.629096   16.449249
  O     18.752096   14.731291   16.583922
  C     17.913275   16.822682   17.363222
  C     17.375118   18.029244   17.047125
  C     16.741868   18.467391   15.742520
  N     17.477755   19.092831   17.948908
  C     18.256124   19.091735   19.075760
  S     18.429385   20.440996   20.015823
  N     18.884246   17.911765   19.382414
  C     18.641733   16.625917   18.700659
  C     17.893425   15.658231   19.616072
  C     18.291966   14.311033   19.698300
  C     17.604729   13.407571   20.525732
  C     16.508088   13.853422   21.282213
  C     16.107956   15.194004   21.206560
  O     15.043794   15.626296   21.928572
  C     16.794235   16.091312   20.382228
  H     15.928102   14.173410   17.682519
  H     14.239640   14.674709   17.496197
  H     15.439292   15.861403   18.008660
  H     15.103748   14.565160   15.247682
  H     14.980702   16.278118   15.636485
  H     17.105677   17.882264   14.889785
  H     16.984238   19.512794   15.512728
  H     15.650240   18.385720   15.784240
  H     17.033072   19.971616   17.735375
  H     19.437569   17.929912   20.229740
  H     19.625172   16.184868   18.480576
  H     19.132200   13.958294   19.104009
  H     17.921362   12.367036   20.573360
  H     15.972914   13.158132   21.920420
  H     14.740390   14.883237   22.471701
  H     16.462980   17.123395   20.340576

 Total Charge           Charge          ....    0
 Multiplicity           Mult            ....    1
 Number of Electrons    NEL             ....  154
 Basis Dimension        Dim             ....  828

ORBITAL ENERGIES
----------------

  NO   OCC          E(Eh)            E(eV)
   0   2.0000     -91.890979     -2500.4807
   1   2.0000     -20.596492      -560.4590
   2   2.0000     -20.588652      -560.2457
   3   2.0000     -20.551440      -559.2331
   4   2.0000     -15.630590      -425.3300
   5   2.0000     -15.609803      -424.7643
   6   2.0000     -11.397604      -310.1446
   7   2.0000     -11.386248      -309.8356
   8   2.0000     -11.338769      -308.5436
   9   2.0000     -11.312759      -307.8358
  10   2.0000     -11.309922      -307.7586
  11   2.0000     -11.309207      -307.7392
  12   2.0000     -11.266094      -306.5660
  13   2.0000     -11.265193      -306.5415
  14   2.0000     -11.258990      -306.3727
  15   2.0000     -11.252751      -306.2029
  16   2.0000     -11.242466      -305.9231
  17   2.0000     -11.238127      -305.8050
  18   2.0000     -11.234251      -305.6995
  19   2.0000     -11.231163      -305.6155
  20   2.0000      -8.896051      -242.0739
  21   2.0000      -6.577630      -178.9864
  22   2.0000      -6.575616      -178.9316
  23   2.0000      -6.575030      -178.9157
  24   2.0000      -1.445289       -39.3283
  25   2.0000      -1.416310       -38.5398
  26   2.0000      -1.356260       -36.9057
  27   2.0000      -1.342793       -36.5393
  28   2.0000      -1.240517       -33.7562
  29   2.0000      -1.156961       -31.4825
  30   2.0000      -1.122777       -30.5523
  31   2.0000      -1.045188       -28.4410
  32   2.0000      -1.036294       -28.1990
  33   2.0000      -1.015306       -27.6279
  34   2.0000      -1.004406       -27.3313
  35   2.0000      -0.988557       -26.9000
  36   2.0000      -0.926569       -25.2132
  37   2.0000      -0.898722       -24.4555
  38   2.0000      -0.853554       -23.2264
  39   2.0000      -0.840534       -22.8721
  40   2.0000      -0.832988       -22.6668
  41   2.0000      -0.824595       -22.4384
  42   2.0000      -0.744506       -20.2590
  43   2.0000      -0.731264       -19.8987
  44   2.0000      -0.729523       -19.8513
  45   2.0000      -0.694169       -18.8893
  46   2.0000      -0.686990       -18.6940
  47   2.0000      -0.680611       -18.5204
  48   2.0000      -0.674712       -18.3598
  49   2.0000      -0.663164       -18.0456
  50   2.0000      -0.654094       -17.7988
  51   2.0000      -0.650606       -17.7039
  52   2.0000      -0.640175       -17.4201
  53   2.0000      -0.626178       -17.0392
  54   2.0000      -0.607730       -16.5372
  55   2.0000      -0.604435       -16.4475
  56   2.0000      -0.600488       -16.3401
  57   2.0000      -0.584048       -15.8928
  58   2.0000      -0.574877       -15.6432
  59   2.0000      -0.564695       -15.3661
  60   2.0000      -0.558275       -15.1914
  61   2.0000      -0.547559       -14.8998
  62   2.0000      -0.540889       -14.7183
  63   2.0000      -0.536074       -14.5873
  64   2.0000      -0.520833       -14.1726
  65   2.0000      -0.512638       -13.9496
  66   2.0000      -0.500160       -13.6101
  67   2.0000      -0.489036       -13.3074
  68   2.0000      -0.487377       -13.2622
  69   2.0000      -0.471542       -12.8313
  70   2.0000      -0.456822       -12.4308
  71   2.0000      -0.448721       -12.2103
  72   2.0000      -0.358241        -9.7482
  73   2.0000      -0.347539        -9.4570
  74   2.0000      -0.330253        -8.9866
  75   2.0000      -0.321369        -8.7449
  76   2.0000      -0.318512        -8.6672
  77   0.0000       0.072281         1.9669
  78   0.0000       0.107130         2.9152
  79   0.0000       0.117033         3.1846
  80   0.0000       0.131677         3.5831
  81   0.0000       0.135390         3.6841

MULLIKEN ATOMIC CHARGES
-----------------------
   0 C :   -0.339439
   1 C :    0.037313
   2 O :   -0.363583
   3 C :    0.477503
   4 O :   -0.389277
   5 C :   -0.254665
   6 C :    0.183572
   7 C :   -0.338309
   8 N :   -0.128931
   9 C :    0.189549
  10 S :   -0.436619
  11 N :   -0.207498
  12 C :    0.058558
  13 C :    0.041231
  14 C :   -0.200811
  15 C :   -0.134551
  16 C :   -0.277496
  17 C :    0.319652
  18 O :   -0.358432
  19 C :   -0.280975
  20 H :    0.128555
  21 H :    0.118073
  22 H :    0.109509
  23 H :    0.124308
  24 H :    0.087898
  25 H :    0.147830
  26 H :    0.125577
  27 H :    0.121742
  28 H :    0.198082
  29 H :    0.196833
  30 H :    0.162217
  31 H :    0.170704
  32 H :    0.163485
  33 H :    0.131162
  34 H :    0.240798
  35 H :    0.176433
Sum of atomic charges:    0.0000000

LOEWDIN ATOMIC CHARGES
----------------------
   0 C :    0.106595
   1 C :   -0.015325
   2 O :    0.285829
   3 C :   -0.420715
   4 O :    0.126417
   5 C :   -0.088306
   6 C :   -0.076443
   7 C :    0.126746
   8 N :    0.404523
   9 C :   -0.460838
  10 S :   -0.034580
  11 N :    0.397785
  12 C :   -0.044767
  13 C :   -0.041319
  14 C :    0.020854
  15 C :    0.041508
  16 C :   -0.002008
  17 C :   -0.193555
  18 O :    0.394488
  19 C :    0.028410
  20 H :   -0.018659
  21 H :   -0.022212
  22 H :   -0.034227
  23 H :   -0.021755
  24 H :   -0.037916
  25 H :   -0.007264
  26 H :   -0.013681
  27 H :   -0.018552
  28 H :   -0.057418
  29 H :   -0.063141
  30 H :   -0.002772
  31 H :   -0.023159
  32 H :   -0.019649
  33 H :   -0.035411
  34 H :   -0.153847
  35 H :   -0.025635

  Mayer bond orders larger than 0.100000
B(  0-C ,  1-C ) :   0.9615 B(  0-C , 20-H ) :   0.9655 B(  0-C , 21-H ) :   0.9756
B(  0-C , 22-H ) :   0.9711 B(  1-C ,  2-O ) :   0.8983 B(  1-C , 23-H ) :   0.9823
B(  1-C , 24-H ) :   0.9760 B(  2-O ,  3-C ) :   1.1316 B(  3-C ,  4-O ) :   2.0611
B(  3-C ,  5-C ) :   0.9707 B(  5-C ,  6-C ) :   1.6589 B(  5-C , 12-C ) :   0.9607
B(  6-C ,  7-C ) :   0.9418 B(  6-C ,  8-N ) :   1.1301 B(  7-C , 25-H ) :   0.9685
B(  7-C , 26-H ) :   0.9820 B(  7-C , 27-H ) :   0.9665 B(  8-N ,  9-C ) :   1.1841
B(  8-N , 28-H ) :   0.9506 B(  9-C , 10-S ) :   1.6143 B(  9-C , 11-N ) :   1.2974
B( 11-N , 12-C ) :   0.9870 B( 11-N , 29-H ) :   0.9511 B( 12-C , 13-C ) :   0.9489
B( 12-C , 30-H ) :   0.9982 B( 13-C , 14-C ) :   1.3854 B( 13-C , 19-C ) :   1.3420
B( 14-C , 15-C ) :   1.3966 B( 14-C , 31-H ) :   0.9589 B( 15-C , 16-C ) :   1.3608
B( 15-C , 32-H ) :   0.9703 B( 16-C , 17-C ) :   1.3310 B( 16-C , 33-H ) :   0.9849
B( 17-C , 18-O ) :   1.1113 B( 17-C , 19-C ) :   1.3679 B( 18-O , 34-H ) :   0.9800
B( 19-C , 35-H ) :   0.9582

MP2 TOTAL ENERGY:    -1274.330571710 Eh
FINAL SINGLE POINT ENERGY     -1274.330571709926

DIPOLE MOMENT
-------------
                                X             Y             Z
Electronic contribution:      9.58896       7.20731       6.19329
Nuclear contribution   :    -11.17293      -8.20719      -6.75625
                        -----------------------------------------
Total Dipole Moment    :     -1.58397      -0.99988      -0.56296
                        -----------------------------------------
Magnitude (a.u.)       :      1.95592
Magnitude (Debye)      :      4.97155

Rotational constants in cm-1:     0.011401     0.009859     0.006743
Rotational constants in MHz :   341.795186   295.559985   202.162285

                             ****ORCA TERMINATED NORMALLY****
TOTAL RUN TIME: 0 days 2 hours 14 minutes 42 seconds 867 msec
