                         Program Version 5.0.0 -  RELEASE  -
|  1> ! ri-mp2 cc-pvtz cc-pvtz/c TightSCF NoKeepInts
|  2>
|  3> %scf
|  4>   MaxCore 4096
|  5> end
|  6> *xyz  0  1
|  7>     C       14.8352574   15.3404442   17.0876382
|  8>     C       15.8041899   14.7643877   16.0387186
|  9>     O       16.7548675   15.7800205   15.6669700
| 10>     C       17.9203539   15.8590182   16.3720960
| 11>     O       18.6254755   14.8736437   16.5081443
| 12>     C       17.9246110   16.9660860   17.3845438
| 13>     C       17.3165403   18.1642315   17.1941217
| 14>     C       16.5613302   18.6302314   15.9666127
| 15>     N       17.4390908   19.1664215   18.1615956
| 16>     C       18.2862846   19.1122566   19.2374156
| 17>     S       18.4818995   20.3985020   20.2583085
| 18>     N       18.9631972   17.9329299   19.4242901
| 19>     C       18.7102160   16.6889903   18.6714818
| 20>     C       17.9906198   15.6636608   19.5460938
| 21>     C       18.4425982   14.3319781   19.5971901
| 22>     C       17.7803243   13.3785262   20.3882785
| 23>     C       16.6543438   13.7581664   21.1379448
| 24>     C       16.1995501   15.0826260   21.0906693
| 25>     O       15.1065901   15.4507351   21.8053056
| 26>     C       16.8611288   16.0294353   20.3024425
| 27>     H       15.3700181   15.6338324   17.9973710
| 28>     H       14.0858843   14.5896889   17.3663518
| 29>     H       14.3080255   16.2170696   16.6933693
| 30>     H       16.3068198   13.8682702   16.4290130
| 31>     H       15.2288584   14.4682216   15.1522104
| 32>     H       15.5518428   18.2033841   15.9445985
| 33>     H       17.0759030   18.3213744   15.0480682
| 34>     H       16.4634747   19.7218817   15.9242216
| 35>     H       16.9525753   20.0402726   18.0393751
| 36>     H       19.5620133   17.9096138   20.2397801
| 37>     H       19.6861836   16.2699007   18.3862765
| 38>     H       19.3040551   14.0309036   19.0053445
| 39>     H       18.1384000   12.3508003   20.4129541
| 40>     H       16.1383652   13.0244219   21.7482460
| 41>     H       14.8269030   14.6819834   22.3247474
| 42>     H       16.4892090   17.0480896   20.2822111
| 43> *
| 44>
| 45>                          ****END OF INPUT****

CARTESIAN COORDINATES (ANGSTROEM)
---------------------------------
  C     14.835257   15.340444   17.087638
  C     15.804190   14.764388   16.038719
  O     16.754867   15.780020   15.666970
  C     17.920354   15.859018   16.372096
  O     18.625476   14.873644   16.508144
  C     17.924611   16.966086   17.384544
  C     17.316540   18.164231   17.194122
  C     16.561330   18.630231   15.966613
  N     17.439091   19.166421   18.161596
  C     18.286285   19.112257   19.237416
  S     18.481900   20.398502   20.258308
  N     18.963197   17.932930   19.424290
  C     18.710216   16.688990   18.671482
  C     17.990620   15.663661   19.546094
  C     18.442598   14.331978   19.597190
  C     17.780324   13.378526   20.388278
  C     16.654344   13.758166   21.137945
  C     16.199550   15.082626   21.090669
  O     15.106590   15.450735   21.805306
  C     16.861129   16.029435   20.302443
  H     15.370018   15.633832   17.997371
  H     14.085884   14.589689   17.366352
  H     14.308025   16.217070   16.693369
  H     16.306820   13.868270   16.429013
  H     15.228858   14.468222   15.152210
  H     15.551843   18.203384   15.944598
  H     17.075903   18.321374   15.048068
  H     16.463475   19.721882   15.924222
  H     16.952575   20.040273   18.039375
  H     19.562013   17.909614   20.239780
  H     19.686184   16.269901   18.386276
  H     19.304055   14.030904   19.005344
  H     18.138400   12.350800   20.412954
  H     16.138365   13.024422   21.748246
  H     14.826903   14.681983   22.324747
  H     16.489209   17.048090   20.282211

 Total Charge           Charge          ....    0
 Multiplicity           Mult            ....    1
 Number of Electrons    NEL             ....  154
 Basis Dimension        Dim             ....  828

ORBITAL ENERGIES
----------------

  NO   OCC          E(Eh)            E(eV)
   0   2.0000     -91.890040     -2500.4551
   1   2.0000     -20.595658      -560.4363
   2   2.0000     -20.585563      -560.1617
   3   2.0000     -20.554133      -559.3064
   4   2.0000     -15.629911      -425.3115
   5   2.0000     -15.608939      -424.7408
   6   2.0000     -11.395382      -310.0841
   7   2.0000     -11.385186      -309.8067
   8   2.0000     -11.335530      -308.4555
   9   2.0000     -11.311969      -307.8143
  10   2.0000     -11.309334      -307.7426
  11   2.0000     -11.300041      -307.4897
  12   2.0000     -11.261122      -306.4307
  13   2.0000     -11.260541      -306.4149
  14   2.0000     -11.258318      -306.3544
  15   2.0000     -11.252218      -306.1884
  16   2.0000     -11.241707      -305.9024
  17   2.0000     -11.237623      -305.7913
  18   2.0000     -11.234352      -305.7022
  19   2.0000     -11.227264      -305.5094
  20   2.0000      -8.895096      -242.0479
  21   2.0000      -6.576671      -178.9603
  22   2.0000      -6.574665      -178.9057
  23   2.0000      -6.574076      -178.8897
  24   2.0000      -1.452082       -39.5132
  25   2.0000      -1.415470       -38.5169
  26   2.0000      -1.356272       -36.9060
  27   2.0000      -1.340941       -36.4889
  28   2.0000      -1.238790       -33.7092
  29   2.0000      -1.156121       -31.4596
  30   2.0000      -1.121696       -30.5229
  31   2.0000      -1.044381       -28.4191
  32   2.0000      -1.033411       -28.1205
  33   2.0000      -1.013973       -27.5916
  34   2.0000      -1.000222       -27.2174
  35   2.0000      -0.986719       -26.8500
  36   2.0000      -0.924156       -25.1476
  37   2.0000      -0.890076       -24.2202
  38   2.0000      -0.848885       -23.0993
  39   2.0000      -0.838946       -22.8289
  40   2.0000      -0.832289       -22.6477
  41   2.0000      -0.819514       -22.3001
  42   2.0000      -0.755606       -20.5611
  43   2.0000      -0.735865       -20.0239
  44   2.0000      -0.728203       -19.8154
  45   2.0000      -0.694472       -18.8976
  46   2.0000      -0.686517       -18.6811
  47   2.0000      -0.676638       -18.4122
  48   2.0000      -0.676269       -18.4022
  49   2.0000      -0.660731       -17.9794
  50   2.0000      -0.653552       -17.7840
  51   2.0000      -0.646003       -17.5786
  52   2.0000      -0.637471       -17.3465
  53   2.0000      -0.606942       -16.5157
  54   2.0000      -0.603002       -16.4085
  55   2.0000      -0.599728       -16.3194
  56   2.0000      -0.592797       -16.1308
  57   2.0000      -0.585382       -15.9290
  58   2.0000      -0.575361       -15.6564
  59   2.0000      -0.566813       -15.4238
  60   2.0000      -0.562221       -15.2988
  61   2.0000      -0.551610       -15.0101
  62   2.0000      -0.545382       -14.8406
  63   2.0000      -0.521995       -14.2042
  64   2.0000      -0.519398       -14.1336
  65   2.0000      -0.512831       -13.9548
  66   2.0000      -0.500260       -13.6128
  67   2.0000      -0.496249       -13.5036
  68   2.0000      -0.482062       -13.1176
  69   2.0000      -0.464003       -12.6262
  70   2.0000      -0.458550       -12.4778
  71   2.0000      -0.451312       -12.2808
  72   2.0000      -0.355482        -9.6732
  73   2.0000      -0.347488        -9.4556
  74   2.0000      -0.329198        -8.9579
  75   2.0000      -0.319771        -8.7014
  76   2.0000      -0.316907        -8.6235
  77   0.0000       0.069611         1.8942
  78   0.0000       0.106403         2.8954
  79   0.0000       0.120049         3.2667
  80   0.0000       0.132517         3.6060
  81   0.0000       0.135887         3.6977

MULLIKEN ATOMIC CHARGES
-----------------------
   0 C :   -0.310029
   1 C :    0.040679
   2 O :   -0.377190
   3 C :    0.481823
   4 O :   -0.405988
   5 C :   -0.224458
   6 C :    0.159205
   7 C :   -0.284403
   8 N :   -0.123834
   9 C :    0.190818
  10 S :   -0.436109
  11 N :   -0.202307
  12 C :    0.054114
  13 C :    0.054650
  14 C :   -0.184432
  15 C :   -0.136111
  16 C :   -0.276675
  17 C :    0.326189
  18 O :   -0.359916
  19 C :   -0.303096
  20 H :    0.115312
  21 H :    0.112165
  22 H :    0.091325
  23 H :    0.109052
  24 H :    0.107771
  25 H :    0.124377
  26 H :    0.126773
  27 H :    0.106271
  28 H :    0.197726
  29 H :    0.194535
  30 H :    0.158632
  31 H :    0.164845
  32 H :    0.162128
  33 H :    0.130954
  34 H :    0.240390
  35 H :    0.174819
Sum of atomic charges:   -0.0000000

LOEWDIN ATOMIC CHARGES
----------------------
   0 C :    0.105150
   1 C :   -0.015077
   2 O :    0.288530
   3 C :   -0.415534
   4 O :    0.125239
   5 C :   -0.094145
   6 C :   -0.070334
   7 C :    0.126728
   8 N :    0.405411
   9 C :   -0.459270
  10 S :   -0.034411
  11 N :    0.397172
  12 C :   -0.045104
  13 C :   -0.041440
  14 C :    0.020818
  15 C :    0.041222
  16 C :   -0.002280
  17 C :   -0.193925
  18 O :    0.394434
  19 C :    0.028299
  20 H :   -0.029976
  21 H :   -0.023687
  22 H :   -0.033106
  23 H :   -0.026011
  24 H :   -0.024762
  25 H :   -0.012793
  26 H :   -0.007121
  27 H :   -0.019354
  28 H :   -0.058518
  29 H :   -0.063982
  30 H :   -0.003463
  31 H :   -0.023838
  32 H :   -0.020157
  33 H :   -0.035647
  34 H :   -0.154042
  35 H :   -0.025025

  Mayer bond orders larger than 0.100000
B(  0-C ,  1-C ) :   0.9633 B(  0-C , 20-H ) :   0.9690 B(  0-C , 21-H ) :   0.9794
B(  0-C , 22-H ) :   0.9793 B(  1-C ,  2-O ) :   0.8892 B(  1-C , 23-H ) :   0.9736
B(  1-C , 24-H ) :   0.9851 B(  2-O ,  3-C ) :   1.0988 B(  3-C ,  4-O ) :   2.0179
B(  3-C ,  5-C ) :   1.0237 B(  5-C ,  6-C ) :   1.6599 B(  5-C , 12-C ) :   0.9580
B(  6-C ,  7-C ) :   0.9551 B(  6-C ,  8-N ) :   1.1385 B(  7-C , 25-H ) :   0.9637
B(  7-C , 26-H ) :   0.9686 B(  7-C , 27-H ) :   0.9883 B(  8-N ,  9-C ) :   1.1816
B(  8-N , 28-H ) :   0.9494 B(  9-C , 10-S ) :   1.6159 B(  9-C , 11-N ) :   1.2977
B( 11-N , 12-C ) :   0.9878 B( 11-N , 29-H ) :   0.9517 B( 12-C , 13-C ) :   0.9477
B( 12-C , 30-H ) :   0.9986 B( 13-C , 14-C ) :   1.3834 B( 13-C , 19-C ) :   1.3475
B( 14-C , 15-C ) :   1.3969 B( 14-C , 31-H ) :   0.9598 B( 15-C , 16-C ) :   1.3623
B( 15-C , 32-H ) :   0.9706 B( 16-C , 17-C ) :   1.3315 B( 16-C , 33-H ) :   0.9847
B( 17-C , 18-O ) :   1.1093 B( 17-C , 19-C ) :   1.3682 B( 18-O , 34-H ) :   0.9804
B( 19-C , 35-H ) :   0.9594

MP2 TOTAL ENERGY:    -1274.328589065 Eh
FINAL SINGLE POINT ENERGY     -1274.328589065059

DIPOLE MOMENT
-------------
                                X             Y             Z
Electronic contribution:     10.29670       7.73961       6.50461
Nuclear contribution   :    -11.59166      -9.01580      -7.20530
                        -----------------------------------------
Total Dipole Moment    :     -1.29496      -1.27619      -0.70069
                        -----------------------------------------
Magnitude (a.u.)       :      1.94847
Magnitude (Debye)      :      4.95263

Rotational constants in cm-1:     0.011513     0.009690     0.006814
Rotational constants in MHz :   345.145893   290.511711   204.283844

                             ****ORCA TERMINATED NORMALLY****
TOTAL RUN TIME: 0 days 2 hours 58 minutes 11 seconds 734 msec
