                         Program Version 5.0.0 -  RELEASE  -
|  1> ! ri-mp2 cc-pvtz cc-pvtz/c TightSCF NoKeepInts
|  2>
|  3> %scf
|  4>   MaxCore 4096
|  5> end
|  6> *xyz  0  1
|  7>     C       14.9714467   16.2012748   17.3413642
|  8>     C       15.5266299   14.9002588   16.7266718
|  9>     O       16.9351984   14.8282369   16.3662517
| 10>     C       18.0163725   15.6707675   16.5033611
| 11>     O       19.1237868   15.2437299   16.2353767
| 12>     C       17.9002021   16.8592008   17.3873158
| 13>     C       17.4940607   18.0533808   16.9038662
| 14>     C       17.0736165   18.3474685   15.4797201
| 15>     N       17.5064053   19.1793837   17.7292430
| 16>     C       17.9609968   19.1914490   19.0227163
| 17>     S       17.9294959   20.5660990   19.9412240
| 18>     N       18.4429811   18.0054275   19.5218610
| 19>     C       18.4864721   16.7199651   18.7949392
| 20>     C       17.8506540   15.5782466   19.5893810
| 21>     C       18.3385080   14.2669807   19.4336019
| 22>     C       17.7670793   13.1972536   20.1419615
| 23>     C       16.6981044   13.4376312   21.0209109
| 24>     C       16.2105122   14.7406525   21.1848713
| 25>     O       15.1736296   14.9760582   22.0273963
| 26>     C       16.7812477   15.8041582   20.4782495
| 27>     H       15.4886628   16.4882032   18.2593340
| 28>     H       13.9190425   16.0507996   17.6116947
| 29>     H       14.9948612   17.0263954   16.6242861
| 30>     H       15.3358541   14.0946649   17.4481637
| 31>     H       14.9328280   14.6601516   15.8352570
| 32>     H       16.7603951   17.4428162   14.9443494
| 33>     H       17.9088372   18.7851507   14.9180243
| 34>     H       16.2345572   19.0531959   15.4440922
| 35>     H       17.1829592   20.0655681   17.3744581
| 36>     H       18.7615067   18.0438928   20.4819752
| 37>     H       19.5481538   16.4615180   18.6660751
| 38>     H       19.1606547   14.0736116   18.7471236
| 39>     H       18.1527407   12.1883030   20.0048688
| 40>     H       16.2529346   12.6138024   21.5690581
| 41>     H       14.9489241   14.1354917   22.4544574
| 42>     H       16.3766884   16.8008115   20.6204989
| 43> *
| 44>
| 45>                          ****END OF INPUT****

CARTESIAN COORDINATES (ANGSTROEM)
---------------------------------
  C     14.971447   16.201275   17.341364
  C     15.526630   14.900259   16.726672
  O     16.935198   14.828237   16.366252
  C     18.016372   15.670767   16.503361
  O     19.123787   15.243730   16.235377
  C     17.900202   16.859201   17.387316
  C     17.494061   18.053381   16.903866
  C     17.073616   18.347469   15.479720
  N     17.506405   19.179384   17.729243
  C     17.960997   19.191449   19.022716
  S     17.929496   20.566099   19.941224
  N     18.442981   18.005427   19.521861
  C     18.486472   16.719965   18.794939
  C     17.850654   15.578247   19.589381
  C     18.338508   14.266981   19.433602
  C     17.767079   13.197254   20.141961
  C     16.698104   13.437631   21.020911
  C     16.210512   14.740652   21.184871
  O     15.173630   14.976058   22.027396
  C     16.781248   15.804158   20.478250
  H     15.488663   16.488203   18.259334
  H     13.919042   16.050800   17.611695
  H     14.994861   17.026395   16.624286
  H     15.335854   14.094665   17.448164
  H     14.932828   14.660152   15.835257
  H     16.760395   17.442816   14.944349
  H     17.908837   18.785151   14.918024
  H     16.234557   19.053196   15.444092
  H     17.182959   20.065568   17.374458
  H     18.761507   18.043893   20.481975
  H     19.548154   16.461518   18.666075
  H     19.160655   14.073612   18.747124
  H     18.152741   12.188303   20.004869
  H     16.252935   12.613802   21.569058
  H     14.948924   14.135492   22.454457
  H     16.376688   16.800811   20.620499

 Total Charge           Charge          ....    0
 Multiplicity           Mult            ....    1
 Number of Electrons    NEL             ....  154
 Basis Dimension        Dim             ....  828

ORBITAL ENERGIES
----------------

  NO   OCC          E(Eh)            E(eV)
   0   2.0000     -91.889105     -2500.4297
   1   2.0000     -20.600748      -560.5748
   2   2.0000     -20.597519      -560.4870
   3   2.0000     -20.549720      -559.1863
   4   2.0000     -15.624446      -425.1628
   5   2.0000     -15.612012      -424.8244
   6   2.0000     -11.400334      -310.2189
   7   2.0000     -11.386313      -309.8373
   8   2.0000     -11.322448      -308.0995
   9   2.0000     -11.317812      -307.9733
  10   2.0000     -11.317418      -307.9626
  11   2.0000     -11.311518      -307.8020
  12   2.0000     -11.267206      -306.5963
  13   2.0000     -11.267004      -306.5908
  14   2.0000     -11.261109      -306.4304
  15   2.0000     -11.257827      -306.3411
  16   2.0000     -11.246780      -306.0405
  17   2.0000     -11.243563      -305.9529
  18   2.0000     -11.239822      -305.8511
  19   2.0000     -11.236857      -305.7704
  20   2.0000      -8.894233      -242.0244
  21   2.0000      -6.575827      -178.9373
  22   2.0000      -6.573795      -178.8821
  23   2.0000      -6.573226      -178.8666
  24   2.0000      -1.442076       -39.2409
  25   2.0000      -1.420562       -38.6555
  26   2.0000      -1.354200       -36.8497
  27   2.0000      -1.338091       -36.4113
  28   2.0000      -1.238988       -33.7146
  29   2.0000      -1.161794       -31.6140
  30   2.0000      -1.124920       -30.6106
  31   2.0000      -1.049101       -28.5475
  32   2.0000      -1.041760       -28.3477
  33   2.0000      -1.020341       -27.7649
  34   2.0000      -1.004747       -27.3406
  35   2.0000      -0.990154       -26.9435
  36   2.0000      -0.927843       -25.2479
  37   2.0000      -0.903451       -24.5841
  38   2.0000      -0.852160       -23.1884
  39   2.0000      -0.841155       -22.8890
  40   2.0000      -0.836656       -22.7666
  41   2.0000      -0.829917       -22.5832
  42   2.0000      -0.746262       -20.3068
  43   2.0000      -0.733984       -19.9727
  44   2.0000      -0.728698       -19.8289
  45   2.0000      -0.698125       -18.9969
  46   2.0000      -0.685881       -18.6638
  47   2.0000      -0.676142       -18.3988
  48   2.0000      -0.675481       -18.3808
  49   2.0000      -0.663131       -18.0447
  50   2.0000      -0.657540       -17.8926
  51   2.0000      -0.653712       -17.7884
  52   2.0000      -0.638587       -17.3768
  53   2.0000      -0.613452       -16.6929
  54   2.0000      -0.607668       -16.5355
  55   2.0000      -0.604986       -16.4625
  56   2.0000      -0.602795       -16.4029
  57   2.0000      -0.591974       -16.1084
  58   2.0000      -0.583959       -15.8903
  59   2.0000      -0.577018       -15.7014
  60   2.0000      -0.567059       -15.4305
  61   2.0000      -0.557672       -15.1750
  62   2.0000      -0.543417       -14.7871
  63   2.0000      -0.531696       -14.4682
  64   2.0000      -0.517295       -14.0763
  65   2.0000      -0.513427       -13.9711
  66   2.0000      -0.503108       -13.6903
  67   2.0000      -0.500976       -13.6323
  68   2.0000      -0.487536       -13.2665
  69   2.0000      -0.467224       -12.7138
  70   2.0000      -0.452378       -12.3098
  71   2.0000      -0.448299       -12.1988
  72   2.0000      -0.355168        -9.6646
  73   2.0000      -0.349155        -9.5010
  74   2.0000      -0.328921        -8.9504
  75   2.0000      -0.325060        -8.8453
  76   2.0000      -0.317576        -8.6417
  77   0.0000       0.094912         2.5827
  78   0.0000       0.105610         2.8738
  79   0.0000       0.114582         3.1179
  80   0.0000       0.126182         3.4336
  81   0.0000       0.128724         3.5028

MULLIKEN ATOMIC CHARGES
-----------------------
   0 C :   -0.348855
   1 C :    0.052647
   2 O :   -0.334056
   3 C :    0.385370
   4 O :   -0.379049
   5 C :   -0.183558
   6 C :    0.141659
   7 C :   -0.318874
   8 N :   -0.140969
   9 C :    0.216009
  10 S :   -0.445128
  11 N :   -0.238637
  12 C :    0.121242
  13 C :    0.004702
  14 C :   -0.214189
  15 C :   -0.133720
  16 C :   -0.277758
  17 C :    0.325088
  18 O :   -0.355882
  19 C :   -0.282818
  20 H :    0.122057
  21 H :    0.130432
  22 H :    0.097925
  23 H :    0.109179
  24 H :    0.112602
  25 H :    0.112570
  26 H :    0.151802
  27 H :    0.109231
  28 H :    0.195129
  29 H :    0.205810
  30 H :    0.165268
  31 H :    0.170413
  32 H :    0.165363
  33 H :    0.132623
  34 H :    0.241715
  35 H :    0.184657
Sum of atomic charges:    0.0000000

LOEWDIN ATOMIC CHARGES
----------------------
   0 C :    0.104620
   1 C :   -0.011434
   2 O :    0.295435
   3 C :   -0.420511
   4 O :    0.125788
   5 C :   -0.081088
   6 C :   -0.106818
   7 C :    0.123261
   8 N :    0.401963
   9 C :   -0.453647
  10 S :   -0.040281
  11 N :    0.397739
  12 C :   -0.042523
  13 C :   -0.041123
  14 C :    0.024090
  15 C :    0.045186
  16 C :   -0.001363
  17 C :   -0.193759
  18 O :    0.395344
  19 C :    0.024108
  20 H :   -0.032291
  21 H :   -0.018256
  22 H :   -0.032747
  23 H :   -0.021297
  24 H :   -0.024341
  25 H :   -0.011607
  26 H :   -0.006721
  27 H :   -0.017878
  28 H :   -0.059110
  29 H :   -0.064696
  30 H :   -0.003535
  31 H :   -0.020998
  32 H :   -0.017861
  33 H :   -0.034629
  34 H :   -0.152902
  35 H :   -0.026119

  Mayer bond orders larger than 0.100000
B(  0-C ,  1-C ) :   0.9613 B(  0-C , 20-H ) :   0.9666 B(  0-C , 21-H ) :   0.9765
B(  0-C , 22-H ) :   0.9766 B(  1-C ,  2-O ) :   0.9110 B(  1-C , 23-H ) :   0.9740
B(  1-C , 24-H ) :   0.9804 B(  2-O ,  3-C ) :   1.1634 B(  3-C ,  4-O ) :   2.0927
B(  3-C ,  5-C ) :   0.9266 B(  5-C ,  6-C ) :   1.7016 B(  5-C , 12-C ) :   0.9446
B(  6-C ,  7-C ) :   0.9456 B(  6-C ,  8-N ) :   1.1120 B(  7-C , 25-H ) :   0.9813
B(  7-C , 26-H ) :   0.9641 B(  7-C , 27-H ) :   0.9748 B(  8-N ,  9-C ) :   1.2059
B(  8-N , 28-H ) :   0.9525 B(  9-C , 10-S ) :   1.6017 B(  9-C , 11-N ) :   1.2861
B( 11-N , 12-C ) :   0.9876 B( 11-N , 29-H ) :   0.9437 B( 12-C , 13-C ) :   0.9543
B( 12-C , 30-H ) :   0.9943 B( 13-C , 14-C ) :   1.3903 B( 13-C , 19-C ) :   1.3348
B( 14-C , 15-C ) :   1.4053 B( 14-C , 31-H ) :   0.9617 B( 15-C , 16-C ) :   1.3546
B( 15-C , 32-H ) :   0.9691 B( 16-C , 17-C ) :   1.3342 B( 16-C , 33-H ) :   0.9846
B( 17-C , 18-O ) :   1.1089 B( 17-C , 19-C ) :   1.3646 B( 18-O , 34-H ) :   0.9790
B( 19-C , 35-H ) :   0.9539

MP2 TOTAL ENERGY:    -1274.317258424 Eh
FINAL SINGLE POINT ENERGY     -1274.317258424033

DIPOLE MOMENT
-------------
                                X             Y             Z
Electronic contribution:      8.87366       5.28031       6.44694
Nuclear contribution   :    -10.39539      -6.58711      -6.94565
                        -----------------------------------------
Total Dipole Moment    :     -1.52174      -1.30680      -0.49871
                        -----------------------------------------
Magnitude (a.u.)       :      2.06691
Magnitude (Debye)      :      5.25367

Rotational constants in cm-1:     0.012559     0.009146     0.006726
Rotational constants in MHz :   376.510380   274.204558   201.630468

                             ****ORCA TERMINATED NORMALLY****
TOTAL RUN TIME: 0 days 2 hours 28 minutes 13 seconds 545 msec
