                         Program Version 5.0.0 -  RELEASE  -
|  1> ! ri-mp2 cc-pvtz cc-pvtz/c TightSCF NoKeepInts
|  2>
|  3> %scf
|  4>   MaxCore 4096
|  5> end
|  6> *xyz  0  1
|  7>     C       14.8820849   14.1676689   15.0043641
|  8>     C       15.3460697   14.6894644   16.3744769
|  9>     O       16.3414042   15.7009495   16.1345067
| 10>     C       17.5419741   15.6206024   16.7779391
| 11>     O       18.0697886   14.5467752   17.0159371
| 12>     C       17.8722786   16.8544449   17.5653328
| 13>     C       17.4566050   18.1058458   17.2407353
| 14>     C       16.6271727   18.5261424   16.0447984
| 15>     N       17.8652120   19.1962569   18.0153356
| 16>     C       18.7920224   19.1375947   19.0226709
| 17>     S       19.3110652   20.4966716   19.8094249
| 18>     N       19.2678041   17.8915765   19.3445619
| 19>     C       18.7461151   16.6226155   18.8025921
| 20>     C       17.9766194   15.8588788   19.8772568
| 21>     C       18.3226615   14.5324744   20.1948770
| 22>     C       17.6134859   13.8226776   21.1783170
| 23>     C       16.5475638   14.4436362   21.8512540
| 24>     C       16.1968861   15.7631703   21.5352220
| 25>     O       15.1633831   16.3632124   22.1779363
| 26>     C       16.9041487   16.4668188   20.5553698
| 27>     H       15.7225821   13.7191132   14.4597708
| 28>     H       14.4703162   14.9832060   14.3971323
| 29>     H       14.1057679   13.4026572   15.1265575
| 30>     H       14.4981334   15.1218256   16.9211180
| 31>     H       15.7431252   13.8532893   16.9666059
| 32>     H       16.9836128   18.0367281   15.1297127
| 33>     H       16.6653989   19.6073195   15.8644059
| 34>     H       15.5752178   18.2487435   16.1865512
| 35>     H       17.5281867   20.1195234   17.7937322
| 36>     H       19.9273424   17.8726471   20.1117889
| 37>     H       19.6075834   16.0121173   18.4952993
| 38>     H       19.1353273   14.0439240   19.6626667
| 39>     H       17.8880387   12.7951926   21.4102861
| 40>     H       15.9962153   13.8984752   22.6100683
| 41>     H       14.8375335   15.7414650   22.8458888
| 42>     H       16.6182733   17.4882955   20.3295066
| 43> *
| 44>
| 45>                          ****END OF INPUT****

CARTESIAN COORDINATES (ANGSTROEM)
---------------------------------
  C     14.882085   14.167669   15.004364
  C     15.346070   14.689464   16.374477
  O     16.341404   15.700950   16.134507
  C     17.541974   15.620602   16.777939
  O     18.069789   14.546775   17.015937
  C     17.872279   16.854445   17.565333
  C     17.456605   18.105846   17.240735
  C     16.627173   18.526142   16.044798
  N     17.865212   19.196257   18.015336
  C     18.792022   19.137595   19.022671
  S     19.311065   20.496672   19.809425
  N     19.267804   17.891576   19.344562
  C     18.746115   16.622615   18.802592
  C     17.976619   15.858879   19.877257
  C     18.322661   14.532474   20.194877
  C     17.613486   13.822678   21.178317
  C     16.547564   14.443636   21.851254
  C     16.196886   15.763170   21.535222
  O     15.163383   16.363212   22.177936
  C     16.904149   16.466819   20.555370
  H     15.722582   13.719113   14.459771
  H     14.470316   14.983206   14.397132
  H     14.105768   13.402657   15.126558
  H     14.498133   15.121826   16.921118
  H     15.743125   13.853289   16.966606
  H     16.983613   18.036728   15.129713
  H     16.665399   19.607319   15.864406
  H     15.575218   18.248743   16.186551
  H     17.528187   20.119523   17.793732
  H     19.927342   17.872647   20.111789
  H     19.607583   16.012117   18.495299
  H     19.135327   14.043924   19.662667
  H     17.888039   12.795193   21.410286
  H     15.996215   13.898475   22.610068
  H     14.837533   15.741465   22.845889
  H     16.618273   17.488295   20.329507

 Total Charge           Charge          ....    0
 Multiplicity           Mult            ....    1
 Number of Electrons    NEL             ....  154
 Basis Dimension        Dim             ....  828

ORBITAL ENERGIES
----------------

  NO   OCC          E(Eh)            E(eV)
   0   2.0000     -91.888313     -2500.4081
   1   2.0000     -20.593599      -560.3803
   2   2.0000     -20.593413      -560.3753
   3   2.0000     -20.550831      -559.2166
   4   2.0000     -15.628315      -425.2681
   5   2.0000     -15.607320      -424.6968
   6   2.0000     -11.395909      -310.0984
   7   2.0000     -11.383474      -309.7601
   8   2.0000     -11.334675      -308.4322
   9   2.0000     -11.309384      -307.7440
  10   2.0000     -11.306915      -307.6768
  11   2.0000     -11.299031      -307.4623
  12   2.0000     -11.260089      -306.4026
  13   2.0000     -11.259532      -306.3874
  14   2.0000     -11.255205      -306.2697
  15   2.0000     -11.249556      -306.1160
  16   2.0000     -11.239148      -305.8328
  17   2.0000     -11.235203      -305.7254
  18   2.0000     -11.232327      -305.6472
  19   2.0000     -11.228685      -305.5481
  20   2.0000      -8.893381      -242.0012
  21   2.0000      -6.574959      -178.9137
  22   2.0000      -6.572951      -178.8591
  23   2.0000      -6.572366      -178.8432
  24   2.0000      -1.453117       -39.5413
  25   2.0000      -1.413155       -38.4539
  26   2.0000      -1.357354       -36.9355
  27   2.0000      -1.339329       -36.4450
  28   2.0000      -1.237247       -33.6672
  29   2.0000      -1.153755       -31.3953
  30   2.0000      -1.120262       -30.4839
  31   2.0000      -1.043693       -28.4003
  32   2.0000      -1.035625       -28.1808
  33   2.0000      -1.011176       -27.5155
  34   2.0000      -0.998096       -27.1596
  35   2.0000      -0.983486       -26.7620
  36   2.0000      -0.921974       -25.0882
  37   2.0000      -0.885457       -24.0945
  38   2.0000      -0.847802       -23.0699
  39   2.0000      -0.836745       -22.7690
  40   2.0000      -0.829681       -22.5768
  41   2.0000      -0.822271       -22.3751
  42   2.0000      -0.758425       -20.6378
  43   2.0000      -0.735685       -20.0190
  44   2.0000      -0.726368       -19.7655
  45   2.0000      -0.691836       -18.8258
  46   2.0000      -0.685605       -18.6563
  47   2.0000      -0.680548       -18.5187
  48   2.0000      -0.673008       -18.3135
  49   2.0000      -0.656651       -17.8684
  50   2.0000      -0.647134       -17.6094
  51   2.0000      -0.641236       -17.4489
  52   2.0000      -0.627729       -17.0814
  53   2.0000      -0.619695       -16.8628
  54   2.0000      -0.601813       -16.3762
  55   2.0000      -0.601414       -16.3653
  56   2.0000      -0.596726       -16.2377
  57   2.0000      -0.580572       -15.7982
  58   2.0000      -0.574649       -15.6370
  59   2.0000      -0.563039       -15.3211
  60   2.0000      -0.561910       -15.2903
  61   2.0000      -0.547261       -14.8917
  62   2.0000      -0.533723       -14.5233
  63   2.0000      -0.523985       -14.2583
  64   2.0000      -0.518830       -14.1181
  65   2.0000      -0.510583       -13.8937
  66   2.0000      -0.501086       -13.6353
  67   2.0000      -0.496336       -13.5060
  68   2.0000      -0.481491       -13.1020
  69   2.0000      -0.463518       -12.6130
  70   2.0000      -0.459682       -12.5086
  71   2.0000      -0.452639       -12.3169
  72   2.0000      -0.353960        -9.6318
  73   2.0000      -0.345554        -9.4030
  74   2.0000      -0.327519        -8.9122
  75   2.0000      -0.316634        -8.6161
  76   2.0000      -0.315033        -8.5725
  77   0.0000       0.073561         2.0017
  78   0.0000       0.109348         2.9755
  79   0.0000       0.119987         3.2650
  80   0.0000       0.134592         3.6624
  81   0.0000       0.138172         3.7599

MULLIKEN ATOMIC CHARGES
-----------------------
   0 C :   -0.262176
   1 C :    0.036851
   2 O :   -0.365416
   3 C :    0.450483
   4 O :   -0.412177
   5 C :   -0.184801
   6 C :    0.142554
   7 C :   -0.283087
   8 N :   -0.124305
   9 C :    0.202172
  10 S :   -0.439695
  11 N :   -0.199097
  12 C :    0.044431
  13 C :    0.053630
  14 C :   -0.164413
  15 C :   -0.133759
  16 C :   -0.279750
  17 C :    0.311495
  18 O :   -0.358849
  19 C :   -0.274414
  20 H :    0.102257
  21 H :    0.090198
  22 H :    0.088688
  23 H :    0.095899
  24 H :    0.113431
  25 H :    0.125673
  26 H :    0.103444
  27 H :    0.125517
  28 H :    0.197082
  29 H :    0.193995
  30 H :    0.154286
  31 H :    0.154910
  32 H :    0.159978
  33 H :    0.128852
  34 H :    0.240352
  35 H :    0.165760
Sum of atomic charges:    0.0000000

LOEWDIN ATOMIC CHARGES
----------------------
   0 C :    0.105274
   1 C :   -0.012261
   2 O :    0.299569
   3 C :   -0.414988
   4 O :    0.114817
   5 C :   -0.092574
   6 C :   -0.070054
   7 C :    0.125379
   8 N :    0.404441
   9 C :   -0.458237
  10 S :   -0.036314
  11 N :    0.397406
  12 C :   -0.045898
  13 C :   -0.039424
  14 C :    0.021404
  15 C :    0.040760
  16 C :   -0.002300
  17 C :   -0.193002
  18 O :    0.393082
  19 C :    0.028220
  20 H :   -0.023707
  21 H :   -0.029777
  22 H :   -0.026803
  23 H :   -0.031573
  24 H :   -0.025892
  25 H :   -0.008185
  26 H :   -0.020229
  27 H :   -0.009984
  28 H :   -0.058914
  29 H :   -0.063887
  30 H :   -0.004814
  31 H :   -0.025074
  32 H :   -0.020947
  33 H :   -0.036168
  34 H :   -0.154611
  35 H :   -0.024736

  Mayer bond orders larger than 0.100000
B(  0-C ,  1-C ) :   0.9761 B(  0-C , 20-H ) :   0.9778 B(  0-C , 21-H ) :   0.9795
B(  0-C , 22-H ) :   0.9759 B(  1-C ,  2-O ) :   0.8845 B(  1-C , 23-H ) :   0.9780
B(  1-C , 24-H ) :   0.9717 B(  2-O ,  3-C ) :   1.1079 B(  3-C ,  4-O ) :   2.0077
B(  3-C ,  5-C ) :   1.0424 B(  5-C ,  6-C ) :   1.6607 B(  5-C , 12-C ) :   0.9649
B(  6-C ,  7-C ) :   0.9525 B(  6-C ,  8-N ) :   1.1413 B(  7-C , 25-H ) :   0.9686
B(  7-C , 26-H ) :   0.9896 B(  7-C , 27-H ) :   0.9637 B(  8-N ,  9-C ) :   1.1820
B(  8-N , 28-H ) :   0.9494 B(  9-C , 10-S ) :   1.6105 B(  9-C , 11-N ) :   1.3020
B( 11-N , 12-C ) :   0.9910 B( 11-N , 29-H ) :   0.9517 B( 12-C , 13-C ) :   0.9466
B( 12-C , 30-H ) :   0.9988 B( 13-C , 14-C ) :   1.3765 B( 13-C , 19-C ) :   1.3690
B( 14-C , 15-C ) :   1.3942 B( 14-C , 31-H ) :   0.9643 B( 15-C , 16-C ) :   1.3631
B( 15-C , 32-H ) :   0.9711 B( 16-C , 17-C ) :   1.3313 B( 16-C , 33-H ) :   0.9857
B( 17-C , 18-O ) :   1.1085 B( 17-C , 19-C ) :   1.3774 B( 18-O , 34-H ) :   0.9803
B( 19-C , 35-H ) :   0.9583

MP2 TOTAL ENERGY:    -1274.334380204 Eh
FINAL SINGLE POINT ENERGY     -1274.334380203883

DIPOLE MOMENT
-------------
                                X             Y             Z
Electronic contribution:     11.12480      10.10662      10.31630
Nuclear contribution   :    -12.64764     -11.37386     -10.99963
                        -----------------------------------------
Total Dipole Moment    :     -1.52284      -1.26724      -0.68334
                        -----------------------------------------
Magnitude (a.u.)       :      2.09568
Magnitude (Debye)      :      5.32680

Rotational constants in cm-1:     0.010706     0.009008     0.006006
Rotational constants in MHz :   320.958986   270.066781   180.048229

                             ****ORCA TERMINATED NORMALLY****
TOTAL RUN TIME: 0 days 1 hours 27 minutes 54 seconds 673 msec
