                         Program Version 5.0.0 -  RELEASE  -
|  1> ! ri-mp2 cc-pvtz cc-pvtz/c TightSCF NoKeepInts
|  2>
|  3> %scf
|  4>   MaxCore 4096
|  5> end
|  6> *xyz  0  1
|  7>     C       14.5622685   15.2516987   16.9516248
|  8>     C       15.7817117   14.7010451   16.1922816
|  9>     O       16.6228766   15.8196126   15.8583271
| 10>     C       17.8575513   15.8914287   16.4324611
| 11>     O       18.5670577   14.9037166   16.5282323
| 12>     C       17.9524077   17.0209562   17.4119913
| 13>     C       17.3562271   18.2263948   17.2345624
| 14>     C       16.5450999   18.6836801   16.0403150
| 15>     N       17.5257994   19.2327977   18.1901287
| 16>     C       18.3690047   19.1539804   19.2675458
| 17>     S       18.5922938   20.4317243   20.2936411
| 18>     N       19.0183762   17.9589028   19.4523843
| 19>     C       18.7684096   16.7304637   18.6743232
| 20>     C       18.0642534   15.6840473   19.5338412
| 21>     C       18.6098993   14.3954572   19.6799408
| 22>     C       17.9526432   13.4225684   20.4515646
| 23>     C       16.7370018   13.7390409   21.0814781
| 24>     C       16.1880455   15.0200448   20.9349568
| 25>     O       15.0082903   15.3256720   21.5313663
| 26>     C       16.8454159   15.9866912   20.1679323
| 27>     H       14.8752077   15.7464834   17.8796241
| 28>     H       13.8752811   14.4382770   17.2147978
| 29>     H       14.0162144   15.9772415   16.3363835
| 30>     H       16.3057239   13.9636352   16.8167925
| 31>     H       15.4501696   14.1997815   15.2738583
| 32>     H       15.5261733   18.2799872   16.0878278
| 33>     H       16.9980776   18.3392334   15.1022375
| 34>     H       16.4711379   19.7761753   15.9774021
| 35>     H       17.0583021   20.1174960   18.0718351
| 36>     H       19.6105845   17.9184330   20.2719329
| 37>     H       19.7420157   16.3263681   18.3611989
| 38>     H       19.5390028   14.1417315   19.1752083
| 39>     H       18.3826982   12.4275610   20.5516735
| 40>     H       16.2243893   12.9893540   21.6749904
| 41>     H       14.7434790   14.5579553   22.0601629
| 42>     H       16.4039094   16.9723630   20.0691757
| 43> *
| 44>
| 45>                          ****END OF INPUT****

CARTESIAN COORDINATES (ANGSTROEM)
---------------------------------
  C     14.562269   15.251699   16.951625
  C     15.781712   14.701045   16.192282
  O     16.622877   15.819613   15.858327
  C     17.857551   15.891429   16.432461
  O     18.567058   14.903717   16.528232
  C     17.952408   17.020956   17.411991
  C     17.356227   18.226395   17.234562
  C     16.545100   18.683680   16.040315
  N     17.525799   19.232798   18.190129
  C     18.369005   19.153980   19.267546
  S     18.592294   20.431724   20.293641
  N     19.018376   17.958903   19.452384
  C     18.768410   16.730464   18.674323
  C     18.064253   15.684047   19.533841
  C     18.609899   14.395457   19.679941
  C     17.952643   13.422568   20.451565
  C     16.737002   13.739041   21.081478
  C     16.188046   15.020045   20.934957
  O     15.008290   15.325672   21.531366
  C     16.845416   15.986691   20.167932
  H     14.875208   15.746483   17.879624
  H     13.875281   14.438277   17.214798
  H     14.016214   15.977241   16.336384
  H     16.305724   13.963635   16.816792
  H     15.450170   14.199782   15.273858
  H     15.526173   18.279987   16.087828
  H     16.998078   18.339233   15.102237
  H     16.471138   19.776175   15.977402
  H     17.058302   20.117496   18.071835
  H     19.610585   17.918433   20.271933
  H     19.742016   16.326368   18.361199
  H     19.539003   14.141732   19.175208
  H     18.382698   12.427561   20.551673
  H     16.224389   12.989354   21.674990
  H     14.743479   14.557955   22.060163
  H     16.403909   16.972363   20.069176

 Total Charge           Charge          ....    0
 Multiplicity           Mult            ....    1
 Number of Electrons    NEL             ....  154
 Basis Dimension        Dim             ....  828

ORBITAL ENERGIES
----------------

  NO   OCC          E(Eh)            E(eV)
   0   2.0000     -91.888782     -2500.4209
   1   2.0000     -20.596548      -560.4606
   2   2.0000     -20.588568      -560.2434
   3   2.0000     -20.553205      -559.2812
   4   2.0000     -15.628218      -425.2654
   5   2.0000     -15.608420      -424.7267
   6   2.0000     -11.394922      -310.0716
   7   2.0000     -11.384286      -309.7822
   8   2.0000     -11.332893      -308.3837
   9   2.0000     -11.312512      -307.8291
  10   2.0000     -11.308858      -307.7297
  11   2.0000     -11.298224      -307.4403
  12   2.0000     -11.259767      -306.3938
  13   2.0000     -11.259713      -306.3924
  14   2.0000     -11.258067      -306.3476
  15   2.0000     -11.252674      -306.2008
  16   2.0000     -11.242268      -305.9177
  17   2.0000     -11.238142      -305.8054
  18   2.0000     -11.235375      -305.7301
  19   2.0000     -11.228663      -305.5475
  20   2.0000      -8.893858      -242.0142
  21   2.0000      -6.575436      -178.9267
  22   2.0000      -6.573427      -178.8720
  23   2.0000      -6.572843      -178.8561
  24   2.0000      -1.452954       -39.5369
  25   2.0000      -1.416287       -38.5391
  26   2.0000      -1.356818       -36.9209
  27   2.0000      -1.339494       -36.4495
  28   2.0000      -1.237869       -33.6841
  29   2.0000      -1.156710       -31.4757
  30   2.0000      -1.121461       -30.5165
  31   2.0000      -1.044889       -28.4329
  32   2.0000      -1.034743       -28.1568
  33   2.0000      -1.014186       -27.5974
  34   2.0000      -0.999476       -27.1971
  35   2.0000      -0.985319       -26.8119
  36   2.0000      -0.923604       -25.1326
  37   2.0000      -0.887305       -24.1448
  38   2.0000      -0.847735       -23.0681
  39   2.0000      -0.838320       -22.8119
  40   2.0000      -0.832776       -22.6610
  41   2.0000      -0.819893       -22.3104
  42   2.0000      -0.757889       -20.6232
  43   2.0000      -0.736414       -20.0388
  44   2.0000      -0.728305       -19.8182
  45   2.0000      -0.694799       -18.9065
  46   2.0000      -0.685723       -18.6595
  47   2.0000      -0.678557       -18.4645
  48   2.0000      -0.676777       -18.4160
  49   2.0000      -0.660760       -17.9802
  50   2.0000      -0.652653       -17.7596
  51   2.0000      -0.645320       -17.5600
  52   2.0000      -0.636603       -17.3229
  53   2.0000      -0.605720       -16.4825
  54   2.0000      -0.603093       -16.4110
  55   2.0000      -0.600089       -16.3292
  56   2.0000      -0.591033       -16.0828
  57   2.0000      -0.580650       -15.8003
  58   2.0000      -0.576452       -15.6860
  59   2.0000      -0.569438       -15.4952
  60   2.0000      -0.561556       -15.2807
  61   2.0000      -0.552754       -15.0412
  62   2.0000      -0.543154       -14.7800
  63   2.0000      -0.521645       -14.1947
  64   2.0000      -0.516830       -14.0637
  65   2.0000      -0.511909       -13.9298
  66   2.0000      -0.501254       -13.6398
  67   2.0000      -0.498259       -13.5583
  68   2.0000      -0.483338       -13.1523
  69   2.0000      -0.464097       -12.6287
  70   2.0000      -0.457899       -12.4601
  71   2.0000      -0.453007       -12.3270
  72   2.0000      -0.353856        -9.6289
  73   2.0000      -0.348291        -9.4775
  74   2.0000      -0.328120        -8.9286
  75   2.0000      -0.319754        -8.7009
  76   2.0000      -0.315694        -8.5905
  77   0.0000       0.072330         1.9682
  78   0.0000       0.105032         2.8581
  79   0.0000       0.119695         3.2571
  80   0.0000       0.131638         3.5820
  81   0.0000       0.138648         3.7728

MULLIKEN ATOMIC CHARGES
-----------------------
   0 C :   -0.293798
   1 C :    0.041263
   2 O :   -0.370220
   3 C :    0.455200
   4 O :   -0.405687
   5 C :   -0.193543
   6 C :    0.139900
   7 C :   -0.283505
   8 N :   -0.124346
   9 C :    0.202288
  10 S :   -0.439790
  11 N :   -0.201263
  12 C :    0.053290
  13 C :    0.058384
  14 C :   -0.164599
  15 C :   -0.132946
  16 C :   -0.279433
  17 C :    0.329405
  18 O :   -0.361926
  19 C :   -0.318004
  20 H :    0.108198
  21 H :    0.105466
  22 H :    0.093084
  23 H :    0.108372
  24 H :    0.104485
  25 H :    0.126158
  26 H :    0.124147
  27 H :    0.105740
  28 H :    0.197176
  29 H :    0.194226
  30 H :    0.155284
  31 H :    0.156802
  32 H :    0.161389
  33 H :    0.130832
  34 H :    0.241071
  35 H :    0.176899
Sum of atomic charges:   -0.0000000

LOEWDIN ATOMIC CHARGES
----------------------
   0 C :    0.103512
   1 C :   -0.012354
   2 O :    0.295704
   3 C :   -0.416622
   4 O :    0.122458
   5 C :   -0.093679
   6 C :   -0.074711
   7 C :    0.126282
   8 N :    0.404222
   9 C :   -0.457467
  10 S :   -0.036438
  11 N :    0.397116
  12 C :   -0.045435
  13 C :   -0.040957
  14 C :    0.021800
  15 C :    0.041546
  16 C :   -0.002159
  17 C :   -0.194018
  18 O :    0.393649
  19 C :    0.028659
  20 H :   -0.027626
  21 H :   -0.024204
  22 H :   -0.031634
  23 H :   -0.024689
  24 H :   -0.028108
  25 H :   -0.010761
  26 H :   -0.007921
  27 H :   -0.019559
  28 H :   -0.058762
  29 H :   -0.064092
  30 H :   -0.004560
  31 H :   -0.024494
  32 H :   -0.020301
  33 H :   -0.035605
  34 H :   -0.153801
  35 H :   -0.024990

  Mayer bond orders larger than 0.100000
B(  0-C ,  1-C ) :   0.9673 B(  0-C , 20-H ) :   0.9724 B(  0-C , 21-H ) :   0.9790
B(  0-C , 22-H ) :   0.9789 B(  1-C ,  2-O ) :   0.8877 B(  1-C , 23-H ) :   0.9694
B(  1-C , 24-H ) :   0.9859 B(  2-O ,  3-C ) :   1.1077 B(  3-C ,  4-O ) :   2.0215
B(  3-C ,  5-C ) :   1.0233 B(  5-C ,  6-C ) :   1.6679 B(  5-C , 12-C ) :   0.9647
B(  6-C ,  7-C ) :   0.9543 B(  6-C ,  8-N ) :   1.1396 B(  7-C , 25-H ) :   0.9631
B(  7-C , 26-H ) :   0.9703 B(  7-C , 27-H ) :   0.9878 B(  8-N ,  9-C ) :   1.1847
B(  8-N , 28-H ) :   0.9497 B(  9-C , 10-S ) :   1.6111 B(  9-C , 11-N ) :   1.2993
B( 11-N , 12-C ) :   0.9933 B( 11-N , 29-H ) :   0.9517 B( 12-C , 13-C ) :   0.9448
B( 12-C , 30-H ) :   0.9982 B( 13-C , 14-C ) :   1.3780 B( 13-C , 19-C ) :   1.3537
B( 14-C , 15-C ) :   1.3943 B( 14-C , 31-H ) :   0.9635 B( 15-C , 16-C ) :   1.3638
B( 15-C , 32-H ) :   0.9708 B( 16-C , 17-C ) :   1.3316 B( 16-C , 33-H ) :   0.9847
B( 17-C , 18-O ) :   1.1052 B( 17-C , 19-C ) :   1.3660 B( 18-O , 34-H ) :   0.9804
B( 19-C , 35-H ) :   0.9560

MP2 TOTAL ENERGY:    -1274.329846707 Eh
FINAL SINGLE POINT ENERGY     -1274.329846707469

DIPOLE MOMENT
-------------
                                X             Y             Z
Electronic contribution:     10.80511       8.01799       6.63507
Nuclear contribution   :    -12.06787      -9.36175      -7.34021
                        -----------------------------------------
Total Dipole Moment    :     -1.26276      -1.34377      -0.70514
                        -----------------------------------------
Magnitude (a.u.)       :      1.97420
Magnitude (Debye)      :      5.01802

Rotational constants in cm-1:     0.011821     0.009290     0.006855
Rotational constants in MHz :   354.374526   278.513056   205.506378

                             ****ORCA TERMINATED NORMALLY****
TOTAL RUN TIME: 0 days 1 hours 39 minutes 53 seconds 678 msec
