                         Program Version 5.0.0 -  RELEASE  -
|  1> ! ri-mp2 cc-pvtz cc-pvtz/c TightSCF NoKeepInts
|  2>
|  3> %scf
|  4>   MaxCore 4096
|  5> end
|  6> *xyz  0  1
|  7>     C       16.0361523   13.0920295   17.2759559
|  8>     C       15.8520347   14.3500803   16.4117255
|  9>     O       17.0763205   15.1050528   16.4404063
| 10>     C       16.9914065   16.4458333   16.1971864
| 11>     O       16.2026753   16.8823622   15.3763535
| 12>     C       17.6395222   17.2854066   17.2640207
| 13>     C       17.5670695   18.6417787   17.2644574
| 14>     C       16.8394621   19.5247258   16.2728387
| 15>     N       18.2523192   19.3795923   18.2342755
| 16>     C       19.1514032   18.8542524   19.1231034
| 17>     S       20.0350981   19.8092141   20.1446238
| 18>     N       19.2952817   17.4906471   19.1105449
| 19>     C       18.4332956   16.5574354   18.3629545
| 20>     C       17.5545536   15.7984321   19.3542471
| 21>     C       18.0474557   14.6288947   19.9637208
| 22>     C       17.2724572   13.9282353   20.9033327
| 23>     C       15.9920297   14.4003722   21.2376489
| 24>     C       15.5004970   15.5688046   20.6400516
| 25>     O       14.2666926   16.0303067   20.9647074
| 26>     C       16.2757167   16.2673186   19.7092442
| 27>     H       16.9122846   12.5195803   16.9474362
| 28>     H       15.1542840   12.4445199   17.2013722
| 29>     H       16.1689312   13.3605440   18.3288794
| 30>     H       15.6026606   14.0768432   15.3778117
| 31>     H       15.0232838   14.9432787   16.8228956
| 32>     H       15.7621892   19.3154273   16.2885435
| 33>     H       17.1947167   19.3340335   15.2521182
| 34>     H       16.9717640   20.5944980   16.4727817
| 35>     H       18.1635457   20.3829910   18.2511178
| 36>     H       19.9427420   17.1313181   19.7997177
| 37>     H       19.0882013   15.8274244   17.8661287
| 38>     H       19.0377899   14.2618333   19.7078743
| 39>     H       17.6641785   13.0251046   21.3683751
| 40>     H       15.3890685   13.8626725   21.9620486
| 41>     H       13.9124254   15.4524141   21.6573822
| 42>     H       15.8774911   17.1787426   19.2781178
| 43> *
| 44>
| 45>                          ****END OF INPUT****

CARTESIAN COORDINATES (ANGSTROEM)
---------------------------------
  C     16.036152   13.092030   17.275956
  C     15.852035   14.350080   16.411725
  O     17.076321   15.105053   16.440406
  C     16.991407   16.445833   16.197186
  O     16.202675   16.882362   15.376353
  C     17.639522   17.285407   17.264021
  C     17.567069   18.641779   17.264457
  C     16.839462   19.524726   16.272839
  N     18.252319   19.379592   18.234275
  C     19.151403   18.854252   19.123103
  S     20.035098   19.809214   20.144624
  N     19.295282   17.490647   19.110545
  C     18.433296   16.557435   18.362955
  C     17.554554   15.798432   19.354247
  C     18.047456   14.628895   19.963721
  C     17.272457   13.928235   20.903333
  C     15.992030   14.400372   21.237649
  C     15.500497   15.568805   20.640052
  O     14.266693   16.030307   20.964707
  C     16.275717   16.267319   19.709244
  H     16.912285   12.519580   16.947436
  H     15.154284   12.444520   17.201372
  H     16.168931   13.360544   18.328879
  H     15.602661   14.076843   15.377812
  H     15.023284   14.943279   16.822896
  H     15.762189   19.315427   16.288543
  H     17.194717   19.334034   15.252118
  H     16.971764   20.594498   16.472782
  H     18.163546   20.382991   18.251118
  H     19.942742   17.131318   19.799718
  H     19.088201   15.827424   17.866129
  H     19.037790   14.261833   19.707874
  H     17.664178   13.025105   21.368375
  H     15.389069   13.862673   21.962049
  H     13.912425   15.452414   21.657382
  H     15.877491   17.178743   19.278118

 Total Charge           Charge          ....    0
 Multiplicity           Mult            ....    1
 Number of Electrons    NEL             ....  154
 Basis Dimension        Dim             ....  828

ORBITAL ENERGIES
----------------

  NO   OCC          E(Eh)            E(eV)
   0   2.0000     -91.889653     -2500.4446
   1   2.0000     -20.601078      -560.5838
   2   2.0000     -20.592175      -560.3416
   3   2.0000     -20.543619      -559.0203
   4   2.0000     -15.630322      -425.3227
   5   2.0000     -15.609016      -424.7429
   6   2.0000     -11.392909      -310.0168
   7   2.0000     -11.384654      -309.7922
   8   2.0000     -11.337536      -308.5100
   9   2.0000     -11.318492      -307.9918
  10   2.0000     -11.310992      -307.7878
  11   2.0000     -11.293740      -307.3183
  12   2.0000     -11.264390      -306.5196
  13   2.0000     -11.259740      -306.3931
  14   2.0000     -11.259634      -306.3902
  15   2.0000     -11.253131      -306.2133
  16   2.0000     -11.246358      -306.0290
  17   2.0000     -11.241398      -305.8940
  18   2.0000     -11.241350      -305.8927
  19   2.0000     -11.222775      -305.3872
  20   2.0000      -8.894701      -242.0371
  21   2.0000      -6.576273      -178.9495
  22   2.0000      -6.574270      -178.8950
  23   2.0000      -6.573683      -178.8790
  24   2.0000      -1.450468       -39.4692
  25   2.0000      -1.420693       -38.6590
  26   2.0000      -1.352380       -36.8001
  27   2.0000      -1.341403       -36.5014
  28   2.0000      -1.240022       -33.7427
  29   2.0000      -1.160892       -31.5895
  30   2.0000      -1.121361       -30.5138
  31   2.0000      -1.044935       -28.4341
  32   2.0000      -1.035129       -28.1673
  33   2.0000      -1.019300       -27.7366
  34   2.0000      -0.997498       -27.1433
  35   2.0000      -0.985053       -26.8047
  36   2.0000      -0.924647       -25.1609
  37   2.0000      -0.883501       -24.0413
  38   2.0000      -0.848871       -23.0990
  39   2.0000      -0.841087       -22.8872
  40   2.0000      -0.836052       -22.7501
  41   2.0000      -0.819572       -22.3017
  42   2.0000      -0.763021       -20.7628
  43   2.0000      -0.735268       -20.0077
  44   2.0000      -0.722003       -19.6467
  45   2.0000      -0.699057       -19.0223
  46   2.0000      -0.687888       -18.7184
  47   2.0000      -0.678432       -18.4611
  48   2.0000      -0.674918       -18.3655
  49   2.0000      -0.664666       -18.0865
  50   2.0000      -0.648060       -17.6346
  51   2.0000      -0.645591       -17.5674
  52   2.0000      -0.639098       -17.3907
  53   2.0000      -0.612577       -16.6691
  54   2.0000      -0.604206       -16.4413
  55   2.0000      -0.601179       -16.3589
  56   2.0000      -0.594469       -16.1763
  57   2.0000      -0.581020       -15.8104
  58   2.0000      -0.572217       -15.5708
  59   2.0000      -0.567009       -15.4291
  60   2.0000      -0.553194       -15.0532
  61   2.0000      -0.550666       -14.9844
  62   2.0000      -0.537919       -14.6375
  63   2.0000      -0.529614       -14.4115
  64   2.0000      -0.517110       -14.0713
  65   2.0000      -0.511850       -13.9281
  66   2.0000      -0.505227       -13.7479
  67   2.0000      -0.499027       -13.5792
  68   2.0000      -0.485786       -13.2189
  69   2.0000      -0.464034       -12.6270
  70   2.0000      -0.455047       -12.3825
  71   2.0000      -0.445499       -12.1226
  72   2.0000      -0.355962        -9.6862
  73   2.0000      -0.353679        -9.6241
  74   2.0000      -0.329964        -8.9788
  75   2.0000      -0.325195        -8.8490
  76   2.0000      -0.317647        -8.6436
  77   0.0000       0.073783         2.0077
  78   0.0000       0.103552         2.8178
  79   0.0000       0.121388         3.3031
  80   0.0000       0.128205         3.4886
  81   0.0000       0.131644         3.5822

MULLIKEN ATOMIC CHARGES
-----------------------
   0 C :   -0.277332
   1 C :    0.038037
   2 O :   -0.366415
   3 C :    0.467354
   4 O :   -0.419459
   5 C :   -0.270600
   6 C :    0.166509
   7 C :   -0.267117
   8 N :   -0.126173
   9 C :    0.222556
  10 S :   -0.442359
  11 N :   -0.215421
  12 C :    0.073400
  13 C :    0.084392
  14 C :   -0.226280
  15 C :   -0.128126
  16 C :   -0.276629
  17 C :    0.309135
  18 O :   -0.356902
  19 C :   -0.251744
  20 H :    0.094131
  21 H :    0.097630
  22 H :    0.108526
  23 H :    0.115697
  24 H :    0.089710
  25 H :    0.130929
  26 H :    0.132076
  27 H :    0.095607
  28 H :    0.197343
  29 H :    0.194253
  30 H :    0.147408
  31 H :    0.151004
  32 H :    0.161140
  33 H :    0.131964
  34 H :    0.242202
  35 H :    0.173556
Sum of atomic charges:    0.0000000

LOEWDIN ATOMIC CHARGES
----------------------
   0 C :    0.109107
   1 C :   -0.018365
   2 O :    0.296756
   3 C :   -0.418325
   4 O :    0.106574
   5 C :   -0.096984
   6 C :   -0.057129
   7 C :    0.131412
   8 N :    0.408116
   9 C :   -0.453457
  10 S :   -0.035736
  11 N :    0.395736
  12 C :   -0.052343
  13 C :   -0.032402
  14 C :    0.010170
  15 C :    0.043307
  16 C :   -0.002986
  17 C :   -0.189736
  18 O :    0.396161
  19 C :    0.029400
  20 H :   -0.028252
  21 H :   -0.025452
  22 H :   -0.026873
  23 H :   -0.029258
  24 H :   -0.029789
  25 H :   -0.005190
  26 H :   -0.003424
  27 H :   -0.023169
  28 H :   -0.057321
  29 H :   -0.066744
  30 H :   -0.008447
  31 H :   -0.031026
  32 H :   -0.019849
  33 H :   -0.035038
  34 H :   -0.152647
  35 H :   -0.026799

  Mayer bond orders larger than 0.100000
B(  0-C ,  1-C ) :   0.9732 B(  0-C , 20-H ) :   0.9767 B(  0-C , 21-H ) :   0.9796
B(  0-C , 22-H ) :   0.9734 B(  1-C ,  2-O ) :   0.8861 B(  1-C , 23-H ) :   0.9859
B(  1-C , 24-H ) :   0.9700 B(  2-O ,  3-C ) :   1.1422 B(  3-C ,  4-O ) :   1.9964
B(  3-C ,  5-C ) :   1.0608 B(  5-C ,  6-C ) :   1.6442 B(  5-C , 12-C ) :   0.9790
B(  6-C ,  7-C ) :   0.9662 B(  6-C ,  8-N ) :   1.1637 B(  7-C , 25-H ) :   0.9601
B(  7-C , 26-H ) :   0.9597 B(  7-C , 27-H ) :   0.9904 B(  8-N ,  9-C ) :   1.1855
B(  8-N , 28-H ) :   0.9478 B(  9-C , 10-S ) :   1.5971 B(  9-C , 11-N ) :   1.3090
B( 11-N , 12-C ) :   0.9534 B( 11-N , 29-H ) :   0.9510 B( 12-C , 13-C ) :   0.9487
B( 12-C , 30-H ) :   1.0011 B( 13-C , 14-C ) :   1.3548 B( 13-C , 19-C ) :   1.3655
B( 14-C , 15-C ) :   1.3988 B( 14-C , 31-H ) :   0.9726 B( 15-C , 16-C ) :   1.3592
B( 15-C , 32-H ) :   0.9715 B( 16-C , 17-C ) :   1.3344 B( 16-C , 33-H ) :   0.9851
B( 17-C , 18-O ) :   1.1147 B( 17-C , 19-C ) :   1.3645 B( 18-O , 34-H ) :   0.9788
B( 19-C , 35-H ) :   0.9549

MP2 TOTAL ENERGY:    -1274.341587020 Eh
FINAL SINGLE POINT ENERGY     -1274.341587020106

DIPOLE MOMENT
-------------
                                X             Y             Z
Electronic contribution:      8.20069      11.26414       4.53946
Nuclear contribution   :     -9.21445     -12.74668      -4.44391
                        -----------------------------------------
Total Dipole Moment    :     -1.01376      -1.48254       0.09555
                        -----------------------------------------
Magnitude (a.u.)       :      1.79854
Magnitude (Debye)      :      4.57154

Rotational constants in cm-1:     0.012617     0.008654     0.006433
Rotational constants in MHz :   378.238082   259.426512   192.857385

                             ****ORCA TERMINATED NORMALLY****
TOTAL RUN TIME: 0 days 2 hours 3 minutes 52 seconds 465 msec
