                         Program Version 5.0.0 -  RELEASE  -
|  1> ! ri-mp2 cc-pvtz cc-pvtz/c TightSCF NoKeepInts
|  2>
|  3> %scf
|  4>   MaxCore 4096
|  5> end
|  6> *xyz  0  1
|  7>     C       15.1442306   15.3956298   17.5198305
|  8>     C       15.5291508   15.4048429   16.0266276
|  9>     O       16.9326892   15.1257343   15.8009682
| 10>     C       18.0390724   15.5827395   16.4815182
| 11>     O       19.0390922   14.8893248   16.5148445
| 12>     C       17.9173076   16.7827407   17.3702478
| 13>     C       17.4009984   17.9670007   16.9590161
| 14>     C       16.9112893   18.3342458   15.5745983
| 15>     N       17.4159713   19.0696799   17.8164608
| 16>     C       18.0719329   19.1163554   19.0179618
| 17>     S       18.1205119   20.4955496   19.9286661
| 18>     N       18.6921139   17.9616026   19.4237536
| 19>     C       18.5850740   16.6544627   18.7457842
| 20>     C       17.8798169   15.6267842   19.6292450
| 21>     C       18.3174338   14.2892056   19.6375760
| 22>     C       17.6737473   13.3273268   20.4334943
| 23>     C       16.5814105   13.7039624   21.2325696
| 24>     C       16.1418862   15.0342590   21.2302497
| 25>     O       15.0813394   15.3997937   21.9932247
| 26>     C       16.7846488   15.9900789   20.4370704
| 27>     H       15.6427483   14.5721506   18.0470600
| 28>     H       14.0623860   15.2507484   17.6268364
| 29>     H       15.3898931   16.3409569   18.0137503
| 30>     H       14.9493540   14.6248852   15.5159360
| 31>     H       15.2322071   16.3564748   15.5764282
| 32>     H       17.1327653   17.5582220   14.8322090
| 33>     H       17.4069690   19.2467846   15.2188708
| 34>     H       15.8308812   18.5216873   15.5707591
| 35>     H       16.9878004   19.9346204   17.5258019
| 36>     H       19.1587590   18.0196031   20.3201731
| 37>     H       19.6105858   16.2928837   18.5782862
| 38>     H       19.1564821   13.9902826   19.0125501
| 39>     H       18.0210898   12.2955099   20.4245864
| 40>     H       16.0800158   12.9633426   21.8468160
| 41>     H       14.8055373   14.6208255   22.4995619
| 42>     H       16.4198083   17.0117033   20.4506673
| 43> *
| 44>
| 45>                          ****END OF INPUT****

CARTESIAN COORDINATES (ANGSTROEM)
---------------------------------
  C     15.144231   15.395630   17.519831
  C     15.529151   15.404843   16.026628
  O     16.932689   15.125734   15.800968
  C     18.039072   15.582740   16.481518
  O     19.039092   14.889325   16.514844
  C     17.917308   16.782741   17.370248
  C     17.400998   17.967001   16.959016
  C     16.911289   18.334246   15.574598
  N     17.415971   19.069680   17.816461
  C     18.071933   19.116355   19.017962
  S     18.120512   20.495550   19.928666
  N     18.692114   17.961603   19.423754
  C     18.585074   16.654463   18.745784
  C     17.879817   15.626784   19.629245
  C     18.317434   14.289206   19.637576
  C     17.673747   13.327327   20.433494
  C     16.581411   13.703962   21.232570
  C     16.141886   15.034259   21.230250
  O     15.081339   15.399794   21.993225
  C     16.784649   15.990079   20.437070
  H     15.642748   14.572151   18.047060
  H     14.062386   15.250748   17.626836
  H     15.389893   16.340957   18.013750
  H     14.949354   14.624885   15.515936
  H     15.232207   16.356475   15.576428
  H     17.132765   17.558222   14.832209
  H     17.406969   19.246785   15.218871
  H     15.830881   18.521687   15.570759
  H     16.987800   19.934620   17.525802
  H     19.158759   18.019603   20.320173
  H     19.610586   16.292884   18.578286
  H     19.156482   13.990283   19.012550
  H     18.021090   12.295510   20.424586
  H     16.080016   12.963343   21.846816
  H     14.805537   14.620825   22.499562
  H     16.419808   17.011703   20.450667

 Total Charge           Charge          ....    0
 Multiplicity           Mult            ....    1
 Number of Electrons    NEL             ....  154
 Basis Dimension        Dim             ....  828

ORBITAL ENERGIES
----------------

  NO   OCC          E(Eh)            E(eV)
   0   2.0000     -91.890997     -2500.4811
   1   2.0000     -20.598192      -560.5053
   2   2.0000     -20.597500      -560.4865
   3   2.0000     -20.547951      -559.1382
   4   2.0000     -15.629268      -425.2940
   5   2.0000     -15.611221      -424.8029
   6   2.0000     -11.400633      -310.2270
   7   2.0000     -11.387151      -309.8601
   8   2.0000     -11.334331      -308.4228
   9   2.0000     -11.314012      -307.8699
  10   2.0000     -11.313248      -307.8491
  11   2.0000     -11.309926      -307.7587
  12   2.0000     -11.269865      -306.6686
  13   2.0000     -11.267994      -306.6177
  14   2.0000     -11.261239      -306.4339
  15   2.0000     -11.254399      -306.2478
  16   2.0000     -11.243872      -305.9613
  17   2.0000     -11.239305      -305.8370
  18   2.0000     -11.235968      -305.7462
  19   2.0000     -11.230770      -305.6048
  20   2.0000      -8.896094      -242.0750
  21   2.0000      -6.577680      -178.9878
  22   2.0000      -6.575656      -178.9327
  23   2.0000      -6.575077      -178.9169
  24   2.0000      -1.443785       -39.2874
  25   2.0000      -1.417320       -38.5672
  26   2.0000      -1.356496       -36.9121
  27   2.0000      -1.342419       -36.5291
  28   2.0000      -1.241071       -33.7713
  29   2.0000      -1.158817       -31.5330
  30   2.0000      -1.125077       -30.6149
  31   2.0000      -1.047410       -28.5015
  32   2.0000      -1.038772       -28.2664
  33   2.0000      -1.017098       -27.6767
  34   2.0000      -1.006130       -27.3782
  35   2.0000      -0.990208       -26.9449
  36   2.0000      -0.928130       -25.2557
  37   2.0000      -0.898409       -24.4470
  38   2.0000      -0.855385       -23.2762
  39   2.0000      -0.841005       -22.8849
  40   2.0000      -0.834391       -22.7049
  41   2.0000      -0.828706       -22.5502
  42   2.0000      -0.745516       -20.2865
  43   2.0000      -0.738475       -20.0949
  44   2.0000      -0.730455       -19.8767
  45   2.0000      -0.695322       -18.9207
  46   2.0000      -0.686914       -18.6919
  47   2.0000      -0.679894       -18.5009
  48   2.0000      -0.675136       -18.3714
  49   2.0000      -0.660748       -17.9799
  50   2.0000      -0.655828       -17.8460
  51   2.0000      -0.651606       -17.7311
  52   2.0000      -0.640142       -17.4191
  53   2.0000      -0.620282       -16.8787
  54   2.0000      -0.610128       -16.6024
  55   2.0000      -0.605700       -16.4819
  56   2.0000      -0.601861       -16.3775
  57   2.0000      -0.589361       -16.0373
  58   2.0000      -0.577043       -15.7021
  59   2.0000      -0.568377       -15.4663
  60   2.0000      -0.565762       -15.3952
  61   2.0000      -0.554346       -15.0845
  62   2.0000      -0.540817       -14.7164
  63   2.0000      -0.533147       -14.5077
  64   2.0000      -0.521417       -14.1885
  65   2.0000      -0.513166       -13.9640
  66   2.0000      -0.501202       -13.6384
  67   2.0000      -0.498524       -13.5655
  68   2.0000      -0.482880       -13.1398
  69   2.0000      -0.468419       -12.7463
  70   2.0000      -0.455822       -12.4035
  71   2.0000      -0.449648       -12.2356
  72   2.0000      -0.358004        -9.7418
  73   2.0000      -0.348380        -9.4799
  74   2.0000      -0.330508        -8.9936
  75   2.0000      -0.322912        -8.7869
  76   2.0000      -0.319474        -8.6933
  77   0.0000       0.079739         2.1698
  78   0.0000       0.107738         2.9317
  79   0.0000       0.113855         3.0982
  80   0.0000       0.130888         3.5616
  81   0.0000       0.131547         3.5796

MULLIKEN ATOMIC CHARGES
-----------------------
   0 C :   -0.336104
   1 C :    0.028239
   2 O :   -0.329531
   3 C :    0.430984
   4 O :   -0.387281
   5 C :   -0.230743
   6 C :    0.165314
   7 C :   -0.339620
   8 N :   -0.136506
   9 C :    0.198852
  10 S :   -0.439101
  11 N :   -0.220391
  12 C :    0.080916
  13 C :    0.020489
  14 C :   -0.209859
  15 C :   -0.135064
  16 C :   -0.278499
  17 C :    0.320316
  18 O :   -0.358532
  19 C :   -0.272006
  20 H :    0.130327
  21 H :    0.117536
  22 H :    0.110099
  23 H :    0.131867
  24 H :    0.086464
  25 H :    0.134881
  26 H :    0.139957
  27 H :    0.120745
  28 H :    0.197284
  29 H :    0.201123
  30 H :    0.166407
  31 H :    0.176408
  32 H :    0.163924
  33 H :    0.131872
  34 H :    0.241022
  35 H :    0.178214
Sum of atomic charges:   -0.0000000

LOEWDIN ATOMIC CHARGES
----------------------
   0 C :    0.103417
   1 C :   -0.017536
   2 O :    0.293802
   3 C :   -0.414091
   4 O :    0.121504
   5 C :   -0.080648
   6 C :   -0.092417
   7 C :    0.122833
   8 N :    0.403065
   9 C :   -0.459121
  10 S :   -0.036359
  11 N :    0.398273
  12 C :   -0.042953
  13 C :   -0.043002
  14 C :    0.019770
  15 C :    0.042513
  16 C :   -0.001605
  17 C :   -0.193529
  18 O :    0.395118
  19 C :    0.028923
  20 H :   -0.018159
  21 H :   -0.023807
  22 H :   -0.035589
  23 H :   -0.018213
  24 H :   -0.039659
  25 H :   -0.007528
  26 H :   -0.009011
  27 H :   -0.018832
  28 H :   -0.057008
  29 H :   -0.063049
  30 H :   -0.001914
  31 H :   -0.022065
  32 H :   -0.018800
  33 H :   -0.035007
  34 H :   -0.153585
  35 H :   -0.025732

  Mayer bond orders larger than 0.100000
B(  0-C ,  1-C ) :   0.9551 B(  0-C , 20-H ) :   0.9672 B(  0-C , 21-H ) :   0.9767
B(  0-C , 22-H ) :   0.9723 B(  1-C ,  2-O ) :   0.9042 B(  1-C , 23-H ) :   0.9818
B(  1-C , 24-H ) :   0.9733 B(  2-O ,  3-C ) :   1.1834 B(  3-C ,  4-O ) :   2.0757
B(  3-C ,  5-C ) :   0.9319 B(  5-C ,  6-C ) :   1.6851 B(  5-C , 12-C ) :   0.9540
B(  6-C ,  7-C ) :   0.9449 B(  6-C ,  8-N ) :   1.1119 B(  7-C , 25-H ) :   0.9784
B(  7-C , 26-H ) :   0.9705 B(  7-C , 27-H ) :   0.9658 B(  8-N ,  9-C ) :   1.1923
B(  8-N , 28-H ) :   0.9519 B(  9-C , 10-S ) :   1.6113 B(  9-C , 11-N ) :   1.2907
B( 11-N , 12-C ) :   0.9896 B( 11-N , 29-H ) :   0.9488 B( 12-C , 13-C ) :   0.9495
B( 12-C , 30-H ) :   0.9958 B( 13-C , 14-C ) :   1.3913 B( 13-C , 19-C ) :   1.3390
B( 14-C , 15-C ) :   1.3994 B( 14-C , 31-H ) :   0.9573 B( 15-C , 16-C ) :   1.3590
B( 15-C , 32-H ) :   0.9703 B( 16-C , 17-C ) :   1.3307 B( 16-C , 33-H ) :   0.9848
B( 17-C , 18-O ) :   1.1096 B( 17-C , 19-C ) :   1.3694 B( 18-O , 34-H ) :   0.9797
B( 19-C , 35-H ) :   0.9567

MP2 TOTAL ENERGY:    -1274.330635900 Eh
FINAL SINGLE POINT ENERGY     -1274.330635900086

DIPOLE MOMENT
-------------
                                X             Y             Z
Electronic contribution:      9.12716       6.18543       6.17966
Nuclear contribution   :    -10.68793      -7.14434      -6.78528
                        -----------------------------------------
Total Dipole Moment    :     -1.56077      -0.95891      -0.60562
                        -----------------------------------------
Magnitude (a.u.)       :      1.92933
Magnitude (Debye)      :      4.90396

Rotational constants in cm-1:     0.011694     0.009645     0.006789
Rotational constants in MHz :   350.587477   289.161297   203.543694

                             ****ORCA TERMINATED NORMALLY****
TOTAL RUN TIME: 0 days 2 hours 30 minutes 51 seconds 512 msec
