                         Program Version 5.0.0 -  RELEASE  -
|  1> ! ri-mp2 cc-pvtz cc-pvtz/c TightSCF NoKeepInts
|  2>
|  3> %scf
|  4>   MaxCore 4096
|  5> end
|  6> *xyz  0  1
|  7>     C       15.9533334   13.1416009   15.9174625
|  8>     C       15.4617709   14.4923653   16.4635615
|  9>     O       16.6149818   15.3367244   16.6157747
| 10>     C       16.4624564   16.6941352   16.5838927
| 11>     O       15.5224117   17.2294109   16.0213492
| 12>     C       17.4284978   17.4046887   17.4916807
| 13>     C       17.4659598   18.7572447   17.5979313
| 14>     C       16.5966539   19.7581078   16.8671377
| 15>     N       18.4100752   19.3696176   18.4275931
| 16>     C       19.4109169   18.7139168   19.0935328
| 17>     S       20.5485079   19.5236850   19.9801112
| 18>     N       19.4247999   17.3467353   18.9852949
| 19>     C       18.3851167   16.5358669   18.3255560
| 20>     C       17.6395258   15.7069060   19.3680542
| 21>     C       17.7651000   14.3049745   19.3871022
| 22>     C       17.0731266   13.5377940   20.3392424
| 23>     C       16.2517179   14.1775342   21.2831292
| 24>     C       16.1286157   15.5737426   21.2705779
| 25>     O       15.3369442   16.1942966   22.1811192
| 26>     C       16.8173587   16.3343937   20.3207663
| 27>     H       15.1098269   12.4556062   15.7733719
| 28>     H       16.6594341   12.6765687   16.6163570
| 29>     H       16.4563888   13.2753347   14.9516265
| 30>     H       14.7492425   14.9199399   15.7448412
| 31>     H       14.9526583   14.3635723   17.4279249
| 32>     H       15.5430341   19.6272867   17.1455471
| 33>     H       16.6682062   19.6129252   15.7817285
| 34>     H       16.8692455   20.7986091   17.0789654
| 35>     H       18.4158947   20.3730429   18.5180800
| 36>     H       20.1526104   16.8888125   19.5186315
| 37>     H       18.8958489   15.8486603   17.6363440
| 38>     H       18.3949632   13.8077655   18.6542782
| 39>     H       17.1750021   12.4539772   20.3442218
| 40>     H       15.7160108   13.5896958   22.0212309
| 41>     H       14.9776182   15.5124425   22.7682884
| 42>     H       16.7131442   17.4140197   20.3316930
| 43> *
| 44>
| 45>                          ****END OF INPUT****

CARTESIAN COORDINATES (ANGSTROEM)
---------------------------------
  C     15.953333   13.141601   15.917462
  C     15.461771   14.492365   16.463562
  O     16.614982   15.336724   16.615775
  C     16.462456   16.694135   16.583893
  O     15.522412   17.229411   16.021349
  C     17.428498   17.404689   17.491681
  C     17.465960   18.757245   17.597931
  C     16.596654   19.758108   16.867138
  N     18.410075   19.369618   18.427593
  C     19.410917   18.713917   19.093533
  S     20.548508   19.523685   19.980111
  N     19.424800   17.346735   18.985295
  C     18.385117   16.535867   18.325556
  C     17.639526   15.706906   19.368054
  C     17.765100   14.304975   19.387102
  C     17.073127   13.537794   20.339242
  C     16.251718   14.177534   21.283129
  C     16.128616   15.573743   21.270578
  O     15.336944   16.194297   22.181119
  C     16.817359   16.334394   20.320766
  H     15.109827   12.455606   15.773372
  H     16.659434   12.676569   16.616357
  H     16.456389   13.275335   14.951626
  H     14.749242   14.919940   15.744841
  H     14.952658   14.363572   17.427925
  H     15.543034   19.627287   17.145547
  H     16.668206   19.612925   15.781728
  H     16.869246   20.798609   17.078965
  H     18.415895   20.373043   18.518080
  H     20.152610   16.888813   19.518632
  H     18.895849   15.848660   17.636344
  H     18.394963   13.807765   18.654278
  H     17.175002   12.453977   20.344222
  H     15.716011   13.589696   22.021231
  H     14.977618   15.512442   22.768288
  H     16.713144   17.414020   20.331693

 Total Charge           Charge          ....    0
 Multiplicity           Mult            ....    1
 Number of Electrons    NEL             ....  154
 Basis Dimension        Dim             ....  828

ORBITAL ENERGIES
----------------

  NO   OCC          E(Eh)            E(eV)
   0   2.0000     -91.889121     -2500.4301
   1   2.0000     -20.598191      -560.5053
   2   2.0000     -20.597169      -560.4775
   3   2.0000     -20.542441      -558.9882
   4   2.0000     -15.629258      -425.2937
   5   2.0000     -15.608549      -424.7302
   6   2.0000     -11.394317      -310.0551
   7   2.0000     -11.384247      -309.7811
   8   2.0000     -11.335901      -308.4655
   9   2.0000     -11.314534      -307.8841
  10   2.0000     -11.309504      -307.7473
  11   2.0000     -11.294469      -307.3381
  12   2.0000     -11.260368      -306.4102
  13   2.0000     -11.258756      -306.3663
  14   2.0000     -11.256044      -306.2925
  15   2.0000     -11.252132      -306.1861
  16   2.0000     -11.243776      -305.9587
  17   2.0000     -11.239150      -305.8328
  18   2.0000     -11.238867      -305.8251
  19   2.0000     -11.229708      -305.5759
  20   2.0000      -8.894180      -242.0229
  21   2.0000      -6.575753      -178.9353
  22   2.0000      -6.573750      -178.8808
  23   2.0000      -6.573162      -178.8648
  24   2.0000      -1.451145       -39.4877
  25   2.0000      -1.416828       -38.5539
  26   2.0000      -1.354566       -36.8596
  27   2.0000      -1.340228       -36.4695
  28   2.0000      -1.238761       -33.7084
  29   2.0000      -1.158245       -31.5174
  30   2.0000      -1.120556       -30.4919
  31   2.0000      -1.043464       -28.3941
  32   2.0000      -1.039349       -28.2821
  33   2.0000      -1.015893       -27.6438
  34   2.0000      -0.995911       -27.1001
  35   2.0000      -0.984562       -26.7913
  36   2.0000      -0.922884       -25.1129
  37   2.0000      -0.887059       -24.1381
  38   2.0000      -0.847016       -23.0485
  39   2.0000      -0.838065       -22.8049
  40   2.0000      -0.834683       -22.7129
  41   2.0000      -0.819149       -22.2902
  42   2.0000      -0.764369       -20.7995
  43   2.0000      -0.733114       -19.9490
  44   2.0000      -0.722530       -19.6610
  45   2.0000      -0.696197       -18.9445
  46   2.0000      -0.687227       -18.7004
  47   2.0000      -0.679134       -18.4802
  48   2.0000      -0.675341       -18.3770
  49   2.0000      -0.659057       -17.9339
  50   2.0000      -0.646698       -17.5976
  51   2.0000      -0.644346       -17.5336
  52   2.0000      -0.635357       -17.2889
  53   2.0000      -0.607785       -16.5387
  54   2.0000      -0.605948       -16.4887
  55   2.0000      -0.600226       -16.3330
  56   2.0000      -0.598419       -16.2838
  57   2.0000      -0.578292       -15.7361
  58   2.0000      -0.570975       -15.5370
  59   2.0000      -0.565832       -15.3971
  60   2.0000      -0.561351       -15.2751
  61   2.0000      -0.542129       -14.7521
  62   2.0000      -0.540076       -14.6962
  63   2.0000      -0.525723       -14.3057
  64   2.0000      -0.524870       -14.2824
  65   2.0000      -0.513807       -13.9814
  66   2.0000      -0.502622       -13.6770
  67   2.0000      -0.497929       -13.5493
  68   2.0000      -0.486272       -13.2321
  69   2.0000      -0.465880       -12.6772
  70   2.0000      -0.458066       -12.4646
  71   2.0000      -0.446172       -12.1410
  72   2.0000      -0.354380        -9.6432
  73   2.0000      -0.350069        -9.5259
  74   2.0000      -0.328506        -8.9391
  75   2.0000      -0.322105        -8.7649
  76   2.0000      -0.316323        -8.6076
  77   0.0000       0.074866         2.0372
  78   0.0000       0.105224         2.8633
  79   0.0000       0.124729         3.3941
  80   0.0000       0.131450         3.5769
  81   0.0000       0.136153         3.7049

MULLIKEN ATOMIC CHARGES
-----------------------
   0 C :   -0.263587
   1 C :    0.014712
   2 O :   -0.358173
   3 C :    0.466766
   4 O :   -0.427316
   5 C :   -0.232314
   6 C :    0.153575
   7 C :   -0.272209
   8 N :   -0.122178
   9 C :    0.211085
  10 S :   -0.439456
  11 N :   -0.204583
  12 C :    0.059073
  13 C :    0.058693
  14 C :   -0.187571
  15 C :   -0.131455
  16 C :   -0.279380
  17 C :    0.315487
  18 O :   -0.356011
  19 C :   -0.267699
  20 H :    0.091620
  21 H :    0.089410
  22 H :    0.098266
  23 H :    0.128314
  24 H :    0.104083
  25 H :    0.132870
  26 H :    0.130108
  27 H :    0.095102
  28 H :    0.197606
  29 H :    0.194731
  30 H :    0.150099
  31 H :    0.152297
  32 H :    0.160957
  33 H :    0.130794
  34 H :    0.240756
  35 H :    0.165528
Sum of atomic charges:   -0.0000000

LOEWDIN ATOMIC CHARGES
----------------------
   0 C :    0.106632
   1 C :   -0.015110
   2 O :    0.307004
   3 C :   -0.414485
   4 O :    0.099637
   5 C :   -0.095633
   6 C :   -0.059012
   7 C :    0.131608
   8 N :    0.406581
   9 C :   -0.456453
  10 S :   -0.035141
  11 N :    0.396363
  12 C :   -0.052309
  13 C :   -0.038442
  14 C :    0.014439
  15 C :    0.038344
  16 C :   -0.002282
  17 C :   -0.189604
  18 O :    0.395503
  19 C :    0.031454
  20 H :   -0.024975
  21 H :   -0.031493
  22 H :   -0.025754
  23 H :   -0.027466
  24 H :   -0.029886
  25 H :   -0.004394
  26 H :   -0.004044
  27 H :   -0.023354
  28 H :   -0.057523
  29 H :   -0.064588
  30 H :   -0.010531
  31 H :   -0.030972
  32 H :   -0.021373
  33 H :   -0.035489
  34 H :   -0.153800
  35 H :   -0.023450

  Mayer bond orders larger than 0.100000
B(  0-C ,  1-C ) :   0.9737 B(  0-C , 20-H ) :   0.9770 B(  0-C , 21-H ) :   0.9794
B(  0-C , 22-H ) :   0.9776 B(  1-C ,  2-O ) :   0.8808 B(  1-C , 23-H ) :   0.9780
B(  1-C , 24-H ) :   0.9716 B(  2-O ,  3-C ) :   1.1584 B(  3-C ,  4-O ) :   1.9898
B(  3-C ,  5-C ) :   1.0550 B(  5-C ,  6-C ) :   1.6552 B(  5-C , 12-C ) :   0.9726
B(  6-C ,  7-C ) :   0.9669 B(  6-C ,  8-N ) :   1.1623 B(  7-C , 25-H ) :   0.9594
B(  7-C , 26-H ) :   0.9612 B(  7-C , 27-H ) :   0.9905 B(  8-N ,  9-C ) :   1.1832
B(  8-N , 28-H ) :   0.9479 B(  9-C , 10-S ) :   1.6080 B(  9-C , 11-N ) :   1.3048
B( 11-N , 12-C ) :   0.9871 B( 11-N , 29-H ) :   0.9517 B( 12-C , 13-C ) :   0.9342
B( 12-C , 30-H ) :   1.0027 B( 13-C , 14-C ) :   1.3587 B( 13-C , 19-C ) :   1.3831
B( 14-C , 15-C ) :   1.3891 B( 14-C , 31-H ) :   0.9714 B( 15-C , 16-C ) :   1.3634
B( 15-C , 32-H ) :   0.9703 B( 16-C , 17-C ) :   1.3317 B( 16-C , 33-H ) :   0.9848
B( 17-C , 18-O ) :   1.1111 B( 17-C , 19-C ) :   1.3720 B( 18-O , 34-H ) :   0.9798
B( 19-C , 35-H ) :   0.9580

MP2 TOTAL ENERGY:    -1274.347196933 Eh
FINAL SINGLE POINT ENERGY     -1274.347196932701

DIPOLE MOMENT
-------------
                                X             Y             Z
Electronic contribution:      9.21764      11.13363       7.79687
Nuclear contribution   :    -10.39944     -12.71021      -8.07734
                        -----------------------------------------
Total Dipole Moment    :     -1.18180      -1.57658      -0.28047
                        -----------------------------------------
Magnitude (a.u.)       :      1.99021
Magnitude (Debye)      :      5.05871

Rotational constants in cm-1:     0.011938     0.008455     0.006204
Rotational constants in MHz :   357.878547   253.487734   185.976502

                             ****ORCA TERMINATED NORMALLY****
TOTAL RUN TIME: 0 days 1 hours 48 minutes 55 seconds 761 msec
