                         Program Version 5.0.0 -  RELEASE  -
|  1> ! ri-mp2 cc-pvtz cc-pvtz/c TightSCF NoKeepInts
|  2>
|  3> %scf
|  4>   MaxCore 4096
|  5> end
|  6> *xyz  0  1
|  7>     C       15.9674294   13.7341632   14.9960682
|  8>     C       15.4573783   14.3661814   16.3021883
|  9>     O       16.4771401   15.2648863   16.7750425
| 10>     C       16.2487149   16.6128221   16.8209653
| 11>     O       15.2950365   17.1362362   16.2700941
| 12>     C       17.2710390   17.3450887   17.6459521
| 13>     C       17.2796612   18.6972881   17.7635693
| 14>     C       16.3174078   19.6789699   17.1296667
| 15>     N       18.2783974   19.3298270   18.5100729
| 16>     C       19.3540121   18.6978449   19.0746359
| 17>     S       20.5457246   19.5328974   19.8610313
| 18>     N       19.3949411   17.3323991   18.9524839
| 19>     C       18.3211001   16.4977005   18.3831346
| 20>     C       17.6927484   15.6447441   19.4816732
| 21>     C       17.8305007   14.2439703   19.4644785
| 22>     C       17.2512886   13.4560144   20.4733582
| 23>     C       16.5306037   14.0734454   21.5098762
| 24>     C       16.3947384   15.4683271   21.5322657
| 25>     O       15.7002431   16.0674438   22.5321530
| 26>     C       16.9719271   16.2497796   20.5266271
| 27>     H       16.1193307   14.5050621   14.2300677
| 28>     H       15.2413549   13.0078142   14.6112492
| 29>     H       16.9197699   13.2153786   15.1612664
| 30>     H       14.4977294   14.8724827   16.1309098
| 31>     H       15.2944446   13.5772754   17.0478223
| 32>     H       15.2926991   19.4903109   17.4747206
| 33>     H       16.3195484   19.5714558   16.0375172
| 34>     H       16.5567675   20.7238538   17.3592398
| 35>     H       18.2654035   20.3323758   18.6089057
| 36>     H       20.1806851   16.8909986   19.4124872
| 37>     H       18.7863726   15.8279548   17.6462624
| 38>     H       18.3825116   13.7638575   18.6609039
| 39>     H       17.3617514   12.3733093   20.4501377
| 40>     H       16.0818052   13.4693929   22.2915126
| 41>     H       15.4055844   15.3723788   23.1394521
| 42>     H       16.8612091   17.3280692   20.5662085
| 43> *
| 44>
| 45>                          ****END OF INPUT****

CARTESIAN COORDINATES (ANGSTROEM)
---------------------------------
  C     15.967429   13.734163   14.996068
  C     15.457378   14.366181   16.302188
  O     16.477140   15.264886   16.775043
  C     16.248715   16.612822   16.820965
  O     15.295036   17.136236   16.270094
  C     17.271039   17.345089   17.645952
  C     17.279661   18.697288   17.763569
  C     16.317408   19.678970   17.129667
  N     18.278397   19.329827   18.510073
  C     19.354012   18.697845   19.074636
  S     20.545725   19.532897   19.861031
  N     19.394941   17.332399   18.952484
  C     18.321100   16.497701   18.383135
  C     17.692748   15.644744   19.481673
  C     17.830501   14.243970   19.464478
  C     17.251289   13.456014   20.473358
  C     16.530604   14.073445   21.509876
  C     16.394738   15.468327   21.532266
  O     15.700243   16.067444   22.532153
  C     16.971927   16.249780   20.526627
  H     16.119331   14.505062   14.230068
  H     15.241355   13.007814   14.611249
  H     16.919770   13.215379   15.161266
  H     14.497729   14.872483   16.130910
  H     15.294445   13.577275   17.047822
  H     15.292699   19.490311   17.474721
  H     16.319548   19.571456   16.037517
  H     16.556767   20.723854   17.359240
  H     18.265404   20.332376   18.608906
  H     20.180685   16.890999   19.412487
  H     18.786373   15.827955   17.646262
  H     18.382512   13.763857   18.660904
  H     17.361751   12.373309   20.450138
  H     16.081805   13.469393   22.291513
  H     15.405584   15.372379   23.139452
  H     16.861209   17.328069   20.566208

 Total Charge           Charge          ....    0
 Multiplicity           Mult            ....    1
 Number of Electrons    NEL             ....  154
 Basis Dimension        Dim             ....  828

ORBITAL ENERGIES
----------------

  NO   OCC          E(Eh)            E(eV)
   0   2.0000     -91.888721     -2500.4192
   1   2.0000     -20.601819      -560.6040
   2   2.0000     -20.595702      -560.4375
   3   2.0000     -20.541594      -558.9652
   4   2.0000     -15.628915      -425.2844
   5   2.0000     -15.608024      -424.7159
   6   2.0000     -11.395624      -310.0907
   7   2.0000     -11.383805      -309.7691
   8   2.0000     -11.335859      -308.4644
   9   2.0000     -11.312811      -307.8372
  10   2.0000     -11.308608      -307.7229
  11   2.0000     -11.295586      -307.3685
  12   2.0000     -11.258838      -306.3686
  13   2.0000     -11.258774      -306.3668
  14   2.0000     -11.254354      -306.2465
  15   2.0000     -11.251837      -306.1781
  16   2.0000     -11.242208      -305.9160
  17   2.0000     -11.237678      -305.7928
  18   2.0000     -11.237492      -305.7877
  19   2.0000     -11.228261      -305.5365
  20   2.0000      -8.893781      -242.0121
  21   2.0000      -6.575356      -178.9245
  22   2.0000      -6.573351      -178.8700
  23   2.0000      -6.572764      -178.8540
  24   2.0000      -1.451151       -39.4878
  25   2.0000      -1.415354       -38.5137
  26   2.0000      -1.355036       -36.8724
  27   2.0000      -1.339856       -36.4593
  28   2.0000      -1.238257       -33.6947
  29   2.0000      -1.156871       -31.4801
  30   2.0000      -1.120120       -30.4800
  31   2.0000      -1.042785       -28.3756
  32   2.0000      -1.038801       -28.2672
  33   2.0000      -1.014224       -27.5984
  34   2.0000      -0.995420       -27.0868
  35   2.0000      -0.983997       -26.7759
  36   2.0000      -0.922121       -25.0922
  37   2.0000      -0.891130       -24.2489
  38   2.0000      -0.846656       -23.0387
  39   2.0000      -0.837008       -22.7762
  40   2.0000      -0.833245       -22.6737
  41   2.0000      -0.817679       -22.2502
  42   2.0000      -0.762900       -20.7596
  43   2.0000      -0.731910       -19.9163
  44   2.0000      -0.722646       -19.6642
  45   2.0000      -0.694816       -18.9069
  46   2.0000      -0.687293       -18.7022
  47   2.0000      -0.680343       -18.5131
  48   2.0000      -0.672635       -18.3033
  49   2.0000      -0.655656       -17.8413
  50   2.0000      -0.645812       -17.5734
  51   2.0000      -0.643913       -17.5218
  52   2.0000      -0.631350       -17.1799
  53   2.0000      -0.610906       -16.6236
  54   2.0000      -0.605892       -16.4871
  55   2.0000      -0.598897       -16.2968
  56   2.0000      -0.598082       -16.2746
  57   2.0000      -0.577935       -15.7264
  58   2.0000      -0.570673       -15.5288
  59   2.0000      -0.568119       -15.4593
  60   2.0000      -0.563355       -15.3297
  61   2.0000      -0.539890       -14.6912
  62   2.0000      -0.537651       -14.6302
  63   2.0000      -0.531396       -14.4600
  64   2.0000      -0.524304       -14.2670
  65   2.0000      -0.513134       -13.9631
  66   2.0000      -0.501203       -13.6384
  67   2.0000      -0.496899       -13.5213
  68   2.0000      -0.485939       -13.2231
  69   2.0000      -0.463959       -12.6250
  70   2.0000      -0.454071       -12.3559
  71   2.0000      -0.449375       -12.2281
  72   2.0000      -0.354200        -9.6383
  73   2.0000      -0.348649        -9.4872
  74   2.0000      -0.328023        -8.9260
  75   2.0000      -0.320559        -8.7229
  76   2.0000      -0.315769        -8.5925
  77   0.0000       0.076559         2.0833
  78   0.0000       0.107215         2.9175
  79   0.0000       0.123812         3.3691
  80   0.0000       0.132534         3.6064
  81   0.0000       0.135943         3.6992

MULLIKEN ATOMIC CHARGES
-----------------------
   0 C :   -0.268301
   1 C :    0.020318
   2 O :   -0.352580
   3 C :    0.474850
   4 O :   -0.435916
   5 C :   -0.226338
   6 C :    0.150003
   7 C :   -0.274136
   8 N :   -0.120318
   9 C :    0.210273
  10 S :   -0.439818
  11 N :   -0.203183
  12 C :    0.048730
  13 C :    0.067962
  14 C :   -0.182935
  15 C :   -0.133329
  16 C :   -0.278511
  17 C :    0.315832
  18 O :   -0.356718
  19 C :   -0.268507
  20 H :    0.100460
  21 H :    0.090842
  22 H :    0.090873
  23 H :    0.119816
  24 H :    0.105709
  25 H :    0.132230
  26 H :    0.130674
  27 H :    0.094889
  28 H :    0.197371
  29 H :    0.194446
  30 H :    0.151010
  31 H :    0.149540
  32 H :    0.160080
  33 H :    0.129478
  34 H :    0.240544
  35 H :    0.164660
Sum of atomic charges:   -0.0000000

LOEWDIN ATOMIC CHARGES
----------------------
   0 C :    0.104359
   1 C :   -0.012984
   2 O :    0.310978
   3 C :   -0.413726
   4 O :    0.094433
   5 C :   -0.094452
   6 C :   -0.058787
   7 C :    0.131495
   8 N :    0.406545
   9 C :   -0.456698
  10 S :   -0.035446
  11 N :    0.396577
  12 C :   -0.052731
  13 C :   -0.038793
  14 C :    0.014295
  15 C :    0.038510
  16 C :   -0.001657
  17 C :   -0.189480
  18 O :    0.395097
  19 C :    0.031614
  20 H :   -0.025262
  21 H :   -0.026289
  22 H :   -0.029667
  23 H :   -0.028028
  24 H :   -0.029071
  25 H :   -0.004466
  26 H :   -0.004052
  27 H :   -0.023461
  28 H :   -0.057585
  29 H :   -0.064544
  30 H :   -0.011248
  31 H :   -0.030384
  32 H :   -0.021615
  33 H :   -0.035705
  34 H :   -0.154033
  35 H :   -0.023737

  Mayer bond orders larger than 0.100000
B(  0-C ,  1-C ) :   0.9717 B(  0-C , 20-H ) :   0.9790 B(  0-C , 21-H ) :   0.9753
B(  0-C , 22-H ) :   0.9791 B(  1-C ,  2-O ) :   0.8824 B(  1-C , 23-H ) :   0.9743
B(  1-C , 24-H ) :   0.9795 B(  2-O ,  3-C ) :   1.1719 B(  3-C ,  4-O ) :   1.9665
B(  3-C ,  5-C ) :   1.0599 B(  5-C ,  6-C ) :   1.6564 B(  5-C , 12-C ) :   0.9722
B(  6-C ,  7-C ) :   0.9672 B(  6-C ,  8-N ) :   1.1652 B(  7-C , 25-H ) :   0.9604
B(  7-C , 26-H ) :   0.9603 B(  7-C , 27-H ) :   0.9904 B(  8-N ,  9-C ) :   1.1826
B(  8-N , 28-H ) :   0.9479 B(  9-C , 10-S ) :   1.6079 B(  9-C , 11-N ) :   1.3047
B( 11-N , 12-C ) :   0.9895 B( 11-N , 29-H ) :   0.9517 B( 12-C , 13-C ) :   0.9360
B( 12-C , 30-H ) :   1.0031 B( 13-C , 14-C ) :   1.3547 B( 13-C , 19-C ) :   1.3828
B( 14-C , 15-C ) :   1.3918 B( 14-C , 31-H ) :   0.9717 B( 15-C , 16-C ) :   1.3637
B( 15-C , 32-H ) :   0.9707 B( 16-C , 17-C ) :   1.3316 B( 16-C , 33-H ) :   0.9852
B( 17-C , 18-O ) :   1.1098 B( 17-C , 19-C ) :   1.3731 B( 18-O , 34-H ) :   0.9800
B( 19-C , 35-H ) :   0.9582

MP2 TOTAL ENERGY:    -1274.349863526 Eh
FINAL SINGLE POINT ENERGY     -1274.349863526239

DIPOLE MOMENT
-------------
                                X             Y             Z
Electronic contribution:      9.03274       9.97522       9.97958
Nuclear contribution   :    -10.20318     -11.60070     -10.33321
                        -----------------------------------------
Total Dipole Moment    :     -1.17044      -1.62548      -0.35362
                        -----------------------------------------
Magnitude (a.u.)       :      2.03400
Magnitude (Debye)      :      5.17002

Rotational constants in cm-1:     0.010990     0.008682     0.006062
Rotational constants in MHz :   329.481585   260.294294   181.719238

                             ****ORCA TERMINATED NORMALLY****
TOTAL RUN TIME: 0 days 2 hours 6 minutes 58 seconds 254 msec
