                         Program Version 5.0.0 -  RELEASE  -
|  1> ! ri-mp2 cc-pvtz cc-pvtz/c TightSCF NoKeepInts
|  2>
|  3> %scf
|  4>   MaxCore 4096
|  5> end
|  6> *xyz  0  1
|  7>     C       14.9879669   15.7623727   17.4158215
|  8>     C       15.6532393   15.0470287   16.2212860
|  9>     O       17.0627544   14.7842112   16.4058984
| 10>     C       18.0989565   15.6841186   16.4638598
| 11>     O       19.2222365   15.2432251   16.3067625
| 12>     C       17.9305856   16.8337522   17.3943629
| 13>     C       17.4202033   18.0083493   16.9621452
| 14>     C       16.8881107   18.3041170   15.5755115
| 15>     N       17.3970009   19.1139384   17.8147156
| 16>     C       17.9989221   19.1575457   19.0455488
| 17>     S       17.9902560   20.5304127   19.9672890
| 18>     N       18.6114994   18.0052651   19.4750817
| 19>     C       18.5673338   16.7021083   18.7796271
| 20>     C       17.8823213   15.6280352   19.6217754
| 21>     C       18.3082127   14.2903886   19.5236998
| 22>     C       17.6907242   13.2821349   20.2819365
| 23>     C       16.6367219   13.6121658   21.1501379
| 24>     C       16.2072053   14.9419700   21.2514571
| 25>     O       15.1819184   15.2619770   22.0803217
| 26>     C       16.8226379   15.9442534   20.4944878
| 27>     H       15.2707747   15.2748202   18.3553400
| 28>     H       13.8972863   15.6874189   17.3280989
| 29>     H       15.2257154   16.8249001   17.4796010
| 30>     H       15.1483901   14.0821711   16.0816358
| 31>     H       15.4960274   15.6302168   15.3049419
| 32>     H       17.2541232   17.5875669   14.8300724
| 33>     H       17.2071173   19.2974422   15.2346074
| 34>     H       15.7918928   18.2800169   15.5591093
| 35>     H       16.9687778   19.9743434   17.5112313
| 36>     H       19.0381547   18.0642885   20.3910335
| 37>     H       19.6080887   16.3793525   18.6274975
| 38>     H       19.1163351   14.0294134   18.8431139
| 39>     H       18.0282110   12.2511614   20.1904479
| 40>     H       16.1557962   12.8359385   21.7360309
| 41>     H       14.9194005   14.4522112   22.5434411
| 42>     H       16.4621017   16.9633682   20.5860710
| 43> *
| 44>
| 45>                          ****END OF INPUT****

CARTESIAN COORDINATES (ANGSTROEM)
---------------------------------
  C     14.987967   15.762373   17.415821
  C     15.653239   15.047029   16.221286
  O     17.062754   14.784211   16.405898
  C     18.098956   15.684119   16.463860
  O     19.222237   15.243225   16.306763
  C     17.930586   16.833752   17.394363
  C     17.420203   18.008349   16.962145
  C     16.888111   18.304117   15.575511
  N     17.397001   19.113938   17.814716
  C     17.998922   19.157546   19.045549
  S     17.990256   20.530413   19.967289
  N     18.611499   18.005265   19.475082
  C     18.567334   16.702108   18.779627
  C     17.882321   15.628035   19.621775
  C     18.308213   14.290389   19.523700
  C     17.690724   13.282135   20.281936
  C     16.636722   13.612166   21.150138
  C     16.207205   14.941970   21.251457
  O     15.181918   15.261977   22.080322
  C     16.822638   15.944253   20.494488
  H     15.270775   15.274820   18.355340
  H     13.897286   15.687419   17.328099
  H     15.225715   16.824900   17.479601
  H     15.148390   14.082171   16.081636
  H     15.496027   15.630217   15.304942
  H     17.254123   17.587567   14.830072
  H     17.207117   19.297442   15.234607
  H     15.791893   18.280017   15.559109
  H     16.968778   19.974343   17.511231
  H     19.038155   18.064288   20.391033
  H     19.608089   16.379352   18.627497
  H     19.116335   14.029413   18.843114
  H     18.028211   12.251161   20.190448
  H     16.155796   12.835938   21.736031
  H     14.919400   14.452211   22.543441
  H     16.462102   16.963368   20.586071

 Total Charge           Charge          ....    0
 Multiplicity           Mult            ....    1
 Number of Electrons    NEL             ....  154
 Basis Dimension        Dim             ....  828

ORBITAL ENERGIES
----------------

  NO   OCC          E(Eh)            E(eV)
   0   2.0000     -91.888469     -2500.4124
   1   2.0000     -20.598853      -560.5233
   2   2.0000     -20.597172      -560.4776
   3   2.0000     -20.555251      -559.3368
   4   2.0000     -15.624512      -425.1646
   5   2.0000     -15.610568      -424.7852
   6   2.0000     -11.398272      -310.1627
   7   2.0000     -11.385308      -309.8100
   8   2.0000     -11.323380      -308.1248
   9   2.0000     -11.315488      -307.9101
  10   2.0000     -11.313778      -307.8635
  11   2.0000     -11.310608      -307.7773
  12   2.0000     -11.270856      -306.6956
  13   2.0000     -11.263936      -306.5073
  14   2.0000     -11.261851      -306.4505
  15   2.0000     -11.254373      -306.2471
  16   2.0000     -11.243318      -305.9462
  17   2.0000     -11.239003      -305.8288
  18   2.0000     -11.236305      -305.7554
  19   2.0000     -11.230511      -305.5977
  20   2.0000      -8.893591      -242.0069
  21   2.0000      -6.575186      -178.9199
  22   2.0000      -6.573154      -178.8646
  23   2.0000      -6.572585      -178.8491
  24   2.0000      -1.450005       -39.4566
  25   2.0000      -1.417017       -38.5590
  26   2.0000      -1.358793       -36.9746
  27   2.0000      -1.338169       -36.4134
  28   2.0000      -1.238273       -33.6951
  29   2.0000      -1.158481       -31.5239
  30   2.0000      -1.124397       -30.5964
  31   2.0000      -1.047468       -28.5030
  32   2.0000      -1.039577       -28.2883
  33   2.0000      -1.016790       -27.6683
  34   2.0000      -1.004158       -27.3245
  35   2.0000      -0.989115       -26.9152
  36   2.0000      -0.926920       -25.2228
  37   2.0000      -0.898143       -24.4397
  38   2.0000      -0.852232       -23.1904
  39   2.0000      -0.839438       -22.8423
  40   2.0000      -0.833757       -22.6877
  41   2.0000      -0.829338       -22.5674
  42   2.0000      -0.750143       -20.4124
  43   2.0000      -0.736784       -20.0489
  44   2.0000      -0.730258       -19.8713
  45   2.0000      -0.694321       -18.8934
  46   2.0000      -0.687041       -18.6953
  47   2.0000      -0.679013       -18.4769
  48   2.0000      -0.675084       -18.3700
  49   2.0000      -0.664987       -18.0952
  50   2.0000      -0.651643       -17.7321
  51   2.0000      -0.649576       -17.6759
  52   2.0000      -0.640037       -17.4163
  53   2.0000      -0.613164       -16.6850
  54   2.0000      -0.607733       -16.5373
  55   2.0000      -0.602827       -16.4038
  56   2.0000      -0.600955       -16.3528
  57   2.0000      -0.592322       -16.1179
  58   2.0000      -0.584264       -15.8986
  59   2.0000      -0.574313       -15.6279
  60   2.0000      -0.565038       -15.3755
  61   2.0000      -0.558240       -15.1905
  62   2.0000      -0.542630       -14.7657
  63   2.0000      -0.527965       -14.3667
  64   2.0000      -0.515027       -14.0146
  65   2.0000      -0.512395       -13.9430
  66   2.0000      -0.501826       -13.6554
  67   2.0000      -0.500578       -13.6214
  68   2.0000      -0.486518       -13.2388
  69   2.0000      -0.463259       -12.6059
  70   2.0000      -0.456665       -12.4265
  71   2.0000      -0.452546       -12.3144
  72   2.0000      -0.354429        -9.6445
  73   2.0000      -0.347909        -9.4671
  74   2.0000      -0.328244        -8.9320
  75   2.0000      -0.321878        -8.7588
  76   2.0000      -0.316519        -8.6129
  77   0.0000       0.090385         2.4595
  78   0.0000       0.101376         2.7586
  79   0.0000       0.111788         3.0419
  80   0.0000       0.128716         3.5026
  81   0.0000       0.131139         3.5685

MULLIKEN ATOMIC CHARGES
-----------------------
   0 C :   -0.331753
   1 C :    0.022412
   2 O :   -0.323738
   3 C :    0.384108
   4 O :   -0.365886
   5 C :   -0.145340
   6 C :    0.122497
   7 C :   -0.326111
   8 N :   -0.140162
   9 C :    0.210875
  10 S :   -0.444290
  11 N :   -0.232778
  12 C :    0.077978
  13 C :    0.030567
  14 C :   -0.205402
  15 C :   -0.137275
  16 C :   -0.274827
  17 C :    0.318208
  18 O :   -0.359237
  19 C :   -0.275887
  20 H :    0.132014
  21 H :    0.115190
  22 H :    0.103566
  23 H :    0.128554
  24 H :    0.088912
  25 H :    0.122085
  26 H :    0.132611
  27 H :    0.123921
  28 H :    0.195517
  29 H :    0.203521
  30 H :    0.169514
  31 H :    0.167115
  32 H :    0.163116
  33 H :    0.131917
  34 H :    0.240859
  35 H :    0.177630
Sum of atomic charges:    0.0000000

LOEWDIN ATOMIC CHARGES
----------------------
   0 C :    0.105157
   1 C :   -0.020836
   2 O :    0.306236
   3 C :   -0.420752
   4 O :    0.136616
   5 C :   -0.076595
   6 C :   -0.110187
   7 C :    0.124522
   8 N :    0.400587
   9 C :   -0.455220
  10 S :   -0.040341
  11 N :    0.398546
  12 C :   -0.040960
  13 C :   -0.041153
  14 C :    0.023253
  15 C :    0.044380
  16 C :   -0.002329
  17 C :   -0.194585
  18 O :    0.395280
  19 C :    0.027286
  20 H :   -0.021625
  21 H :   -0.024348
  22 H :   -0.038998
  23 H :   -0.016883
  24 H :   -0.038243
  25 H :   -0.010627
  26 H :   -0.010355
  27 H :   -0.017756
  28 H :   -0.059569
  29 H :   -0.064017
  30 H :   -0.001703
  31 H :   -0.021851
  32 H :   -0.018784
  33 H :   -0.035240
  34 H :   -0.153679
  35 H :   -0.025228

  Mayer bond orders larger than 0.100000
B(  0-C ,  1-C ) :   0.9541 B(  0-C , 20-H ) :   0.9677 B(  0-C , 21-H ) :   0.9788
B(  0-C , 22-H ) :   0.9758 B(  1-C ,  2-O ) :   0.9177 B(  1-C , 23-H ) :   0.9823
B(  1-C , 24-H ) :   0.9807 B(  2-O ,  3-C ) :   1.1146 B(  3-C ,  4-O ) :   2.0908
B(  3-C ,  5-C ) :   0.9159 B(  5-C ,  6-C ) :   1.7236 B(  5-C , 12-C ) :   0.9588
B(  6-C ,  7-C ) :   0.9382 B(  6-C ,  8-N ) :   1.0911 B(  7-C , 25-H ) :   0.9804
B(  7-C , 26-H ) :   0.9764 B(  7-C , 27-H ) :   0.9644 B(  8-N ,  9-C ) :   1.2024
B(  8-N , 28-H ) :   0.9531 B(  9-C , 10-S ) :   1.6037 B(  9-C , 11-N ) :   1.2854
B( 11-N , 12-C ) :   0.9818 B( 11-N , 29-H ) :   0.9462 B( 12-C , 13-C ) :   0.9498
B( 12-C , 30-H ) :   0.9950 B( 13-C , 14-C ) :   1.3855 B( 13-C , 19-C ) :   1.3431
B( 14-C , 15-C ) :   1.4030 B( 14-C , 31-H ) :   0.9628 B( 15-C , 16-C ) :   1.3568
B( 15-C , 32-H ) :   0.9701 B( 16-C , 17-C ) :   1.3321 B( 16-C , 33-H ) :   0.9849
B( 17-C , 18-O ) :   1.1077 B( 17-C , 19-C ) :   1.3649 B( 18-O , 34-H ) :   0.9797
B( 19-C , 35-H ) :   0.9582

MP2 TOTAL ENERGY:    -1274.315510932 Eh
FINAL SINGLE POINT ENERGY     -1274.315510932110

DIPOLE MOMENT
-------------
                                X             Y             Z
Electronic contribution:      9.48002       5.88833       6.77174
Nuclear contribution   :    -11.06879      -7.14499      -7.61207
                        -----------------------------------------
Total Dipole Moment    :     -1.58877      -1.25666      -0.84033
                        -----------------------------------------
Magnitude (a.u.)       :      2.19307
Magnitude (Debye)      :      5.57434

Rotational constants in cm-1:     0.011981     0.009517     0.006804
Rotational constants in MHz :   359.188585   285.305982   203.978230

                             ****ORCA TERMINATED NORMALLY****
TOTAL RUN TIME: 0 days 2 hours 16 minutes 41 seconds 832 msec
