                         Program Version 5.0.0 -  RELEASE  -
|  1> ! ri-mp2 cc-pvtz cc-pvtz/c TightSCF NoKeepInts
|  2>
|  3> %scf
|  4>   MaxCore 4096
|  5> end
|  6> *xyz  0  1
|  7>     C       15.4366630   13.8925111   15.1359446
|  8>     C       15.6092980   14.2528864   16.6233270
|  9>     O       16.7142918   15.1652440   16.7477361
| 10>     C       16.4870306   16.5123212   16.6879980
| 11>     O       15.5069613   16.9822764   16.1351391
| 12>     C       17.4237453   17.2957386   17.5661263
| 13>     C       17.3844286   18.6502000   17.6450063
| 14>     C       16.4472138   19.5843089   16.9097338
| 15>     N       18.3052175   19.3330519   18.4453706
| 16>     C       19.3554606   18.7504409   19.1031082
| 17>     S       20.4606334   19.6428358   19.9505193
| 18>     N       19.4476105   17.3845386   19.0201856
| 19>     C       18.4431243   16.5014637   18.3998195
| 20>     C       17.7657195   15.6575924   19.4762355
| 21>     C       17.9826350   14.2679453   19.5342832
| 22>     C       17.3565411   13.4870113   20.5203313
| 23>     C       16.5089744   14.1006206   21.4584434
| 24>     C       16.2947332   15.4848585   21.4067583
| 25>     O       15.4780230   16.0803658   22.3119077
| 26>     C       16.9185658   16.2592319   20.4237799
| 27>     H       15.1728755   14.7805722   14.5477767
| 28>     H       14.6369981   13.1526416   15.0106770
| 29>     H       16.3635301   13.4701226   14.7288673
| 30>     H       14.6858896   14.6871631   17.0310191
| 31>     H       15.8322864   13.3378265   17.1868814
| 32>     H       15.4075648   19.3994288   17.2092254
| 33>     H       16.5090820   19.4206074   15.8263698
| 34>     H       16.6630560   20.6428977   17.0957704
| 35>     H       18.2537994   20.3367243   18.5166056
| 36>     H       20.2113435   16.9807221   19.5469507
| 37>     H       18.9786592   15.8276828   17.7162259
| 38>     H       18.6339521   13.7905747   18.8069884
| 39>     H       17.5297340   12.4128410   20.5562539
| 40>     H       16.0239649   13.5021450   22.2226007
| 41>     H       15.1724288   15.3948354   22.9246606
| 42>     H       16.7449653   17.3297714   20.4053734
| 43> *
| 44>
| 45>                          ****END OF INPUT****

CARTESIAN COORDINATES (ANGSTROEM)
---------------------------------
  C     15.436663   13.892511   15.135945
  C     15.609298   14.252886   16.623327
  O     16.714292   15.165244   16.747736
  C     16.487031   16.512321   16.687998
  O     15.506961   16.982276   16.135139
  C     17.423745   17.295739   17.566126
  C     17.384429   18.650200   17.645006
  C     16.447214   19.584309   16.909734
  N     18.305217   19.333052   18.445371
  C     19.355461   18.750441   19.103108
  S     20.460633   19.642836   19.950519
  N     19.447610   17.384539   19.020186
  C     18.443124   16.501464   18.399819
  C     17.765719   15.657592   19.476236
  C     17.982635   14.267945   19.534283
  C     17.356541   13.487011   20.520331
  C     16.508974   14.100621   21.458443
  C     16.294733   15.484858   21.406758
  O     15.478023   16.080366   22.311908
  C     16.918566   16.259232   20.423780
  H     15.172875   14.780572   14.547777
  H     14.636998   13.152642   15.010677
  H     16.363530   13.470123   14.728867
  H     14.685890   14.687163   17.031019
  H     15.832286   13.337827   17.186881
  H     15.407565   19.399429   17.209225
  H     16.509082   19.420607   15.826370
  H     16.663056   20.642898   17.095770
  H     18.253799   20.336724   18.516606
  H     20.211343   16.980722   19.546951
  H     18.978659   15.827683   17.716226
  H     18.633952   13.790575   18.806988
  H     17.529734   12.412841   20.556254
  H     16.023965   13.502145   22.222601
  H     15.172429   15.394835   22.924661
  H     16.744965   17.329771   20.405373

 Total Charge           Charge          ....    0
 Multiplicity           Mult            ....    1
 Number of Electrons    NEL             ....  154
 Basis Dimension        Dim             ....  828

ORBITAL ENERGIES
----------------

  NO   OCC          E(Eh)            E(eV)
   0   2.0000     -91.889053     -2500.4283
   1   2.0000     -20.597882      -560.4969
   2   2.0000     -20.596759      -560.4663
   3   2.0000     -20.543606      -559.0199
   4   2.0000     -15.629309      -425.2951
   5   2.0000     -15.608384      -424.7257
   6   2.0000     -11.395565      -310.0891
   7   2.0000     -11.384161      -309.7788
   8   2.0000     -11.336055      -308.4697
   9   2.0000     -11.313985      -307.8692
  10   2.0000     -11.309275      -307.7410
  11   2.0000     -11.296731      -307.3997
  12   2.0000     -11.259897      -306.3974
  13   2.0000     -11.259050      -306.3743
  14   2.0000     -11.255504      -306.2778
  15   2.0000     -11.252434      -306.1943
  16   2.0000     -11.243164      -305.9420
  17   2.0000     -11.238554      -305.8166
  18   2.0000     -11.238315      -305.8101
  19   2.0000     -11.221516      -305.3530
  20   2.0000      -8.894112      -242.0211
  21   2.0000      -6.575686      -178.9335
  22   2.0000      -6.573682      -178.8790
  23   2.0000      -6.573094      -178.8630
  24   2.0000      -1.451235       -39.4901
  25   2.0000      -1.416404       -38.5423
  26   2.0000      -1.355032       -36.8723
  27   2.0000      -1.340243       -36.4699
  28   2.0000      -1.238688       -33.7064
  29   2.0000      -1.157746       -31.5039
  30   2.0000      -1.120488       -30.4900
  31   2.0000      -1.042856       -28.3776
  32   2.0000      -1.035510       -28.1777
  33   2.0000      -1.015272       -27.6270
  34   2.0000      -0.995294       -27.0833
  35   2.0000      -0.983976       -26.7753
  36   2.0000      -0.922723       -25.1086
  37   2.0000      -0.890126       -24.2216
  38   2.0000      -0.847331       -23.0570
  39   2.0000      -0.838064       -22.8049
  40   2.0000      -0.834216       -22.7002
  41   2.0000      -0.819885       -22.3102
  42   2.0000      -0.758286       -20.6340
  43   2.0000      -0.732266       -19.9260
  44   2.0000      -0.723133       -19.6774
  45   2.0000      -0.695843       -18.9348
  46   2.0000      -0.688595       -18.7376
  47   2.0000      -0.680362       -18.5136
  48   2.0000      -0.671050       -18.2602
  49   2.0000      -0.653391       -17.7797
  50   2.0000      -0.646766       -17.5994
  51   2.0000      -0.645488       -17.5646
  52   2.0000      -0.630197       -17.1485
  53   2.0000      -0.610790       -16.6204
  54   2.0000      -0.606954       -16.5161
  55   2.0000      -0.599549       -16.3146
  56   2.0000      -0.598948       -16.2982
  57   2.0000      -0.579900       -15.7799
  58   2.0000      -0.572585       -15.5808
  59   2.0000      -0.570445       -15.5226
  60   2.0000      -0.563804       -15.3419
  61   2.0000      -0.539179       -14.6718
  62   2.0000      -0.535400       -14.5690
  63   2.0000      -0.525150       -14.2900
  64   2.0000      -0.521730       -14.1970
  65   2.0000      -0.513662       -13.9775
  66   2.0000      -0.501092       -13.6354
  67   2.0000      -0.497516       -13.5381
  68   2.0000      -0.486740       -13.2449
  69   2.0000      -0.464181       -12.6310
  70   2.0000      -0.454795       -12.3756
  71   2.0000      -0.447022       -12.1641
  72   2.0000      -0.354369        -9.6429
  73   2.0000      -0.349556        -9.5119
  74   2.0000      -0.328413        -8.9366
  75   2.0000      -0.321605        -8.7513
  76   2.0000      -0.316214        -8.6046
  77   0.0000       0.074960         2.0398
  78   0.0000       0.106024         2.8851
  79   0.0000       0.125216         3.4073
  80   0.0000       0.132368         3.6019
  81   0.0000       0.137779         3.7492

MULLIKEN ATOMIC CHARGES
-----------------------
   0 C :   -0.279959
   1 C :    0.042596
   2 O :   -0.360375
   3 C :    0.452893
   4 O :   -0.431167
   5 C :   -0.210122
   6 C :    0.152765
   7 C :   -0.273533
   8 N :   -0.121342
   9 C :    0.211464
  10 S :   -0.439625
  11 N :   -0.204656
  12 C :    0.057546
  13 C :    0.065021
  14 C :   -0.189859
  15 C :   -0.129598
  16 C :   -0.279794
  17 C :    0.316003
  18 O :   -0.356454
  19 C :   -0.269073
  20 H :    0.114387
  21 H :    0.091488
  22 H :    0.090522
  23 H :    0.096066
  24 H :    0.106505
  25 H :    0.132672
  26 H :    0.129795
  27 H :    0.095491
  28 H :    0.197425
  29 H :    0.194659
  30 H :    0.150355
  31 H :    0.150559
  32 H :    0.161442
  33 H :    0.130165
  34 H :    0.240761
  35 H :    0.164974
Sum of atomic charges:   -0.0000000

LOEWDIN ATOMIC CHARGES
----------------------
   0 C :    0.104620
   1 C :   -0.015779
   2 O :    0.305805
   3 C :   -0.414122
   4 O :    0.100040
   5 C :   -0.094820
   6 C :   -0.058942
   7 C :    0.131475
   8 N :    0.406596
   9 C :   -0.456419
  10 S :   -0.035190
  11 N :    0.396387
  12 C :   -0.052296
  13 C :   -0.038190
  14 C :    0.014532
  15 C :    0.038470
  16 C :   -0.002117
  17 C :   -0.189467
  18 O :    0.395285
  19 C :    0.031186
  20 H :   -0.024467
  21 H :   -0.028617
  22 H :   -0.029870
  23 H :   -0.027766
  24 H :   -0.026994
  25 H :   -0.004559
  26 H :   -0.004162
  27 H :   -0.023276
  28 H :   -0.057540
  29 H :   -0.064607
  30 H :   -0.010452
  31 H :   -0.030078
  32 H :   -0.021431
  33 H :   -0.035619
  34 H :   -0.153860
  35 H :   -0.023755

  Mayer bond orders larger than 0.100000
B(  0-C ,  1-C ) :   0.9748 B(  0-C , 20-H ) :   0.9754 B(  0-C , 21-H ) :   0.9774
B(  0-C , 22-H ) :   0.9770 B(  1-C ,  2-O ) :   0.8867 B(  1-C , 23-H ) :   0.9733
B(  1-C , 24-H ) :   0.9802 B(  2-O ,  3-C ) :   1.1469 B(  3-C ,  4-O ) :   1.9616
B(  3-C ,  5-C ) :   1.0658 B(  5-C ,  6-C ) :   1.6541 B(  5-C , 12-C ) :   0.9728
B(  6-C ,  7-C ) :   0.9672 B(  6-C ,  8-N ) :   1.1624 B(  7-C , 25-H ) :   0.9596
B(  7-C , 26-H ) :   0.9609 B(  7-C , 27-H ) :   0.9908 B(  8-N ,  9-C ) :   1.1827
B(  8-N , 28-H ) :   0.9478 B(  9-C , 10-S ) :   1.6076 B(  9-C , 11-N ) :   1.3053
B( 11-N , 12-C ) :   0.9850 B( 11-N , 29-H ) :   0.9516 B( 12-C , 13-C ) :   0.9358
B( 12-C , 30-H ) :   1.0025 B( 13-C , 14-C ) :   1.3538 B( 13-C , 19-C ) :   1.3826
B( 14-C , 15-C ) :   1.3893 B( 14-C , 31-H ) :   0.9720 B( 15-C , 16-C ) :   1.3639
B( 15-C , 32-H ) :   0.9704 B( 16-C , 17-C ) :   1.3313 B( 16-C , 33-H ) :   0.9849
B( 17-C , 18-O ) :   1.1103 B( 17-C , 19-C ) :   1.3722 B( 18-O , 34-H ) :   0.9798
B( 19-C , 35-H ) :   0.9583

MP2 TOTAL ENERGY:    -1274.346125294 Eh
FINAL SINGLE POINT ENERGY     -1274.346125293501

DIPOLE MOMENT
-------------
                                X             Y             Z
Electronic contribution:     10.17358       9.85484       9.35912
Nuclear contribution   :    -11.28721     -11.45935      -9.59812
                        -----------------------------------------
Total Dipole Moment    :     -1.11363      -1.60451      -0.23899
                        -----------------------------------------
Magnitude (a.u.)       :      1.96768
Magnitude (Debye)      :      5.00144

Rotational constants in cm-1:     0.011413     0.008699     0.006072
Rotational constants in MHz :   342.139814   260.786779   182.030314

                             ****ORCA TERMINATED NORMALLY****
TOTAL RUN TIME: 0 days 2 hours 22 minutes 24 seconds 906 msec
