                         Program Version 5.0.0 -  RELEASE  -
|  1> ! ri-mp2 cc-pvtz cc-pvtz/c TightSCF NoKeepInts
|  2>
|  3> %scf
|  4>   MaxCore 4096
|  5> end
|  6> *xyz  0  1
|  7>     C       14.6078736   15.4355087   17.0750051
|  8>     C       15.8052963   14.7352150   16.4093476
|  9>     O       16.6580430   15.7535958   15.8554736
| 10>     C       17.9056333   15.8857912   16.3881931
| 11>     O       18.6427373   14.9189527   16.4839632
| 12>     C       17.9630637   17.0064988   17.3795804
| 13>     C       17.3479329   18.2003237   17.1941841
| 14>     C       16.5556065   18.6430193   15.9821705
| 15>     N       17.4781488   19.2059803   18.1563821
| 16>     C       18.3023107   19.1388332   19.2494503
| 17>     S       18.4800442   20.4158457   20.2851779
| 18>     N       18.9715317   17.9556880   19.4423734
| 19>     C       18.7601445   16.7251666   18.6556791
| 20>     C       18.0583070   15.6610840   19.4955151
| 21>     C       18.6019833   14.3683863   19.6089558
| 22>     C       17.9446770   13.3777168   20.3574845
| 23>     C       16.7307340   13.6803077   20.9973155
| 24>     C       16.1839208   14.9655218   20.8840780
| 25>     O       15.0053661   15.2580501   21.4892088
| 26>     C       16.8414611   15.9497711   20.1399731
| 27>     H       14.9438489   16.1003824   17.8799782
| 28>     H       13.9248769   14.6952925   17.5092252
| 29>     H       14.0489763   16.0296150   16.3417143
| 30>     H       16.3352848   14.1205718   17.1513573
| 31>     H       15.4494193   14.0743896   15.6084823
| 32>     H       15.5334109   18.2473822   16.0220059
| 33>     H       17.0177260   18.2809726   15.0552313
| 34>     H       16.4912087   19.7349887   15.9014875
| 35>     H       16.9961772   20.0820894   18.0318753
| 36>     H       19.5499607   17.9240473   20.2721471
| 37>     H       19.7471026   16.3407153   18.3599528
| 38>     H       19.5294685   14.1254547   19.0957135
| 39>     H       18.3735085   12.3798847   20.4320706
| 40>     H       16.2179956   12.9168826   21.5730181
| 41>     H       14.7424896   14.4800340   22.0038292
| 42>     H       16.4007296   16.9380403   20.0664003
| 43> *
| 44>
| 45>                          ****END OF INPUT****

CARTESIAN COORDINATES (ANGSTROEM)
---------------------------------
  C     14.607874   15.435509   17.075005
  C     15.805296   14.735215   16.409348
  O     16.658043   15.753596   15.855474
  C     17.905633   15.885791   16.388193
  O     18.642737   14.918953   16.483963
  C     17.963064   17.006499   17.379580
  C     17.347933   18.200324   17.194184
  C     16.555606   18.643019   15.982171
  N     17.478149   19.205980   18.156382
  C     18.302311   19.138833   19.249450
  S     18.480044   20.415846   20.285178
  N     18.971532   17.955688   19.442373
  C     18.760144   16.725167   18.655679
  C     18.058307   15.661084   19.495515
  C     18.601983   14.368386   19.608956
  C     17.944677   13.377717   20.357485
  C     16.730734   13.680308   20.997315
  C     16.183921   14.965522   20.884078
  O     15.005366   15.258050   21.489209
  C     16.841461   15.949771   20.139973
  H     14.943849   16.100382   17.879978
  H     13.924877   14.695292   17.509225
  H     14.048976   16.029615   16.341714
  H     16.335285   14.120572   17.151357
  H     15.449419   14.074390   15.608482
  H     15.533411   18.247382   16.022006
  H     17.017726   18.280973   15.055231
  H     16.491209   19.734989   15.901487
  H     16.996177   20.082089   18.031875
  H     19.549961   17.924047   20.272147
  H     19.747103   16.340715   18.359953
  H     19.529469   14.125455   19.095713
  H     18.373508   12.379885   20.432071
  H     16.217996   12.916883   21.573018
  H     14.742490   14.480034   22.003829
  H     16.400730   16.938040   20.066400

 Total Charge           Charge          ....    0
 Multiplicity           Mult            ....    1
 Number of Electrons    NEL             ....  154
 Basis Dimension        Dim             ....  828

ORBITAL ENERGIES
----------------

  NO   OCC          E(Eh)            E(eV)
   0   2.0000     -91.889420     -2500.4382
   1   2.0000     -20.597569      -560.4884
   2   2.0000     -20.583794      -560.1135
   3   2.0000     -20.555410      -559.3411
   4   2.0000     -15.628737      -425.2796
   5   2.0000     -15.609175      -424.7473
   6   2.0000     -11.394473      -310.0594
   7   2.0000     -11.385019      -309.8021
   8   2.0000     -11.332748      -308.3797
   9   2.0000     -11.313697      -307.8613
  10   2.0000     -11.309950      -307.7594
  11   2.0000     -11.298472      -307.4470
  12   2.0000     -11.260292      -306.4081
  13   2.0000     -11.259941      -306.3986
  14   2.0000     -11.259294      -306.3810
  15   2.0000     -11.253812      -306.2318
  16   2.0000     -11.243529      -305.9520
  17   2.0000     -11.239390      -305.8394
  18   2.0000     -11.236432      -305.7589
  19   2.0000     -11.228619      -305.5463
  20   2.0000      -8.894494      -242.0315
  21   2.0000      -6.576072      -178.9440
  22   2.0000      -6.574062      -178.8893
  23   2.0000      -6.573478      -178.8734
  24   2.0000      -1.452677       -39.5294
  25   2.0000      -1.417321       -38.5673
  26   2.0000      -1.356346       -36.9080
  27   2.0000      -1.340025       -36.4639
  28   2.0000      -1.238479       -33.7007
  29   2.0000      -1.157887       -31.5077
  30   2.0000      -1.122152       -30.5353
  31   2.0000      -1.045615       -28.4526
  32   2.0000      -1.034002       -28.1366
  33   2.0000      -1.015396       -27.6303
  34   2.0000      -1.000154       -27.2156
  35   2.0000      -0.986355       -26.8401
  36   2.0000      -0.924468       -25.1561
  37   2.0000      -0.885861       -24.1055
  38   2.0000      -0.848340       -23.0845
  39   2.0000      -0.839418       -22.8417
  40   2.0000      -0.834025       -22.6950
  41   2.0000      -0.822619       -22.3846
  42   2.0000      -0.757148       -20.6030
  43   2.0000      -0.736315       -20.0361
  44   2.0000      -0.729148       -19.8411
  45   2.0000      -0.695890       -18.9361
  46   2.0000      -0.686290       -18.6749
  47   2.0000      -0.679587       -18.4925
  48   2.0000      -0.676252       -18.4018
  49   2.0000      -0.659694       -17.9512
  50   2.0000      -0.654128       -17.7997
  51   2.0000      -0.645452       -17.5636
  52   2.0000      -0.637268       -17.3409
  53   2.0000      -0.606931       -16.5154
  54   2.0000      -0.604106       -16.4386
  55   2.0000      -0.601261       -16.3611
  56   2.0000      -0.593353       -16.1460
  57   2.0000      -0.579336       -15.7645
  58   2.0000      -0.577015       -15.7014
  59   2.0000      -0.571869       -15.5613
  60   2.0000      -0.562275       -15.3003
  61   2.0000      -0.551198       -14.9989
  62   2.0000      -0.544588       -14.8190
  63   2.0000      -0.522712       -14.2237
  64   2.0000      -0.515236       -14.0203
  65   2.0000      -0.510903       -13.9024
  66   2.0000      -0.503088       -13.6897
  67   2.0000      -0.499143       -13.5824
  68   2.0000      -0.483688       -13.1618
  69   2.0000      -0.465017       -12.6538
  70   2.0000      -0.457111       -12.4386
  71   2.0000      -0.452556       -12.3147
  72   2.0000      -0.354347        -9.6423
  73   2.0000      -0.349419        -9.5082
  74   2.0000      -0.328756        -8.9459
  75   2.0000      -0.321044        -8.7360
  76   2.0000      -0.316350        -8.6083
  77   0.0000       0.070523         1.9190
  78   0.0000       0.103468         2.8155
  79   0.0000       0.119614         3.2548
  80   0.0000       0.130186         3.5425
  81   0.0000       0.136334         3.7098

MULLIKEN ATOMIC CHARGES
-----------------------
   0 C :   -0.306387
   1 C :    0.041662
   2 O :   -0.377290
   3 C :    0.458851
   4 O :   -0.398468
   5 C :   -0.199064
   6 C :    0.138676
   7 C :   -0.282350
   8 N :   -0.124090
   9 C :    0.198824
  10 S :   -0.438824
  11 N :   -0.202127
  12 C :    0.054051
  13 C :    0.047764
  14 C :   -0.166003
  15 C :   -0.133878
  16 C :   -0.280119
  17 C :    0.325557
  18 O :   -0.361105
  19 C :   -0.309208
  20 H :    0.104723
  21 H :    0.111981
  22 H :    0.099862
  23 H :    0.106829
  24 H :    0.110775
  25 H :    0.126396
  26 H :    0.124045
  27 H :    0.107141
  28 H :    0.197491
  29 H :    0.194328
  30 H :    0.156641
  31 H :    0.159229
  32 H :    0.162113
  33 H :    0.131655
  34 H :    0.241301
  35 H :    0.179022
Sum of atomic charges:    0.0000000

LOEWDIN ATOMIC CHARGES
----------------------
   0 C :    0.103219
   1 C :   -0.011233
   2 O :    0.289910
   3 C :   -0.418582
   4 O :    0.128721
   5 C :   -0.094138
   6 C :   -0.076383
   7 C :    0.126946
   8 N :    0.404326
   9 C :   -0.457571
  10 S :   -0.035885
  11 N :    0.397007
  12 C :   -0.045223
  13 C :   -0.042045
  14 C :    0.021391
  15 C :    0.041335
  16 C :   -0.002237
  17 C :   -0.193983
  18 O :    0.394071
  19 C :    0.029258
  20 H :   -0.030158
  21 H :   -0.023253
  22 H :   -0.031507
  23 H :   -0.024326
  24 H :   -0.027029
  25 H :   -0.010836
  26 H :   -0.007743
  27 H :   -0.019054
  28 H :   -0.058595
  29 H :   -0.064100
  30 H :   -0.004268
  31 H :   -0.024068
  32 H :   -0.019980
  33 H :   -0.035337
  34 H :   -0.153612
  35 H :   -0.025039

  Mayer bond orders larger than 0.100000
B(  0-C ,  1-C ) :   0.9669 B(  0-C , 20-H ) :   0.9727 B(  0-C , 21-H ) :   0.9786
B(  0-C , 22-H ) :   0.9779 B(  1-C ,  2-O ) :   0.8847 B(  1-C , 23-H ) :   0.9680
B(  1-C , 24-H ) :   0.9861 B(  2-O ,  3-C ) :   1.0960 B(  3-C ,  4-O ) :   2.0340
B(  3-C ,  5-C ) :   1.0147 B(  5-C ,  6-C ) :   1.6715 B(  5-C , 12-C ) :   0.9633
B(  6-C ,  7-C ) :   0.9539 B(  6-C ,  8-N ) :   1.1364 B(  7-C , 25-H ) :   0.9624
B(  7-C , 26-H ) :   0.9709 B(  7-C , 27-H ) :   0.9874 B(  8-N ,  9-C ) :   1.1851
B(  8-N , 28-H ) :   0.9498 B(  9-C , 10-S ) :   1.6130 B(  9-C , 11-N ) :   1.2973
B( 11-N , 12-C ) :   0.9930 B( 11-N , 29-H ) :   0.9516 B( 12-C , 13-C ) :   0.9451
B( 12-C , 30-H ) :   0.9982 B( 13-C , 14-C ) :   1.3802 B( 13-C , 19-C ) :   1.3518
B( 14-C , 15-C ) :   1.3950 B( 14-C , 31-H ) :   0.9627 B( 15-C , 16-C ) :   1.3634
B( 15-C , 32-H ) :   0.9708 B( 16-C , 17-C ) :   1.3310 B( 16-C , 33-H ) :   0.9845
B( 17-C , 18-O ) :   1.1069 B( 17-C , 19-C ) :   1.3676 B( 18-O , 34-H ) :   0.9801
B( 19-C , 35-H ) :   0.9547

MP2 TOTAL ENERGY:    -1274.324986841 Eh
FINAL SINGLE POINT ENERGY     -1274.324986840583

DIPOLE MOMENT
-------------
                                X             Y             Z
Electronic contribution:     10.61894       7.56107       6.13368
Nuclear contribution   :    -11.84017      -8.87024      -6.73934
                        -----------------------------------------
Total Dipole Moment    :     -1.22123      -1.30917      -0.60567
                        -----------------------------------------
Magnitude (a.u.)       :      1.89002
Magnitude (Debye)      :      4.80404

Rotational constants in cm-1:     0.012059     0.009357     0.007005
Rotational constants in MHz :   361.512390   280.513273   210.015471

                             ****ORCA TERMINATED NORMALLY****
TOTAL RUN TIME: 0 days 2 hours 0 minutes 44 seconds 104 msec
