                         Program Version 5.0.0 -  RELEASE  -
|  1> ! ri-mp2 cc-pvtz cc-pvtz/c TightSCF NoKeepInts
|  2>
|  3> %scf
|  4>   MaxCore 4096
|  5> end
|  6> *xyz  0  1
|  7>     C       14.3417979   14.6482664   16.9148848
|  8>     C       15.3958770   15.7621672   17.0144072
|  9>     O       16.6299949   15.2204161   16.5139843
| 10>     C       17.7820022   15.9505603   16.3758494
| 11>     O       18.7785279   15.3888994   15.9614424
| 12>     C       17.9249963   17.0452241   17.3789028
| 13>     C       17.4091535   18.2782449   17.1782482
| 14>     C       16.6480204   18.7564107   15.9609895
| 15>     N       17.6178670   19.2813984   18.1268288
| 16>     C       18.4040136   19.1468550   19.2421869
| 17>     S       18.6386482   20.4012006   20.2935656
| 18>     N       18.9819521   17.9172594   19.4473092
| 19>     C       18.7529194   16.7152338   18.6198805
| 20>     C       18.1033562   15.5924333   19.4235597
| 21>     C       18.5144089   14.2611288   19.2284936
| 22>     C       17.9046488   13.2117307   19.9356258
| 23>     C       16.8714084   13.4940273   20.8449643
| 24>     C       16.4544157   14.8176943   21.0379624
| 25>     O       15.4466334   15.0925728   21.9035801
| 26>     C       17.0635125   15.8610469   20.3335436
| 27>     H       13.3692345   15.0019685   17.2778508
| 28>     H       14.6407794   13.7833827   17.5208119
| 29>     H       14.2238669   14.3172306   15.8754739
| 30>     H       15.0699847   16.6144649   16.4074608
| 31>     H       15.4988325   16.0812541   18.0595018
| 32>     H       16.6504978   18.0186131   15.1492160
| 33>     H       17.1004721   19.6703813   15.5548959
| 34>     H       15.6036888   18.9809790   16.2105818
| 35>     H       17.2160511   20.1955006   17.9881973
| 36>     H       19.5405965   17.8428899   20.2882454
| 37>     H       19.7345588   16.3586143   18.2740542
| 38>     H       19.2983254   14.0373307   18.5078338
| 39>     H       18.2282647   12.1856220   19.7693933
| 40>     H       16.3949319   12.6854665   21.3893570
| 41>     H       15.1935222   14.2587347   22.3280381
| 42>     H       16.7192384   16.8767964   20.4968787
| 43> *
| 44>
| 45>                          ****END OF INPUT****

CARTESIAN COORDINATES (ANGSTROEM)
---------------------------------
  C     14.341798   14.648266   16.914885
  C     15.395877   15.762167   17.014407
  O     16.629995   15.220416   16.513984
  C     17.782002   15.950560   16.375849
  O     18.778528   15.388899   15.961442
  C     17.924996   17.045224   17.378903
  C     17.409153   18.278245   17.178248
  C     16.648020   18.756411   15.960990
  N     17.617867   19.281398   18.126829
  C     18.404014   19.146855   19.242187
  S     18.638648   20.401201   20.293566
  N     18.981952   17.917259   19.447309
  C     18.752919   16.715234   18.619881
  C     18.103356   15.592433   19.423560
  C     18.514409   14.261129   19.228494
  C     17.904649   13.211731   19.935626
  C     16.871408   13.494027   20.844964
  C     16.454416   14.817694   21.037962
  O     15.446633   15.092573   21.903580
  C     17.063513   15.861047   20.333544
  H     13.369234   15.001968   17.277851
  H     14.640779   13.783383   17.520812
  H     14.223867   14.317231   15.875474
  H     15.069985   16.614465   16.407461
  H     15.498832   16.081254   18.059502
  H     16.650498   18.018613   15.149216
  H     17.100472   19.670381   15.554896
  H     15.603689   18.980979   16.210582
  H     17.216051   20.195501   17.988197
  H     19.540596   17.842890   20.288245
  H     19.734559   16.358614   18.274054
  H     19.298325   14.037331   18.507834
  H     18.228265   12.185622   19.769393
  H     16.394932   12.685467   21.389357
  H     15.193522   14.258735   22.328038
  H     16.719238   16.876796   20.496879

 Total Charge           Charge          ....    0
 Multiplicity           Mult            ....    1
 Number of Electrons    NEL             ....  154
 Basis Dimension        Dim             ....  828

ORBITAL ENERGIES
----------------

  NO   OCC          E(Eh)            E(eV)
   0   2.0000     -91.888815     -2500.4218
   1   2.0000     -20.602345      -560.6183
   2   2.0000     -20.599459      -560.5398
   3   2.0000     -20.553946      -559.3013
   4   2.0000     -15.624439      -425.1626
   5   2.0000     -15.611407      -424.8080
   6   2.0000     -11.396924      -310.1261
   7   2.0000     -11.385858      -309.8249
   8   2.0000     -11.324873      -308.1655
   9   2.0000     -11.316472      -307.9368
  10   2.0000     -11.316217      -307.9299
  11   2.0000     -11.302714      -307.5625
  12   2.0000     -11.270718      -306.6918
  13   2.0000     -11.264786      -306.5304
  14   2.0000     -11.263379      -306.4921
  15   2.0000     -11.256093      -306.2939
  16   2.0000     -11.245377      -306.0023
  17   2.0000     -11.241646      -305.9008
  18   2.0000     -11.238561      -305.8168
  19   2.0000     -11.232457      -305.6507
  20   2.0000      -8.893951      -242.0167
  21   2.0000      -6.575546      -178.9297
  22   2.0000      -6.573513      -178.8744
  23   2.0000      -6.572944      -178.8589
  24   2.0000      -1.452448       -39.5231
  25   2.0000      -1.419273       -38.6204
  26   2.0000      -1.361819       -37.0570
  27   2.0000      -1.338601       -36.4252
  28   2.0000      -1.239010       -33.7152
  29   2.0000      -1.160681       -31.5837
  30   2.0000      -1.125096       -30.6154
  31   2.0000      -1.048842       -28.5404
  32   2.0000      -1.040594       -28.3160
  33   2.0000      -1.018473       -27.7141
  34   2.0000      -1.004807       -27.3422
  35   2.0000      -0.988573       -26.9004
  36   2.0000      -0.927623       -25.2419
  37   2.0000      -0.880847       -23.9691
  38   2.0000      -0.855149       -23.2698
  39   2.0000      -0.841134       -22.8884
  40   2.0000      -0.836941       -22.7743
  41   2.0000      -0.836199       -22.7541
  42   2.0000      -0.757695       -20.6179
  43   2.0000      -0.738867       -20.1056
  44   2.0000      -0.731355       -19.9012
  45   2.0000      -0.697584       -18.9822
  46   2.0000      -0.688460       -18.7339
  47   2.0000      -0.681937       -18.5565
  48   2.0000      -0.677587       -18.4381
  49   2.0000      -0.662685       -18.0326
  50   2.0000      -0.657774       -17.8990
  51   2.0000      -0.650525       -17.7017
  52   2.0000      -0.639419       -17.3995
  53   2.0000      -0.612111       -16.6564
  54   2.0000      -0.607947       -16.5431
  55   2.0000      -0.603131       -16.4120
  56   2.0000      -0.596759       -16.2386
  57   2.0000      -0.585117       -15.9219
  58   2.0000      -0.576978       -15.7004
  59   2.0000      -0.569382       -15.4937
  60   2.0000      -0.563727       -15.3398
  61   2.0000      -0.558036       -15.1849
  62   2.0000      -0.551546       -15.0083
  63   2.0000      -0.526837       -14.3360
  64   2.0000      -0.518054       -14.0970
  65   2.0000      -0.514800       -14.0084
  66   2.0000      -0.508758       -13.8440
  67   2.0000      -0.501865       -13.6564
  68   2.0000      -0.487205       -13.2575
  69   2.0000      -0.468570       -12.7504
  70   2.0000      -0.454320       -12.3627
  71   2.0000      -0.452035       -12.3005
  72   2.0000      -0.356204        -9.6928
  73   2.0000      -0.350934        -9.5494
  74   2.0000      -0.328645        -8.9429
  75   2.0000      -0.323604        -8.8057
  76   2.0000      -0.317390        -8.6366
  77   0.0000       0.091098         2.4789
  78   0.0000       0.103161         2.8071
  79   0.0000       0.108666         2.9569
  80   0.0000       0.128008         3.4833
  81   0.0000       0.130284         3.5452

MULLIKEN ATOMIC CHARGES
-----------------------
   0 C :   -0.260610
   1 C :    0.012499
   2 O :   -0.299397
   3 C :    0.386513
   4 O :   -0.374009
   5 C :   -0.171846
   6 C :    0.141595
   7 C :   -0.331986
   8 N :   -0.140302
   9 C :    0.208634
  10 S :   -0.443483
  11 N :   -0.219794
  12 C :    0.068348
  13 C :    0.035264
  14 C :   -0.189662
  15 C :   -0.131317
  16 C :   -0.276561
  17 C :    0.324147
  18 O :   -0.357614
  19 C :   -0.298141
  20 H :    0.087509
  21 H :    0.107562
  22 H :    0.102054
  23 H :    0.087797
  24 H :    0.106849
  25 H :    0.119687
  26 H :    0.139416
  27 H :    0.122410
  28 H :    0.195192
  29 H :    0.200155
  30 H :    0.166204
  31 H :    0.163774
  32 H :    0.163192
  33 H :    0.132349
  34 H :    0.241542
  35 H :    0.182033
Sum of atomic charges:   -0.0000000

LOEWDIN ATOMIC CHARGES
----------------------
   0 C :    0.112710
   1 C :   -0.028450
   2 O :    0.318090
   3 C :   -0.419926
   4 O :    0.130931
   5 C :   -0.078417
   6 C :   -0.109816
   7 C :    0.121701
   8 N :    0.400022
   9 C :   -0.455300
  10 S :   -0.039945
  11 N :    0.397455
  12 C :   -0.042411
  13 C :   -0.041686
  14 C :    0.024869
  15 C :    0.046236
  16 C :   -0.000354
  17 C :   -0.194035
  18 O :    0.394615
  19 C :    0.026593
  20 H :   -0.025404
  21 H :   -0.022930
  22 H :   -0.025277
  23 H :   -0.038287
  24 H :   -0.034954
  25 H :   -0.010667
  26 H :   -0.009687
  27 H :   -0.017377
  28 H :   -0.058797
  29 H :   -0.063672
  30 H :   -0.002210
  31 H :   -0.022200
  32 H :   -0.018562
  33 H :   -0.034817
  34 H :   -0.153068
  35 H :   -0.024970

  Mayer bond orders larger than 0.100000
B(  0-C ,  1-C ) :   0.9846 B(  0-C , 20-H ) :   0.9768 B(  0-C , 21-H ) :   0.9791
B(  0-C , 22-H ) :   0.9787 B(  1-C ,  2-O ) :   0.9182 B(  1-C , 23-H ) :   0.9755
B(  1-C , 24-H ) :   0.9571 B(  2-O ,  3-C ) :   1.1542 B(  3-C ,  4-O ) :   2.0966
B(  3-C ,  5-C ) :   0.9186 B(  5-C ,  6-C ) :   1.6978 B(  5-C , 12-C ) :   0.9618
B(  6-C ,  7-C ) :   0.9425 B(  6-C ,  8-N ) :   1.1119 B(  7-C , 25-H ) :   0.9827
B(  7-C , 26-H ) :   0.9693 B(  7-C , 27-H ) :   0.9667 B(  8-N ,  9-C ) :   1.2003
B(  8-N , 28-H ) :   0.9534 B(  9-C , 10-S ) :   1.6077 B(  9-C , 11-N ) :   1.2847
B( 11-N , 12-C ) :   0.9944 B( 11-N , 29-H ) :   0.9477 B( 12-C , 13-C ) :   0.9443
B( 12-C , 30-H ) :   0.9976 B( 13-C , 14-C ) :   1.3871 B( 13-C , 19-C ) :   1.3384
B( 14-C , 15-C ) :   1.3985 B( 14-C , 31-H ) :   0.9634 B( 15-C , 16-C ) :   1.3620
B( 15-C , 32-H ) :   0.9700 B( 16-C , 17-C ) :   1.3309 B( 16-C , 33-H ) :   0.9844
B( 17-C , 18-O ) :   1.1096 B( 17-C , 19-C ) :   1.3615 B( 18-O , 34-H ) :   0.9794
B( 19-C , 35-H ) :   0.9565

MP2 TOTAL ENERGY:    -1274.326080744 Eh
FINAL SINGLE POINT ENERGY     -1274.326080744274

DIPOLE MOMENT
-------------
                                X             Y             Z
Electronic contribution:     11.69977       7.15327       6.67256
Nuclear contribution   :    -13.35979      -8.15524      -7.16150
                        -----------------------------------------
Total Dipole Moment    :     -1.66001      -1.00196      -0.48894
                        -----------------------------------------
Magnitude (a.u.)       :      1.99966
Magnitude (Debye)      :      5.08273

Rotational constants in cm-1:     0.012253     0.009002     0.006774
Rotational constants in MHz :   367.322295   269.884085   203.075110

                             ****ORCA TERMINATED NORMALLY****
TOTAL RUN TIME: 0 days 2 hours 12 minutes 50 seconds 226 msec
