                         Program Version 5.0.0 -  RELEASE  -
|  1> ! ri-mp2 cc-pvtz cc-pvtz/c TightSCF NoKeepInts
|  2>
|  3> %scf
|  4>   MaxCore 4096
|  5> end
|  6> *xyz  0  1
|  7>     C       15.8233991   13.9041071   14.8998196
|  8>     C       15.4785891   14.3064369   16.3442944
|  9>     O       16.5033063   15.2030634   16.8083895
| 10>     C       16.2753894   16.5516236   16.8285455
| 11>     O       15.3217204   17.0625963   16.2657348
| 12>     C       17.2934348   17.3000740   17.6440199
| 13>     C       17.2997255   18.6541780   17.7368907
| 14>     C       16.3384909   19.6225528   17.0813718
| 15>     N       18.2948129   19.3016896   18.4753728
| 16>     C       19.3693934   18.6816467   19.0549675
| 17>     S       20.5572675   19.5326197   19.8300220
| 18>     N       19.4127238   17.3142607   18.9577001
| 19>     C       18.3418564   16.4677589   18.4002951
| 20>     C       17.7108527   15.6347221   19.5124755
| 21>     C       17.8541351   14.2344580   19.5243484
| 22>     C       17.2729116   13.4647959   20.5461234
| 23>     C       16.5445825   14.1002033   21.5663071
| 24>     C       16.4032245   15.4946995   21.5597692
| 25>     O       15.7014280   16.1111786   22.5438819
| 26>     C       16.9825052   16.2579264   20.5414194
| 27>     H       15.8094711   14.7827938   14.2424822
| 28>     H       15.0934741   13.1802662   14.5176833
| 29>     H       16.8199286   13.4482545   14.8501661
| 30>     H       14.4784721   14.7582261   16.3985099
| 31>     H       15.4766270   13.4063624   16.9724501
| 32>     H       15.3128112   19.4390216   17.4263123
| 33>     H       16.3445912   19.4946221   15.9914418
| 34>     H       16.5757565   20.6718580   17.2921888
| 35>     H       18.2800357   20.3058479   18.5559409
| 36>     H       20.1975430   16.8824726   19.4282858
| 37>     H       18.8103099   15.7849610   17.6775572
| 38>     H       18.4123151   13.7403911   18.7336011
| 39>     H       17.3877608   12.3822975   20.5454690
| 40>     H       16.0941921   13.5103119   22.3577807
| 41>     H       15.4063863   15.4273658   23.1636434
| 42>     H       16.8675761   17.3363563   20.5587390
| 43> *
| 44>
| 45>                          ****END OF INPUT****

CARTESIAN COORDINATES (ANGSTROEM)
---------------------------------
  C     15.823399   13.904107   14.899820
  C     15.478589   14.306437   16.344294
  O     16.503306   15.203063   16.808390
  C     16.275389   16.551624   16.828546
  O     15.321720   17.062596   16.265735
  C     17.293435   17.300074   17.644020
  C     17.299726   18.654178   17.736891
  C     16.338491   19.622553   17.081372
  N     18.294813   19.301690   18.475373
  C     19.369393   18.681647   19.054968
  S     20.557267   19.532620   19.830022
  N     19.412724   17.314261   18.957700
  C     18.341856   16.467759   18.400295
  C     17.710853   15.634722   19.512476
  C     17.854135   14.234458   19.524348
  C     17.272912   13.464796   20.546123
  C     16.544583   14.100203   21.566307
  C     16.403225   15.494699   21.559769
  O     15.701428   16.111179   22.543882
  C     16.982505   16.257926   20.541419
  H     15.809471   14.782794   14.242482
  H     15.093474   13.180266   14.517683
  H     16.819929   13.448254   14.850166
  H     14.478472   14.758226   16.398510
  H     15.476627   13.406362   16.972450
  H     15.312811   19.439022   17.426312
  H     16.344591   19.494622   15.991442
  H     16.575757   20.671858   17.292189
  H     18.280036   20.305848   18.555941
  H     20.197543   16.882473   19.428286
  H     18.810310   15.784961   17.677557
  H     18.412315   13.740391   18.733601
  H     17.387761   12.382297   20.545469
  H     16.094192   13.510312   22.357781
  H     15.406386   15.427366   23.163643
  H     16.867576   17.336356   20.558739

 Total Charge           Charge          ....    0
 Multiplicity           Mult            ....    1
 Number of Electrons    NEL             ....  154
 Basis Dimension        Dim             ....  828

ORBITAL ENERGIES
----------------

  NO   OCC          E(Eh)            E(eV)
   0   2.0000     -91.888751     -2500.4200
   1   2.0000     -20.601792      -560.6033
   2   2.0000     -20.595648      -560.4361
   3   2.0000     -20.541998      -558.9762
   4   2.0000     -15.628980      -425.2862
   5   2.0000     -15.608042      -424.7164
   6   2.0000     -11.395641      -310.0912
   7   2.0000     -11.383840      -309.7700
   8   2.0000     -11.335949      -308.4669
   9   2.0000     -11.312729      -307.8350
  10   2.0000     -11.308629      -307.7235
  11   2.0000     -11.296220      -307.3858
  12   2.0000     -11.258873      -306.3695
  13   2.0000     -11.258757      -306.3664
  14   2.0000     -11.254244      -306.2435
  15   2.0000     -11.251968      -306.1816
  16   2.0000     -11.242103      -305.9132
  17   2.0000     -11.237595      -305.7905
  18   2.0000     -11.237374      -305.7845
  19   2.0000     -11.226419      -305.4864
  20   2.0000      -8.893811      -242.0129
  21   2.0000      -6.575385      -178.9253
  22   2.0000      -6.573381      -178.8708
  23   2.0000      -6.572794      -178.8548
  24   2.0000      -1.451709       -39.5030
  25   2.0000      -1.415298       -38.5122
  26   2.0000      -1.355106       -36.8743
  27   2.0000      -1.339906       -36.4607
  28   2.0000      -1.238291       -33.6956
  29   2.0000      -1.156810       -31.4784
  30   2.0000      -1.120189       -30.4819
  31   2.0000      -1.042531       -28.3687
  32   2.0000      -1.037894       -28.2425
  33   2.0000      -1.014122       -27.5957
  34   2.0000      -0.995313       -27.0838
  35   2.0000      -0.983933       -26.7742
  36   2.0000      -0.922140       -25.0927
  37   2.0000      -0.891953       -24.2713
  38   2.0000      -0.846767       -23.0417
  39   2.0000      -0.837012       -22.7762
  40   2.0000      -0.833163       -22.6715
  41   2.0000      -0.817793       -22.2533
  42   2.0000      -0.761152       -20.7120
  43   2.0000      -0.731786       -19.9129
  44   2.0000      -0.722928       -19.6719
  45   2.0000      -0.694806       -18.9066
  46   2.0000      -0.687635       -18.7115
  47   2.0000      -0.680504       -18.5175
  48   2.0000      -0.671919       -18.2838
  49   2.0000      -0.654553       -17.8113
  50   2.0000      -0.645770       -17.5723
  51   2.0000      -0.644589       -17.5402
  52   2.0000      -0.629922       -17.1411
  53   2.0000      -0.612942       -16.6790
  54   2.0000      -0.605831       -16.4855
  55   2.0000      -0.598917       -16.2974
  56   2.0000      -0.598116       -16.2756
  57   2.0000      -0.578342       -15.7375
  58   2.0000      -0.570900       -15.5350
  59   2.0000      -0.569238       -15.4897
  60   2.0000      -0.563415       -15.3313
  61   2.0000      -0.539575       -14.6826
  62   2.0000      -0.534447       -14.5430
  63   2.0000      -0.532103       -14.4792
  64   2.0000      -0.524226       -14.2649
  65   2.0000      -0.513142       -13.9633
  66   2.0000      -0.500906       -13.6304
  67   2.0000      -0.496938       -13.5224
  68   2.0000      -0.485940       -13.2231
  69   2.0000      -0.463845       -12.6219
  70   2.0000      -0.454058       -12.3555
  71   2.0000      -0.449368       -12.2279
  72   2.0000      -0.354245        -9.6395
  73   2.0000      -0.348586        -9.4855
  74   2.0000      -0.328044        -8.9265
  75   2.0000      -0.320454        -8.7200
  76   2.0000      -0.315785        -8.5930
  77   0.0000       0.076465         2.0807
  78   0.0000       0.107377         2.9219
  79   0.0000       0.124496         3.3877
  80   0.0000       0.132780         3.6131
  81   0.0000       0.136404         3.7118

MULLIKEN ATOMIC CHARGES
-----------------------
   0 C :   -0.275286
   1 C :    0.030063
   2 O :   -0.352187
   3 C :    0.470899
   4 O :   -0.437365
   5 C :   -0.220855
   6 C :    0.150148
   7 C :   -0.274390
   8 N :   -0.120246
   9 C :    0.210430
  10 S :   -0.439782
  11 N :   -0.203263
  12 C :    0.048563
  13 C :    0.067215
  14 C :   -0.180563
  15 C :   -0.132999
  16 C :   -0.278260
  17 C :    0.315617
  18 O :   -0.356784
  19 C :   -0.268789
  20 H :    0.105407
  21 H :    0.092010
  22 H :    0.091449
  23 H :    0.109186
  24 H :    0.106391
  25 H :    0.132179
  26 H :    0.130620
  27 H :    0.095064
  28 H :    0.197313
  29 H :    0.194441
  30 H :    0.151010
  31 H :    0.148377
  32 H :    0.159898
  33 H :    0.129365
  34 H :    0.240556
  35 H :    0.164569
Sum of atomic charges:   -0.0000000

LOEWDIN ATOMIC CHARGES
----------------------
   0 C :    0.104462
   1 C :   -0.014901
   2 O :    0.310635
   3 C :   -0.413651
   4 O :    0.094245
   5 C :   -0.094226
   6 C :   -0.058777
   7 C :    0.131524
   8 N :    0.406554
   9 C :   -0.456656
  10 S :   -0.035400
  11 N :    0.396579
  12 C :   -0.052676
  13 C :   -0.038772
  14 C :    0.014421
  15 C :    0.038635
  16 C :   -0.001588
  17 C :   -0.189502
  18 O :    0.395056
  19 C :    0.031501
  20 H :   -0.024669
  21 H :   -0.026852
  22 H :   -0.029469
  23 H :   -0.027651
  24 H :   -0.028030
  25 H :   -0.004482
  26 H :   -0.004077
  27 H :   -0.023419
  28 H :   -0.057580
  29 H :   -0.064538
  30 H :   -0.011194
  31 H :   -0.030318
  32 H :   -0.021621
  33 H :   -0.035718
  34 H :   -0.154039
  35 H :   -0.023806

  Mayer bond orders larger than 0.100000
B(  0-C ,  1-C ) :   0.9698 B(  0-C , 20-H ) :   0.9780 B(  0-C , 21-H ) :   0.9757
B(  0-C , 22-H ) :   0.9783 B(  1-C ,  2-O ) :   0.8873 B(  1-C , 23-H ) :   0.9747
B(  1-C , 24-H ) :   0.9812 B(  2-O ,  3-C ) :   1.1684 B(  3-C ,  4-O ) :   1.9563
B(  3-C ,  5-C ) :   1.0661 B(  5-C ,  6-C ) :   1.6561 B(  5-C , 12-C ) :   0.9729
B(  6-C ,  7-C ) :   0.9673 B(  6-C ,  8-N ) :   1.1651 B(  7-C , 25-H ) :   0.9604
B(  7-C , 26-H ) :   0.9603 B(  7-C , 27-H ) :   0.9905 B(  8-N ,  9-C ) :   1.1824
B(  8-N , 28-H ) :   0.9479 B(  9-C , 10-S ) :   1.6079 B(  9-C , 11-N ) :   1.3047
B( 11-N , 12-C ) :   0.9887 B( 11-N , 29-H ) :   0.9516 B( 12-C , 13-C ) :   0.9366
B( 12-C , 30-H ) :   1.0029 B( 13-C , 14-C ) :   1.3554 B( 13-C , 19-C ) :   1.3823
B( 14-C , 15-C ) :   1.3921 B( 14-C , 31-H ) :   0.9719 B( 15-C , 16-C ) :   1.3641
B( 15-C , 32-H ) :   0.9708 B( 16-C , 17-C ) :   1.3316 B( 16-C , 33-H ) :   0.9852
B( 17-C , 18-O ) :   1.1098 B( 17-C , 19-C ) :   1.3733 B( 18-O , 34-H ) :   0.9800
B( 19-C , 35-H ) :   0.9583

MP2 TOTAL ENERGY:    -1274.350251332 Eh
FINAL SINGLE POINT ENERGY     -1274.350251332187

DIPOLE MOMENT
-------------
                                X             Y             Z
Electronic contribution:      9.35946       9.61395      10.15188
Nuclear contribution   :    -10.52943     -11.23335     -10.48031
                        -----------------------------------------
Total Dipole Moment    :     -1.16997      -1.61940      -0.32844
                        -----------------------------------------
Magnitude (a.u.)       :      2.02464
Magnitude (Debye)      :      5.14622

Rotational constants in cm-1:     0.010914     0.008756     0.006037
Rotational constants in MHz :   327.182190   262.506292   180.976933

                             ****ORCA TERMINATED NORMALLY****
TOTAL RUN TIME: 0 days 1 hours 35 minutes 47 seconds 167 msec
