                         Program Version 5.0.0 -  RELEASE  -
|  1> ! ri-mp2 cc-pvtz cc-pvtz/c TightSCF NoKeepInts
|  2>
|  3> %scf
|  4>   MaxCore 4096
|  5> end
|  6> *xyz  0  1
|  7>     C       15.5042810   14.0138738   14.9765078
|  8>     C       15.6110737   14.1776638   16.5058383
|  9>     O       16.6575219   15.1174633   16.8115458
| 10>     C       16.4185188   16.4634707   16.7477644
| 11>     O       15.4386172   16.9297928   16.1916260
| 12>     C       17.3744372   17.2594905   17.5934571
| 13>     C       17.3367927   18.6150069   17.6545193
| 14>     C       16.3816909   19.5394435   16.9300787
| 15>     N       18.2772786   19.3087407   18.4220341
| 16>     C       19.3453905   18.7354077   19.0588297
| 17>     S       20.4731181   19.6395599   19.8629854
| 18>     N       19.4355991   17.3684839   18.9924161
| 19>     C       18.4131579   16.4772295   18.4144101
| 20>     C       17.7612137   15.6553120   19.5229831
| 21>     C       17.9634421   14.2639856   19.5924290
| 22>     C       17.3627982   13.5039602   20.6101744
| 23>     C       16.5555288   14.1402648   21.5685012
| 24>     C       16.3556179   15.5261468   21.5050208
| 25>     O       15.5777965   16.1435391   22.4296031
| 26>     C       16.9543422   16.2797450   20.4907779
| 27>     H       15.1836389   14.9477742   14.4985978
| 28>     H       14.7701730   13.2387532   14.7258315
| 29>     H       16.4713537   13.7209262   14.5497692
| 30>     H       14.6521815   14.5089502   16.9276805
| 31>     H       15.8602293   13.2057014   16.9504954
| 32>     H       15.3486228   19.3516717   17.2498622
| 33>     H       16.4246671   19.3683780   15.8469521
| 34>     H       16.5953726   20.6003445   17.1050613
| 35>     H       18.2274366   20.3132951   18.4806265
| 36>     H       20.2133410   16.9718310   19.5038822
| 37>     H       18.9295931   15.7896291   17.7299456
| 38>     H       18.5833938   13.7690482   18.8497137
| 39>     H       17.5240186   12.4282887   20.6545058
| 40>     H       16.0900362   13.5579139   22.3568275
| 41>     H       15.2818916   15.4689508   23.0589831
| 42>     H       16.7928332   17.3519634   20.4637633
| 43> *
| 44>
| 45>                          ****END OF INPUT****

CARTESIAN COORDINATES (ANGSTROEM)
---------------------------------
  C     15.504281   14.013874   14.976508
  C     15.611074   14.177664   16.505838
  O     16.657522   15.117463   16.811546
  C     16.418519   16.463471   16.747764
  O     15.438617   16.929793   16.191626
  C     17.374437   17.259490   17.593457
  C     17.336793   18.615007   17.654519
  C     16.381691   19.539444   16.930079
  N     18.277279   19.308741   18.422034
  C     19.345390   18.735408   19.058830
  S     20.473118   19.639560   19.862985
  N     19.435599   17.368484   18.992416
  C     18.413158   16.477229   18.414410
  C     17.761214   15.655312   19.522983
  C     17.963442   14.263986   19.592429
  C     17.362798   13.503960   20.610174
  C     16.555529   14.140265   21.568501
  C     16.355618   15.526147   21.505021
  O     15.577796   16.143539   22.429603
  C     16.954342   16.279745   20.490778
  H     15.183639   14.947774   14.498598
  H     14.770173   13.238753   14.725831
  H     16.471354   13.720926   14.549769
  H     14.652181   14.508950   16.927681
  H     15.860229   13.205701   16.950495
  H     15.348623   19.351672   17.249862
  H     16.424667   19.368378   15.846952
  H     16.595373   20.600344   17.105061
  H     18.227437   20.313295   18.480626
  H     20.213341   16.971831   19.503882
  H     18.929593   15.789629   17.729946
  H     18.583394   13.769048   18.849714
  H     17.524019   12.428289   20.654506
  H     16.090036   13.557914   22.356828
  H     15.281892   15.468951   23.058983
  H     16.792833   17.351963   20.463763

 Total Charge           Charge          ....    0
 Multiplicity           Mult            ....    1
 Number of Electrons    NEL             ....  154
 Basis Dimension        Dim             ....  828

ORBITAL ENERGIES
----------------

  NO   OCC          E(Eh)            E(eV)
   0   2.0000     -91.888741     -2500.4198
   1   2.0000     -20.600187      -560.5596
   2   2.0000     -20.595876      -560.4423
   3   2.0000     -20.542970      -559.0026
   4   2.0000     -15.628992      -425.2865
   5   2.0000     -15.608008      -424.7155
   6   2.0000     -11.396012      -310.1012
   7   2.0000     -11.383817      -309.7694
   8   2.0000     -11.335819      -308.4633
   9   2.0000     -11.312968      -307.8415
  10   2.0000     -11.308759      -307.7270
  11   2.0000     -11.298046      -307.4354
  12   2.0000     -11.258976      -306.3723
  13   2.0000     -11.258952      -306.3717
  14   2.0000     -11.254483      -306.2501
  15   2.0000     -11.252151      -306.1866
  16   2.0000     -11.242208      -305.9160
  17   2.0000     -11.237648      -305.7919
  18   2.0000     -11.237427      -305.7859
  19   2.0000     -11.221968      -305.3653
  20   2.0000      -8.893801      -242.0126
  21   2.0000      -6.575376      -178.9251
  22   2.0000      -6.573372      -178.8705
  23   2.0000      -6.572785      -178.8546
  24   2.0000      -1.451017       -39.4842
  25   2.0000      -1.415519       -38.5182
  26   2.0000      -1.355332       -36.8805
  27   2.0000      -1.339929       -36.4613
  28   2.0000      -1.238310       -33.6961
  29   2.0000      -1.156880       -31.4803
  30   2.0000      -1.120105       -30.4796
  31   2.0000      -1.042249       -28.3610
  32   2.0000      -1.035759       -28.1844
  33   2.0000      -1.014287       -27.6002
  34   2.0000      -0.994962       -27.0743
  35   2.0000      -0.983623       -26.7657
  36   2.0000      -0.922208       -25.0945
  37   2.0000      -0.892531       -24.2870
  38   2.0000      -0.846967       -23.0471
  39   2.0000      -0.837323       -22.7847
  40   2.0000      -0.833306       -22.6754
  41   2.0000      -0.818784       -22.2802
  42   2.0000      -0.756745       -20.5921
  43   2.0000      -0.731469       -19.9043
  44   2.0000      -0.722667       -19.6648
  45   2.0000      -0.695070       -18.9138
  46   2.0000      -0.688170       -18.7261
  47   2.0000      -0.680590       -18.5198
  48   2.0000      -0.670649       -18.2493
  49   2.0000      -0.652912       -17.7666
  50   2.0000      -0.647383       -17.6162
  51   2.0000      -0.645413       -17.5626
  52   2.0000      -0.630699       -17.1622
  53   2.0000      -0.610639       -16.6163
  54   2.0000      -0.606020       -16.4906
  55   2.0000      -0.598974       -16.2989
  56   2.0000      -0.598270       -16.2798
  57   2.0000      -0.579642       -15.7729
  58   2.0000      -0.572275       -15.5724
  59   2.0000      -0.570523       -15.5247
  60   2.0000      -0.563109       -15.3230
  61   2.0000      -0.538805       -14.6616
  62   2.0000      -0.536369       -14.5954
  63   2.0000      -0.524519       -14.2729
  64   2.0000      -0.523106       -14.2344
  65   2.0000      -0.513198       -13.9648
  66   2.0000      -0.500645       -13.6232
  67   2.0000      -0.498055       -13.5528
  68   2.0000      -0.485640       -13.2149
  69   2.0000      -0.463902       -12.6234
  70   2.0000      -0.455442       -12.3932
  71   2.0000      -0.446229       -12.1425
  72   2.0000      -0.354153        -9.6370
  73   2.0000      -0.348686        -9.4882
  74   2.0000      -0.328054        -8.9268
  75   2.0000      -0.320612        -8.7243
  76   2.0000      -0.315795        -8.5932
  77   0.0000       0.075870         2.0645
  78   0.0000       0.107358         2.9214
  79   0.0000       0.125353         3.4110
  80   0.0000       0.132847         3.6150
  81   0.0000       0.137572         3.7435

MULLIKEN ATOMIC CHARGES
-----------------------
   0 C :   -0.287511
   1 C :    0.042803
   2 O :   -0.355933
   3 C :    0.459834
   4 O :   -0.435433
   5 C :   -0.207222
   6 C :    0.149737
   7 C :   -0.274721
   8 N :   -0.120397
   9 C :    0.211132
  10 S :   -0.439927
  11 N :   -0.203648
  12 C :    0.051532
  13 C :    0.067990
  14 C :   -0.183606
  15 C :   -0.131455
  16 C :   -0.278807
  17 C :    0.315600
  18 O :   -0.356736
  19 C :   -0.269470
  20 H :    0.118582
  21 H :    0.092923
  22 H :    0.090487
  23 H :    0.095298
  24 H :    0.106009
  25 H :    0.132762
  26 H :    0.129627
  27 H :    0.095435
  28 H :    0.197257
  29 H :    0.194406
  30 H :    0.150134
  31 H :    0.148544
  32 H :    0.160086
  33 H :    0.129537
  34 H :    0.240612
  35 H :    0.164536
Sum of atomic charges:    0.0000000

LOEWDIN ATOMIC CHARGES
----------------------
   0 C :    0.104792
   1 C :   -0.015048
   2 O :    0.305833
   3 C :   -0.412620
   4 O :    0.099009
   5 C :   -0.094022
   6 C :   -0.059017
   7 C :    0.131320
   8 N :    0.406536
   9 C :   -0.456576
  10 S :   -0.035448
  11 N :    0.396462
  12 C :   -0.052466
  13 C :   -0.038240
  14 C :    0.014209
  15 C :    0.038601
  16 C :   -0.001938
  17 C :   -0.189471
  18 O :    0.395103
  19 C :    0.031318
  20 H :   -0.025252
  21 H :   -0.028254
  22 H :   -0.030267
  23 H :   -0.027824
  24 H :   -0.025974
  25 H :   -0.004545
  26 H :   -0.004301
  27 H :   -0.023347
  28 H :   -0.057600
  29 H :   -0.064616
  30 H :   -0.010760
  31 H :   -0.030348
  32 H :   -0.021590
  33 H :   -0.035754
  34 H :   -0.154022
  35 H :   -0.023886

  Mayer bond orders larger than 0.100000
B(  0-C ,  1-C ) :   0.9719 B(  0-C , 20-H ) :   0.9740 B(  0-C , 21-H ) :   0.9774
B(  0-C , 22-H ) :   0.9765 B(  1-C ,  2-O ) :   0.8935 B(  1-C , 23-H ) :   0.9747
B(  1-C , 24-H ) :   0.9825 B(  2-O ,  3-C ) :   1.1551 B(  3-C ,  4-O ) :   1.9527
B(  3-C ,  5-C ) :   1.0655 B(  5-C ,  6-C ) :   1.6561 B(  5-C , 12-C ) :   0.9738
B(  6-C ,  7-C ) :   0.9675 B(  6-C ,  8-N ) :   1.1635 B(  7-C , 25-H ) :   0.9599
B(  7-C , 26-H ) :   0.9607 B(  7-C , 27-H ) :   0.9908 B(  8-N ,  9-C ) :   1.1825
B(  8-N , 28-H ) :   0.9479 B(  9-C , 10-S ) :   1.6075 B(  9-C , 11-N ) :   1.3051
B( 11-N , 12-C ) :   0.9865 B( 11-N , 29-H ) :   0.9517 B( 12-C , 13-C ) :   0.9364
B( 12-C , 30-H ) :   1.0026 B( 13-C , 14-C ) :   1.3554 B( 13-C , 19-C ) :   1.3827
B( 14-C , 15-C ) :   1.3916 B( 14-C , 31-H ) :   0.9719 B( 15-C , 16-C ) :   1.3642
B( 15-C , 32-H ) :   0.9707 B( 16-C , 17-C ) :   1.3316 B( 16-C , 33-H ) :   0.9851
B( 17-C , 18-O ) :   1.1099 B( 17-C , 19-C ) :   1.3731 B( 18-O , 34-H ) :   0.9800
B( 19-C , 35-H ) :   0.9583

MP2 TOTAL ENERGY:    -1274.347957520 Eh
FINAL SINGLE POINT ENERGY     -1274.347957519616

DIPOLE MOMENT
-------------
                                X             Y             Z
Electronic contribution:      9.97760       9.61945       9.82026
Nuclear contribution   :    -11.09823     -11.25408     -10.11683
                        -----------------------------------------
Total Dipole Moment    :     -1.12063      -1.63463      -0.29657
                        -----------------------------------------
Magnitude (a.u.)       :      2.00394
Magnitude (Debye)      :      5.09361

Rotational constants in cm-1:     0.011108     0.008782     0.006035
Rotational constants in MHz :   333.000115   263.272133   180.923627

                             ****ORCA TERMINATED NORMALLY****
TOTAL RUN TIME: 0 days 2 hours 13 minutes 56 seconds 19 msec
