                         Program Version 5.0.0 -  RELEASE  -
|  1> ! ri-mp2 cc-pvtz cc-pvtz/c TightSCF NoKeepInts
|  2>
|  3> %scf
|  4>   MaxCore 4096
|  5> end
|  6> *xyz  0  1
|  7>     C       14.3195626   15.1456228   16.5272071
|  8>     C       15.7001014   14.6685079   16.0457451
|  9>     O       16.5295584   15.8355216   15.9093036
| 10>     C       17.7548823   15.8404617   16.5078228
| 11>     O       18.4218459   14.8232344   16.6032687
| 12>     C       17.9282664   16.9905179   17.4537743
| 13>     C       17.3641927   18.2128465   17.2803286
| 14>     C       16.5077476   18.6789773   16.1213075
| 15>     N       17.6160901   19.2316479   18.2043978
| 16>     C       18.5111118   19.1471149   19.2384271
| 17>     S       18.8302340   20.4381096   20.2218155
| 18>     N       19.1297274   17.9351354   19.4159808
| 19>     C       18.7982446   16.7002268   18.6802814
| 20>     C       18.1095687   15.6976008   19.6021243
| 21>     C       18.6416559   14.4069667   19.7777454
| 22>     C       18.0022705   13.4764514   20.6139896
| 23>     C       16.8188379   13.8380358   21.2799745
| 24>     C       16.2831832   15.1210676   21.1040751
| 25>     O       15.1355800   15.4704535   21.7382349
| 26>     C       16.9221806   16.0452561   20.2718177
| 27>     H       14.4028898   15.6488964   17.4989326
| 28>     H       13.6373018   14.2943494   16.6403844
| 29>     H       13.8785752   15.8466294   15.8078362
| 30>     H       16.1105801   13.9642630   16.7833043
| 31>     H       15.6140819   14.1507300   15.0816957
| 32>     H       16.9210662   18.3347759   15.1650167
| 33>     H       16.4363203   19.7719194   16.0639782
| 34>     H       15.4891155   18.2810081   16.2091811
| 35>     H       17.1722193   20.1290017   18.0909633
| 36>     H       19.7612970   17.8911427   20.2053701
| 37>     H       19.7404519   16.2569322   18.3268330
| 38>     H       19.5460141   14.1185324   19.2475632
| 39>     H       18.4211614   12.4792756   20.7368391
| 40>     H       16.3204956   13.1214421   21.9242847
| 41>     H       14.8780253   14.7255311   22.3019187
| 42>     H       16.4925623   17.0338140   20.1522770
| 43> *
| 44>
| 45>                          ****END OF INPUT****

CARTESIAN COORDINATES (ANGSTROEM)
---------------------------------
  C     14.319563   15.145623   16.527207
  C     15.700101   14.668508   16.045745
  O     16.529558   15.835522   15.909304
  C     17.754882   15.840462   16.507823
  O     18.421846   14.823234   16.603269
  C     17.928266   16.990518   17.453774
  C     17.364193   18.212847   17.280329
  C     16.507748   18.678977   16.121308
  N     17.616090   19.231648   18.204398
  C     18.511112   19.147115   19.238427
  S     18.830234   20.438110   20.221816
  N     19.129727   17.935135   19.415981
  C     18.798245   16.700227   18.680281
  C     18.109569   15.697601   19.602124
  C     18.641656   14.406967   19.777745
  C     18.002270   13.476451   20.613990
  C     16.818838   13.838036   21.279975
  C     16.283183   15.121068   21.104075
  O     15.135580   15.470453   21.738235
  C     16.922181   16.045256   20.271818
  H     14.402890   15.648896   17.498933
  H     13.637302   14.294349   16.640384
  H     13.878575   15.846629   15.807836
  H     16.110580   13.964263   16.783304
  H     15.614082   14.150730   15.081696
  H     16.921066   18.334776   15.165017
  H     16.436320   19.771919   16.063978
  H     15.489115   18.281008   16.209181
  H     17.172219   20.129002   18.090963
  H     19.761297   17.891143   20.205370
  H     19.740452   16.256932   18.326833
  H     19.546014   14.118532   19.247563
  H     18.421161   12.479276   20.736839
  H     16.320496   13.121442   21.924285
  H     14.878025   14.725531   22.301919
  H     16.492562   17.033814   20.152277

 Total Charge           Charge          ....    0
 Multiplicity           Mult            ....    1
 Number of Electrons    NEL             ....  154
 Basis Dimension        Dim             ....  828

ORBITAL ENERGIES
----------------

  NO   OCC          E(Eh)            E(eV)
   0   2.0000     -91.888297     -2500.4077
   1   2.0000     -20.595030      -560.4193
   2   2.0000     -20.593457      -560.3765
   3   2.0000     -20.550679      -559.2124
   4   2.0000     -15.627985      -425.2591
   5   2.0000     -15.607716      -424.7075
   6   2.0000     -11.394875      -310.0703
   7   2.0000     -11.383673      -309.7655
   8   2.0000     -11.333554      -308.4017
   9   2.0000     -11.311003      -307.7880
  10   2.0000     -11.307691      -307.6979
  11   2.0000     -11.298615      -307.4509
  12   2.0000     -11.259866      -306.3965
  13   2.0000     -11.259316      -306.3816
  14   2.0000     -11.256510      -306.3052
  15   2.0000     -11.251100      -306.1580
  16   2.0000     -11.240675      -305.8743
  17   2.0000     -11.236674      -305.7655
  18   2.0000     -11.233876      -305.6893
  19   2.0000     -11.231597      -305.6273
  20   2.0000      -8.893374      -242.0010
  21   2.0000      -6.574953      -178.9136
  22   2.0000      -6.572943      -178.8589
  23   2.0000      -6.572360      -178.8430
  24   2.0000      -1.453569       -39.5536
  25   2.0000      -1.414769       -38.4978
  26   2.0000      -1.356959       -36.9247
  27   2.0000      -1.339187       -36.4411
  28   2.0000      -1.237396       -33.6713
  29   2.0000      -1.155206       -31.4348
  30   2.0000      -1.120773       -30.4978
  31   2.0000      -1.044469       -28.4215
  32   2.0000      -1.036456       -28.2034
  33   2.0000      -1.012585       -27.5538
  34   2.0000      -0.998829       -27.1795
  35   2.0000      -0.984436       -26.7879
  36   2.0000      -0.922632       -25.1061
  37   2.0000      -0.887646       -24.1541
  38   2.0000      -0.847322       -23.0568
  39   2.0000      -0.837104       -22.7788
  40   2.0000      -0.831134       -22.6163
  41   2.0000      -0.819222       -22.2922
  42   2.0000      -0.759460       -20.6660
  43   2.0000      -0.736255       -20.0345
  44   2.0000      -0.727196       -19.7880
  45   2.0000      -0.693390       -18.8681
  46   2.0000      -0.684943       -18.6382
  47   2.0000      -0.679545       -18.4914
  48   2.0000      -0.676825       -18.4174
  49   2.0000      -0.660513       -17.9735
  50   2.0000      -0.651371       -17.7247
  51   2.0000      -0.644736       -17.5442
  52   2.0000      -0.635961       -17.3054
  53   2.0000      -0.603924       -16.4336
  54   2.0000      -0.602146       -16.3852
  55   2.0000      -0.598411       -16.2836
  56   2.0000      -0.593463       -16.1490
  57   2.0000      -0.578497       -15.7417
  58   2.0000      -0.575664       -15.6646
  59   2.0000      -0.568180       -15.4610
  60   2.0000      -0.559979       -15.2378
  61   2.0000      -0.556067       -15.1314
  62   2.0000      -0.541928       -14.7466
  63   2.0000      -0.520338       -14.1591
  64   2.0000      -0.517402       -14.0792
  65   2.0000      -0.511581       -13.9208
  66   2.0000      -0.501652       -13.6507
  67   2.0000      -0.497444       -13.5361
  68   2.0000      -0.482571       -13.1314
  69   2.0000      -0.463228       -12.6051
  70   2.0000      -0.457186       -12.4407
  71   2.0000      -0.456683       -12.4270
  72   2.0000      -0.353716        -9.6251
  73   2.0000      -0.346939        -9.4407
  74   2.0000      -0.327606        -8.9146
  75   2.0000      -0.318091        -8.6557
  76   2.0000      -0.315183        -8.5766
  77   0.0000       0.074082         2.0159
  78   0.0000       0.106607         2.9009
  79   0.0000       0.119426         3.2497
  80   0.0000       0.133278         3.6267
  81   0.0000       0.140510         3.8235

MULLIKEN ATOMIC CHARGES
-----------------------
   0 C :   -0.284479
   1 C :    0.044607
   2 O :   -0.359444
   3 C :    0.439684
   4 O :   -0.409501
   5 C :   -0.181394
   6 C :    0.139751
   7 C :   -0.285325
   8 N :   -0.124915
   9 C :    0.204624
  10 S :   -0.440463
  11 N :   -0.200350
  12 C :    0.051905
  13 C :    0.051951
  14 C :   -0.160934
  15 C :   -0.132645
  16 C :   -0.280912
  17 C :    0.314810
  18 O :   -0.359813
  19 C :   -0.284609
  20 H :    0.103671
  21 H :    0.103510
  22 H :    0.091923
  23 H :    0.104158
  24 H :    0.100016
  25 H :    0.125031
  26 H :    0.105159
  27 H :    0.125788
  28 H :    0.197039
  29 H :    0.194211
  30 H :    0.154008
  31 H :    0.154167
  32 H :    0.160500
  33 H :    0.129715
  34 H :    0.240877
  35 H :    0.167678
Sum of atomic charges:   -0.0000000

LOEWDIN ATOMIC CHARGES
----------------------
   0 C :    0.104095
   1 C :   -0.012958
   2 O :    0.300310
   3 C :   -0.416564
   4 O :    0.116506
   5 C :   -0.092967
   6 C :   -0.072655
   7 C :    0.125714
   8 N :    0.404181
   9 C :   -0.457522
  10 S :   -0.036764
  11 N :    0.397273
  12 C :   -0.045693
  13 C :   -0.039776
  14 C :    0.021798
  15 C :    0.041353
  16 C :   -0.002258
  17 C :   -0.193604
  18 O :    0.393111
  19 C :    0.028120
  20 H :   -0.026270
  21 H :   -0.023885
  22 H :   -0.030564
  23 H :   -0.024608
  24 H :   -0.029505
  25 H :   -0.008096
  26 H :   -0.019991
  27 H :   -0.010401
  28 H :   -0.058899
  29 H :   -0.063996
  30 H :   -0.004830
  31 H :   -0.024962
  32 H :   -0.020630
  33 H :   -0.035925
  34 H :   -0.154282
  35 H :   -0.024858

  Mayer bond orders larger than 0.100000
B(  0-C ,  1-C ) :   0.9695 B(  0-C , 20-H ) :   0.9748 B(  0-C , 21-H ) :   0.9784
B(  0-C , 22-H ) :   0.9780 B(  1-C ,  2-O ) :   0.8946 B(  1-C , 23-H ) :   0.9704
B(  1-C , 24-H ) :   0.9850 B(  2-O ,  3-C ) :   1.1207 B(  3-C ,  4-O ) :   2.0146
B(  3-C ,  5-C ) :   1.0316 B(  5-C ,  6-C ) :   1.6635 B(  5-C , 12-C ) :   0.9659
B(  6-C ,  7-C ) :   0.9541 B(  6-C ,  8-N ) :   1.1417 B(  7-C , 25-H ) :   0.9693
B(  7-C , 26-H ) :   0.9887 B(  7-C , 27-H ) :   0.9637 B(  8-N ,  9-C ) :   1.1838
B(  8-N , 28-H ) :   0.9495 B(  9-C , 10-S ) :   1.6095 B(  9-C , 11-N ) :   1.3015
B( 11-N , 12-C ) :   0.9924 B( 11-N , 29-H ) :   0.9517 B( 12-C , 13-C ) :   0.9442
B( 12-C , 30-H ) :   0.9983 B( 13-C , 14-C ) :   1.3758 B( 13-C , 19-C ) :   1.3677
B( 14-C , 15-C ) :   1.3938 B( 14-C , 31-H ) :   0.9648 B( 15-C , 16-C ) :   1.3635
B( 15-C , 32-H ) :   0.9710 B( 16-C , 17-C ) :   1.3317 B( 16-C , 33-H ) :   0.9853
B( 17-C , 18-O ) :   1.1078 B( 17-C , 19-C ) :   1.3743 B( 18-O , 34-H ) :   0.9802
B( 19-C , 35-H ) :   0.9582

MP2 TOTAL ENERGY:    -1274.334790068 Eh
FINAL SINGLE POINT ENERGY     -1274.334790068024

DIPOLE MOMENT
-------------
                                X             Y             Z
Electronic contribution:     11.56356       8.22860       7.58883
Nuclear contribution   :    -12.92051      -9.56763      -8.36119
                        -----------------------------------------
Total Dipole Moment    :     -1.35695      -1.33902      -0.77236
                        -----------------------------------------
Magnitude (a.u.)       :      2.05690
Magnitude (Debye)      :      5.22823

Rotational constants in cm-1:     0.011243     0.009215     0.006599
Rotational constants in MHz :   337.060805   276.269735   197.829661

                             ****ORCA TERMINATED NORMALLY****
TOTAL RUN TIME: 0 days 2 hours 7 minutes 26 seconds 912 msec
