                         Program Version 5.0.0 -  RELEASE  -
|  1> ! ri-mp2 cc-pvtz cc-pvtz/c TightSCF NoKeepInts
|  2>
|  3> %scf
|  4>   MaxCore 4096
|  5> end
|  6> *xyz  0  1
|  7>     C       14.6295176   14.4097016   17.1896002
|  8>     C       15.5870696   15.5306548   16.7552400
|  9>     O       16.9094490   14.9708289   16.7422787
| 10>     C       18.0173239   15.7323705   16.4924374
| 11>     O       19.0562866   15.1593235   16.2242552
| 12>     C       18.0747485   16.9318792   17.3743358
| 13>     C       17.5982866   18.1303710   16.9736476
| 14>     C       16.9598182   18.4428080   15.6378738
| 15>     N       17.7036364   19.2375654   17.8179785
| 16>     C       18.3478756   19.2333849   19.0286270
| 17>     S       18.4702897   20.6015826   19.9491096
| 18>     N       18.8780288   18.0353532   19.4440004
| 19>     C       18.7323756   16.7448571   18.7401123
| 20>     C       17.9560362   15.7381191   19.5824461
| 21>     C       18.4200614   14.4161288   19.7091473
| 22>     C       17.6945276   13.4713814   20.4538672
| 23>     C       16.4915792   13.8496194   21.0739549
| 24>     C       16.0222969   15.1634980   20.9432631
| 25>     O       14.8523749   15.5276274   21.5258256
| 26>     C       16.7472732   16.1029055   20.2036021
| 27>     H       14.9010791   14.0385420   18.1861841
| 28>     H       14.6729730   13.5692375   16.4856349
| 29>     H       13.5964117   14.7754120   17.2286532
| 30>     H       15.3130017   15.8960852   15.7570919
| 31>     H       15.5120122   16.3562236   17.4746766
| 32>     H       17.2119461   17.6955947   14.8750740
| 33>     H       17.3053119   19.4106798   15.2523366
| 34>     H       15.8672742   18.4861169   15.7240648
| 35>     H       17.3299986   20.1281910   17.5294290
| 36>     H       19.3253044   18.0584931   20.3517253
| 37>     H       19.7410784   16.3417274   18.5669185
| 38>     H       19.3376878   14.1146857   19.2090128
| 39>     H       18.0608951   12.4497425   20.5382147
| 40>     H       15.9257121   13.1209209   21.6447757
| 41>     H       14.5336686   14.7669121   22.0349417
| 42>     H       16.3637895   17.1134756   20.1136633
| 43> *
| 44>
| 45>                          ****END OF INPUT****

CARTESIAN COORDINATES (ANGSTROEM)
---------------------------------
  C     14.629518   14.409702   17.189600
  C     15.587070   15.530655   16.755240
  O     16.909449   14.970829   16.742279
  C     18.017324   15.732370   16.492437
  O     19.056287   15.159323   16.224255
  C     18.074748   16.931879   17.374336
  C     17.598287   18.130371   16.973648
  C     16.959818   18.442808   15.637874
  N     17.703636   19.237565   17.817978
  C     18.347876   19.233385   19.028627
  S     18.470290   20.601583   19.949110
  N     18.878029   18.035353   19.444000
  C     18.732376   16.744857   18.740112
  C     17.956036   15.738119   19.582446
  C     18.420061   14.416129   19.709147
  C     17.694528   13.471381   20.453867
  C     16.491579   13.849619   21.073955
  C     16.022297   15.163498   20.943263
  O     14.852375   15.527627   21.525826
  C     16.747273   16.102905   20.203602
  H     14.901079   14.038542   18.186184
  H     14.672973   13.569237   16.485635
  H     13.596412   14.775412   17.228653
  H     15.313002   15.896085   15.757092
  H     15.512012   16.356224   17.474677
  H     17.211946   17.695595   14.875074
  H     17.305312   19.410680   15.252337
  H     15.867274   18.486117   15.724065
  H     17.329999   20.128191   17.529429
  H     19.325304   18.058493   20.351725
  H     19.741078   16.341727   18.566918
  H     19.337688   14.114686   19.209013
  H     18.060895   12.449742   20.538215
  H     15.925712   13.120921   21.644776
  H     14.533669   14.766912   22.034942
  H     16.363789   17.113476   20.113663

 Total Charge           Charge          ....    0
 Multiplicity           Mult            ....    1
 Number of Electrons    NEL             ....  154
 Basis Dimension        Dim             ....  828

ORBITAL ENERGIES
----------------

  NO   OCC          E(Eh)            E(eV)
   0   2.0000     -91.887483     -2500.3855
   1   2.0000     -20.601776      -560.6028
   2   2.0000     -20.599426      -560.5389
   3   2.0000     -20.558235      -559.4180
   4   2.0000     -15.622736      -425.1163
   5   2.0000     -15.610476      -424.7827
   6   2.0000     -11.395054      -310.0752
   7   2.0000     -11.384541      -309.7891
   8   2.0000     -11.321386      -308.0706
   9   2.0000     -11.316109      -307.9270
  10   2.0000     -11.315821      -307.9191
  11   2.0000     -11.304005      -307.5976
  12   2.0000     -11.269354      -306.6547
  13   2.0000     -11.263116      -306.4850
  14   2.0000     -11.262401      -306.4655
  15   2.0000     -11.255849      -306.2872
  16   2.0000     -11.244965      -305.9910
  17   2.0000     -11.240922      -305.8810
  18   2.0000     -11.238537      -305.8161
  19   2.0000     -11.231359      -305.6208
  20   2.0000      -8.892629      -241.9807
  21   2.0000      -6.574227      -178.8938
  22   2.0000      -6.572192      -178.8384
  23   2.0000      -6.571627      -178.8231
  24   2.0000      -1.456068       -39.6216
  25   2.0000      -1.419206       -38.6186
  26   2.0000      -1.363737       -37.1092
  27   2.0000      -1.337036       -36.3826
  28   2.0000      -1.237681       -33.6790
  29   2.0000      -1.160009       -31.5655
  30   2.0000      -1.124233       -30.5919
  31   2.0000      -1.048162       -28.5219
  32   2.0000      -1.040490       -28.3132
  33   2.0000      -1.017614       -27.6907
  34   2.0000      -1.003704       -27.3122
  35   2.0000      -0.987329       -26.8666
  36   2.0000      -0.926780       -25.2190
  37   2.0000      -0.881068       -23.9751
  38   2.0000      -0.853399       -23.2222
  39   2.0000      -0.840146       -22.8615
  40   2.0000      -0.836264       -22.7559
  41   2.0000      -0.835941       -22.7471
  42   2.0000      -0.758948       -20.6520
  43   2.0000      -0.737404       -20.0658
  44   2.0000      -0.730752       -19.8848
  45   2.0000      -0.697977       -18.9929
  46   2.0000      -0.689770       -18.7696
  47   2.0000      -0.683348       -18.5948
  48   2.0000      -0.676885       -18.4190
  49   2.0000      -0.660582       -17.9753
  50   2.0000      -0.657464       -17.8905
  51   2.0000      -0.648201       -17.6384
  52   2.0000      -0.638589       -17.3769
  53   2.0000      -0.611103       -16.6290
  54   2.0000      -0.609563       -16.5871
  55   2.0000      -0.605175       -16.4677
  56   2.0000      -0.601352       -16.3636
  57   2.0000      -0.586537       -15.9605
  58   2.0000      -0.577600       -15.7173
  59   2.0000      -0.566288       -15.4095
  60   2.0000      -0.560516       -15.2524
  61   2.0000      -0.552867       -15.0443
  62   2.0000      -0.547257       -14.8916
  63   2.0000      -0.528330       -14.3766
  64   2.0000      -0.520666       -14.1680
  65   2.0000      -0.513576       -13.9751
  66   2.0000      -0.505080       -13.7439
  67   2.0000      -0.501061       -13.6346
  68   2.0000      -0.489028       -13.3071
  69   2.0000      -0.467274       -12.7152
  70   2.0000      -0.457156       -12.4398
  71   2.0000      -0.452785       -12.3209
  72   2.0000      -0.354676        -9.6512
  73   2.0000      -0.350427        -9.5356
  74   2.0000      -0.327486        -8.9114
  75   2.0000      -0.323204        -8.7948
  76   2.0000      -0.315578        -8.5873
  77   0.0000       0.091844         2.4992
  78   0.0000       0.099624         2.7109
  79   0.0000       0.107394         2.9223
  80   0.0000       0.125993         3.4285
  81   0.0000       0.128717         3.5026

MULLIKEN ATOMIC CHARGES
-----------------------
   0 C :   -0.262001
   1 C :   -0.002677
   2 O :   -0.300422
   3 C :    0.382233
   4 O :   -0.362255
   5 C :   -0.152263
   6 C :    0.116937
   7 C :   -0.322984
   8 N :   -0.133828
   9 C :    0.208274
  10 S :   -0.445585
  11 N :   -0.210586
  12 C :    0.045884
  13 C :    0.041980
  14 C :   -0.178914
  15 C :   -0.128233
  16 C :   -0.278398
  17 C :    0.299607
  18 O :   -0.361231
  19 C :   -0.268643
  20 H :    0.110641
  21 H :    0.104115
  22 H :    0.087325
  23 H :    0.104724
  24 H :    0.098924
  25 H :    0.122348
  26 H :    0.129708
  27 H :    0.123777
  28 H :    0.194539
  29 H :    0.197403
  30 H :    0.165078
  31 H :    0.158865
  32 H :    0.162067
  33 H :    0.133060
  34 H :    0.241808
  35 H :    0.178721
Sum of atomic charges:    0.0000000

LOEWDIN ATOMIC CHARGES
----------------------
   0 C :    0.113481
   1 C :   -0.032800
   2 O :    0.325985
   3 C :   -0.424040
   4 O :    0.141145
   5 C :   -0.079596
   6 C :   -0.114737
   7 C :    0.123349
   8 N :    0.399028
   9 C :   -0.454833
  10 S :   -0.041521
  11 N :    0.397345
  12 C :   -0.041733
  13 C :   -0.039833
  14 C :    0.024429
  15 C :    0.046269
  16 C :   -0.000958
  17 C :   -0.193933
  18 O :    0.394487
  19 C :    0.028521
  20 H :   -0.022556
  21 H :   -0.025094
  22 H :   -0.025595
  23 H :   -0.037189
  24 H :   -0.038275
  25 H :   -0.010419
  26 H :   -0.011327
  27 H :   -0.016989
  28 H :   -0.060057
  29 H :   -0.063759
  30 H :   -0.002816
  31 H :   -0.023760
  32 H :   -0.018968
  33 H :   -0.035143
  34 H :   -0.153178
  35 H :   -0.024932

  Mayer bond orders larger than 0.100000
B(  0-C ,  1-C ) :   0.9832 B(  0-C , 20-H ) :   0.9742 B(  0-C , 21-H ) :   0.9801
B(  0-C , 22-H ) :   0.9763 B(  1-C ,  2-O ) :   0.9192 B(  1-C , 23-H ) :   0.9768
B(  1-C , 24-H ) :   0.9618 B(  2-O ,  3-C ) :   1.1231 B(  3-C ,  4-O ) :   2.1061
B(  3-C ,  5-C ) :   0.9221 B(  5-C ,  6-C ) :   1.7157 B(  5-C , 12-C ) :   0.9683
B(  6-C ,  7-C ) :   0.9347 B(  6-C ,  8-N ) :   1.1031 B(  7-C , 25-H ) :   0.9821
B(  7-C , 26-H ) :   0.9762 B(  7-C , 27-H ) :   0.9655 B(  8-N ,  9-C ) :   1.2013
B(  8-N , 28-H ) :   0.9536 B(  9-C , 10-S ) :   1.6063 B(  9-C , 11-N ) :   1.2849
B( 11-N , 12-C ) :   0.9991 B( 11-N , 29-H ) :   0.9487 B( 12-C , 13-C ) :   0.9468
B( 12-C , 30-H ) :   0.9980 B( 13-C , 14-C ) :   1.3833 B( 13-C , 19-C ) :   1.3450
B( 14-C , 15-C ) :   1.3969 B( 14-C , 31-H ) :   0.9653 B( 15-C , 16-C ) :   1.3625
B( 15-C , 32-H ) :   0.9706 B( 16-C , 17-C ) :   1.3296 B( 16-C , 33-H ) :   0.9846
B( 17-C , 18-O ) :   1.1051 B( 17-C , 19-C ) :   1.3691 B( 18-O , 34-H ) :   0.9792
B( 19-C , 35-H ) :   0.9564

MP2 TOTAL ENERGY:    -1274.320065044 Eh
FINAL SINGLE POINT ENERGY     -1274.320065043536

DIPOLE MOMENT
-------------
                                X             Y             Z
Electronic contribution:     10.77586       8.09826       6.35284
Nuclear contribution   :    -12.39741      -9.24970      -6.97617
                        -----------------------------------------
Total Dipole Moment    :     -1.62155      -1.15144      -0.62332
                        -----------------------------------------
Magnitude (a.u.)       :      2.08417
Magnitude (Debye)      :      5.29753

Rotational constants in cm-1:     0.012692     0.008955     0.006902
Rotational constants in MHz :   380.503989   268.460236   206.912945

                             ****ORCA TERMINATED NORMALLY****
TOTAL RUN TIME: 0 days 2 hours 3 minutes 58 seconds 597 msec
