                         Program Version 5.0.0 -  RELEASE  -
|  1> ! ri-mp2 cc-pvtz cc-pvtz/c TightSCF NoKeepInts
|  2>
|  3> %scf
|  4>   MaxCore 4096
|  5> end
|  6> *xyz  0  1
|  7>     C       15.0040979   14.0992674   16.0378670
|  8>     C       16.1119592   14.5853176   16.9872720
|  9>     O       17.1498749   15.1608434   16.1742632
| 10>     C       17.2458270   16.5190438   16.0796241
| 11>     O       16.8372892   17.0759973   15.0778390
| 12>     C       17.6265172   17.2415213   17.3465888
| 13>     C       17.3366643   18.5547722   17.5364970
| 14>     C       16.4805914   19.4435406   16.6602384
| 15>     N       17.9013063   19.2454073   18.6137155
| 16>     C       18.9499728   18.7784969   19.3622753
| 17>     S       19.7295237   19.7269632   20.4703061
| 18>     N       19.3325311   17.4814784   19.1274582
| 19>     C       18.5382463   16.5116689   18.3516822
| 20>     C       17.8008562   15.6074406   19.3336364
| 21>     C       18.2384419   14.2853120   19.5400059
| 22>     C       17.5707569   13.4441454   20.4458611
| 23>     C       16.4626438   13.9310676   21.1596502
| 24>     C       16.0350133   15.2520956   20.9708195
| 25>     O       14.9676832   15.7271747   21.6600004
| 26>     C       16.6995613   16.0863695   20.0667310
| 27>     H       14.5884701   14.9391762   15.4664764
| 28>     H       14.1893362   13.6305866   16.6028209
| 29>     H       15.3995672   13.3625294   15.3274767
| 30>     H       15.6946452   15.3111433   17.6963236
| 31>     H       16.5034879   13.7251399   17.5443681
| 32>     H       15.5383612   18.9442782   16.4011630
| 33>     H       16.9993666   19.6687207   15.7193134
| 34>     H       16.2247442   20.3958836   17.1392299
| 35>     H       17.6472440   20.2068417   18.7769158
| 36>     H       20.0980723   17.1578380   19.7047767
| 37>     H       19.2379189   15.8921719   17.7724723
| 38>     H       19.0968813   13.9053351   18.9917496
| 39>     H       17.9147700   12.4218411   20.5958365
| 40>     H       15.9449621   13.2853599   21.8617873
| 41>     H       14.6915822   15.0386222   22.2840211
| 42>     H       16.3582328   17.1086086   19.9469371
| 43> *
| 44>
| 45>                          ****END OF INPUT****

CARTESIAN COORDINATES (ANGSTROEM)
---------------------------------
  C     15.004098   14.099267   16.037867
  C     16.111959   14.585318   16.987272
  O     17.149875   15.160843   16.174263
  C     17.245827   16.519044   16.079624
  O     16.837289   17.075997   15.077839
  C     17.626517   17.241521   17.346589
  C     17.336664   18.554772   17.536497
  C     16.480591   19.443541   16.660238
  N     17.901306   19.245407   18.613716
  C     18.949973   18.778497   19.362275
  S     19.729524   19.726963   20.470306
  N     19.332531   17.481478   19.127458
  C     18.538246   16.511669   18.351682
  C     17.800856   15.607441   19.333636
  C     18.238442   14.285312   19.540006
  C     17.570757   13.444145   20.445861
  C     16.462644   13.931068   21.159650
  C     16.035013   15.252096   20.970820
  O     14.967683   15.727175   21.660000
  C     16.699561   16.086369   20.066731
  H     14.588470   14.939176   15.466476
  H     14.189336   13.630587   16.602821
  H     15.399567   13.362529   15.327477
  H     15.694645   15.311143   17.696324
  H     16.503488   13.725140   17.544368
  H     15.538361   18.944278   16.401163
  H     16.999367   19.668721   15.719313
  H     16.224744   20.395884   17.139230
  H     17.647244   20.206842   18.776916
  H     20.098072   17.157838   19.704777
  H     19.237919   15.892172   17.772472
  H     19.096881   13.905335   18.991750
  H     17.914770   12.421841   20.595837
  H     15.944962   13.285360   21.861787
  H     14.691582   15.038622   22.284021
  H     16.358233   17.108609   19.946937

 Total Charge           Charge          ....    0
 Multiplicity           Mult            ....    1
 Number of Electrons    NEL             ....  154
 Basis Dimension        Dim             ....  828

ORBITAL ENERGIES
----------------

  NO   OCC          E(Eh)            E(eV)
   0   2.0000     -91.892242     -2500.5150
   1   2.0000     -20.603936      -560.6616
   2   2.0000     -20.583481      -560.1050
   3   2.0000     -20.548056      -559.1410
   4   2.0000     -15.632472      -425.3812
   5   2.0000     -15.611251      -424.8037
   6   2.0000     -11.392927      -310.0173
   7   2.0000     -11.386730      -309.8487
   8   2.0000     -11.338381      -308.5330
   9   2.0000     -11.321933      -308.0855
  10   2.0000     -11.315572      -307.9124
  11   2.0000     -11.294991      -307.3523
  12   2.0000     -11.266679      -306.5819
  13   2.0000     -11.263243      -306.4884
  14   2.0000     -11.260713      -306.4196
  15   2.0000     -11.254809      -306.2589
  16   2.0000     -11.251039      -306.1563
  17   2.0000     -11.245655      -306.0098
  18   2.0000     -11.245029      -305.9928
  19   2.0000     -11.220566      -305.3271
  20   2.0000      -8.897243      -242.1063
  21   2.0000      -6.578802      -179.0183
  22   2.0000      -6.576815      -178.9642
  23   2.0000      -6.576213      -178.9479
  24   2.0000      -1.446586       -39.3636
  25   2.0000      -1.423613       -38.7385
  26   2.0000      -1.354136       -36.8479
  27   2.0000      -1.343921       -36.5699
  28   2.0000      -1.242420       -33.8080
  29   2.0000      -1.164520       -31.6882
  30   2.0000      -1.122716       -30.5506
  31   2.0000      -1.048520       -28.5317
  32   2.0000      -1.030970       -28.0541
  33   2.0000      -1.023193       -27.8425
  34   2.0000      -1.000443       -27.2234
  35   2.0000      -0.987575       -26.8733
  36   2.0000      -0.927616       -25.2417
  37   2.0000      -0.879569       -23.9343
  38   2.0000      -0.851879       -23.1808
  39   2.0000      -0.846887       -23.0450
  40   2.0000      -0.841257       -22.8918
  41   2.0000      -0.833130       -22.6706
  42   2.0000      -0.758001       -20.6262
  43   2.0000      -0.737477       -20.0678
  44   2.0000      -0.719596       -19.5812
  45   2.0000      -0.703463       -19.1422
  46   2.0000      -0.694071       -18.8866
  47   2.0000      -0.679246       -18.4832
  48   2.0000      -0.669810       -18.2265
  49   2.0000      -0.667451       -18.1623
  50   2.0000      -0.652095       -17.7444
  51   2.0000      -0.648931       -17.6583
  52   2.0000      -0.640739       -17.4354
  53   2.0000      -0.614695       -16.7267
  54   2.0000      -0.607762       -16.5380
  55   2.0000      -0.603133       -16.4121
  56   2.0000      -0.586997       -15.9730
  57   2.0000      -0.582501       -15.8507
  58   2.0000      -0.578204       -15.7337
  59   2.0000      -0.574477       -15.6323
  60   2.0000      -0.564156       -15.3515
  61   2.0000      -0.544133       -14.8066
  62   2.0000      -0.539956       -14.6929
  63   2.0000      -0.532044       -14.4776
  64   2.0000      -0.519633       -14.1399
  65   2.0000      -0.513784       -13.9808
  66   2.0000      -0.507685       -13.8148
  67   2.0000      -0.500369       -13.6157
  68   2.0000      -0.484198       -13.1757
  69   2.0000      -0.467037       -12.7087
  70   2.0000      -0.451210       -12.2780
  71   2.0000      -0.444471       -12.0947
  72   2.0000      -0.360499        -9.8097
  73   2.0000      -0.355746        -9.6803
  74   2.0000      -0.332721        -9.0538
  75   2.0000      -0.328608        -8.9419
  76   2.0000      -0.319241        -8.6870
  77   0.0000       0.069494         1.8910
  78   0.0000       0.098200         2.6722
  79   0.0000       0.119795         3.2598
  80   0.0000       0.126572         3.4442
  81   0.0000       0.129579         3.5260

MULLIKEN ATOMIC CHARGES
-----------------------
   0 C :   -0.256737
   1 C :    0.020449
   2 O :   -0.364680
   3 C :    0.474243
   4 O :   -0.388305
   5 C :   -0.279253
   6 C :    0.152455
   7 C :   -0.270667
   8 N :   -0.126724
   9 C :    0.211643
  10 S :   -0.433380
  11 N :   -0.196001
  12 C :    0.043348
  13 C :    0.057788
  14 C :   -0.210330
  15 C :   -0.125011
  16 C :   -0.273676
  17 C :    0.313208
  18 O :   -0.355577
  19 C :   -0.258276
  20 H :    0.100648
  21 H :    0.085919
  22 H :    0.098340
  23 H :    0.100398
  24 H :    0.111790
  25 H :    0.124839
  26 H :    0.139880
  27 H :    0.093992
  28 H :    0.199191
  29 H :    0.191425
  30 H :    0.150735
  31 H :    0.152896
  32 H :    0.166121
  33 H :    0.134201
  34 H :    0.242419
  35 H :    0.172685
Sum of atomic charges:   -0.0000000

LOEWDIN ATOMIC CHARGES
----------------------
   0 C :    0.106362
   1 C :   -0.025182
   2 O :    0.292092
   3 C :   -0.425069
   4 O :    0.124400
   5 C :   -0.100583
   6 C :   -0.061331
   7 C :    0.130366
   8 N :    0.407027
   9 C :   -0.456119
  10 S :   -0.030160
  11 N :    0.396200
  12 C :   -0.052211
  13 C :   -0.038239
  14 C :    0.013094
  15 C :    0.042456
  16 C :    0.000286
  17 C :   -0.190425
  18 O :    0.396737
  19 C :    0.031942
  20 H :   -0.025484
  21 H :   -0.029618
  22 H :   -0.025736
  23 H :   -0.034127
  24 H :   -0.026644
  25 H :   -0.006427
  26 H :   -0.002261
  27 H :   -0.022843
  28 H :   -0.057150
  29 H :   -0.065629
  30 H :   -0.005486
  31 H :   -0.029519
  32 H :   -0.019335
  33 H :   -0.033727
  34 H :   -0.151983
  35 H :   -0.025675

  Mayer bond orders larger than 0.100000
B(  0-C ,  1-C ) :   0.9788 B(  0-C , 20-H ) :   0.9760 B(  0-C , 21-H ) :   0.9775
B(  0-C , 22-H ) :   0.9807 B(  1-C ,  2-O ) :   0.8740 B(  1-C , 23-H ) :   0.9648
B(  1-C , 24-H ) :   0.9772 B(  2-O ,  3-C ) :   1.1302 B(  3-C ,  4-O ) :   2.0530
B(  3-C ,  5-C ) :   1.0199 B(  5-C ,  6-C ) :   1.6600 B(  5-C , 12-C ) :   0.9693
B(  6-C ,  7-C ) :   0.9717 B(  6-C ,  8-N ) :   1.1515 B(  7-C , 25-H ) :   0.9670
B(  7-C , 26-H ) :   0.9546 B(  7-C , 27-H ) :   0.9867 B(  8-N ,  9-C ) :   1.1778
B(  8-N , 28-H ) :   0.9487 B(  9-C , 10-S ) :   1.6175 B(  9-C , 11-N ) :   1.2986
B( 11-N , 12-C ) :   0.9707 B( 11-N , 29-H ) :   0.9543 B( 12-C , 13-C ) :   0.9548
B( 12-C , 30-H ) :   1.0014 B( 13-C , 14-C ) :   1.3504 B( 13-C , 19-C ) :   1.3579
B( 14-C , 15-C ) :   1.3826 B( 14-C , 31-H ) :   0.9761 B( 15-C , 16-C ) :   1.3701
B( 15-C , 32-H ) :   0.9686 B( 16-C , 17-C ) :   1.3252 B( 16-C , 33-H ) :   0.9832
B( 17-C , 18-O ) :   1.1158 B( 17-C , 19-C ) :   1.3765 B( 18-O , 34-H ) :   0.9786
B( 19-C , 35-H ) :   0.9557

MP2 TOTAL ENERGY:    -1274.329357454 Eh
FINAL SINGLE POINT ENERGY     -1274.329357453976

DIPOLE MOMENT
-------------
                                X             Y             Z
Electronic contribution:     10.60589       9.18464       6.51999
Nuclear contribution   :    -11.74224     -10.70577      -5.98206
                        -----------------------------------------
Total Dipole Moment    :     -1.13635      -1.52113       0.53793
                        -----------------------------------------
Magnitude (a.u.)       :      1.97345
Magnitude (Debye)      :      5.01611

Rotational constants in cm-1:     0.011509     0.009490     0.006412
Rotational constants in MHz :   345.031471   284.497736   192.215854

                             ****ORCA TERMINATED NORMALLY****
TOTAL RUN TIME: 0 days 2 hours 18 minutes 6 seconds 359 msec
