                         Program Version 5.0.0 -  RELEASE  -
|  1> ! ri-mp2 cc-pvtz cc-pvtz/c TightSCF NoKeepInts
|  2>
|  3> %scf
|  4>   MaxCore 4096
|  5> end
|  6> *xyz  0  1
|  7>     C       15.6514103   14.2131872   14.7804306
|  8>     C       15.5474975   14.1348712   16.3180612
|  9>     O       16.4691045   15.0636056   16.9206931
| 10>     C       16.2424409   16.4132053   16.8758546
| 11>     O       15.2749787   16.9002913   16.3156960
| 12>     C       17.2731795   17.1986151   17.6394298
| 13>     C       17.2787423   18.5556676   17.6713302
| 14>     C       16.3036417   19.4932843   16.9919049
| 15>     N       18.2879007   19.2366858   18.3589114
| 16>     C       19.3787353   18.6447447   18.9375215
| 17>     S       20.5839138   19.5310828   19.6431405
| 18>     N       19.4235462   17.2745153   18.8989041
| 19>     C       18.3385662   16.4031157   18.4115771
| 20>     C       17.7342073   15.6301595   19.5804445
| 21>     C       17.8803264   14.2326305   19.6636868
| 22>     C       17.3255522   13.5184294   20.7390687
| 23>     C       16.6210517   14.2070578   21.7412851
| 24>     C       16.4769586   15.5991061   21.6636077
| 25>     O       15.7983161   16.2669583   22.6303190
| 26>     C       17.0301606   16.3071114   20.5922629
| 27>     H       15.2986386   15.1803250   14.4021932
| 28>     H       15.0377786   13.4308535   14.3177834
| 29>     H       16.6889616   14.0706951   14.4543627
| 30>     H       14.5193937   14.3486427   16.6409047
| 31>     H       15.8002783   13.1172484   16.6420818
| 32>     H       15.2851917   19.3248384   17.3649056
| 33>     H       16.2885061   19.3166376   15.9089302
| 34>     H       16.5434372   20.5511065   17.1508935
| 35>     H       18.2719781   20.2433623   18.3959527
| 36>     H       20.2210878   16.8651572   19.3681133
| 37>     H       18.7886802   15.6829002   17.7140433
| 38>     H       18.4201480   13.6972406   18.8873332
| 39>     H       17.4419032   12.4374820   20.7932831
| 40>     H       16.1908581   13.6600474   22.5737006
| 41>     H       15.5160676   15.6162978   23.2903837
| 42>     H       16.9138606   17.3848406   20.5550053
| 43> *
| 44>
| 45>                          ****END OF INPUT****

CARTESIAN COORDINATES (ANGSTROEM)
---------------------------------
  C     15.651410   14.213187   14.780431
  C     15.547498   14.134871   16.318061
  O     16.469105   15.063606   16.920693
  C     16.242441   16.413205   16.875855
  O     15.274979   16.900291   16.315696
  C     17.273180   17.198615   17.639430
  C     17.278742   18.555668   17.671330
  C     16.303642   19.493284   16.991905
  N     18.287901   19.236686   18.358911
  C     19.378735   18.644745   18.937521
  S     20.583914   19.531083   19.643141
  N     19.423546   17.274515   18.898904
  C     18.338566   16.403116   18.411577
  C     17.734207   15.630159   19.580444
  C     17.880326   14.232630   19.663687
  C     17.325552   13.518429   20.739069
  C     16.621052   14.207058   21.741285
  C     16.476959   15.599106   21.663608
  O     15.798316   16.266958   22.630319
  C     17.030161   16.307111   20.592263
  H     15.298639   15.180325   14.402193
  H     15.037779   13.430853   14.317783
  H     16.688962   14.070695   14.454363
  H     14.519394   14.348643   16.640905
  H     15.800278   13.117248   16.642082
  H     15.285192   19.324838   17.364906
  H     16.288506   19.316638   15.908930
  H     16.543437   20.551106   17.150893
  H     18.271978   20.243362   18.395953
  H     20.221088   16.865157   19.368113
  H     18.788680   15.682900   17.714043
  H     18.420148   13.697241   18.887333
  H     17.441903   12.437482   20.793283
  H     16.190858   13.660047   22.573701
  H     15.516068   15.616298   23.290384
  H     16.913861   17.384841   20.555005

 Total Charge           Charge          ....    0
 Multiplicity           Mult            ....    1
 Number of Electrons    NEL             ....  154
 Basis Dimension        Dim             ....  828

ORBITAL ENERGIES
----------------

  NO   OCC          E(Eh)            E(eV)
   0   2.0000     -91.888462     -2500.4122
   1   2.0000     -20.602171      -560.6136
   2   2.0000     -20.594852      -560.4144
   3   2.0000     -20.542088      -558.9786
   4   2.0000     -15.628732      -425.2794
   5   2.0000     -15.607659      -424.7060
   6   2.0000     -11.396220      -310.1069
   7   2.0000     -11.383509      -309.7610
   8   2.0000     -11.335712      -308.4604
   9   2.0000     -11.311807      -307.8099
  10   2.0000     -11.308157      -307.7106
  11   2.0000     -11.299372      -307.4715
  12   2.0000     -11.258888      -306.3699
  13   2.0000     -11.257861      -306.3420
  14   2.0000     -11.253266      -306.2169
  15   2.0000     -11.251893      -306.1796
  16   2.0000     -11.241185      -305.8882
  17   2.0000     -11.236712      -305.7665
  18   2.0000     -11.236483      -305.7602
  19   2.0000     -11.224095      -305.4232
  20   2.0000      -8.893524      -242.0051
  21   2.0000      -6.575099      -178.9175
  22   2.0000      -6.573094      -178.8630
  23   2.0000      -6.572508      -178.8470
  24   2.0000      -1.450771       -39.4775
  25   2.0000      -1.414498       -38.4905
  26   2.0000      -1.355270       -36.8788
  27   2.0000      -1.339652       -36.4538
  28   2.0000      -1.237961       -33.6866
  29   2.0000      -1.155977       -31.4557
  30   2.0000      -1.119753       -30.4700
  31   2.0000      -1.041751       -28.3475
  32   2.0000      -1.036344       -28.2004
  33   2.0000      -1.013204       -27.5707
  34   2.0000      -0.994880       -27.0720
  35   2.0000      -0.983470       -26.7616
  36   2.0000      -0.921690       -25.0805
  37   2.0000      -0.895485       -24.3674
  38   2.0000      -0.846622       -23.0378
  39   2.0000      -0.836474       -22.7616
  40   2.0000      -0.832292       -22.6478
  41   2.0000      -0.817429       -22.2434
  42   2.0000      -0.755328       -20.5535
  43   2.0000      -0.730680       -19.8828
  44   2.0000      -0.722367       -19.6566
  45   2.0000      -0.694226       -18.8908
  46   2.0000      -0.687582       -18.7101
  47   2.0000      -0.680377       -18.5140
  48   2.0000      -0.670685       -18.2503
  49   2.0000      -0.654030       -17.7970
  50   2.0000      -0.647488       -17.6190
  51   2.0000      -0.644807       -17.5461
  52   2.0000      -0.631014       -17.1708
  53   2.0000      -0.612600       -16.6697
  54   2.0000      -0.605022       -16.4635
  55   2.0000      -0.598472       -16.2853
  56   2.0000      -0.597409       -16.2563
  57   2.0000      -0.578561       -15.7434
  58   2.0000      -0.570805       -15.5324
  59   2.0000      -0.570335       -15.5196
  60   2.0000      -0.562414       -15.3041
  61   2.0000      -0.538524       -14.6540
  62   2.0000      -0.537312       -14.6210
  63   2.0000      -0.527206       -14.3460
  64   2.0000      -0.523464       -14.2442
  65   2.0000      -0.512774       -13.9533
  66   2.0000      -0.500309       -13.6141
  67   2.0000      -0.498016       -13.5517
  68   2.0000      -0.484440       -13.1823
  69   2.0000      -0.463316       -12.6075
  70   2.0000      -0.456173       -12.4131
  71   2.0000      -0.446185       -12.1413
  72   2.0000      -0.353999        -9.6328
  73   2.0000      -0.347805        -9.4642
  74   2.0000      -0.327727        -8.9179
  75   2.0000      -0.319528        -8.6948
  76   2.0000      -0.315352        -8.5812
  77   0.0000       0.076721         2.0877
  78   0.0000       0.108979         2.9655
  79   0.0000       0.124675         3.3926
  80   0.0000       0.133344         3.6285
  81   0.0000       0.136917         3.7257

MULLIKEN ATOMIC CHARGES
-----------------------
   0 C :   -0.295668
   1 C :    0.039455
   2 O :   -0.350500
   3 C :    0.471806
   4 O :   -0.439584
   5 C :   -0.212686
   6 C :    0.147503
   7 C :   -0.275101
   8 N :   -0.119754
   9 C :    0.210700
  10 S :   -0.440211
  11 N :   -0.202830
  12 C :    0.044591
  13 C :    0.070517
  14 C :   -0.176110
  15 C :   -0.132808
  16 C :   -0.277691
  17 C :    0.315043
  18 O :   -0.357041
  19 C :   -0.268539
  20 H :    0.121322
  21 H :    0.094879
  22 H :    0.090946
  23 H :    0.097467
  24 H :    0.107389
  25 H :    0.132684
  26 H :    0.129878
  27 H :    0.095301
  28 H :    0.197190
  29 H :    0.194171
  30 H :    0.149817
  31 H :    0.145654
  32 H :    0.158794
  33 H :    0.128867
  34 H :    0.240458
  35 H :    0.164089
Sum of atomic charges:   -0.0000000

LOEWDIN ATOMIC CHARGES
----------------------
   0 C :    0.104866
   1 C :   -0.014625
   2 O :    0.306216
   3 C :   -0.411476
   4 O :    0.096862
   5 C :   -0.093417
   6 C :   -0.058974
   7 C :    0.131279
   8 N :    0.406500
   9 C :   -0.456747
  10 S :   -0.035715
  11 N :    0.396573
  12 C :   -0.052866
  13 C :   -0.038474
  14 C :    0.014219
  15 C :    0.039248
  16 C :   -0.001445
  17 C :   -0.189468
  18 O :    0.394908
  19 C :    0.031522
  20 H :   -0.025674
  21 H :   -0.027257
  22 H :   -0.030644
  23 H :   -0.027733
  24 H :   -0.025258
  25 H :   -0.004463
  26 H :   -0.004416
  27 H :   -0.023423
  28 H :   -0.057642
  29 H :   -0.064597
  30 H :   -0.011496
  31 H :   -0.030651
  32 H :   -0.021724
  33 H :   -0.035821
  34 H :   -0.154166
  35 H :   -0.024021

  Mayer bond orders larger than 0.100000
B(  0-C ,  1-C ) :   0.9661 B(  0-C , 20-H ) :   0.9733 B(  0-C , 21-H ) :   0.9770
B(  0-C , 22-H ) :   0.9765 B(  1-C ,  2-O ) :   0.9009 B(  1-C , 23-H ) :   0.9776
B(  1-C , 24-H ) :   0.9838 B(  2-O ,  3-C ) :   1.1653 B(  3-C ,  4-O ) :   1.9489
B(  3-C ,  5-C ) :   1.0662 B(  5-C ,  6-C ) :   1.6564 B(  5-C , 12-C ) :   0.9736
B(  6-C ,  7-C ) :   0.9674 B(  6-C ,  8-N ) :   1.1648 B(  7-C , 25-H ) :   0.9606
B(  7-C , 26-H ) :   0.9602 B(  7-C , 27-H ) :   0.9906 B(  8-N ,  9-C ) :   1.1821
B(  8-N , 28-H ) :   0.9480 B(  9-C , 10-S ) :   1.6074 B(  9-C , 11-N ) :   1.3050
B( 11-N , 12-C ) :   0.9876 B( 11-N , 29-H ) :   0.9517 B( 12-C , 13-C ) :   0.9382
B( 12-C , 30-H ) :   1.0029 B( 13-C , 14-C ) :   1.3562 B( 13-C , 19-C ) :   1.3819
B( 14-C , 15-C ) :   1.3939 B( 14-C , 31-H ) :   0.9722 B( 15-C , 16-C ) :   1.3645
B( 15-C , 32-H ) :   0.9711 B( 16-C , 17-C ) :   1.3317 B( 16-C , 33-H ) :   0.9854
B( 17-C , 18-O ) :   1.1096 B( 17-C , 19-C ) :   1.3743 B( 18-O , 34-H ) :   0.9801
B( 19-C , 35-H ) :   0.9583

MP2 TOTAL ENERGY:    -1274.349901122 Eh
FINAL SINGLE POINT ENERGY     -1274.349901122355

DIPOLE MOMENT
-------------
                                X             Y             Z
Electronic contribution:      9.62562       8.99382      10.34488
Nuclear contribution   :    -10.77239     -10.62781     -10.69210
                        -----------------------------------------
Total Dipole Moment    :     -1.14677      -1.63399      -0.34723
                        -----------------------------------------
Magnitude (a.u.)       :      2.02622
Magnitude (Debye)      :      5.15024

Rotational constants in cm-1:     0.010635     0.008945     0.006010
Rotational constants in MHz :   318.829922   268.163968   180.169478

                             ****ORCA TERMINATED NORMALLY****
TOTAL RUN TIME: 0 days 1 hours 39 minutes 22 seconds 809 msec
