                         Program Version 5.0.0 -  RELEASE  -
|  1> ! ri-mp2 cc-pvtz cc-pvtz/c TightSCF NoKeepInts
|  2>
|  3> %scf
|  4>   MaxCore 4096
|  5> end
|  6> *xyz  0  1
|  7>     C       15.2592657   14.1076838   17.0820493
|  8>     C       15.3207218   15.5631584   16.5785535
|  9>     O       16.5219773   15.7621385   15.8056371
| 10>     C       17.7231876   15.7453406   16.4526133
| 11>     O       18.3690944   14.7172115   16.5520116
| 12>     C       17.9566486   16.9298084   17.3409016
| 13>     C       17.5262974   18.1848689   17.0594745
| 14>     C       16.8010503   18.6510423   15.8143611
| 15>     N       17.8123301   19.2312903   17.9409641
| 16>     C       18.6118099   19.1249053   19.0487904
| 17>     S       18.9692677   20.4354063   19.9918280
| 18>     N       19.0980972   17.8743267   19.3377348
| 19>     C       18.7271842   16.6343387   18.6295232
| 20>     C       17.9112051   15.7195042   19.5376418
| 21>     C       18.3161913   14.3909939   19.7617429
| 22>     C       17.5519356   13.5370912   20.5744826
| 23>     C       16.3701689   14.0140409   21.1666597
| 24>     C       15.9616593   15.3356254   20.9427839
| 25>     O       14.8144037   15.7961618   21.5015984
| 26>     C       16.7251958   16.1839277   20.1350345
| 27>     H       16.0537949   13.9064176   17.8113766
| 28>     H       15.3725165   13.4042378   16.2476493
| 29>     H       14.2976361   13.9104028   17.5705933
| 30>     H       14.4485769   15.7546469   15.9403211
| 31>     H       15.2775606   16.2562606   17.4292161
| 32>     H       17.1784791   18.1365479   14.9213999
| 33>     H       16.9315874   19.7256740   15.6364301
| 34>     H       15.7253886   18.4519681   15.8882528
| 35>     H       17.4703160   20.1586280   17.7441576
| 36>     H       19.6622966   17.8198107   20.1762467
| 37>     H       19.6556232   16.1130752   18.3538371
| 38>     H       19.2171589   14.0124851   19.2845824
| 39>     H       17.8725919   12.5089979   20.7339416
| 40>     H       15.7747632   13.3559056   21.7908070
| 41>     H       14.4679903   15.0937017   22.0726964
| 42>     H       16.3930278   17.2043752   19.9781053
| 43> *
| 44>
| 45>                          ****END OF INPUT****

CARTESIAN COORDINATES (ANGSTROEM)
---------------------------------
  C     15.259266   14.107684   17.082049
  C     15.320722   15.563158   16.578554
  O     16.521977   15.762138   15.805637
  C     17.723188   15.745341   16.452613
  O     18.369094   14.717211   16.552012
  C     17.956649   16.929808   17.340902
  C     17.526297   18.184869   17.059475
  C     16.801050   18.651042   15.814361
  N     17.812330   19.231290   17.940964
  C     18.611810   19.124905   19.048790
  S     18.969268   20.435406   19.991828
  N     19.098097   17.874327   19.337735
  C     18.727184   16.634339   18.629523
  C     17.911205   15.719504   19.537642
  C     18.316191   14.390994   19.761743
  C     17.551936   13.537091   20.574483
  C     16.370169   14.014041   21.166660
  C     15.961659   15.335625   20.942784
  O     14.814404   15.796162   21.501598
  C     16.725196   16.183928   20.135034
  H     16.053795   13.906418   17.811377
  H     15.372516   13.404238   16.247649
  H     14.297636   13.910403   17.570593
  H     14.448577   15.754647   15.940321
  H     15.277561   16.256261   17.429216
  H     17.178479   18.136548   14.921400
  H     16.931587   19.725674   15.636430
  H     15.725389   18.451968   15.888253
  H     17.470316   20.158628   17.744158
  H     19.662297   17.819811   20.176247
  H     19.655623   16.113075   18.353837
  H     19.217159   14.012485   19.284582
  H     17.872592   12.508998   20.733942
  H     15.774763   13.355906   21.790807
  H     14.467990   15.093702   22.072696
  H     16.393028   17.204375   19.978105

 Total Charge           Charge          ....    0
 Multiplicity           Mult            ....    1
 Number of Electrons    NEL             ....  154
 Basis Dimension        Dim             ....  828

ORBITAL ENERGIES
----------------

  NO   OCC          E(Eh)            E(eV)
   0   2.0000     -91.890743     -2500.4742
   1   2.0000     -20.598807      -560.5220
   2   2.0000     -20.585103      -560.1491
   3   2.0000     -20.554799      -559.3245
   4   2.0000     -15.630670      -425.3322
   5   2.0000     -15.610293      -424.7777
   6   2.0000     -11.394478      -310.0595
   7   2.0000     -11.386423      -309.8403
   8   2.0000     -11.336687      -308.4869
   9   2.0000     -11.315146      -307.9008
  10   2.0000     -11.310074      -307.7628
  11   2.0000     -11.303671      -307.5885
  12   2.0000     -11.263410      -306.4930
  13   2.0000     -11.261124      -306.4308
  14   2.0000     -11.260404      -306.4112
  15   2.0000     -11.254864      -306.2604
  16   2.0000     -11.244531      -305.9792
  17   2.0000     -11.240828      -305.8785
  18   2.0000     -11.237600      -305.7907
  19   2.0000     -11.220904      -305.3363
  20   2.0000      -8.895817      -242.0675
  21   2.0000      -6.577392      -178.9799
  22   2.0000      -6.575383      -178.9253
  23   2.0000      -6.574796      -178.9093
  24   2.0000      -1.449117       -39.4325
  25   2.0000      -1.418581       -38.6015
  26   2.0000      -1.358168       -36.9576
  27   2.0000      -1.341888       -36.5146
  28   2.0000      -1.240133       -33.7457
  29   2.0000      -1.159374       -31.5482
  30   2.0000      -1.123425       -30.5699
  31   2.0000      -1.046541       -28.4778
  32   2.0000      -1.030340       -28.0370
  33   2.0000      -1.016751       -27.6672
  34   2.0000      -1.002559       -27.2810
  35   2.0000      -0.987582       -26.8735
  36   2.0000      -0.926111       -25.2008
  37   2.0000      -0.885990       -24.1090
  38   2.0000      -0.852883       -23.2081
  39   2.0000      -0.841506       -22.8985
  40   2.0000      -0.835221       -22.7275
  41   2.0000      -0.830269       -22.5928
  42   2.0000      -0.747298       -20.3350
  43   2.0000      -0.732781       -19.9400
  44   2.0000      -0.730281       -19.8719
  45   2.0000      -0.696915       -18.9640
  46   2.0000      -0.687128       -18.6977
  47   2.0000      -0.680424       -18.5153
  48   2.0000      -0.675644       -18.3852
  49   2.0000      -0.666315       -18.1314
  50   2.0000      -0.651130       -17.7181
  51   2.0000      -0.648885       -17.6570
  52   2.0000      -0.639014       -17.3884
  53   2.0000      -0.611277       -16.6337
  54   2.0000      -0.607790       -16.5388
  55   2.0000      -0.603893       -16.4328
  56   2.0000      -0.600266       -16.3341
  57   2.0000      -0.580375       -15.7928
  58   2.0000      -0.575978       -15.6732
  59   2.0000      -0.569535       -15.4978
  60   2.0000      -0.557344       -15.1661
  61   2.0000      -0.553354       -15.0575
  62   2.0000      -0.537678       -14.6310
  63   2.0000      -0.526718       -14.3327
  64   2.0000      -0.520431       -14.1616
  65   2.0000      -0.512955       -13.9582
  66   2.0000      -0.501872       -13.6566
  67   2.0000      -0.491198       -13.3662
  68   2.0000      -0.485399       -13.2084
  69   2.0000      -0.468087       -12.7373
  70   2.0000      -0.459114       -12.4931
  71   2.0000      -0.448533       -12.2052
  72   2.0000      -0.357076        -9.7165
  73   2.0000      -0.350982        -9.5507
  74   2.0000      -0.330087        -8.9821
  75   2.0000      -0.322413        -8.7733
  76   2.0000      -0.318393        -8.6639
  77   0.0000       0.070745         1.9251
  78   0.0000       0.102734         2.7955
  79   0.0000       0.118361         3.2208
  80   0.0000       0.129126         3.5137
  81   0.0000       0.136843         3.7237

MULLIKEN ATOMIC CHARGES
-----------------------
   0 C :   -0.273091
   1 C :    0.001557
   2 O :   -0.368157
   3 C :    0.463568
   4 O :   -0.386713
   5 C :   -0.251088
   6 C :    0.166580
   7 C :   -0.290000
   8 N :   -0.125706
   9 C :    0.202668
  10 S :   -0.437669
  11 N :   -0.202658
  12 C :    0.061954
  13 C :    0.040226
  14 C :   -0.167666
  15 C :   -0.131530
  16 C :   -0.276322
  17 C :    0.315904
  18 O :   -0.360286
  19 C :   -0.294748
  20 H :    0.112169
  21 H :    0.109177
  22 H :    0.092013
  23 H :    0.120637
  24 H :    0.094824
  25 H :    0.134985
  26 H :    0.111071
  27 H :    0.120996
  28 H :    0.197367
  29 H :    0.195018
  30 H :    0.155973
  31 H :    0.158100
  32 H :    0.162297
  33 H :    0.131720
  34 H :    0.241880
  35 H :    0.174953
Sum of atomic charges:   -0.0000000

LOEWDIN ATOMIC CHARGES
----------------------
   0 C :    0.109994
   1 C :   -0.023929
   2 O :    0.288015
   3 C :   -0.419125
   4 O :    0.132783
   5 C :   -0.095273
   6 C :   -0.076256
   7 C :    0.127597
   8 N :    0.404373
   9 C :   -0.457570
  10 S :   -0.034499
  11 N :    0.397231
  12 C :   -0.046211
  13 C :   -0.042864
  14 C :    0.022005
  15 C :    0.043180
  16 C :   -0.000372
  17 C :   -0.193701
  18 O :    0.393816
  19 C :    0.028072
  20 H :   -0.025077
  21 H :   -0.022927
  22 H :   -0.027851
  23 H :   -0.023948
  24 H :   -0.038901
  25 H :   -0.005740
  26 H :   -0.017723
  27 H :   -0.012199
  28 H :   -0.058201
  29 H :   -0.063641
  30 H :   -0.004255
  31 H :   -0.023846
  32 H :   -0.019576
  33 H :   -0.034993
  34 H :   -0.153123
  35 H :   -0.025267

  Mayer bond orders larger than 0.100000
B(  0-C ,  1-C ) :   0.9840 B(  0-C , 20-H ) :   0.9669 B(  0-C , 21-H ) :   0.9768
B(  0-C , 22-H ) :   0.9758 B(  1-C ,  2-O ) :   0.8966 B(  1-C , 23-H ) :   0.9783
B(  1-C , 24-H ) :   0.9655 B(  2-O ,  3-C ) :   1.1082 B(  3-C ,  4-O ) :   2.0655
B(  3-C ,  5-C ) :   0.9819 B(  5-C ,  6-C ) :   1.6612 B(  5-C , 12-C ) :   0.9664
B(  6-C ,  7-C ) :   0.9496 B(  6-C ,  8-N ) :   1.1430 B(  7-C , 25-H ) :   0.9686
B(  7-C , 26-H ) :   0.9861 B(  7-C , 27-H ) :   0.9646 B(  8-N ,  9-C ) :   1.1834
B(  8-N , 28-H ) :   0.9493 B(  9-C , 10-S ) :   1.6128 B(  9-C , 11-N ) :   1.2997
B( 11-N , 12-C ) :   0.9949 B( 11-N , 29-H ) :   0.9516 B( 12-C , 13-C ) :   0.9420
B( 12-C , 30-H ) :   0.9982 B( 13-C , 14-C ) :   1.3814 B( 13-C , 19-C ) :   1.3556
B( 14-C , 15-C ) :   1.3918 B( 14-C , 31-H ) :   0.9639 B( 15-C , 16-C ) :   1.3633
B( 15-C , 32-H ) :   0.9711 B( 16-C , 17-C ) :   1.3318 B( 16-C , 33-H ) :   0.9846
B( 17-C , 18-O ) :   1.1101 B( 17-C , 19-C ) :   1.3673 B( 18-O , 34-H ) :   0.9794
B( 19-C , 35-H ) :   0.9572

MP2 TOTAL ENERGY:    -1274.332454226 Eh
FINAL SINGLE POINT ENERGY     -1274.332454225928

DIPOLE MOMENT
-------------
                                X             Y             Z
Electronic contribution:     10.09186       9.00871       5.62612
Nuclear contribution   :    -11.54154      -9.94030      -5.98925
                        -----------------------------------------
Total Dipole Moment    :     -1.44967      -0.93159      -0.36313
                        -----------------------------------------
Magnitude (a.u.)       :      1.76104
Magnitude (Debye)      :      4.47622

Rotational constants in cm-1:     0.012497     0.009237     0.006791
Rotational constants in MHz :   374.643255   276.919533   203.598819

                             ****ORCA TERMINATED NORMALLY****
TOTAL RUN TIME: 0 days 1 hours 42 minutes 16 seconds 964 msec
