                         Program Version 5.0.0 -  RELEASE  -
|  1> ! ri-mp2 cc-pvtz cc-pvtz/c TightSCF NoKeepInts
|  2>
|  3> %scf
|  4>   MaxCore 4096
|  5> end
|  6> *xyz  0  1
|  7>     C       15.4051767   14.1524083   17.2418792
|  8>     C       16.4732464   14.0792584   16.1349215
|  9>     O       17.5380807   15.0118373   16.4133961
| 10>     C       17.3367542   16.3375137   16.1464262
| 11>     O       16.6550822   16.6915239   15.1995903
| 12>     C       17.6802500   17.2288602   17.3094005
| 13>     C       17.3458221   18.5449937   17.3435359
| 14>     C       16.5410744   19.3184672   16.3207589
| 15>     N       17.8027988   19.3554419   18.3877337
| 16>     C       18.7468588   18.9810025   19.3067542
| 17>     S       19.3715344   20.0471599   20.4063122
| 18>     N       19.1598568   17.6739006   19.2568300
| 19>     C       18.5153776   16.6218184   18.4499608
| 20>     C       17.7060719   15.7175950   19.3737008
| 21>     C       18.1756709   14.4293698   19.6928162
| 22>     C       17.4568630   13.6038503   20.5741084
| 23>     C       16.2593127   14.0704865   21.1428052
| 24>     C       15.7917175   15.3547588   20.8316874
| 25>     O       14.6366295   15.8087139   21.3797018
| 26>     C       16.5103467   16.1749676   19.9564957
| 27>     H       15.8168986   13.8204508   18.2003667
| 28>     H       14.5584710   13.5001243   16.9969918
| 29>     H       15.0230875   15.1742466   17.3578786
| 30>     H       16.8824404   13.0613264   16.1076070
| 31>     H       16.0209799   14.2824059   15.1544354
| 32>     H       15.5526690   18.8618938   16.1826442
| 33>     H       17.0450247   19.3086504   15.3458606
| 34>     H       16.3834039   20.3663143   16.6017216
| 35>     H       17.5181261   20.3210069   18.4291761
| 36>     H       19.8355491   17.4185240   19.9652870
| 37>     H       19.3135136   16.0201039   17.9927921
| 38>     H       19.1022735   14.0666104   19.2560566
| 39>     H       17.8285978   12.6092527   20.8145398
| 40>     H       15.7006974   13.4369030   21.8239008
| 41>     H       14.3178429   15.1292160   21.9926237
| 42>     H       16.1388993   17.1710425   19.7433030
| 43> *
| 44>
| 45>                          ****END OF INPUT****

CARTESIAN COORDINATES (ANGSTROEM)
---------------------------------
  C     15.405177   14.152408   17.241879
  C     16.473246   14.079258   16.134922
  O     17.538081   15.011837   16.413396
  C     17.336754   16.337514   16.146426
  O     16.655082   16.691524   15.199590
  C     17.680250   17.228860   17.309400
  C     17.345822   18.544994   17.343536
  C     16.541074   19.318467   16.320759
  N     17.802799   19.355442   18.387734
  C     18.746859   18.981002   19.306754
  S     19.371534   20.047160   20.406312
  N     19.159857   17.673901   19.256830
  C     18.515378   16.621818   18.449961
  C     17.706072   15.717595   19.373701
  C     18.175671   14.429370   19.692816
  C     17.456863   13.603850   20.574108
  C     16.259313   14.070486   21.142805
  C     15.791717   15.354759   20.831687
  O     14.636629   15.808714   21.379702
  C     16.510347   16.174968   19.956496
  H     15.816899   13.820451   18.200367
  H     14.558471   13.500124   16.996992
  H     15.023087   15.174247   17.357879
  H     16.882440   13.061326   16.107607
  H     16.020980   14.282406   15.154435
  H     15.552669   18.861894   16.182644
  H     17.045025   19.308650   15.345861
  H     16.383404   20.366314   16.601722
  H     17.518126   20.321007   18.429176
  H     19.835549   17.418524   19.965287
  H     19.313514   16.020104   17.992792
  H     19.102273   14.066610   19.256057
  H     17.828598   12.609253   20.814540
  H     15.700697   13.436903   21.823901
  H     14.317843   15.129216   21.992624
  H     16.138899   17.171042   19.743303

 Total Charge           Charge          ....    0
 Multiplicity           Mult            ....    1
 Number of Electrons    NEL             ....  154
 Basis Dimension        Dim             ....  828

ORBITAL ENERGIES
----------------

  NO   OCC          E(Eh)            E(eV)
   0   2.0000     -91.889812     -2500.4489
   1   2.0000     -20.598786      -560.5215
   2   2.0000     -20.592218      -560.3427
   3   2.0000     -20.544261      -559.0378
   4   2.0000     -15.630428      -425.3256
   5   2.0000     -15.608572      -424.7308
   6   2.0000     -11.394515      -310.0605
   7   2.0000     -11.384472      -309.7872
   8   2.0000     -11.337177      -308.5003
   9   2.0000     -11.315967      -307.9231
  10   2.0000     -11.310205      -307.7663
  11   2.0000     -11.294523      -307.3396
  12   2.0000     -11.261255      -306.4343
  13   2.0000     -11.260054      -306.4016
  14   2.0000     -11.257580      -306.3343
  15   2.0000     -11.252891      -306.2067
  16   2.0000     -11.245193      -305.9973
  17   2.0000     -11.239911      -305.8535
  18   2.0000     -11.239566      -305.8441
  19   2.0000     -11.220529      -305.3261
  20   2.0000      -8.894843      -242.0410
  21   2.0000      -6.576411      -178.9532
  22   2.0000      -6.574415      -178.8989
  23   2.0000      -6.573822      -178.8828
  24   2.0000      -1.449153       -39.4335
  25   2.0000      -1.418437       -38.5976
  26   2.0000      -1.352330       -36.7988
  27   2.0000      -1.341383       -36.5009
  28   2.0000      -1.239584       -33.7308
  29   2.0000      -1.159155       -31.5422
  30   2.0000      -1.120794       -30.4983
  31   2.0000      -1.043739       -28.4016
  32   2.0000      -1.032601       -28.0985
  33   2.0000      -1.017130       -27.6775
  34   2.0000      -0.997047       -27.1310
  35   2.0000      -0.985063       -26.8049
  36   2.0000      -0.923828       -25.1386
  37   2.0000      -0.892365       -24.2825
  38   2.0000      -0.847772       -23.0690
  39   2.0000      -0.840249       -22.8643
  40   2.0000      -0.835550       -22.7365
  41   2.0000      -0.814634       -22.1673
  42   2.0000      -0.754891       -20.5416
  43   2.0000      -0.733773       -19.9670
  44   2.0000      -0.722508       -19.6605
  45   2.0000      -0.698115       -18.9967
  46   2.0000      -0.690002       -18.7759
  47   2.0000      -0.677819       -18.4444
  48   2.0000      -0.668638       -18.1946
  49   2.0000      -0.666181       -18.1277
  50   2.0000      -0.648706       -17.6522
  51   2.0000      -0.643957       -17.5230
  52   2.0000      -0.636228       -17.3126
  53   2.0000      -0.609554       -16.5868
  54   2.0000      -0.605112       -16.4659
  55   2.0000      -0.600080       -16.3290
  56   2.0000      -0.599724       -16.3193
  57   2.0000      -0.579506       -15.7692
  58   2.0000      -0.571271       -15.5451
  59   2.0000      -0.565901       -15.3989
  60   2.0000      -0.555670       -15.1206
  61   2.0000      -0.545964       -14.8564
  62   2.0000      -0.536952       -14.6112
  63   2.0000      -0.527414       -14.3517
  64   2.0000      -0.527147       -14.3444
  65   2.0000      -0.514269       -13.9940
  66   2.0000      -0.503497       -13.7008
  67   2.0000      -0.499984       -13.6053
  68   2.0000      -0.476716       -12.9721
  69   2.0000      -0.464284       -12.6338
  70   2.0000      -0.452366       -12.3095
  71   2.0000      -0.444884       -12.1059
  72   2.0000      -0.356608        -9.7038
  73   2.0000      -0.351389        -9.5618
  74   2.0000      -0.329266        -8.9598
  75   2.0000      -0.324072        -8.8185
  76   2.0000      -0.316808        -8.6208
  77   0.0000       0.071598         1.9483
  78   0.0000       0.105071         2.8591
  79   0.0000       0.122220         3.3258
  80   0.0000       0.130962         3.5637
  81   0.0000       0.135909         3.6983

MULLIKEN ATOMIC CHARGES
-----------------------
   0 C :   -0.316435
   1 C :    0.031862
   2 O :   -0.375819
   3 C :    0.462377
   4 O :   -0.424006
   5 C :   -0.224957
   6 C :    0.150762
   7 C :   -0.269727
   8 N :   -0.123802
   9 C :    0.212425
  10 S :   -0.437780
  11 N :   -0.201211
  12 C :    0.042592
  13 C :    0.076357
  14 C :   -0.189056
  15 C :   -0.131119
  16 C :   -0.280833
  17 C :    0.314074
  18 O :   -0.358772
  19 C :   -0.261132
  20 H :    0.107088
  21 H :    0.113089
  22 H :    0.105503
  23 H :    0.108826
  24 H :    0.118964
  25 H :    0.129600
  26 H :    0.133839
  27 H :    0.094715
  28 H :    0.198475
  29 H :    0.193057
  30 H :    0.150274
  31 H :    0.149354
  32 H :    0.161540
  33 H :    0.131466
  34 H :    0.241471
  35 H :    0.166941
Sum of atomic charges:    0.0000000

LOEWDIN ATOMIC CHARGES
----------------------
   0 C :    0.105232
   1 C :   -0.015654
   2 O :    0.292567
   3 C :   -0.415985
   4 O :    0.105424
   5 C :   -0.096546
   6 C :   -0.058114
   7 C :    0.130928
   8 N :    0.407099
   9 C :   -0.456271
  10 S :   -0.033579
  11 N :    0.396627
  12 C :   -0.052812
  13 C :   -0.036522
  14 C :    0.011885
  15 C :    0.039799
  16 C :   -0.002537
  17 C :   -0.189481
  18 O :    0.396306
  19 C :    0.033812
  20 H :   -0.026707
  21 H :   -0.026167
  22 H :   -0.027990
  23 H :   -0.025008
  24 H :   -0.028811
  25 H :   -0.005541
  26 H :   -0.003323
  27 H :   -0.023343
  28 H :   -0.057567
  29 H :   -0.065303
  30 H :   -0.007735
  31 H :   -0.029823
  32 H :   -0.020715
  33 H :   -0.035286
  34 H :   -0.153292
  35 H :   -0.025567

  Mayer bond orders larger than 0.100000
B(  0-C ,  1-C ) :   0.9591 B(  0-C , 20-H ) :   0.9732 B(  0-C , 21-H ) :   0.9780
B(  0-C , 22-H ) :   0.9736 B(  1-C ,  2-O ) :   0.8853 B(  1-C , 23-H ) :   0.9851
B(  1-C , 24-H ) :   0.9801 B(  2-O ,  3-C ) :   1.1241 B(  3-C ,  4-O ) :   1.9850
B(  3-C ,  5-C ) :   1.0683 B(  5-C ,  6-C ) :   1.6524 B(  5-C , 12-C ) :   0.9735
B(  6-C ,  7-C ) :   0.9700 B(  6-C ,  8-N ) :   1.1573 B(  7-C , 25-H ) :   0.9623
B(  7-C , 26-H ) :   0.9581 B(  7-C , 27-H ) :   0.9897 B(  8-N ,  9-C ) :   1.1795
B(  8-N , 28-H ) :   0.9480 B(  9-C , 10-S ) :   1.6103 B(  9-C , 11-N ) :   1.3048
B( 11-N , 12-C ) :   0.9736 B( 11-N , 29-H ) :   0.9535 B( 12-C , 13-C ) :   0.9423
B( 12-C , 30-H ) :   1.0037 B( 13-C , 14-C ) :   1.3535 B( 13-C , 19-C ) :   1.3692
B( 14-C , 15-C ) :   1.3883 B( 14-C , 31-H ) :   0.9730 B( 15-C , 16-C ) :   1.3612
B( 15-C , 32-H ) :   0.9715 B( 16-C , 17-C ) :   1.3315 B( 16-C , 33-H ) :   0.9851
B( 17-C , 18-O ) :   1.1121 B( 17-C , 19-C ) :   1.3710 B( 18-O , 34-H ) :   0.9794
B( 19-C , 35-H ) :   0.9579

MP2 TOTAL ENERGY:    -1274.341828633 Eh
FINAL SINGLE POINT ENERGY     -1274.341828632944

DIPOLE MOMENT
-------------
                                X             Y             Z
Electronic contribution:      9.04147       9.96692       5.59367
Nuclear contribution   :     -9.94256     -11.65944      -5.71934
                        -----------------------------------------
Total Dipole Moment    :     -0.90109      -1.69252      -0.12567
                        -----------------------------------------
Magnitude (a.u.)       :      1.92156
Magnitude (Debye)      :      4.88422

Rotational constants in cm-1:     0.012134     0.009307     0.006547
Rotational constants in MHz :   363.769105   279.021540   196.261390

                             ****ORCA TERMINATED NORMALLY****
TOTAL RUN TIME: 0 days 1 hours 39 minutes 9 seconds 904 msec
