                         Program Version 5.0.0 -  RELEASE  -
|  1> ! ri-mp2 cc-pvtz cc-pvtz/c TightSCF NoKeepInts
|  2>
|  3> %scf
|  4>   MaxCore 4096
|  5> end
|  6> *xyz  0  1
|  7>     C       16.0530339   13.0792337   16.2147896
|  8>     C       15.5984343   14.5168841   16.5165394
|  9>     O       16.7719061   15.3457954   16.5308954
| 10>     C       16.6138176   16.7010551   16.4780359
| 11>     O       15.6846801   17.2166750   15.8802725
| 12>     C       17.4969453   17.4255489   17.4566306
| 13>     C       17.4984537   18.7781078   17.5698983
| 14>     C       16.6654612   19.7645942   16.7796214
| 15>     N       18.3653556   19.4057120   18.4694047
| 16>     C       19.3270467   18.7674970   19.2061343
| 17>     S       20.3778051   19.5959965   20.1784330
| 18>     N       19.3785610   17.4016277   19.0934544
| 19>     C       18.4095703   16.5725121   18.3539819
| 20>     C       17.6119769   15.7182202   19.3355918
| 21>     C       17.8207063   14.3278098   19.4013390
| 22>     C       17.0809064   13.5349606   20.2946550
| 23>     C       16.1277296   14.1377292   21.1330594
| 24>     C       15.9226295   15.5231023   21.0756731
| 25>     O       15.0041539   16.1081954   21.8848976
| 26>     C       16.6591570   16.3092239   20.1842758
| 27>     H       16.7392316   12.7197579   16.9911799
| 28>     H       16.5669279   13.0317416   15.2466198
| 29>     H       15.1901101   12.4033076   16.1794370
| 30>     H       14.9010362   14.8418125   15.7321225
| 31>     H       15.0848000   14.5650716   17.4861340
| 32>     H       15.5977923   19.6210458   16.9899322
| 33>     H       16.8088147   19.6162774   15.7017668
| 34>     H       16.9107486   20.8094029   17.0033535
| 35>     H       18.3428932   20.4085250   18.5641170
| 36>     H       20.0741807   16.9564676   19.6780737
| 37>     H       18.9844706   15.9023457   17.6993363
| 38>     H       18.5537054   13.8589599   18.7502580
| 39>     H       17.2479489   12.4600048   20.3361871
| 40>     H       15.5546676   13.5300335   21.8256699
| 41>     H       14.6318292   15.4164860   22.4521902
| 42>     H       16.4895124   17.3802790   20.1600390
| 43> *
| 44>
| 45>                          ****END OF INPUT****

CARTESIAN COORDINATES (ANGSTROEM)
---------------------------------
  C     16.053034   13.079234   16.214790
  C     15.598434   14.516884   16.516539
  O     16.771906   15.345795   16.530895
  C     16.613818   16.701055   16.478036
  O     15.684680   17.216675   15.880272
  C     17.496945   17.425549   17.456631
  C     17.498454   18.778108   17.569898
  C     16.665461   19.764594   16.779621
  N     18.365356   19.405712   18.469405
  C     19.327047   18.767497   19.206134
  S     20.377805   19.595996   20.178433
  N     19.378561   17.401628   19.093454
  C     18.409570   16.572512   18.353982
  C     17.611977   15.718220   19.335592
  C     17.820706   14.327810   19.401339
  C     17.080906   13.534961   20.294655
  C     16.127730   14.137729   21.133059
  C     15.922629   15.523102   21.075673
  O     15.004154   16.108195   21.884898
  C     16.659157   16.309224   20.184276
  H     16.739232   12.719758   16.991180
  H     16.566928   13.031742   15.246620
  H     15.190110   12.403308   16.179437
  H     14.901036   14.841812   15.732122
  H     15.084800   14.565072   17.486134
  H     15.597792   19.621046   16.989932
  H     16.808815   19.616277   15.701767
  H     16.910749   20.809403   17.003353
  H     18.342893   20.408525   18.564117
  H     20.074181   16.956468   19.678074
  H     18.984471   15.902346   17.699336
  H     18.553705   13.858960   18.750258
  H     17.247949   12.460005   20.336187
  H     15.554668   13.530034   21.825670
  H     14.631829   15.416486   22.452190
  H     16.489512   17.380279   20.160039

 Total Charge           Charge          ....    0
 Multiplicity           Mult            ....    1
 Number of Electrons    NEL             ....  154
 Basis Dimension        Dim             ....  828

ORBITAL ENERGIES
----------------

  NO   OCC          E(Eh)            E(eV)
   0   2.0000     -91.889392     -2500.4375
   1   2.0000     -20.598421      -560.5115
   2   2.0000     -20.595149      -560.4225
   3   2.0000     -20.543277      -559.0110
   4   2.0000     -15.629556      -425.3018
   5   2.0000     -15.608916      -424.7402
   6   2.0000     -11.393666      -310.0374
   7   2.0000     -11.384549      -309.7893
   8   2.0000     -11.336104      -308.4711
   9   2.0000     -11.315948      -307.9226
  10   2.0000     -11.310085      -307.7631
  11   2.0000     -11.293964      -307.3244
  12   2.0000     -11.261591      -306.4435
  13   2.0000     -11.258890      -306.3700
  14   2.0000     -11.257442      -306.3306
  15   2.0000     -11.252457      -306.1949
  16   2.0000     -11.245064      -305.9938
  17   2.0000     -11.240264      -305.8631
  18   2.0000     -11.239998      -305.8559
  19   2.0000     -11.228497      -305.5429
  20   2.0000      -8.894451      -242.0303
  21   2.0000      -6.576024      -178.9427
  22   2.0000      -6.574020      -178.8882
  23   2.0000      -6.573432      -178.8722
  24   2.0000      -1.450994       -39.4835
  25   2.0000      -1.418085       -38.5880
  26   2.0000      -1.354081       -36.8464
  27   2.0000      -1.340567       -36.4787
  28   2.0000      -1.239196       -33.7202
  29   2.0000      -1.159437       -31.5499
  30   2.0000      -1.120920       -30.5018
  31   2.0000      -1.044067       -28.4105
  32   2.0000      -1.038268       -28.2527
  33   2.0000      -1.017257       -27.6810
  34   2.0000      -0.996292       -27.1105
  35   2.0000      -0.984929       -26.8013
  36   2.0000      -0.923535       -25.1307
  37   2.0000      -0.885253       -24.0890
  38   2.0000      -0.847495       -23.0615
  39   2.0000      -0.838971       -22.8296
  40   2.0000      -0.835788       -22.7429
  41   2.0000      -0.820339       -22.3226
  42   2.0000      -0.763782       -20.7836
  43   2.0000      -0.734055       -19.9746
  44   2.0000      -0.723066       -19.6756
  45   2.0000      -0.697462       -18.9789
  46   2.0000      -0.687704       -18.7134
  47   2.0000      -0.678637       -18.4667
  48   2.0000      -0.675514       -18.3817
  49   2.0000      -0.659228       -17.9385
  50   2.0000      -0.647019       -17.6063
  51   2.0000      -0.644533       -17.5386
  52   2.0000      -0.636151       -17.3105
  53   2.0000      -0.609211       -16.5775
  54   2.0000      -0.606972       -16.5165
  55   2.0000      -0.601424       -16.3656
  56   2.0000      -0.599129       -16.3031
  57   2.0000      -0.579173       -15.7601
  58   2.0000      -0.571406       -15.5487
  59   2.0000      -0.565651       -15.3921
  60   2.0000      -0.559074       -15.2132
  61   2.0000      -0.541047       -14.7226
  62   2.0000      -0.539817       -14.6892
  63   2.0000      -0.526757       -14.3338
  64   2.0000      -0.521786       -14.1985
  65   2.0000      -0.514226       -13.9928
  66   2.0000      -0.504282       -13.7222
  67   2.0000      -0.499388       -13.5890
  68   2.0000      -0.486714       -13.2442
  69   2.0000      -0.465960       -12.6794
  70   2.0000      -0.457890       -12.4598
  71   2.0000      -0.445600       -12.1254
  72   2.0000      -0.354643        -9.6503
  73   2.0000      -0.351340        -9.5605
  74   2.0000      -0.328909        -8.9501
  75   2.0000      -0.323368        -8.7993
  76   2.0000      -0.316741        -8.6190
  77   0.0000       0.073823         2.0088
  78   0.0000       0.103871         2.8265
  79   0.0000       0.124467         3.3869
  80   0.0000       0.131064         3.5664
  81   0.0000       0.136457         3.7132

MULLIKEN ATOMIC CHARGES
-----------------------
   0 C :   -0.266154
   1 C :    0.017590
   2 O :   -0.362725
   3 C :    0.467696
   4 O :   -0.422858
   5 C :   -0.244420
   6 C :    0.157825
   7 C :   -0.270886
   8 N :   -0.123021
   9 C :    0.212894
  10 S :   -0.439663
  11 N :   -0.206348
  12 C :    0.066465
  13 C :    0.047397
  14 C :   -0.189126
  15 C :   -0.128723
  16 C :   -0.279708
  17 C :    0.313833
  18 O :   -0.355760
  19 C :   -0.262201
  20 H :    0.089405
  21 H :    0.099390
  22 H :    0.091717
  23 H :    0.127386
  24 H :    0.103049
  25 H :    0.132811
  26 H :    0.130066
  27 H :    0.095275
  28 H :    0.197603
  29 H :    0.195066
  30 H :    0.149394
  31 H :    0.155175
  32 H :    0.162465
  33 H :    0.131678
  34 H :    0.241033
  35 H :    0.166381
Sum of atomic charges:    0.0000000

LOEWDIN ATOMIC CHARGES
----------------------
   0 C :    0.107669
   1 C :   -0.017138
   2 O :    0.303732
   3 C :   -0.415114
   4 O :    0.103073
   5 C :   -0.096402
   6 C :   -0.059117
   7 C :    0.131647
   8 N :    0.406692
   9 C :   -0.455998
  10 S :   -0.035105
  11 N :    0.396198
  12 C :   -0.052198
  13 C :   -0.038065
  14 C :    0.014587
  15 C :    0.039360
  16 C :   -0.002341
  17 C :   -0.189851
  18 O :    0.395871
  19 C :    0.031126
  20 H :   -0.031888
  21 H :   -0.026128
  22 H :   -0.024890
  23 H :   -0.027609
  24 H :   -0.029962
  25 H :   -0.004444
  26 H :   -0.003989
  27 H :   -0.023267
  28 H :   -0.057456
  29 H :   -0.064705
  30 H :   -0.010200
  31 H :   -0.030731
  32 H :   -0.021065
  33 H :   -0.035227
  34 H :   -0.153541
  35 H :   -0.023524

  Mayer bond orders larger than 0.100000
B(  0-C ,  1-C ) :   0.9739 B(  0-C , 20-H ) :   0.9781 B(  0-C , 21-H ) :   0.9776
B(  0-C , 22-H ) :   0.9774 B(  1-C ,  2-O ) :   0.8803 B(  1-C , 23-H ) :   0.9798
B(  1-C , 24-H ) :   0.9692 B(  2-O ,  3-C ) :   1.1482 B(  3-C ,  4-O ) :   1.9961
B(  3-C ,  5-C ) :   1.0570 B(  5-C ,  6-C ) :   1.6524 B(  5-C , 12-C ) :   0.9728
B(  6-C ,  7-C ) :   0.9664 B(  6-C ,  8-N ) :   1.1618 B(  7-C , 25-H ) :   0.9591
B(  7-C , 26-H ) :   0.9614 B(  7-C , 27-H ) :   0.9905 B(  8-N ,  9-C ) :   1.1834
B(  8-N , 28-H ) :   0.9478 B(  9-C , 10-S ) :   1.6069 B(  9-C , 11-N ) :   1.3060
B( 11-N , 12-C ) :   0.9826 B( 11-N , 29-H ) :   0.9517 B( 12-C , 13-C ) :   0.9355
B( 12-C , 30-H ) :   1.0021 B( 13-C , 14-C ) :   1.3597 B( 13-C , 19-C ) :   1.3819
B( 14-C , 15-C ) :   1.3864 B( 14-C , 31-H ) :   0.9707 B( 15-C , 16-C ) :   1.3646
B( 15-C , 32-H ) :   0.9698 B( 16-C , 17-C ) :   1.3305 B( 16-C , 33-H ) :   0.9844
B( 17-C , 18-O ) :   1.1119 B( 17-C , 19-C ) :   1.3718 B( 18-O , 34-H ) :   0.9795
B( 19-C , 35-H ) :   0.9579

MP2 TOTAL ENERGY:    -1274.344947319 Eh
FINAL SINGLE POINT ENERGY     -1274.344947319397

DIPOLE MOMENT
-------------
                                X             Y             Z
Electronic contribution:      8.75778      11.35310       7.23440
Nuclear contribution   :     -9.86178     -12.92414      -7.47586
                        -----------------------------------------
Total Dipole Moment    :     -1.10401      -1.57104      -0.24145
                        -----------------------------------------
Magnitude (a.u.)       :      1.93528
Magnitude (Debye)      :      4.91908

Rotational constants in cm-1:     0.012371     0.008427     0.006293
Rotational constants in MHz :   370.868475   252.635525   188.660290

                             ****ORCA TERMINATED NORMALLY****
TOTAL RUN TIME: 0 days 2 hours 1 minutes 42 seconds 330 msec
