                         Program Version 5.0.0 -  RELEASE  -
|  1> ! ri-mp2 cc-pvtz cc-pvtz/c TightSCF NoKeepInts
|  2>
|  3> %scf
|  4>   MaxCore 4096
|  5> end
|  6> *xyz  0  1
|  7>     C       14.8089092   14.6175224   17.3873048
|  8>     C       15.7069613   15.2900376   16.3365158
|  9>     O       17.0627535   14.9164674   16.6282401
| 10>     C       18.1078663   15.7800130   16.4575170
| 11>     O       19.2059134   15.2999385   16.2483121
| 12>     C       18.0165748   16.9451606   17.3822978
| 13>     C       17.5213883   18.1358945   16.9777307
| 14>     C       16.9808244   18.4750423   15.6048588
| 15>     N       17.5427796   19.2296131   17.8456491
| 16>     C       18.1611603   19.2386409   19.0692198
| 17>     S       18.2113683   20.6007797   20.0054932
| 18>     N       18.7363961   18.0602773   19.4791610
| 19>     C       18.6338389   16.7679593   18.7703961
| 20>     C       17.8771599   15.7327159   19.5982875
| 21>     C       18.3019388   14.3913025   19.5989428
| 22>     C       17.6159917   13.4218451   20.3491037
| 23>     C       16.4947445   13.7956789   21.1087775
| 24>     C       16.0655572   15.1295762   21.1088807
| 25>     O       14.9746273   15.4907202   21.8300737
| 26>     C       16.7476465   16.0924882   20.3579286
| 27>     H       14.9522710   13.5296933   17.3786819
| 28>     H       13.7517281   14.8275418   17.1854413
| 29>     H       15.0447887   14.9860860   18.3917570
| 30>     H       15.4328170   14.9592044   15.3262256
| 31>     H       15.5567696   16.3720960   16.4035689
| 32>     H       17.1687045   17.6812581   14.8719367
| 33>     H       17.4590231   19.3821053   15.2128784
| 34>     H       15.8991582   18.6545281   15.6401189
| 35>     H       17.1410567   20.1079353   17.5574402
| 36>     H       19.1707175   18.0922064   20.3928223
| 37>     H       19.6572845   16.3917627   18.6245342
| 38>     H       19.1600157   14.0965622   18.9984190
| 39>     H       17.9520689   12.3865462   20.3340684
| 40>     H       15.9609787   13.0493826   21.6876825
| 41>     H       14.6743334   14.7065496   22.3138631
| 42>     H       16.3908842   17.1168683   20.3698710
| 43> *
| 44>
| 45>                          ****END OF INPUT****

CARTESIAN COORDINATES (ANGSTROEM)
---------------------------------
  C     14.808909   14.617522   17.387305
  C     15.706961   15.290038   16.336516
  O     17.062753   14.916467   16.628240
  C     18.107866   15.780013   16.457517
  O     19.205913   15.299938   16.248312
  C     18.016575   16.945161   17.382298
  C     17.521388   18.135894   16.977731
  C     16.980824   18.475042   15.604859
  N     17.542780   19.229613   17.845649
  C     18.161160   19.238641   19.069220
  S     18.211368   20.600780   20.005493
  N     18.736396   18.060277   19.479161
  C     18.633839   16.767959   18.770396
  C     17.877160   15.732716   19.598288
  C     18.301939   14.391303   19.598943
  C     17.615992   13.421845   20.349104
  C     16.494744   13.795679   21.108777
  C     16.065557   15.129576   21.108881
  O     14.974627   15.490720   21.830074
  C     16.747646   16.092488   20.357929
  H     14.952271   13.529693   17.378682
  H     13.751728   14.827542   17.185441
  H     15.044789   14.986086   18.391757
  H     15.432817   14.959204   15.326226
  H     15.556770   16.372096   16.403569
  H     17.168705   17.681258   14.871937
  H     17.459023   19.382105   15.212878
  H     15.899158   18.654528   15.640119
  H     17.141057   20.107935   17.557440
  H     19.170717   18.092206   20.392822
  H     19.657284   16.391763   18.624534
  H     19.160016   14.096562   18.998419
  H     17.952069   12.386546   20.334068
  H     15.960979   13.049383   21.687683
  H     14.674333   14.706550   22.313863
  H     16.390884   17.116868   20.369871

 Total Charge           Charge          ....    0
 Multiplicity           Mult            ....    1
 Number of Electrons    NEL             ....  154
 Basis Dimension        Dim             ....  828

ORBITAL ENERGIES
----------------

  NO   OCC          E(Eh)            E(eV)
   0   2.0000     -91.887170     -2500.3770
   1   2.0000     -20.600458      -560.5669
   2   2.0000     -20.597426      -560.4845
   3   2.0000     -20.561015      -559.4937
   4   2.0000     -15.622135      -425.0999
   5   2.0000     -15.609946      -424.7682
   6   2.0000     -11.396200      -310.1064
   7   2.0000     -11.384072      -309.7764
   8   2.0000     -11.321780      -308.0813
   9   2.0000     -11.315933      -307.9222
  10   2.0000     -11.313784      -307.8637
  11   2.0000     -11.305056      -307.6262
  12   2.0000     -11.270163      -306.6767
  13   2.0000     -11.265419      -306.5476
  14   2.0000     -11.261537      -306.4420
  15   2.0000     -11.254318      -306.2456
  16   2.0000     -11.243209      -305.9433
  17   2.0000     -11.239174      -305.8335
  18   2.0000     -11.236769      -305.7680
  19   2.0000     -11.228529      -305.5438
  20   2.0000      -8.892312      -241.9721
  21   2.0000      -6.573911      -178.8852
  22   2.0000      -6.571875      -178.8298
  23   2.0000      -6.571311      -178.8145
  24   2.0000      -1.457650       -39.6647
  25   2.0000      -1.417238       -38.5650
  26   2.0000      -1.364688       -37.1350
  27   2.0000      -1.336874       -36.3782
  28   2.0000      -1.237378       -33.6708
  29   2.0000      -1.158286       -31.5186
  30   2.0000      -1.123632       -30.5756
  31   2.0000      -1.047113       -28.4934
  32   2.0000      -1.040068       -28.3017
  33   2.0000      -1.016405       -27.6578
  34   2.0000      -1.003426       -27.3046
  35   2.0000      -0.987007       -26.8578
  36   2.0000      -0.926169       -25.2023
  37   2.0000      -0.884257       -24.0619
  38   2.0000      -0.852291       -23.1920
  39   2.0000      -0.839343       -22.8397
  40   2.0000      -0.834442       -22.7063
  41   2.0000      -0.833925       -22.6923
  42   2.0000      -0.759943       -20.6791
  43   2.0000      -0.736327       -20.0365
  44   2.0000      -0.729683       -19.8557
  45   2.0000      -0.696070       -18.9410
  46   2.0000      -0.690956       -18.8019
  47   2.0000      -0.683856       -18.6087
  48   2.0000      -0.676433       -18.4067
  49   2.0000      -0.663037       -18.0422
  50   2.0000      -0.652286       -17.7496
  51   2.0000      -0.639830       -17.4106
  52   2.0000      -0.634697       -17.2710
  53   2.0000      -0.623026       -16.9534
  54   2.0000      -0.610828       -16.6215
  55   2.0000      -0.605067       -16.4647
  56   2.0000      -0.601407       -16.3651
  57   2.0000      -0.588512       -16.0142
  58   2.0000      -0.575807       -15.6685
  59   2.0000      -0.566160       -15.4060
  60   2.0000      -0.562267       -15.3001
  61   2.0000      -0.555192       -15.1075
  62   2.0000      -0.537311       -14.6210
  63   2.0000      -0.530309       -14.4304
  64   2.0000      -0.519052       -14.1241
  65   2.0000      -0.512271       -13.9396
  66   2.0000      -0.500667       -13.6238
  67   2.0000      -0.500172       -13.6104
  68   2.0000      -0.489893       -13.3307
  69   2.0000      -0.466300       -12.6887
  70   2.0000      -0.459157       -12.4943
  71   2.0000      -0.453132       -12.3304
  72   2.0000      -0.355191        -9.6652
  73   2.0000      -0.348648        -9.4872
  74   2.0000      -0.327079        -8.9003
  75   2.0000      -0.321307        -8.7432
  76   2.0000      -0.315586        -8.5875
  77   0.0000       0.092407         2.5145
  78   0.0000       0.098371         2.6768
  79   0.0000       0.109106         2.9689
  80   0.0000       0.126619         3.4455
  81   0.0000       0.129738         3.5304

MULLIKEN ATOMIC CHARGES
-----------------------
   0 C :   -0.273833
   1 C :    0.015876
   2 O :   -0.307538
   3 C :    0.377727
   4 O :   -0.358937
   5 C :   -0.129152
   6 C :    0.114933
   7 C :   -0.324173
   8 N :   -0.135326
   9 C :    0.207306
  10 S :   -0.445873
  11 N :   -0.220365
  12 C :    0.043751
  13 C :    0.042112
  14 C :   -0.188551
  15 C :   -0.140308
  16 C :   -0.264376
  17 C :    0.305425
  18 O :   -0.362728
  19 C :   -0.268707
  20 H :    0.103651
  21 H :    0.092808
  22 H :    0.115542
  23 H :    0.112069
  24 H :    0.077748
  25 H :    0.116937
  26 H :    0.135974
  27 H :    0.121876
  28 H :    0.193843
  29 H :    0.200252
  30 H :    0.168797
  31 H :    0.161138
  32 H :    0.162474
  33 H :    0.131848
  34 H :    0.240618
  35 H :    0.177162
Sum of atomic charges:   -0.0000000

LOEWDIN ATOMIC CHARGES
----------------------
   0 C :    0.111733
   1 C :   -0.029356
   2 O :    0.326118
   3 C :   -0.425515
   4 O :    0.144418
   5 C :   -0.077221
   6 C :   -0.117175
   7 C :    0.120193
   8 N :    0.399360
   9 C :   -0.455636
  10 S :   -0.042048
  11 N :    0.397935
  12 C :   -0.040579
  13 C :   -0.040493
  14 C :    0.024448
  15 C :    0.045347
  16 C :   -0.001405
  17 C :   -0.194364
  18 O :    0.395109
  19 C :    0.025911
  20 H :   -0.024391
  21 H :   -0.027180
  22 H :   -0.024458
  23 H :   -0.031468
  24 H :   -0.037923
  25 H :   -0.012067
  26 H :   -0.010227
  27 H :   -0.017707
  28 H :   -0.059618
  29 H :   -0.063809
  30 H :   -0.002229
  31 H :   -0.023119
  32 H :   -0.019188
  33 H :   -0.035392
  34 H :   -0.153487
  35 H :   -0.024518

  Mayer bond orders larger than 0.100000
B(  0-C ,  1-C ) :   0.9812 B(  0-C , 20-H ) :   0.9796 B(  0-C , 21-H ) :   0.9771
B(  0-C , 22-H ) :   0.9715 B(  1-C ,  2-O ) :   0.9305 B(  1-C , 23-H ) :   0.9799
B(  1-C , 24-H ) :   0.9630 B(  2-O ,  3-C ) :   1.0974 B(  3-C ,  4-O ) :   2.1022
B(  3-C ,  5-C ) :   0.9281 B(  5-C ,  6-C ) :   1.7190 B(  5-C , 12-C ) :   0.9676
B(  6-C ,  7-C ) :   0.9424 B(  6-C ,  8-N ) :   1.1031 B(  7-C , 25-H ) :   0.9828
B(  7-C , 26-H ) :   0.9714 B(  7-C , 27-H ) :   0.9672 B(  8-N ,  9-C ) :   1.2033
B(  8-N , 28-H ) :   0.9544 B(  9-C , 10-S ) :   1.6044 B(  9-C , 11-N ) :   1.2845
B( 11-N , 12-C ) :   0.9893 B( 11-N , 29-H ) :   0.9473 B( 12-C , 13-C ) :   0.9456
B( 12-C , 30-H ) :   0.9986 B( 13-C , 14-C ) :   1.3818 B( 13-C , 19-C ) :   1.3512
B( 14-C , 15-C ) :   1.3986 B( 14-C , 31-H ) :   0.9652 B( 15-C , 16-C ) :   1.3588
B( 15-C , 32-H ) :   0.9704 B( 16-C , 17-C ) :   1.3354 B( 16-C , 33-H ) :   0.9847
B( 17-C , 18-O ) :   1.1032 B( 17-C , 19-C ) :   1.3618 B( 18-O , 34-H ) :   0.9800
B( 19-C , 35-H ) :   0.9576

MP2 TOTAL ENERGY:    -1274.315485754 Eh
FINAL SINGLE POINT ENERGY     -1274.315485753551

DIPOLE MOMENT
-------------
                                X             Y             Z
Electronic contribution:     10.04647       7.97239       6.64393
Nuclear contribution   :    -11.61122      -9.23238      -7.50863
                        -----------------------------------------
Total Dipole Moment    :     -1.56475      -1.25999      -0.86470
                        -----------------------------------------
Magnitude (a.u.)       :      2.18717
Magnitude (Debye)      :      5.55935

Rotational constants in cm-1:     0.012255     0.009232     0.006767
Rotational constants in MHz :   367.383838   276.778793   202.859322

                             ****ORCA TERMINATED NORMALLY****
TOTAL RUN TIME: 0 days 2 hours 9 minutes 1 seconds 12 msec
