                         Program Version 5.0.0 -  RELEASE  -
|  1> ! ri-mp2 cc-pvtz cc-pvtz/c TightSCF NoKeepInts
|  2>
|  3> %scf
|  4>   MaxCore 4096
|  5> end
|  6> *xyz  0  1
|  7>     C       15.0844610   14.5377826   17.3398799
|  8>     C       15.4532096   15.6450093   16.3365676
|  9>     O       16.7660487   15.3515284   15.8129363
| 10>     C       17.9418084   15.6627818   16.4511797
| 11>     O       18.8564685   14.8595824   16.4602608
| 12>     C       17.9476229   16.8553541   17.3591116
| 13>     C       17.4873614   18.0744972   16.9835967
| 14>     C       16.9247954   18.4718786   15.6336045
| 15>     N       17.6119495   19.1641133   17.8487423
| 16>     C       18.3156197   19.1506922   19.0241823
| 17>     S       18.4909743   20.5111962   19.9473258
| 18>     N       18.8691317   17.9506542   19.3949609
| 19>     C       18.6538330   16.6639232   18.7039683
| 20>     C       17.8895199   15.6882289   19.5922145
| 21>     C       18.3107849   14.3498660   19.6964343
| 22>     C       17.6067232   13.4379428   20.5003043
| 23>     C       16.4695472   13.8664417   21.2059262
| 24>     C       16.0434902   15.1973531   21.1013499
| 25>     O       14.9380744   15.6109385   21.7702466
| 26>     C       16.7455256   16.1031871   20.2997078
| 27>     H       15.8113445   14.4831005   18.1562933
| 28>     H       15.0625605   13.5604520   16.8416953
| 29>     H       14.0950839   14.7232379   17.7751046
| 30>     H       14.7249638   15.6329733   15.5153320
| 31>     H       15.3912693   16.6202631   16.8286744
| 32>     H       17.1480040   17.7308449   14.8563411
| 33>     H       17.3615506   19.4181161   15.2892177
| 34>     H       15.8370001   18.6031710   15.6762580
| 35>     H       17.2298014   20.0588779   17.5851892
| 36>     H       19.3674194   17.9647599   20.2759829
| 37>     H       19.6437545   16.2295546   18.4996916
| 38>     H       19.1806330   14.0113611   19.1371671
| 39>     H       17.9407730   12.4039117   20.5680951
| 40>     H       15.9215385   13.1640755   21.8253221
| 41>     H       14.6286856   14.8664701   22.3082860
| 42>     H       16.3956684   17.1278789   20.2328495
| 43> *
| 44>
| 45>                          ****END OF INPUT****

CARTESIAN COORDINATES (ANGSTROEM)
---------------------------------
  C     15.084461   14.537783   17.339880
  C     15.453210   15.645009   16.336568
  O     16.766049   15.351528   15.812936
  C     17.941808   15.662782   16.451180
  O     18.856468   14.859582   16.460261
  C     17.947623   16.855354   17.359112
  C     17.487361   18.074497   16.983597
  C     16.924795   18.471879   15.633604
  N     17.611949   19.164113   17.848742
  C     18.315620   19.150692   19.024182
  S     18.490974   20.511196   19.947326
  N     18.869132   17.950654   19.394961
  C     18.653833   16.663923   18.703968
  C     17.889520   15.688229   19.592215
  C     18.310785   14.349866   19.696434
  C     17.606723   13.437943   20.500304
  C     16.469547   13.866442   21.205926
  C     16.043490   15.197353   21.101350
  O     14.938074   15.610938   21.770247
  C     16.745526   16.103187   20.299708
  H     15.811345   14.483100   18.156293
  H     15.062560   13.560452   16.841695
  H     14.095084   14.723238   17.775105
  H     14.724964   15.632973   15.515332
  H     15.391269   16.620263   16.828674
  H     17.148004   17.730845   14.856341
  H     17.361551   19.418116   15.289218
  H     15.837000   18.603171   15.676258
  H     17.229801   20.058878   17.585189
  H     19.367419   17.964760   20.275983
  H     19.643755   16.229555   18.499692
  H     19.180633   14.011361   19.137167
  H     17.940773   12.403912   20.568095
  H     15.921539   13.164075   21.825322
  H     14.628686   14.866470   22.308286
  H     16.395668   17.127879   20.232850

 Total Charge           Charge          ....    0
 Multiplicity           Mult            ....    1
 Number of Electrons    NEL             ....  154
 Basis Dimension        Dim             ....  828

ORBITAL ENERGIES
----------------

  NO   OCC          E(Eh)            E(eV)
   0   2.0000     -91.891149     -2500.4853
   1   2.0000     -20.599179      -560.5322
   2   2.0000     -20.597738      -560.4929
   3   2.0000     -20.549850      -559.1899
   4   2.0000     -15.629798      -425.3084
   5   2.0000     -15.611422      -424.8084
   6   2.0000     -11.398574      -310.1710
   7   2.0000     -11.387312      -309.8645
   8   2.0000     -11.335556      -308.4562
   9   2.0000     -11.316050      -307.9254
  10   2.0000     -11.312885      -307.8393
  11   2.0000     -11.305785      -307.6460
  12   2.0000     -11.268156      -306.6221
  13   2.0000     -11.266469      -306.5762
  14   2.0000     -11.262316      -306.4632
  15   2.0000     -11.256326      -306.3002
  16   2.0000     -11.245643      -306.0095
  17   2.0000     -11.241435      -305.8950
  18   2.0000     -11.238420      -305.8130
  19   2.0000     -11.224873      -305.4443
  20   2.0000      -8.896241      -242.0790
  21   2.0000      -6.577823      -178.9917
  22   2.0000      -6.575803      -178.9367
  23   2.0000      -6.575222      -178.9209
  24   2.0000      -1.446770       -39.3686
  25   2.0000      -1.418947       -38.6115
  26   2.0000      -1.358815       -36.9752
  27   2.0000      -1.342507       -36.5315
  28   2.0000      -1.241167       -33.7739
  29   2.0000      -1.160680       -31.5837
  30   2.0000      -1.125518       -30.6269
  31   2.0000      -1.048367       -28.5275
  32   2.0000      -1.035753       -28.1843
  33   2.0000      -1.018256       -27.7082
  34   2.0000      -1.005587       -27.3634
  35   2.0000      -0.989834       -26.9348
  36   2.0000      -0.927990       -25.2519
  37   2.0000      -0.888745       -24.1840
  38   2.0000      -0.855437       -23.2776
  39   2.0000      -0.842199       -22.9174
  40   2.0000      -0.836280       -22.7563
  41   2.0000      -0.833089       -22.6695
  42   2.0000      -0.749516       -20.3954
  43   2.0000      -0.740453       -20.1488
  44   2.0000      -0.730821       -19.8866
  45   2.0000      -0.697232       -18.9727
  46   2.0000      -0.688236       -18.7278
  47   2.0000      -0.680882       -18.5277
  48   2.0000      -0.677124       -18.4255
  49   2.0000      -0.659876       -17.9561
  50   2.0000      -0.656763       -17.8714
  51   2.0000      -0.647730       -17.6256
  52   2.0000      -0.639847       -17.4111
  53   2.0000      -0.617525       -16.8037
  54   2.0000      -0.608990       -16.5715
  55   2.0000      -0.606971       -16.5165
  56   2.0000      -0.601975       -16.3806
  57   2.0000      -0.585468       -15.9314
  58   2.0000      -0.577612       -15.7176
  59   2.0000      -0.567736       -15.4489
  60   2.0000      -0.561809       -15.2876
  61   2.0000      -0.550581       -14.9821
  62   2.0000      -0.547238       -14.8911
  63   2.0000      -0.531600       -14.4656
  64   2.0000      -0.520685       -14.1686
  65   2.0000      -0.513504       -13.9731
  66   2.0000      -0.502330       -13.6691
  67   2.0000      -0.499625       -13.5955
  68   2.0000      -0.484656       -13.1882
  69   2.0000      -0.470414       -12.8006
  70   2.0000      -0.456528       -12.4228
  71   2.0000      -0.447854       -12.1867
  72   2.0000      -0.358942        -9.7673
  73   2.0000      -0.351762        -9.5719
  74   2.0000      -0.330628        -8.9968
  75   2.0000      -0.324126        -8.8199
  76   2.0000      -0.319704        -8.6996
  77   0.0000       0.077743         2.1155
  78   0.0000       0.104345         2.8394
  79   0.0000       0.114794         3.1237
  80   0.0000       0.128960         3.5092
  81   0.0000       0.134209         3.6520

MULLIKEN ATOMIC CHARGES
-----------------------
   0 C :   -0.274359
   1 C :    0.021321
   2 O :   -0.333443
   3 C :    0.417659
   4 O :   -0.383722
   5 C :   -0.210622
   6 C :    0.142440
   7 C :   -0.322197
   8 N :   -0.132400
   9 C :    0.199464
  10 S :   -0.438394
  11 N :   -0.208515
  12 C :    0.064570
  13 C :    0.000117
  14 C :   -0.181384
  15 C :   -0.133513
  16 C :   -0.272189
  17 C :    0.306702
  18 O :   -0.359041
  19 C :   -0.245622
  20 H :    0.105234
  21 H :    0.110102
  22 H :    0.093296
  23 H :    0.118061
  24 H :    0.088383
  25 H :    0.137294
  26 H :    0.132301
  27 H :    0.121596
  28 H :    0.197341
  29 H :    0.197563
  30 H :    0.163716
  31 H :    0.168615
  32 H :    0.162824
  33 H :    0.132204
  34 H :    0.241429
  35 H :    0.173170
Sum of atomic charges:    0.0000000

LOEWDIN ATOMIC CHARGES
----------------------
   0 C :    0.109745
   1 C :   -0.022131
   2 O :    0.299570
   3 C :   -0.415469
   4 O :    0.123089
   5 C :   -0.086213
   6 C :   -0.091558
   7 C :    0.125924
   8 N :    0.402874
   9 C :   -0.458493
  10 S :   -0.035552
  11 N :    0.397748
  12 C :   -0.044870
  13 C :   -0.046145
  14 C :    0.020471
  15 C :    0.044280
  16 C :   -0.000363
  17 C :   -0.192761
  18 O :    0.395295
  19 C :    0.027000
  20 H :   -0.026368
  21 H :   -0.024000
  22 H :   -0.026356
  23 H :   -0.023527
  24 H :   -0.040806
  25 H :   -0.007086
  26 H :   -0.011315
  27 H :   -0.017265
  28 H :   -0.057048
  29 H :   -0.063128
  30 H :   -0.002706
  31 H :   -0.021952
  32 H :   -0.018669
  33 H :   -0.034662
  34 H :   -0.153119
  35 H :   -0.024434

  Mayer bond orders larger than 0.100000
B(  0-C ,  1-C ) :   0.9781 B(  0-C , 20-H ) :   0.9683 B(  0-C , 21-H ) :   0.9805
B(  0-C , 22-H ) :   0.9756 B(  1-C ,  2-O ) :   0.8957 B(  1-C , 23-H ) :   0.9815
B(  1-C , 24-H ) :   0.9652 B(  2-O ,  3-C ) :   1.1677 B(  3-C ,  4-O ) :   2.0848
B(  3-C ,  5-C ) :   0.9369 B(  5-C ,  6-C ) :   1.6844 B(  5-C , 12-C ) :   0.9556
B(  6-C ,  7-C ) :   0.9425 B(  6-C ,  8-N ) :   1.1220 B(  7-C , 25-H ) :   0.9750
B(  7-C , 26-H ) :   0.9762 B(  7-C , 27-H ) :   0.9647 B(  8-N ,  9-C ) :   1.1882
B(  8-N , 28-H ) :   0.9511 B(  9-C , 10-S ) :   1.6136 B(  9-C , 11-N ) :   1.2932
B( 11-N , 12-C ) :   0.9968 B( 11-N , 29-H ) :   0.9500 B( 12-C , 13-C ) :   0.9436
B( 12-C , 30-H ) :   0.9966 B( 13-C , 14-C ) :   1.3919 B( 13-C , 19-C ) :   1.3588
B( 14-C , 15-C ) :   1.3925 B( 14-C , 31-H ) :   0.9600 B( 15-C , 16-C ) :   1.3621
B( 15-C , 32-H ) :   0.9711 B( 16-C , 17-C ) :   1.3311 B( 16-C , 33-H ) :   0.9847
B( 17-C , 18-O ) :   1.1100 B( 17-C , 19-C ) :   1.3699 B( 18-O , 34-H ) :   0.9793
B( 19-C , 35-H ) :   0.9567

MP2 TOTAL ENERGY:    -1274.336770431 Eh
FINAL SINGLE POINT ENERGY     -1274.336770431474

DIPOLE MOMENT
-------------
                                X             Y             Z
Electronic contribution:      9.71081       7.87278       5.87338
Nuclear contribution   :    -11.24464      -8.75312      -6.28676
                        -----------------------------------------
Total Dipole Moment    :     -1.53383      -0.88034      -0.41338
                        -----------------------------------------
Magnitude (a.u.)       :      1.81618
Magnitude (Debye)      :      4.61637

Rotational constants in cm-1:     0.011939     0.009424     0.006771
Rotational constants in MHz :   357.933816   282.533536   202.991318

                             ****ORCA TERMINATED NORMALLY****
TOTAL RUN TIME: 0 days 1 hours 44 minutes 49 seconds 733 msec
