                         Program Version 5.0.0 -  RELEASE  -
|  1> ! ri-mp2 cc-pvtz cc-pvtz/c TightSCF NoKeepInts
|  2>
|  3> %scf
|  4>   MaxCore 4096
|  5> end
|  6> *xyz  0  1
|  7>     C       14.5661990   14.4076004   16.3600716
|  8>     C       15.5896109   15.4474476   16.8434267
|  9>     O       16.8016944   15.2298631   16.0962187
| 10>     C       18.0171963   15.5878753   16.6147744
| 11>     O       18.9274354   14.7809324   16.6580431
| 12>     C       18.0379967   16.8429875   17.4303026
| 13>     C       17.5180620   18.0183344   17.0009209
| 14>     C       16.8924870   18.3125104   15.6531301
| 15>     N       17.6254156   19.1585267   17.8007767
| 16>     C       18.3404934   19.2288020   18.9680010
| 17>     S       18.4849579   20.6418899   19.8141967
| 18>     N       18.9285742   18.0658971   19.4009443
| 19>     C       18.7491367   16.7387221   18.7797007
| 20>     C       17.9908541   15.7923638   19.7058295
| 21>     C       18.4286713   14.4660753   19.8742305
| 22>     C       17.7212080   13.5772805   20.7005489
| 23>     C       16.5627461   14.0163776   21.3634937
| 24>     C       16.1192917   15.3346504   21.1940502
| 25>     O       14.9929675   15.7582590   21.8203389
| 26>     C       16.8248629   16.2172375   20.3700350
| 27>     H       14.9487124   13.3906454   16.5148344
| 28>     H       14.3560057   14.5383929   15.2912720
| 29>     H       13.6238136   14.5075079   16.9121766
| 30>     H       15.1980101   16.4602647   16.6979181
| 31>     H       15.7665694   15.2862958   17.9153719
| 32>     H       17.0596714   17.5055543   14.9294723
| 33>     H       17.3259155   19.2183954   15.2103495
| 34>     H       15.8107330   18.4687817   15.7410714
| 35>     H       17.2144232   20.0261028   17.4931426
| 36>     H       19.4332246   18.1427422   20.2751238
| 37>     H       19.7488585   16.3158719   18.6003629
| 38>     H       19.3139180   14.1173263   19.3463047
| 39>     H       18.0688084   12.5521401   20.8177769
| 40>     H       16.0119335   13.3315579   21.9998953
| 41>     H       14.6858002   15.0343071   22.3870957
| 42>     H       16.4607414   17.2324801   20.2527978
| 43> *
| 44>
| 45>                          ****END OF INPUT****

CARTESIAN COORDINATES (ANGSTROEM)
---------------------------------
  C     14.566199   14.407600   16.360072
  C     15.589611   15.447448   16.843427
  O     16.801694   15.229863   16.096219
  C     18.017196   15.587875   16.614774
  O     18.927435   14.780932   16.658043
  C     18.037997   16.842987   17.430303
  C     17.518062   18.018334   17.000921
  C     16.892487   18.312510   15.653130
  N     17.625416   19.158527   17.800777
  C     18.340493   19.228802   18.968001
  S     18.484958   20.641890   19.814197
  N     18.928574   18.065897   19.400944
  C     18.749137   16.738722   18.779701
  C     17.990854   15.792364   19.705829
  C     18.428671   14.466075   19.874230
  C     17.721208   13.577280   20.700549
  C     16.562746   14.016378   21.363494
  C     16.119292   15.334650   21.194050
  O     14.992967   15.758259   21.820339
  C     16.824863   16.217237   20.370035
  H     14.948712   13.390645   16.514834
  H     14.356006   14.538393   15.291272
  H     13.623814   14.507508   16.912177
  H     15.198010   16.460265   16.697918
  H     15.766569   15.286296   17.915372
  H     17.059671   17.505554   14.929472
  H     17.325916   19.218395   15.210349
  H     15.810733   18.468782   15.741071
  H     17.214423   20.026103   17.493143
  H     19.433225   18.142742   20.275124
  H     19.748858   16.315872   18.600363
  H     19.313918   14.117326   19.346305
  H     18.068808   12.552140   20.817777
  H     16.011934   13.331558   21.999895
  H     14.685800   15.034307   22.387096
  H     16.460741   17.232480   20.252798

 Total Charge           Charge          ....    0
 Multiplicity           Mult            ....    1
 Number of Electrons    NEL             ....  154
 Basis Dimension        Dim             ....  828

ORBITAL ENERGIES
----------------

  NO   OCC          E(Eh)            E(eV)
   0   2.0000     -91.890850     -2500.4772
   1   2.0000     -20.599528      -560.5416
   2   2.0000     -20.594996      -560.4183
   3   2.0000     -20.552503      -559.2620
   4   2.0000     -15.629082      -425.2890
   5   2.0000     -15.611325      -424.8057
   6   2.0000     -11.396351      -310.1105
   7   2.0000     -11.387178      -309.8609
   8   2.0000     -11.334143      -308.4177
   9   2.0000     -11.316356      -307.9337
  10   2.0000     -11.312926      -307.8404
  11   2.0000     -11.303038      -307.5713
  12   2.0000     -11.267165      -306.5952
  13   2.0000     -11.264475      -306.5219
  14   2.0000     -11.262549      -306.4695
  15   2.0000     -11.256337      -306.3005
  16   2.0000     -11.245817      -306.0142
  17   2.0000     -11.241768      -305.9041
  18   2.0000     -11.238631      -305.8187
  19   2.0000     -11.231885      -305.6351
  20   2.0000      -8.895948      -242.0710
  21   2.0000      -6.577530      -178.9837
  22   2.0000      -6.575511      -178.9287
  23   2.0000      -6.574930      -178.9129
  24   2.0000      -1.449240       -39.4358
  25   2.0000      -1.419360       -38.6228
  26   2.0000      -1.360296       -37.0155
  27   2.0000      -1.341664       -36.5085
  28   2.0000      -1.240593       -33.7582
  29   2.0000      -1.160871       -31.5889
  30   2.0000      -1.125097       -30.6155
  31   2.0000      -1.048339       -28.5268
  32   2.0000      -1.038518       -28.2595
  33   2.0000      -1.018400       -27.7121
  34   2.0000      -1.004888       -27.3444
  35   2.0000      -0.989191       -26.9173
  36   2.0000      -0.927559       -25.2402
  37   2.0000      -0.878576       -23.9073
  38   2.0000      -0.855917       -23.2907
  39   2.0000      -0.843017       -22.9396
  40   2.0000      -0.836961       -22.7749
  41   2.0000      -0.835877       -22.7454
  42   2.0000      -0.756801       -20.5936
  43   2.0000      -0.739314       -20.1178
  44   2.0000      -0.731725       -19.9113
  45   2.0000      -0.697243       -18.9730
  46   2.0000      -0.688374       -18.7316
  47   2.0000      -0.682141       -18.5620
  48   2.0000      -0.676999       -18.4221
  49   2.0000      -0.663106       -18.0440
  50   2.0000      -0.654594       -17.8124
  51   2.0000      -0.650203       -17.6929
  52   2.0000      -0.641293       -17.4505
  53   2.0000      -0.611236       -16.6326
  54   2.0000      -0.607649       -16.5350
  55   2.0000      -0.603490       -16.4218
  56   2.0000      -0.598118       -16.2756
  57   2.0000      -0.585796       -15.9403
  58   2.0000      -0.577616       -15.7177
  59   2.0000      -0.567181       -15.4338
  60   2.0000      -0.561650       -15.2833
  61   2.0000      -0.559206       -15.2168
  62   2.0000      -0.547453       -14.8969
  63   2.0000      -0.525782       -14.3073
  64   2.0000      -0.518229       -14.1017
  65   2.0000      -0.515834       -14.0366
  66   2.0000      -0.502471       -13.6729
  67   2.0000      -0.499757       -13.5991
  68   2.0000      -0.490762       -13.3543
  69   2.0000      -0.469564       -12.7775
  70   2.0000      -0.458057       -12.4644
  71   2.0000      -0.451728       -12.2922
  72   2.0000      -0.358348        -9.7511
  73   2.0000      -0.351461        -9.5637
  74   2.0000      -0.330350        -8.9893
  75   2.0000      -0.324190        -8.8216
  76   2.0000      -0.319322        -8.6892
  77   0.0000       0.078152         2.1266
  78   0.0000       0.104555         2.8451
  79   0.0000       0.115362         3.1392
  80   0.0000       0.129369         3.5203
  81   0.0000       0.132943         3.6176

MULLIKEN ATOMIC CHARGES
-----------------------
   0 C :   -0.258608
   1 C :    0.020753
   2 O :   -0.326304
   3 C :    0.417967
   4 O :   -0.379622
   5 C :   -0.199401
   6 C :    0.136335
   7 C :   -0.322065
   8 N :   -0.134007
   9 C :    0.199011
  10 S :   -0.438491
  11 N :   -0.209282
  12 C :    0.068441
  13 C :    0.019973
  14 C :   -0.185011
  15 C :   -0.134034
  16 C :   -0.275792
  17 C :    0.322502
  18 O :   -0.358693
  19 C :   -0.283175
  20 H :    0.107893
  21 H :    0.098397
  22 H :    0.089467
  23 H :    0.084071
  24 H :    0.112910
  25 H :    0.136662
  26 H :    0.132742
  27 H :    0.119961
  28 H :    0.196852
  29 H :    0.197045
  30 H :    0.162853
  31 H :    0.168899
  32 H :    0.163720
  33 H :    0.132630
  34 H :    0.241527
  35 H :    0.173876
Sum of atomic charges:   -0.0000000

LOEWDIN ATOMIC CHARGES
----------------------
   0 C :    0.112019
   1 C :   -0.023859
   2 O :    0.298103
   3 C :   -0.417246
   4 O :    0.127412
   5 C :   -0.086414
   6 C :   -0.090056
   7 C :    0.125457
   8 N :    0.402947
   9 C :   -0.457426
  10 S :   -0.035680
  11 N :    0.397132
  12 C :   -0.044891
  13 C :   -0.045019
  14 C :    0.021374
  15 C :    0.044532
  16 C :   -0.000609
  17 C :   -0.195082
  18 O :    0.394523
  19 C :    0.026628
  20 H :   -0.021494
  21 H :   -0.027164
  22 H :   -0.025202
  23 H :   -0.038546
  24 H :   -0.028084
  25 H :   -0.007700
  26 H :   -0.011560
  27 H :   -0.018334
  28 H :   -0.056944
  29 H :   -0.063575
  30 H :   -0.002715
  31 H :   -0.021963
  32 H :   -0.018637
  33 H :   -0.034652
  34 H :   -0.153013
  35 H :   -0.024261

  Mayer bond orders larger than 0.100000
B(  0-C ,  1-C ) :   0.9859 B(  0-C , 20-H ) :   0.9778 B(  0-C , 21-H ) :   0.9797
B(  0-C , 22-H ) :   0.9765 B(  1-C ,  2-O ) :   0.9004 B(  1-C , 23-H ) :   0.9703
B(  1-C , 24-H ) :   0.9673 B(  2-O ,  3-C ) :   1.1703 B(  3-C ,  4-O ) :   2.0917
B(  3-C ,  5-C ) :   0.9423 B(  5-C ,  6-C ) :   1.6679 B(  5-C , 12-C ) :   0.9586
B(  6-C ,  7-C ) :   0.9439 B(  6-C ,  8-N ) :   1.1279 B(  7-C , 25-H ) :   0.9753
B(  7-C , 26-H ) :   0.9733 B(  7-C , 27-H ) :   0.9654 B(  8-N ,  9-C ) :   1.1898
B(  8-N , 28-H ) :   0.9518 B(  9-C , 10-S ) :   1.6133 B(  9-C , 11-N ) :   1.2923
B( 11-N , 12-C ) :   0.9955 B( 11-N , 29-H ) :   0.9503 B( 12-C , 13-C ) :   0.9408
B( 12-C , 30-H ) :   0.9977 B( 13-C , 14-C ) :   1.3877 B( 13-C , 19-C ) :   1.3502
B( 14-C , 15-C ) :   1.3963 B( 14-C , 31-H ) :   0.9596 B( 15-C , 16-C ) :   1.3643
B( 15-C , 32-H ) :   0.9701 B( 16-C , 17-C ) :   1.3292 B( 16-C , 33-H ) :   0.9843
B( 17-C , 18-O ) :   1.1101 B( 17-C , 19-C ) :   1.3660 B( 18-O , 34-H ) :   0.9792
B( 19-C , 35-H ) :   0.9595

MP2 TOTAL ENERGY:    -1274.335102096 Eh
FINAL SINGLE POINT ENERGY     -1274.335102096081

DIPOLE MOMENT
-------------
                                X             Y             Z
Electronic contribution:     10.87572       8.59038       7.39738
Nuclear contribution   :    -12.34839      -9.60021      -7.72650
                        -----------------------------------------
Total Dipole Moment    :     -1.47267      -1.00983      -0.32912
                        -----------------------------------------
Magnitude (a.u.)       :      1.81572
Magnitude (Debye)      :      4.61519

Rotational constants in cm-1:     0.011510     0.009206     0.006690
Rotational constants in MHz :   345.075382   275.987169   200.567940

                             ****ORCA TERMINATED NORMALLY****
TOTAL RUN TIME: 0 days 2 hours 7 minutes 52 seconds 676 msec
