                         Program Version 5.0.0 -  RELEASE  -
|  1> ! ri-mp2 cc-pvtz cc-pvtz/c TightSCF NoKeepInts
|  2>
|  3> %scf
|  4>   MaxCore 4096
|  5> end
|  6> *xyz  0  1
|  7>     C       15.5853674   14.7175404   14.0538119
|  8>     C       15.2543049   14.6705459   15.5551888
|  9>     O       16.0028949   15.7219548   16.1944480
| 10>     C       16.9935817   15.4298249   17.0882421
| 11>     O       17.3379419   14.2857752   17.3368114
| 12>     C       17.6185112   16.6220470   17.7593336
| 13>     C       17.4081811   17.9220439   17.4186649
| 14>     C       16.5217793   18.4757442   16.3212986
| 15>     N       18.1076022   18.9351805   18.0838031
| 16>     C       19.1278684   18.7308552   18.9744753
| 17>     S       19.9948995   19.9873067   19.6110925
| 18>     N       19.3918873   17.4279004   19.3104066
| 19>     C       18.5632936   16.2735272   18.9162295
| 20>     C       17.7888223   15.7373620   20.1177067
| 21>     C       17.8885591   14.3817365   20.4817561
| 22>     C       17.1774485   13.8816927   21.5854837
| 23>     C       16.3583225   14.7441669   22.3336299
| 24>     C       16.2531050   16.0942044   21.9725727
| 25>     O       15.4583530   16.9283745   22.6894794
| 26>     C       16.9617530   16.5888827   20.8731910
| 27>     H       15.3432828   15.7012090   13.6328061
| 28>     H       15.0098408   13.9589339   13.5095083
| 29>     H       16.6522475   14.5211076   13.8888086
| 30>     H       14.1805996   14.8499709   15.6952379
| 31>     H       15.4862980   13.6774873   15.9632276
| 32>     H       16.7883781   18.0411191   15.3498239
| 33>     H       16.6006428   19.5648750   16.2199068
| 34>     H       15.4682556   18.2423901   16.5198892
| 35>     H       17.9285245   19.8987666   17.8508872
| 36>     H       20.1272773   17.3044368   19.9943931
| 37>     H       19.2437150   15.4836415   18.5664254
| 38>     H       18.5080076   13.7086159   19.8939771
| 39>     H       17.2585198   12.8295213   21.8521856
| 40>     H       15.8058335   14.3617059   23.1853029
| 41>     H       15.0826395   16.4136519   23.4192809
| 42>     H       16.8684608   17.6379012   20.6147137
| 43> *
| 44>
| 45>                          ****END OF INPUT****

CARTESIAN COORDINATES (ANGSTROEM)
---------------------------------
  C     15.585367   14.717540   14.053812
  C     15.254305   14.670546   15.555189
  O     16.002895   15.721955   16.194448
  C     16.993582   15.429825   17.088242
  O     17.337942   14.285775   17.336811
  C     17.618511   16.622047   17.759334
  C     17.408181   17.922044   17.418665
  C     16.521779   18.475744   16.321299
  N     18.107602   18.935181   18.083803
  C     19.127868   18.730855   18.974475
  S     19.994899   19.987307   19.611093
  N     19.391887   17.427900   19.310407
  C     18.563294   16.273527   18.916230
  C     17.788822   15.737362   20.117707
  C     17.888559   14.381737   20.481756
  C     17.177449   13.881693   21.585484
  C     16.358322   14.744167   22.333630
  C     16.253105   16.094204   21.972573
  O     15.458353   16.928375   22.689479
  C     16.961753   16.588883   20.873191
  H     15.343283   15.701209   13.632806
  H     15.009841   13.958934   13.509508
  H     16.652248   14.521108   13.888809
  H     14.180600   14.849971   15.695238
  H     15.486298   13.677487   15.963228
  H     16.788378   18.041119   15.349824
  H     16.600643   19.564875   16.219907
  H     15.468256   18.242390   16.519889
  H     17.928524   19.898767   17.850887
  H     20.127277   17.304437   19.994393
  H     19.243715   15.483641   18.566425
  H     18.508008   13.708616   19.893977
  H     17.258520   12.829521   21.852186
  H     15.805833   14.361706   23.185303
  H     15.082640   16.413652   23.419281
  H     16.868461   17.637901   20.614714

 Total Charge           Charge          ....    0
 Multiplicity           Mult            ....    1
 Number of Electrons    NEL             ....  154
 Basis Dimension        Dim             ....  828

ORBITAL ENERGIES
----------------

  NO   OCC          E(Eh)            E(eV)
   0   2.0000     -91.888021     -2500.4002
   1   2.0000     -20.605209      -560.6962
   2   2.0000     -20.590498      -560.2959
   3   2.0000     -20.544220      -559.0367
   4   2.0000     -15.628618      -425.2763
   5   2.0000     -15.606397      -424.6717
   6   2.0000     -11.396897      -310.1253
   7   2.0000     -11.382711      -309.7393
   8   2.0000     -11.337396      -308.5062
   9   2.0000     -11.306245      -307.6586
  10   2.0000     -11.304701      -307.6165
  11   2.0000     -11.299176      -307.4662
  12   2.0000     -11.260961      -306.4263
  13   2.0000     -11.259003      -306.3730
  14   2.0000     -11.252264      -306.1897
  15   2.0000     -11.246341      -306.0285
  16   2.0000     -11.236029      -305.7479
  17   2.0000     -11.232474      -305.6512
  18   2.0000     -11.232245      -305.6449
  19   2.0000     -11.229089      -305.5591
  20   2.0000      -8.893080      -241.9930
  21   2.0000      -6.574656      -178.9055
  22   2.0000      -6.572651      -178.8509
  23   2.0000      -6.572064      -178.8350
  24   2.0000      -1.453834       -39.5608
  25   2.0000      -1.410229       -38.3743
  26   2.0000      -1.357381       -36.9362
  27   2.0000      -1.339460       -36.4485
  28   2.0000      -1.236853       -33.6565
  29   2.0000      -1.151046       -31.3216
  30   2.0000      -1.118996       -30.4494
  31   2.0000      -1.043914       -28.4064
  32   2.0000      -1.036313       -28.1995
  33   2.0000      -1.008388       -27.4396
  34   2.0000      -0.997234       -27.1361
  35   2.0000      -0.982835       -26.7443
  36   2.0000      -0.920635       -25.0517
  37   2.0000      -0.891938       -24.2709
  38   2.0000      -0.847303       -23.0563
  39   2.0000      -0.834304       -22.7026
  40   2.0000      -0.826619       -22.4934
  41   2.0000      -0.816576       -22.2202
  42   2.0000      -0.760934       -20.7061
  43   2.0000      -0.735932       -20.0257
  44   2.0000      -0.724022       -19.7016
  45   2.0000      -0.689541       -18.7634
  46   2.0000      -0.684216       -18.6185
  47   2.0000      -0.679741       -18.4967
  48   2.0000      -0.673302       -18.3215
  49   2.0000      -0.653440       -17.7810
  50   2.0000      -0.650710       -17.7067
  51   2.0000      -0.642213       -17.4755
  52   2.0000      -0.631418       -17.1818
  53   2.0000      -0.609293       -16.5797
  54   2.0000      -0.599840       -16.3225
  55   2.0000      -0.598359       -16.2822
  56   2.0000      -0.593826       -16.1588
  57   2.0000      -0.583352       -15.8738
  58   2.0000      -0.571980       -15.5644
  59   2.0000      -0.563785       -15.3414
  60   2.0000      -0.561567       -15.2810
  61   2.0000      -0.544615       -14.8197
  62   2.0000      -0.541771       -14.7423
  63   2.0000      -0.530710       -14.4414
  64   2.0000      -0.516148       -14.0451
  65   2.0000      -0.509046       -13.8519
  66   2.0000      -0.499945       -13.6042
  67   2.0000      -0.494697       -13.4614
  68   2.0000      -0.480692       -13.0803
  69   2.0000      -0.463619       -12.6157
  70   2.0000      -0.457670       -12.4538
  71   2.0000      -0.454071       -12.3559
  72   2.0000      -0.354351        -9.6424
  73   2.0000      -0.343004        -9.3336
  74   2.0000      -0.327080        -8.9003
  75   2.0000      -0.315345        -8.5810
  76   2.0000      -0.312579        -8.5057
  77   0.0000       0.075965         2.0671
  78   0.0000       0.114802         3.1239
  79   0.0000       0.121219         3.2985
  80   0.0000       0.136575         3.7164
  81   0.0000       0.139879         3.8063

MULLIKEN ATOMIC CHARGES
-----------------------
   0 C :   -0.275047
   1 C :    0.018197
   2 O :   -0.342053
   3 C :    0.461298
   4 O :   -0.437281
   5 C :   -0.186813
   6 C :    0.144147
   7 C :   -0.285272
   8 N :   -0.119712
   9 C :    0.200573
  10 S :   -0.438942
  11 N :   -0.196254
  12 C :    0.031465
  13 C :    0.059626
  14 C :   -0.159998
  15 C :   -0.133808
  16 C :   -0.278493
  17 C :    0.311719
  18 O :   -0.359332
  19 C :   -0.272481
  20 H :    0.090565
  21 H :    0.097807
  22 H :    0.100543
  23 H :    0.100853
  24 H :    0.124362
  25 H :    0.126658
  26 H :    0.102668
  27 H :    0.128623
  28 H :    0.196573
  29 H :    0.193470
  30 H :    0.153454
  31 H :    0.152764
  32 H :    0.158525
  33 H :    0.127570
  34 H :    0.239934
  35 H :    0.164091
Sum of atomic charges:   -0.0000000

LOEWDIN ATOMIC CHARGES
----------------------
   0 C :    0.103496
   1 C :   -0.011973
   2 O :    0.309131
   3 C :   -0.414544
   4 O :    0.099766
   5 C :   -0.090932
   6 C :   -0.063754
   7 C :    0.124644
   8 N :    0.405033
   9 C :   -0.459318
  10 S :   -0.035739
  11 N :    0.398133
  12 C :   -0.046902
  13 C :   -0.038715
  14 C :    0.022513
  15 C :    0.040963
  16 C :   -0.002206
  17 C :   -0.192483
  18 O :    0.392900
  19 C :    0.028343
  20 H :   -0.030076
  21 H :   -0.025002
  22 H :   -0.025486
  23 H :   -0.029183
  24 H :   -0.027011
  25 H :   -0.009164
  26 H :   -0.021340
  27 H :   -0.009282
  28 H :   -0.059304
  29 H :   -0.063524
  30 H :   -0.005348
  31 H :   -0.025398
  32 H :   -0.021363
  33 H :   -0.036505
  34 H :   -0.155012
  35 H :   -0.025355

  Mayer bond orders larger than 0.100000
B(  0-C ,  1-C ) :   0.9692 B(  0-C , 20-H ) :   0.9792 B(  0-C , 21-H ) :   0.9761
B(  0-C , 22-H ) :   0.9783 B(  1-C ,  2-O ) :   0.8827 B(  1-C , 23-H ) :   0.9835
B(  1-C , 24-H ) :   0.9730 B(  2-O ,  3-C ) :   1.1769 B(  3-C ,  4-O ) :   1.9659
B(  3-C ,  5-C ) :   1.0628 B(  5-C ,  6-C ) :   1.6403 B(  5-C , 12-C ) :   0.9674
B(  6-C ,  7-C ) :   0.9558 B(  6-C ,  8-N ) :   1.1550 B(  7-C , 25-H ) :   0.9648
B(  7-C , 26-H ) :   0.9916 B(  7-C , 27-H ) :   0.9642 B(  8-N ,  9-C ) :   1.1762
B(  8-N , 28-H ) :   0.9487 B(  9-C , 10-S ) :   1.6111 B(  9-C , 11-N ) :   1.3055
B( 11-N , 12-C ) :   0.9930 B( 11-N , 29-H ) :   0.9520 B( 12-C , 13-C ) :   0.9476
B( 12-C , 30-H ) :   1.0010 B( 13-C , 14-C ) :   1.3752 B( 13-C , 19-C ) :   1.3691
B( 14-C , 15-C ) :   1.3947 B( 14-C , 31-H ) :   0.9652 B( 15-C , 16-C ) :   1.3625
B( 15-C , 32-H ) :   0.9716 B( 16-C , 17-C ) :   1.3316 B( 16-C , 33-H ) :   0.9861
B( 17-C , 18-O ) :   1.1077 B( 17-C , 19-C ) :   1.3797 B( 18-O , 34-H ) :   0.9807
B( 19-C , 35-H ) :   0.9584

MP2 TOTAL ENERGY:    -1274.348874003 Eh
FINAL SINGLE POINT ENERGY     -1274.348874002663

DIPOLE MOMENT
-------------
                                X             Y             Z
Electronic contribution:      9.98149       7.89817      13.22878
Nuclear contribution   :    -11.68152      -8.94395     -14.20350
                        -----------------------------------------
Total Dipole Moment    :     -1.70003      -1.04578      -0.97471
                        -----------------------------------------
Magnitude (a.u.)       :      2.22122
Magnitude (Debye)      :      5.64589

Rotational constants in cm-1:     0.010629     0.008518     0.005628
Rotational constants in MHz :   318.660885   255.364045   168.715222

                             ****ORCA TERMINATED NORMALLY****
TOTAL RUN TIME: 0 days 1 hours 26 minutes 29 seconds 726 msec
