                         Program Version 5.0.0 -  RELEASE  -
|  1> ! ri-mp2 cc-pvtz cc-pvtz/c TightSCF NoKeepInts
|  2>
|  3> %scf
|  4>   MaxCore 4096
|  5> end
|  6> *xyz  0  1
|  7>     C       14.5236408   14.4780393   16.3743168
|  8>     C       15.5984667   15.4516400   16.8833846
|  9>     O       16.8221713   15.1295699   16.1948119
| 10>     C       18.0435895   15.5793158   16.6259084
| 11>     O       19.0035857   14.8311735   16.6230959
| 12>     C       18.0404213   16.8373311   17.4348709
| 13>     C       17.5227784   18.0043333   16.9828633
| 14>     C       16.9191303   18.2751764   15.6204579
| 15>     N       17.6114401   19.1546954   17.7698761
| 16>     C       18.2998914   19.2398639   18.9521596
| 17>     S       18.4163106   20.6614209   19.7883932
| 18>     N       18.8860644   18.0849148   19.4090458
| 19>     C       18.7382817   16.7516946   18.7918509
| 20>     C       17.9908483   15.7914764   19.7123339
| 21>     C       18.4355800   14.4649095   19.8591330
| 22>     C       17.7387771   13.5620447   20.6791875
| 23>     C       16.5839869   13.9871653   21.3574488
| 24>     C       16.1334444   15.3055981   21.2093056
| 25>     O       15.0103689   15.7156855   21.8502311
| 26>     C       16.8283665   16.2023271   20.3914810
| 27>     H       14.8234422   13.4398013   16.5655901
| 28>     H       14.3703197   14.5996857   15.2948116
| 29>     H       13.5679461   14.6581543   16.8813806
| 30>     H       15.2809451   16.4829679   16.6973882
| 31>     H       15.7211486   15.3072589   17.9650258
| 32>     H       17.0106630   17.4183013   14.9420434
| 33>     H       17.4278802   19.1155578   15.1309689
| 34>     H       15.8548929   18.5282828   15.6996426
| 35>     H       17.2042340   20.0173089   17.4436941
| 36>     H       19.3715614   18.1735297   20.2929367
| 37>     H       19.7478894   16.3480294   18.6237572
| 38>     H       19.3181780   14.1271965   19.3195723
| 39>     H       18.0917220   12.5369533   20.7798199
| 40>     H       16.0413644   13.2914475   21.9890555
| 41>     H       14.7097480   14.9821128   22.4080635
| 42>     H       16.4579205   17.2170366   20.2900933
| 43> *
| 44>
| 45>                          ****END OF INPUT****

CARTESIAN COORDINATES (ANGSTROEM)
---------------------------------
  C     14.523641   14.478039   16.374317
  C     15.598467   15.451640   16.883385
  O     16.822171   15.129570   16.194812
  C     18.043589   15.579316   16.625908
  O     19.003586   14.831174   16.623096
  C     18.040421   16.837331   17.434871
  C     17.522778   18.004333   16.982863
  C     16.919130   18.275176   15.620458
  N     17.611440   19.154695   17.769876
  C     18.299891   19.239864   18.952160
  S     18.416311   20.661421   19.788393
  N     18.886064   18.084915   19.409046
  C     18.738282   16.751695   18.791851
  C     17.990848   15.791476   19.712334
  C     18.435580   14.464909   19.859133
  C     17.738777   13.562045   20.679188
  C     16.583987   13.987165   21.357449
  C     16.133444   15.305598   21.209306
  O     15.010369   15.715685   21.850231
  C     16.828367   16.202327   20.391481
  H     14.823442   13.439801   16.565590
  H     14.370320   14.599686   15.294812
  H     13.567946   14.658154   16.881381
  H     15.280945   16.482968   16.697388
  H     15.721149   15.307259   17.965026
  H     17.010663   17.418301   14.942043
  H     17.427880   19.115558   15.130969
  H     15.854893   18.528283   15.699643
  H     17.204234   20.017309   17.443694
  H     19.371561   18.173530   20.292937
  H     19.747889   16.348029   18.623757
  H     19.318178   14.127196   19.319572
  H     18.091722   12.536953   20.779820
  H     16.041364   13.291448   21.989055
  H     14.709748   14.982113   22.408063
  H     16.457921   17.217037   20.290093

 Total Charge           Charge          ....    0
 Multiplicity           Mult            ....    1
 Number of Electrons    NEL             ....  154
 Basis Dimension        Dim             ....  828

ORBITAL ENERGIES
----------------

  NO   OCC          E(Eh)            E(eV)
   0   2.0000     -91.890723     -2500.4737
   1   2.0000     -20.599873      -560.5511
   2   2.0000     -20.597722      -560.4925
   3   2.0000     -20.551458      -559.2336
   4   2.0000     -15.628468      -425.2722
   5   2.0000     -15.611619      -424.8138
   6   2.0000     -11.396975      -310.1275
   7   2.0000     -11.387262      -309.8632
   8   2.0000     -11.332722      -308.3791
   9   2.0000     -11.316784      -307.9454
  10   2.0000     -11.313846      -307.8654
  11   2.0000     -11.302820      -307.5654
  12   2.0000     -11.268402      -306.6288
  13   2.0000     -11.264816      -306.5312
  14   2.0000     -11.263239      -306.4883
  15   2.0000     -11.256828      -306.3139
  16   2.0000     -11.246187      -306.0243
  17   2.0000     -11.242111      -305.9134
  18   2.0000     -11.239083      -305.8310
  19   2.0000     -11.232571      -305.6538
  20   2.0000      -8.895827      -242.0678
  21   2.0000      -6.577411      -178.9804
  22   2.0000      -6.575389      -178.9254
  23   2.0000      -6.574810      -178.9097
  24   2.0000      -1.448706       -39.4213
  25   2.0000      -1.419705       -38.6321
  26   2.0000      -1.360182       -37.0124
  27   2.0000      -1.341352       -36.5000
  28   2.0000      -1.240587       -33.7581
  29   2.0000      -1.161364       -31.6023
  30   2.0000      -1.125578       -30.6285
  31   2.0000      -1.048890       -28.5417
  32   2.0000      -1.039402       -28.2836
  33   2.0000      -1.018921       -27.7262
  34   2.0000      -1.005322       -27.3562
  35   2.0000      -0.989530       -26.9265
  36   2.0000      -0.927947       -25.2507
  37   2.0000      -0.879097       -23.9214
  38   2.0000      -0.856140       -23.2967
  39   2.0000      -0.842893       -22.9363
  40   2.0000      -0.837385       -22.7864
  41   2.0000      -0.836347       -22.7582
  42   2.0000      -0.757035       -20.6000
  43   2.0000      -0.739913       -20.1340
  44   2.0000      -0.732024       -19.9194
  45   2.0000      -0.697505       -18.9801
  46   2.0000      -0.688431       -18.7332
  47   2.0000      -0.682271       -18.5655
  48   2.0000      -0.677123       -18.4255
  49   2.0000      -0.663540       -18.0558
  50   2.0000      -0.655041       -17.8246
  51   2.0000      -0.650668       -17.7056
  52   2.0000      -0.640786       -17.4367
  53   2.0000      -0.611695       -16.6451
  54   2.0000      -0.607883       -16.5413
  55   2.0000      -0.603813       -16.4306
  56   2.0000      -0.597326       -16.2541
  57   2.0000      -0.586418       -15.9572
  58   2.0000      -0.577980       -15.7276
  59   2.0000      -0.568219       -15.4620
  60   2.0000      -0.562444       -15.3049
  61   2.0000      -0.558289       -15.1918
  62   2.0000      -0.549212       -14.9448
  63   2.0000      -0.526192       -14.3184
  64   2.0000      -0.520111       -14.1529
  65   2.0000      -0.515971       -14.0403
  66   2.0000      -0.502678       -13.6786
  67   2.0000      -0.501763       -13.6537
  68   2.0000      -0.490478       -13.3466
  69   2.0000      -0.469518       -12.7762
  70   2.0000      -0.457067       -12.4374
  71   2.0000      -0.451110       -12.2753
  72   2.0000      -0.358218        -9.7476
  73   2.0000      -0.351765        -9.5720
  74   2.0000      -0.330288        -8.9876
  75   2.0000      -0.324709        -8.8358
  76   2.0000      -0.319290        -8.6883
  77   0.0000       0.080753         2.1974
  78   0.0000       0.104548         2.8449
  79   0.0000       0.114353         3.1117
  80   0.0000       0.128991         3.5100
  81   0.0000       0.131795         3.5863

MULLIKEN ATOMIC CHARGES
-----------------------
   0 C :   -0.260101
   1 C :    0.019524
   2 O :   -0.317065
   3 C :    0.407479
   4 O :   -0.380492
   5 C :   -0.193212
   6 C :    0.134483
   7 C :   -0.324079
   8 N :   -0.135046
   9 C :    0.200529
  10 S :   -0.439198
  11 N :   -0.212321
  12 C :    0.071497
  13 C :    0.020087
  14 C :   -0.191412
  15 C :   -0.133303
  16 C :   -0.275318
  17 C :    0.323572
  18 O :   -0.358645
  19 C :   -0.284313
  20 H :    0.107741
  21 H :    0.098542
  22 H :    0.089776
  23 H :    0.084123
  24 H :    0.115474
  25 H :    0.132936
  26 H :    0.138104
  27 H :    0.118937
  28 H :    0.196371
  29 H :    0.197935
  30 H :    0.163929
  31 H :    0.170105
  32 H :    0.164034
  33 H :    0.132743
  34 H :    0.241561
  35 H :    0.175022
Sum of atomic charges:    0.0000000

LOEWDIN ATOMIC CHARGES
----------------------
   0 C :    0.112190
   1 C :   -0.024439
   2 O :    0.300684
   3 C :   -0.415636
   4 O :    0.125693
   5 C :   -0.084321
   6 C :   -0.095239
   7 C :    0.124249
   8 N :    0.402480
   9 C :   -0.456857
  10 S :   -0.036276
  11 N :    0.397193
  12 C :   -0.044554
  13 C :   -0.044968
  14 C :    0.021434
  15 C :    0.045034
  16 C :   -0.000436
  17 C :   -0.194920
  18 O :    0.394715
  19 C :    0.026530
  20 H :   -0.021980
  21 H :   -0.027088
  22 H :   -0.024899
  23 H :   -0.038592
  24 H :   -0.028581
  25 H :   -0.007879
  26 H :   -0.010237
  27 H :   -0.018293
  28 H :   -0.057013
  29 H :   -0.063591
  30 H :   -0.002506
  31 H :   -0.021734
  32 H :   -0.018424
  33 H :   -0.034567
  34 H :   -0.152926
  35 H :   -0.024244

  Mayer bond orders larger than 0.100000
B(  0-C ,  1-C ) :   0.9854 B(  0-C , 20-H ) :   0.9782 B(  0-C , 21-H ) :   0.9793
B(  0-C , 22-H ) :   0.9767 B(  1-C ,  2-O ) :   0.9046 B(  1-C , 23-H ) :   0.9687
B(  1-C , 24-H ) :   0.9668 B(  2-O ,  3-C ) :   1.1827 B(  3-C ,  4-O ) :   2.0946
B(  3-C ,  5-C ) :   0.9304 B(  5-C ,  6-C ) :   1.6758 B(  5-C , 12-C ) :   0.9586
B(  6-C ,  7-C ) :   0.9426 B(  6-C ,  8-N ) :   1.1239 B(  7-C , 25-H ) :   0.9777
B(  7-C , 26-H ) :   0.9698 B(  7-C , 27-H ) :   0.9662 B(  8-N ,  9-C ) :   1.1919
B(  8-N , 28-H ) :   0.9520 B(  9-C , 10-S ) :   1.6127 B(  9-C , 11-N ) :   1.2906
B( 11-N , 12-C ) :   0.9957 B( 11-N , 29-H ) :   0.9496 B( 12-C , 13-C ) :   0.9409
B( 12-C , 30-H ) :   0.9976 B( 13-C , 14-C ) :   1.3881 B( 13-C , 19-C ) :   1.3485
B( 14-C , 15-C ) :   1.3963 B( 14-C , 31-H ) :   0.9596 B( 15-C , 16-C ) :   1.3642
B( 15-C , 32-H ) :   0.9699 B( 16-C , 17-C ) :   1.3291 B( 16-C , 33-H ) :   0.9843
B( 17-C , 18-O ) :   1.1097 B( 17-C , 19-C ) :   1.3648 B( 18-O , 34-H ) :   0.9791
B( 19-C , 35-H ) :   0.9594

MP2 TOTAL ENERGY:    -1274.335564332 Eh
FINAL SINGLE POINT ENERGY     -1274.335564331554

DIPOLE MOMENT
-------------
                                X             Y             Z
Electronic contribution:     10.84222       8.41352       7.47356
Nuclear contribution   :    -12.33286      -9.43140      -7.80667
                        -----------------------------------------
Total Dipole Moment    :     -1.49064      -1.01787      -0.33311
                        -----------------------------------------
Magnitude (a.u.)       :      1.83549
Magnitude (Debye)      :      4.66545

Rotational constants in cm-1:     0.011520     0.009174     0.006703
Rotational constants in MHz :   345.350729   275.041613   200.943889

                             ****ORCA TERMINATED NORMALLY****
TOTAL RUN TIME: 0 days 2 hours 7 minutes 32 seconds 900 msec
