                         Program Version 5.0.0 -  RELEASE  -
|  1> ! ri-mp2 cc-pvtz cc-pvtz/c TightSCF NoKeepInts
|  2>
|  3> %scf
|  4>   MaxCore 4096
|  5> end
|  6> *xyz  0  1
|  7>     C       15.3336378   14.8737990   17.2709315
|  8>     C       15.5916615   15.1638372   15.7753415
|  9>     O       16.8820272   15.7630668   15.5044819
| 10>     C       17.9017816   15.7592477   16.4119588
| 11>     O       18.5497809   14.7449017   16.6014191
| 12>     C       17.9123758   16.9103750   17.3792468
| 13>     C       17.3423390   18.1208886   17.1445299
| 14>     C       16.6026226   18.5783753   15.9043038
| 15>     N       17.4843657   19.1483658   18.0829450
| 16>     C       18.3201462   19.1062689   19.1676705
| 17>     S       18.5436066   20.4198713   20.1470898
| 18>     N       18.9603197   17.9151649   19.3988934
| 19>     C       18.6739496   16.6554733   18.6864264
| 20>     C       17.9168538   15.6866039   19.5923051
| 21>     C       18.3479054   14.3535473   19.7241341
| 22>     C       17.6499789   13.4511716   20.5439379
| 23>     C       16.5095989   13.8841206   21.2411602
| 24>     C       16.0762170   15.2104929   21.1137468
| 25>     O       14.9697068   15.6296712   21.7776199
| 26>     C       16.7733354   16.1065954   20.2974457
| 27>     H       16.0801787   14.1821953   17.6823774
| 28>     H       14.3496804   14.4069996   17.3993360
| 29>     H       15.3394873   15.7982944   17.8596708
| 30>     H       15.5339226   14.2113186   15.2322592
| 31>     H       14.7977017   15.8111162   15.3818018
| 32>     H       15.5945690   18.1492288   15.8709439
| 33>     H       17.1340363   18.2719107   14.9944396
| 34>     H       16.4996363   19.6694036   15.8559715
| 35>     H       17.0262225   20.0322779   17.9279382
| 36>     H       19.5512942   17.9006885   20.2203215
| 37>     H       19.6389403   16.1958516   18.4273107
| 38>     H       19.2190667   14.0102196   19.1707547
| 39>     H       17.9910185   12.4209536   20.6299342
| 40>     H       15.9658120   13.1894959   21.8726949
| 41>     H       14.6644837   14.8919990   22.3269577
| 42>     H       16.4187395   17.1282085   20.2156996
| 43> *
| 44>
| 45>                          ****END OF INPUT****

CARTESIAN COORDINATES (ANGSTROEM)
---------------------------------
  C     15.333638   14.873799   17.270931
  C     15.591662   15.163837   15.775341
  O     16.882027   15.763067   15.504482
  C     17.901782   15.759248   16.411959
  O     18.549781   14.744902   16.601419
  C     17.912376   16.910375   17.379247
  C     17.342339   18.120889   17.144530
  C     16.602623   18.578375   15.904304
  N     17.484366   19.148366   18.082945
  C     18.320146   19.106269   19.167670
  S     18.543607   20.419871   20.147090
  N     18.960320   17.915165   19.398893
  C     18.673950   16.655473   18.686426
  C     17.916854   15.686604   19.592305
  C     18.347905   14.353547   19.724134
  C     17.649979   13.451172   20.543938
  C     16.509599   13.884121   21.241160
  C     16.076217   15.210493   21.113747
  O     14.969707   15.629671   21.777620
  C     16.773335   16.106595   20.297446
  H     16.080179   14.182195   17.682377
  H     14.349680   14.407000   17.399336
  H     15.339487   15.798294   17.859671
  H     15.533923   14.211319   15.232259
  H     14.797702   15.811116   15.381802
  H     15.594569   18.149229   15.870944
  H     17.134036   18.271911   14.994440
  H     16.499636   19.669404   15.855971
  H     17.026222   20.032278   17.927938
  H     19.551294   17.900689   20.220322
  H     19.638940   16.195852   18.427311
  H     19.219067   14.010220   19.170755
  H     17.991018   12.420954   20.629934
  H     15.965812   13.189496   21.872695
  H     14.664484   14.891999   22.326958
  H     16.418740   17.128208   20.215700

 Total Charge           Charge          ....    0
 Multiplicity           Mult            ....    1
 Number of Electrons    NEL             ....  154
 Basis Dimension        Dim             ....  828

ORBITAL ENERGIES
----------------

  NO   OCC          E(Eh)            E(eV)
   0   2.0000     -91.890776     -2500.4752
   1   2.0000     -20.595460      -560.4310
   2   2.0000     -20.581737      -560.0575
   3   2.0000     -20.552026      -559.2491
   4   2.0000     -15.631486      -425.3544
   5   2.0000     -15.609093      -424.7450
   6   2.0000     -11.395587      -310.0897
   7   2.0000     -11.385662      -309.8196
   8   2.0000     -11.338978      -308.5493
   9   2.0000     -11.311417      -307.7993
  10   2.0000     -11.308347      -307.7158
  11   2.0000     -11.306954      -307.6779
  12   2.0000     -11.262943      -306.4803
  13   2.0000     -11.262425      -306.4662
  14   2.0000     -11.257090      -306.3210
  15   2.0000     -11.251471      -306.1681
  16   2.0000     -11.241270      -305.8905
  17   2.0000     -11.236866      -305.7707
  18   2.0000     -11.233427      -305.6771
  19   2.0000     -11.228700      -305.5485
  20   2.0000      -8.895825      -242.0677
  21   2.0000      -6.577397      -178.9801
  22   2.0000      -6.575393      -178.9255
  23   2.0000      -6.574802      -178.9095
  24   2.0000      -1.446037       -39.3487
  25   2.0000      -1.415265       -38.5113
  26   2.0000      -1.353876       -36.8408
  27   2.0000      -1.342329       -36.5266
  28   2.0000      -1.239683       -33.7335
  29   2.0000      -1.155649       -31.4468
  30   2.0000      -1.121657       -30.5218
  31   2.0000      -1.044029       -28.4095
  32   2.0000      -1.033119       -28.1126
  33   2.0000      -1.013567       -27.5805
  34   2.0000      -1.001954       -27.2646
  35   2.0000      -0.987470       -26.8704
  36   2.0000      -0.925062       -25.1722
  37   2.0000      -0.897152       -24.4128
  38   2.0000      -0.851283       -23.1646
  39   2.0000      -0.839443       -22.8424
  40   2.0000      -0.831759       -22.6333
  41   2.0000      -0.819884       -22.3102
  42   2.0000      -0.744785       -20.2666
  43   2.0000      -0.730450       -19.8766
  44   2.0000      -0.727763       -19.8034
  45   2.0000      -0.693415       -18.8688
  46   2.0000      -0.687596       -18.7104
  47   2.0000      -0.676930       -18.4202
  48   2.0000      -0.673769       -18.3342
  49   2.0000      -0.662267       -18.0212
  50   2.0000      -0.651756       -17.7352
  51   2.0000      -0.648420       -17.6444
  52   2.0000      -0.637973       -17.3601
  53   2.0000      -0.625136       -17.0108
  54   2.0000      -0.604187       -16.4408
  55   2.0000      -0.603398       -16.4193
  56   2.0000      -0.599414       -16.3109
  57   2.0000      -0.580966       -15.8089
  58   2.0000      -0.575569       -15.6620
  59   2.0000      -0.563917       -15.3450
  60   2.0000      -0.553379       -15.0582
  61   2.0000      -0.545858       -14.8536
  62   2.0000      -0.537416       -14.6238
  63   2.0000      -0.534745       -14.5511
  64   2.0000      -0.520443       -14.1620
  65   2.0000      -0.512240       -13.9388
  66   2.0000      -0.499780       -13.5997
  67   2.0000      -0.493680       -13.4337
  68   2.0000      -0.481556       -13.1038
  69   2.0000      -0.467405       -12.7187
  70   2.0000      -0.454024       -12.3546
  71   2.0000      -0.449449       -12.2301
  72   2.0000      -0.356789        -9.7087
  73   2.0000      -0.346769        -9.4361
  74   2.0000      -0.329828        -8.9751
  75   2.0000      -0.319749        -8.7008
  76   2.0000      -0.317323        -8.6348
  77   0.0000       0.068502         1.8640
  78   0.0000       0.107344         2.9210
  79   0.0000       0.118147         3.2149
  80   0.0000       0.132373         3.6021
  81   0.0000       0.137275         3.7354

MULLIKEN ATOMIC CHARGES
-----------------------
   0 C :   -0.347048
   1 C :    0.043100
   2 O :   -0.390086
   3 C :    0.501855
   4 O :   -0.401059
   5 C :   -0.239497
   6 C :    0.161289
   7 C :   -0.298004
   8 N :   -0.123043
   9 C :    0.191320
  10 S :   -0.435022
  11 N :   -0.199837
  12 C :    0.045519
  13 C :    0.055051
  14 C :   -0.181406
  15 C :   -0.133896
  16 C :   -0.278874
  17 C :    0.320378
  18 O :   -0.359938
  19 C :   -0.291212
  20 H :    0.132992
  21 H :    0.119089
  22 H :    0.104690
  23 H :    0.117449
  24 H :    0.100526
  25 H :    0.116562
  26 H :    0.139092
  27 H :    0.111090
  28 H :    0.197504
  29 H :    0.194148
  30 H :    0.157199
  31 H :    0.162696
  32 H :    0.162135
  33 H :    0.130645
  34 H :    0.240755
  35 H :    0.173838
Sum of atomic charges:   -0.0000000

LOEWDIN ATOMIC CHARGES
----------------------
   0 C :    0.106163
   1 C :   -0.014026
   2 O :    0.280597
   3 C :   -0.421979
   4 O :    0.125245
   5 C :   -0.094163
   6 C :   -0.068714
   7 C :    0.127357
   8 N :    0.405547
   9 C :   -0.460094
  10 S :   -0.033310
  11 N :    0.397763
  12 C :   -0.045692
  13 C :   -0.040227
  14 C :    0.021197
  15 C :    0.040865
  16 C :   -0.002353
  17 C :   -0.193596
  18 O :    0.393964
  19 C :    0.029696
  20 H :   -0.019602
  21 H :   -0.022326
  22 H :   -0.033409
  23 H :   -0.025157
  24 H :   -0.031056
  25 H :   -0.012955
  26 H :   -0.005314
  27 H :   -0.018827
  28 H :   -0.058667
  29 H :   -0.063544
  30 H :   -0.003374
  31 H :   -0.024079
  32 H :   -0.020217
  33 H :   -0.035681
  34 H :   -0.154098
  35 H :   -0.025937

  Mayer bond orders larger than 0.100000
B(  0-C ,  1-C ) :   0.9621 B(  0-C , 20-H ) :   0.9640 B(  0-C , 21-H ) :   0.9746
B(  0-C , 22-H ) :   0.9704 B(  1-C ,  2-O ) :   0.8921 B(  1-C , 23-H ) :   0.9850
B(  1-C , 24-H ) :   0.9795 B(  2-O ,  3-C ) :   1.0954 B(  3-C ,  4-O ) :   2.0359
B(  3-C ,  5-C ) :   1.0134 B(  5-C ,  6-C ) :   1.6510 B(  5-C , 12-C ) :   0.9647
B(  6-C ,  7-C ) :   0.9530 B(  6-C ,  8-N ) :   1.1415 B(  7-C , 25-H ) :   0.9671
B(  7-C , 26-H ) :   0.9640 B(  7-C , 27-H ) :   0.9896 B(  8-N ,  9-C ) :   1.1783
B(  8-N , 28-H ) :   0.9488 B(  9-C , 10-S ) :   1.6162 B(  9-C , 11-N ) :   1.3014
B( 11-N , 12-C ) :   0.9878 B( 11-N , 29-H ) :   0.9521 B( 12-C , 13-C ) :   0.9475
B( 12-C , 30-H ) :   0.9994 B( 13-C , 14-C ) :   1.3829 B( 13-C , 19-C ) :   1.3459
B( 14-C , 15-C ) :   1.3947 B( 14-C , 31-H ) :   0.9612 B( 15-C , 16-C ) :   1.3617
B( 15-C , 32-H ) :   0.9707 B( 16-C , 17-C ) :   1.3316 B( 16-C , 33-H ) :   0.9850
B( 17-C , 18-O ) :   1.1105 B( 17-C , 19-C ) :   1.3693 B( 18-O , 34-H ) :   0.9802
B( 19-C , 35-H ) :   0.9584

MP2 TOTAL ENERGY:    -1274.327693501 Eh
FINAL SINGLE POINT ENERGY     -1274.327693501268

DIPOLE MOMENT
-------------
                                X             Y             Z
Electronic contribution:      9.69899       8.11421       6.30540
Nuclear contribution   :    -11.16925      -9.20607      -6.94712
                        -----------------------------------------
Total Dipole Moment    :     -1.47025      -1.09187      -0.64172
                        -----------------------------------------
Magnitude (a.u.)       :      1.94052
Magnitude (Debye)      :      4.93242

Rotational constants in cm-1:     0.011451     0.009859     0.006751
Rotational constants in MHz :   343.285936   295.575210   202.389552

                             ****ORCA TERMINATED NORMALLY****
TOTAL RUN TIME: 0 days 2 hours 8 minutes 51 seconds 38 msec
