                         Program Version 5.0.0 -  RELEASE  -
|  1> ! ri-mp2 cc-pvtz cc-pvtz/c TightSCF NoKeepInts
|  2>
|  3> %scf
|  4>   MaxCore 4096
|  5> end
|  6> *xyz  0  1
|  7>     C       14.9533680   16.1898342   17.3863040
|  8>     C       15.6188100   14.8143071   17.1602547
|  9>     O       16.8781870   14.8330905   16.4379041
| 10>     C       17.9079609   15.7457258   16.4213822
| 11>     O       18.7600532   15.6852056   15.5554431
| 12>     C       17.8623847   16.9122763   17.3449587
| 13>     C       17.5511000   18.1436058   16.8821370
| 14>     C       17.1282812   18.4902651   15.4713748
| 15>     N       17.6160063   19.2481214   17.7338929
| 16>     C       17.9922179   19.1950681   19.0507949
| 17>     S       17.9867442   20.5387669   20.0143662
| 18>     N       18.3650600   17.9662009   19.5382959
| 19>     C       18.4183287   16.7119142   18.7605391
| 20>     C       17.8070119   15.5375392   19.5217274
| 21>     C       18.3544603   14.2493562   19.3699863
| 22>     C       17.8121165   13.1528907   20.0604996
| 23>     C       16.7152566   13.3440117   20.9172758
| 24>     C       16.1708838   14.6247426   21.0789584
| 25>     O       15.1076944   14.8125840   21.8998706
| 26>     C       16.7112533   15.7147417   20.3889865
| 27>     H       15.4335381   16.7664633   18.1819323
| 28>     H       13.9103889   16.0443291   17.6931893
| 29>     H       14.9428945   16.7786253   16.4621134
| 30>     H       15.7657218   14.3328308   18.1344116
| 31>     H       14.9209876   14.1769925   16.6019759
| 32>     H       16.7085863   17.6244556   14.9443551
| 33>     H       17.9930756   18.8318860   14.8884039
| 34>     H       16.3686113   19.2809753   15.4546301
| 35>     H       17.3674612   20.1615269   17.3877516
| 36>     H       18.6211120   17.9564128   20.5178122
| 37>     H       19.4848974   16.4752643   18.6333964
| 38>     H       19.2006068   14.0943606   18.7040652
| 39>     H       18.2421801   12.1609962   19.9292510
| 40>     H       16.2932628   12.4992305   21.4521893
| 41>     H       14.9108683   13.9632227   22.3237984
| 42>     H       16.2656283   16.6941802   20.5297722
| 43> *
| 44>
| 45>                          ****END OF INPUT****

CARTESIAN COORDINATES (ANGSTROEM)
---------------------------------
  C     14.953368   16.189834   17.386304
  C     15.618810   14.814307   17.160255
  O     16.878187   14.833091   16.437904
  C     17.907961   15.745726   16.421382
  O     18.760053   15.685206   15.555443
  C     17.862385   16.912276   17.344959
  C     17.551100   18.143606   16.882137
  C     17.128281   18.490265   15.471375
  N     17.616006   19.248121   17.733893
  C     17.992218   19.195068   19.050795
  S     17.986744   20.538767   20.014366
  N     18.365060   17.966201   19.538296
  C     18.418329   16.711914   18.760539
  C     17.807012   15.537539   19.521727
  C     18.354460   14.249356   19.369986
  C     17.812116   13.152891   20.060500
  C     16.715257   13.344012   20.917276
  C     16.170884   14.624743   21.078958
  O     15.107694   14.812584   21.899871
  C     16.711253   15.714742   20.388987
  H     15.433538   16.766463   18.181932
  H     13.910389   16.044329   17.693189
  H     14.942894   16.778625   16.462113
  H     15.765722   14.332831   18.134412
  H     14.920988   14.176993   16.601976
  H     16.708586   17.624456   14.944355
  H     17.993076   18.831886   14.888404
  H     16.368611   19.280975   15.454630
  H     17.367461   20.161527   17.387752
  H     18.621112   17.956413   20.517812
  H     19.484897   16.475264   18.633396
  H     19.200607   14.094361   18.704065
  H     18.242180   12.160996   19.929251
  H     16.293263   12.499230   21.452189
  H     14.910868   13.963223   22.323798
  H     16.265628   16.694180   20.529772

 Total Charge           Charge          ....    0
 Multiplicity           Mult            ....    1
 Number of Electrons    NEL             ....  154
 Basis Dimension        Dim             ....  828

ORBITAL ENERGIES
----------------

  NO   OCC          E(Eh)            E(eV)
   0   2.0000     -91.889620     -2500.4437
   1   2.0000     -20.606397      -560.7286
   2   2.0000     -20.595557      -560.4336
   3   2.0000     -20.549236      -559.1731
   4   2.0000     -15.624665      -425.1688
   5   2.0000     -15.612748      -424.8445
   6   2.0000     -11.397781      -310.1494
   7   2.0000     -11.386574      -309.8444
   8   2.0000     -11.324626      -308.1587
   9   2.0000     -11.322536      -308.1019
  10   2.0000     -11.319983      -308.0324
  11   2.0000     -11.305298      -307.6328
  12   2.0000     -11.273804      -306.7758
  13   2.0000     -11.265629      -306.5534
  14   2.0000     -11.259255      -306.3799
  15   2.0000     -11.258731      -306.3657
  16   2.0000     -11.253919      -306.2347
  17   2.0000     -11.249736      -306.1209
  18   2.0000     -11.249072      -306.1028
  19   2.0000     -11.234625      -305.7097
  20   2.0000      -8.894745      -242.0383
  21   2.0000      -6.576338      -178.9512
  22   2.0000      -6.574307      -178.8960
  23   2.0000      -6.573736      -178.8804
  24   2.0000      -1.440620       -39.2013
  25   2.0000      -1.426220       -38.8094
  26   2.0000      -1.354731       -36.8641
  27   2.0000      -1.338519       -36.4229
  28   2.0000      -1.240032       -33.7430
  29   2.0000      -1.168158       -31.7872
  30   2.0000      -1.124787       -30.6070
  31   2.0000      -1.052213       -28.6322
  32   2.0000      -1.037585       -28.2341
  33   2.0000      -1.026417       -27.9302
  34   2.0000      -1.004331       -27.3292
  35   2.0000      -0.990048       -26.9406
  36   2.0000      -0.929095       -25.2820
  37   2.0000      -0.899974       -24.4895
  38   2.0000      -0.852464       -23.1967
  39   2.0000      -0.846311       -23.0293
  40   2.0000      -0.841568       -22.9002
  41   2.0000      -0.831540       -22.6274
  42   2.0000      -0.749236       -20.3877
  43   2.0000      -0.739350       -20.1187
  44   2.0000      -0.724378       -19.7113
  45   2.0000      -0.704949       -19.1826
  46   2.0000      -0.691589       -18.8191
  47   2.0000      -0.678119       -18.4526
  48   2.0000      -0.675876       -18.3915
  49   2.0000      -0.660769       -17.9804
  50   2.0000      -0.657021       -17.8784
  51   2.0000      -0.652095       -17.7444
  52   2.0000      -0.638606       -17.3773
  53   2.0000      -0.617114       -16.7925
  54   2.0000      -0.613372       -16.6907
  55   2.0000      -0.609782       -16.5930
  56   2.0000      -0.606209       -16.4958
  57   2.0000      -0.584608       -15.9080
  58   2.0000      -0.579278       -15.7630
  59   2.0000      -0.575018       -15.6470
  60   2.0000      -0.568348       -15.4655
  61   2.0000      -0.556109       -15.1325
  62   2.0000      -0.540705       -14.7133
  63   2.0000      -0.534510       -14.5448
  64   2.0000      -0.525065       -14.2878
  65   2.0000      -0.516086       -14.0434
  66   2.0000      -0.506265       -13.7762
  67   2.0000      -0.501129       -13.6364
  68   2.0000      -0.491550       -13.3758
  69   2.0000      -0.467205       -12.7133
  70   2.0000      -0.450522       -12.2593
  71   2.0000      -0.447117       -12.1667
  72   2.0000      -0.360289        -9.8040
  73   2.0000      -0.350191        -9.5292
  74   2.0000      -0.332743        -9.0544
  75   2.0000      -0.329331        -8.9615
  76   2.0000      -0.317747        -8.6463
  77   0.0000       0.092195         2.5088
  78   0.0000       0.098055         2.6682
  79   0.0000       0.119764         3.2590
  80   0.0000       0.123576         3.3627
  81   0.0000       0.126377         3.4389

MULLIKEN ATOMIC CHARGES
-----------------------
   0 C :   -0.337926
   1 C :    0.037574
   2 O :   -0.323345
   3 C :    0.376106
   4 O :   -0.374892
   5 C :   -0.193112
   6 C :    0.149778
   7 C :   -0.307237
   8 N :   -0.139077
   9 C :    0.215133
  10 S :   -0.444705
  11 N :   -0.238082
  12 C :    0.108883
  13 C :   -0.016654
  14 C :   -0.199060
  15 C :   -0.129344
  16 C :   -0.276489
  17 C :    0.321315
  18 O :   -0.355499
  19 C :   -0.275619
  20 H :    0.112505
  21 H :    0.125633
  22 H :    0.105330
  23 H :    0.101015
  24 H :    0.128611
  25 H :    0.116356
  26 H :    0.147881
  27 H :    0.105593
  28 H :    0.196612
  29 H :    0.206279
  30 H :    0.163985
  31 H :    0.159497
  32 H :    0.165774
  33 H :    0.135097
  34 H :    0.242825
  35 H :    0.189261
Sum of atomic charges:   -0.0000000

LOEWDIN ATOMIC CHARGES
----------------------
   0 C :    0.102723
   1 C :   -0.011773
   2 O :    0.295178
   3 C :   -0.420747
   4 O :    0.126470
   5 C :   -0.082755
   6 C :   -0.095785
   7 C :    0.127299
   8 N :    0.403537
   9 C :   -0.454265
  10 S :   -0.039569
  11 N :    0.395937
  12 C :   -0.050619
  13 C :   -0.041988
  14 C :    0.020041
  15 C :    0.046539
  16 C :    0.000463
  17 C :   -0.193680
  18 O :    0.397614
  19 C :    0.027335
  20 H :   -0.034899
  21 H :   -0.020750
  22 H :   -0.029755
  23 H :   -0.030459
  24 H :   -0.020518
  25 H :   -0.009773
  26 H :   -0.005490
  27 H :   -0.019092
  28 H :   -0.057621
  29 H :   -0.065684
  30 H :   -0.007861
  31 H :   -0.023955
  32 H :   -0.016889
  33 H :   -0.033071
  34 H :   -0.151533
  35 H :   -0.024607

  Mayer bond orders larger than 0.100000
B(  0-C ,  1-C ) :   0.9569 B(  0-C , 20-H ) :   0.9688 B(  0-C , 21-H ) :   0.9766
B(  0-C , 22-H ) :   0.9765 B(  1-C ,  2-O ) :   0.9064 B(  1-C , 23-H ) :   0.9681
B(  1-C , 24-H ) :   0.9822 B(  2-O ,  3-C ) :   1.1953 B(  3-C ,  4-O ) :   2.1138
B(  3-C ,  5-C ) :   0.8955 B(  5-C ,  6-C ) :   1.7249 B(  5-C , 12-C ) :   0.9484
B(  6-C ,  7-C ) :   0.9493 B(  6-C ,  8-N ) :   1.1222 B(  7-C , 25-H ) :   0.9775
B(  7-C , 26-H ) :   0.9624 B(  7-C , 27-H ) :   0.9786 B(  8-N ,  9-C ) :   1.2092
B(  8-N , 28-H ) :   0.9516 B(  9-C , 10-S ) :   1.6028 B(  9-C , 11-N ) :   1.2856
B( 11-N , 12-C ) :   0.9841 B( 11-N , 29-H ) :   0.9422 B( 12-C , 13-C ) :   0.9451
B( 12-C , 30-H ) :   0.9987 B( 13-C , 14-C ) :   1.3804 B( 13-C , 19-C ) :   1.3394
B( 14-C , 15-C ) :   1.4047 B( 14-C , 31-H ) :   0.9699 B( 15-C , 16-C ) :   1.3563
B( 15-C , 32-H ) :   0.9692 B( 16-C , 17-C ) :   1.3329 B( 16-C , 33-H ) :   0.9840
B( 17-C , 18-O ) :   1.1125 B( 17-C , 19-C ) :   1.3607 B( 18-O , 34-H ) :   0.9779
B( 19-C , 35-H ) :   0.9499

MP2 TOTAL ENERGY:    -1274.323903712 Eh
FINAL SINGLE POINT ENERGY     -1274.323903711513

DIPOLE MOMENT
-------------
                                X             Y             Z
Electronic contribution:      8.40219       5.22768       5.77081
Nuclear contribution   :     -9.65927      -6.82936      -5.62876
                        -----------------------------------------
Total Dipole Moment    :     -1.25708      -1.60168       0.14205
                        -----------------------------------------
Magnitude (a.u.)       :      2.04103
Magnitude (Debye)      :      5.18788

Rotational constants in cm-1:     0.012947     0.009039     0.006594
Rotational constants in MHz :   388.147109   270.993505   197.670122

                             ****ORCA TERMINATED NORMALLY****
TOTAL RUN TIME: 0 days 2 hours 9 minutes 13 seconds 804 msec
