                         Program Version 5.0.0 -  RELEASE  -
|  1> ! ri-mp2 cc-pvtz cc-pvtz/c TightSCF NoKeepInts
|  2>
|  3> %scf
|  4>   MaxCore 4096
|  5> end
|  6> *xyz  0  1
|  7>     C       14.3053558   15.5811536   16.4332378
|  8>     C       15.6734045   15.0215386   16.8580904
|  9>     O       16.6681996   15.4884843   15.9266364
| 10>     C       17.9127221   15.7950140   16.3984620
| 11>     O       18.7752717   14.9354922   16.4055635
| 12>     C       17.9289692   16.9194374   17.3879395
| 13>     C       17.2882454   18.0967181   17.1852724
| 14>     C       16.5112426   18.5349549   15.9615480
| 15>     N       17.4045701   19.1213048   18.1282472
| 16>     C       18.2556259   19.1010009   19.2022930
| 17>     S       18.4187465   20.4034549   20.2078708
| 18>     N       18.9658206   17.9430426   19.4009074
| 19>     C       18.7678784   16.6887829   18.6483620
| 20>     C       18.1338266   15.6165802   19.5312384
| 21>     C       18.6453756   14.3059392   19.5328995
| 22>     C       18.0543041   13.3060793   20.3229864
| 23>     C       16.9395605   13.6173966   21.1195997
| 24>     C       16.4239102   14.9201948   21.1190501
| 25>     O       15.3397714   15.2217256   21.8767201
| 26>     C       17.0134817   15.9131893   20.3303620
| 27>     H       14.2728449   16.6697704   16.5416427
| 28>     H       13.5101377   15.1562010   17.0579148
| 29>     H       14.0912086   15.3264544   15.3876514
| 30>     H       15.8865833   15.3527136   17.8816540
| 31>     H       15.6544968   13.9236530   16.8562510
| 32>     H       16.6265651   17.8466137   15.1166292
| 33>     H       16.8582689   19.5147385   15.6096953
| 34>     H       15.4415968   18.6211927   16.1828485
| 35>     H       16.9006490   19.9836473   17.9925608
| 36>     H       19.5705776   17.9475415   20.2125483
| 37>     H       19.7587659   16.3307213   18.3321915
| 38>     H       19.4971910   14.0572602   18.9033988
| 39>     H       18.4583261   12.2951225   20.3104145
| 40>     H       16.4789172   12.8472149   21.7295203
| 41>     H       15.1195676   14.4336721   22.3963118
| 42>     H       16.5950210   16.9139988   20.3454804
| 43> *
| 44>
| 45>                          ****END OF INPUT****

CARTESIAN COORDINATES (ANGSTROEM)
---------------------------------
  C     14.305356   15.581154   16.433238
  C     15.673404   15.021539   16.858090
  O     16.668200   15.488484   15.926636
  C     17.912722   15.795014   16.398462
  O     18.775272   14.935492   16.405563
  C     17.928969   16.919437   17.387940
  C     17.288245   18.096718   17.185272
  C     16.511243   18.534955   15.961548
  N     17.404570   19.121305   18.128247
  C     18.255626   19.101001   19.202293
  S     18.418747   20.403455   20.207871
  N     18.965821   17.943043   19.400907
  C     18.767878   16.688783   18.648362
  C     18.133827   15.616580   19.531238
  C     18.645376   14.305939   19.532899
  C     18.054304   13.306079   20.322986
  C     16.939560   13.617397   21.119600
  C     16.423910   14.920195   21.119050
  O     15.339771   15.221726   21.876720
  C     17.013482   15.913189   20.330362
  H     14.272845   16.669770   16.541643
  H     13.510138   15.156201   17.057915
  H     14.091209   15.326454   15.387651
  H     15.886583   15.352714   17.881654
  H     15.654497   13.923653   16.856251
  H     16.626565   17.846614   15.116629
  H     16.858269   19.514738   15.609695
  H     15.441597   18.621193   16.182848
  H     16.900649   19.983647   17.992561
  H     19.570578   17.947541   20.212548
  H     19.758766   16.330721   18.332192
  H     19.497191   14.057260   18.903399
  H     18.458326   12.295122   20.310415
  H     16.478917   12.847215   21.729520
  H     15.119568   14.433672   22.396312
  H     16.595021   16.913999   20.345480

 Total Charge           Charge          ....    0
 Multiplicity           Mult            ....    1
 Number of Electrons    NEL             ....  154
 Basis Dimension        Dim             ....  828

ORBITAL ENERGIES
----------------

  NO   OCC          E(Eh)            E(eV)
   0   2.0000     -91.890710     -2500.4733
   1   2.0000     -20.598780      -560.5213
   2   2.0000     -20.582555      -560.0798
   3   2.0000     -20.557201      -559.3899
   4   2.0000     -15.629173      -425.2914
   5   2.0000     -15.610658      -424.7876
   6   2.0000     -11.395174      -310.0785
   7   2.0000     -11.386663      -309.8469
   8   2.0000     -11.334718      -308.4334
   9   2.0000     -11.315596      -307.9130
  10   2.0000     -11.312267      -307.8224
  11   2.0000     -11.299687      -307.4801
  12   2.0000     -11.264355      -306.5187
  13   2.0000     -11.263456      -306.4942
  14   2.0000     -11.261556      -306.4425
  15   2.0000     -11.255517      -306.2782
  16   2.0000     -11.245041      -305.9931
  17   2.0000     -11.240940      -305.8815
  18   2.0000     -11.237622      -305.7912
  19   2.0000     -11.233622      -305.6824
  20   2.0000      -8.895789      -242.0667
  21   2.0000      -6.577369      -178.9793
  22   2.0000      -6.575354      -178.9245
  23   2.0000      -6.574770      -178.9086
  24   2.0000      -1.450095       -39.4591
  25   2.0000      -1.418619       -38.6026
  26   2.0000      -1.357293       -36.9338
  27   2.0000      -1.341715       -36.5099
  28   2.0000      -1.240294       -33.7501
  29   2.0000      -1.159628       -31.5551
  30   2.0000      -1.123829       -30.5809
  31   2.0000      -1.047059       -28.4919
  32   2.0000      -1.036532       -28.2055
  33   2.0000      -1.017351       -27.6835
  34   2.0000      -1.003439       -27.3050
  35   2.0000      -0.988401       -26.8958
  36   2.0000      -0.926537       -25.2124
  37   2.0000      -0.881709       -23.9925
  38   2.0000      -0.851847       -23.1799
  39   2.0000      -0.842237       -22.9184
  40   2.0000      -0.835573       -22.7371
  41   2.0000      -0.833292       -22.6750
  42   2.0000      -0.757235       -20.6054
  43   2.0000      -0.736369       -20.0376
  44   2.0000      -0.731013       -19.8919
  45   2.0000      -0.696977       -18.9657
  46   2.0000      -0.687664       -18.7123
  47   2.0000      -0.682204       -18.5637
  48   2.0000      -0.675656       -18.3855
  49   2.0000      -0.659990       -17.9593
  50   2.0000      -0.653092       -17.7715
  51   2.0000      -0.642373       -17.4798
  52   2.0000      -0.631603       -17.1868
  53   2.0000      -0.623594       -16.9688
  54   2.0000      -0.608439       -16.5565
  55   2.0000      -0.606902       -16.5146
  56   2.0000      -0.602490       -16.3946
  57   2.0000      -0.582188       -15.8421
  58   2.0000      -0.575523       -15.6608
  59   2.0000      -0.567945       -15.4546
  60   2.0000      -0.561777       -15.2867
  61   2.0000      -0.553915       -15.0728
  62   2.0000      -0.543570       -14.7913
  63   2.0000      -0.525576       -14.3017
  64   2.0000      -0.521222       -14.1832
  65   2.0000      -0.515107       -14.0168
  66   2.0000      -0.502242       -13.6667
  67   2.0000      -0.497086       -13.5264
  68   2.0000      -0.482791       -13.1374
  69   2.0000      -0.467566       -12.7231
  70   2.0000      -0.460247       -12.5239
  71   2.0000      -0.450718       -12.2647
  72   2.0000      -0.358373        -9.7518
  73   2.0000      -0.350638        -9.5413
  74   2.0000      -0.330103        -8.9825
  75   2.0000      -0.323109        -8.7922
  76   2.0000      -0.319159        -8.6848
  77   0.0000       0.074150         2.0177
  78   0.0000       0.102471         2.7884
  79   0.0000       0.117512         3.1977
  80   0.0000       0.130184         3.5425
  81   0.0000       0.131658         3.5826

MULLIKEN ATOMIC CHARGES
-----------------------
   0 C :   -0.278112
   1 C :    0.030495
   2 O :   -0.367295
   3 C :    0.459195
   4 O :   -0.379295
   5 C :   -0.223585
   6 C :    0.152374
   7 C :   -0.333137
   8 N :   -0.128222
   9 C :    0.193917
  10 S :   -0.437645
  11 N :   -0.206095
  12 C :    0.062110
  13 C :    0.020362
  14 C :   -0.177428
  15 C :   -0.136108
  16 C :   -0.274975
  17 C :    0.314760
  18 O :   -0.358150
  19 C :   -0.274176
  20 H :    0.085130
  21 H :    0.103693
  22 H :    0.106681
  23 H :    0.097831
  24 H :    0.117734
  25 H :    0.138278
  26 H :    0.136059
  27 H :    0.120874
  28 H :    0.197809
  29 H :    0.195708
  30 H :    0.162031
  31 H :    0.167217
  32 H :    0.163314
  33 H :    0.132448
  34 H :    0.241207
  35 H :    0.174994
Sum of atomic charges:    0.0000000

LOEWDIN ATOMIC CHARGES
----------------------
   0 C :    0.108853
   1 C :   -0.013738
   2 O :    0.284169
   3 C :   -0.418574
   4 O :    0.136643
   5 C :   -0.089976
   6 C :   -0.082925
   7 C :    0.125785
   8 N :    0.403878
   9 C :   -0.458489
  10 S :   -0.035224
  11 N :    0.396922
  12 C :   -0.044575
  13 C :   -0.043561
  14 C :    0.021452
  15 C :    0.043994
  16 C :   -0.000887
  17 C :   -0.194853
  18 O :    0.394584
  19 C :    0.026070
  20 H :   -0.033615
  21 H :   -0.022800
  22 H :   -0.024687
  23 H :   -0.034437
  24 H :   -0.026117
  25 H :   -0.009516
  26 H :   -0.012633
  27 H :   -0.018259
  28 H :   -0.056512
  29 H :   -0.063698
  30 H :   -0.002944
  31 H :   -0.022655
  32 H :   -0.019022
  33 H :   -0.034864
  34 H :   -0.153251
  35 H :   -0.024535

  Mayer bond orders larger than 0.100000
B(  0-C ,  1-C ) :   0.9788 B(  0-C , 20-H ) :   0.9781 B(  0-C , 21-H ) :   0.9771
B(  0-C , 22-H ) :   0.9775 B(  1-C ,  2-O ) :   0.8939 B(  1-C , 23-H ) :   0.9592
B(  1-C , 24-H ) :   0.9841 B(  2-O ,  3-C ) :   1.1108 B(  3-C ,  4-O ) :   2.0721
B(  3-C ,  5-C ) :   0.9707 B(  5-C ,  6-C ) :   1.6597 B(  5-C , 12-C ) :   0.9590
B(  6-C ,  7-C ) :   0.9545 B(  6-C ,  8-N ) :   1.1290 B(  7-C , 25-H ) :   0.9721
B(  7-C , 26-H ) :   0.9735 B(  7-C , 27-H ) :   0.9651 B(  8-N ,  9-C ) :   1.1878
B(  8-N , 28-H ) :   0.9518 B(  9-C , 10-S ) :   1.6148 B(  9-C , 11-N ) :   1.2942
B( 11-N , 12-C ) :   0.9937 B( 11-N , 29-H ) :   0.9512 B( 12-C , 13-C ) :   0.9477
B( 12-C , 30-H ) :   0.9982 B( 13-C , 14-C ) :   1.3872 B( 13-C , 19-C ) :   1.3454
B( 14-C , 15-C ) :   1.3972 B( 14-C , 31-H ) :   0.9594 B( 15-C , 16-C ) :   1.3641
B( 15-C , 32-H ) :   0.9702 B( 16-C , 17-C ) :   1.3300 B( 16-C , 33-H ) :   0.9842
B( 17-C , 18-O ) :   1.1120 B( 17-C , 19-C ) :   1.3705 B( 18-O , 34-H ) :   0.9795
B( 19-C , 35-H ) :   0.9595

MP2 TOTAL ENERGY:    -1274.324150220 Eh
FINAL SINGLE POINT ENERGY     -1274.324150220276

DIPOLE MOMENT
-------------
                                X             Y             Z
Electronic contribution:     11.41951       6.52847       7.03117
Nuclear contribution   :    -12.73289      -7.66567      -7.39651
                        -----------------------------------------
Total Dipole Moment    :     -1.31338      -1.13720      -0.36534
                        -----------------------------------------
Magnitude (a.u.)       :      1.77529
Magnitude (Debye)      :      4.51243

Rotational constants in cm-1:     0.011319     0.009458     0.006893
Rotational constants in MHz :   339.333557   283.556718   206.641308

                             ****ORCA TERMINATED NORMALLY****
TOTAL RUN TIME: 0 days 2 hours 4 minutes 54 seconds 128 msec
