                         Program Version 5.0.0 -  RELEASE  -
|  1> ! ri-mp2 cc-pvtz cc-pvtz/c TightSCF NoKeepInts
|  2>
|  3> %scf
|  4>   MaxCore 4096
|  5> end
|  6> *xyz  0  1
|  7>     C       15.8571068   12.9923636   16.4679825
|  8>     C       15.7023120   14.3994484   15.8667514
|  9>     O       16.5216146   15.2855774   16.6467634
| 10>     C       16.2132466   16.6160880   16.7069304
| 11>     O       15.2738809   17.0951218   16.0940915
| 12>     C       17.2252057   17.4085881   17.4876279
| 13>     C       17.1897319   18.7632478   17.5640033
| 14>     C       16.1829042   19.6918589   16.9194915
| 15>     N       18.1763229   19.4515841   18.2764311
| 16>     C       19.2735911   18.8725420   18.8557878
| 17>     S       20.4421491   19.7702623   19.6071052
| 18>     N       19.3559547   17.5056103   18.7806759
| 19>     C       18.3109808   16.6188175   18.2369347
| 20>     C       17.7208958   15.7663049   19.3566859
| 21>     C       17.9020074   14.3704377   19.3623336
| 22>     C       17.3560104   13.5825148   20.3895136
| 23>     C       16.6257006   14.1953454   21.4219849
| 24>     C       16.4471673   15.5856080   21.4219225
| 25>     O       15.7430949   16.1802572   22.4177857
| 26>     C       16.9912469   16.3670265   20.3979314
| 27>     H       16.9004493   12.6590523   16.4092055
| 28>     H       15.2338544   12.2712293   15.9254194
| 29>     H       15.5505454   12.9879821   17.5217846
| 30>     H       16.0095291   14.4154714   14.8129134
| 31>     H       14.6444321   14.6903443   15.9287755
| 32>     H       16.1887413   19.5703758   15.8288231
| 33>     H       16.3743744   20.7493620   17.1358541
| 34>     H       15.1682135   19.4615163   17.2687945
| 35>     H       18.1329337   20.4560373   18.3414273
| 36>     H       20.1562025   17.1044131   19.2523726
| 37>     H       18.7979030   15.9513463   17.5121666
| 38>     H       18.4600673   13.8935382   18.5611585
| 39>     H       17.4985053   12.5033830   20.3828060
| 40>     H       16.2019659   13.5913028   22.2174570
| 41>     H       15.4708951   15.4861502   23.0365397
| 42>     H       16.8472630   17.4418909   20.4197680
| 43> *
| 44>
| 45>                          ****END OF INPUT****

CARTESIAN COORDINATES (ANGSTROEM)
---------------------------------
  C     15.857107   12.992364   16.467983
  C     15.702312   14.399448   15.866751
  O     16.521615   15.285577   16.646763
  C     16.213247   16.616088   16.706930
  O     15.273881   17.095122   16.094092
  C     17.225206   17.408588   17.487628
  C     17.189732   18.763248   17.564003
  C     16.182904   19.691859   16.919491
  N     18.176323   19.451584   18.276431
  C     19.273591   18.872542   18.855788
  S     20.442149   19.770262   19.607105
  N     19.355955   17.505610   18.780676
  C     18.310981   16.618817   18.236935
  C     17.720896   15.766305   19.356686
  C     17.902007   14.370438   19.362334
  C     17.356010   13.582515   20.389514
  C     16.625701   14.195345   21.421985
  C     16.447167   15.585608   21.421923
  O     15.743095   16.180257   22.417786
  C     16.991247   16.367027   20.397931
  H     16.900449   12.659052   16.409205
  H     15.233854   12.271229   15.925419
  H     15.550545   12.987982   17.521785
  H     16.009529   14.415471   14.812913
  H     14.644432   14.690344   15.928775
  H     16.188741   19.570376   15.828823
  H     16.374374   20.749362   17.135854
  H     15.168214   19.461516   17.268794
  H     18.132934   20.456037   18.341427
  H     20.156202   17.104413   19.252373
  H     18.797903   15.951346   17.512167
  H     18.460067   13.893538   18.561158
  H     17.498505   12.503383   20.382806
  H     16.201966   13.591303   22.217457
  H     15.470895   15.486150   23.036540
  H     16.847263   17.441891   20.419768

 Total Charge           Charge          ....    0
 Multiplicity           Mult            ....    1
 Number of Electrons    NEL             ....  154
 Basis Dimension        Dim             ....  828

ORBITAL ENERGIES
----------------

  NO   OCC          E(Eh)            E(eV)
   0   2.0000     -91.888522     -2500.4138
   1   2.0000     -20.603138      -560.6399
   2   2.0000     -20.595544      -560.4332
   3   2.0000     -20.541499      -558.9626
   4   2.0000     -15.628619      -425.2763
   5   2.0000     -15.607914      -424.7129
   6   2.0000     -11.394628      -310.0636
   7   2.0000     -11.383641      -309.7646
   8   2.0000     -11.335584      -308.4569
   9   2.0000     -11.312599      -307.8315
  10   2.0000     -11.308367      -307.7163
  11   2.0000     -11.296372      -307.3899
  12   2.0000     -11.258768      -306.3666
  13   2.0000     -11.258520      -306.3599
  14   2.0000     -11.253969      -306.2361
  15   2.0000     -11.251610      -306.1719
  16   2.0000     -11.242362      -305.9202
  17   2.0000     -11.237761      -305.7950
  18   2.0000     -11.237229      -305.7805
  19   2.0000     -11.230417      -305.5952
  20   2.0000      -8.893588      -242.0068
  21   2.0000      -6.575164      -178.9193
  22   2.0000      -6.573158      -178.8647
  23   2.0000      -6.572572      -178.8488
  24   2.0000      -1.452655       -39.5287
  25   2.0000      -1.415224       -38.5102
  26   2.0000      -1.354995       -36.8713
  27   2.0000      -1.339613       -36.4527
  28   2.0000      -1.238078       -33.6898
  29   2.0000      -1.156834       -31.4791
  30   2.0000      -1.120062       -30.4784
  31   2.0000      -1.043415       -28.3928
  32   2.0000      -1.039841       -28.2955
  33   2.0000      -1.014195       -27.5977
  34   2.0000      -0.995314       -27.0839
  35   2.0000      -0.984111       -26.7790
  36   2.0000      -0.921952       -25.0876
  37   2.0000      -0.889227       -24.1971
  38   2.0000      -0.846270       -23.0282
  39   2.0000      -0.836602       -22.7651
  40   2.0000      -0.833098       -22.6697
  41   2.0000      -0.817034       -22.2326
  42   2.0000      -0.765637       -20.8340
  43   2.0000      -0.731272       -19.8989
  44   2.0000      -0.720774       -19.6133
  45   2.0000      -0.695232       -18.9182
  46   2.0000      -0.688046       -18.7227
  47   2.0000      -0.679342       -18.4858
  48   2.0000      -0.674477       -18.3535
  49   2.0000      -0.666051       -18.1242
  50   2.0000      -0.645867       -17.5749
  51   2.0000      -0.644439       -17.5361
  52   2.0000      -0.635196       -17.2846
  53   2.0000      -0.605761       -16.4836
  54   2.0000      -0.599931       -16.3250
  55   2.0000      -0.598079       -16.2746
  56   2.0000      -0.589889       -16.0517
  57   2.0000      -0.578293       -15.7361
  58   2.0000      -0.570280       -15.5181
  59   2.0000      -0.569689       -15.5020
  60   2.0000      -0.562605       -15.3092
  61   2.0000      -0.551359       -15.0032
  62   2.0000      -0.538668       -14.6579
  63   2.0000      -0.524237       -14.2652
  64   2.0000      -0.523696       -14.2505
  65   2.0000      -0.512937       -13.9577
  66   2.0000      -0.502349       -13.6696
  67   2.0000      -0.498019       -13.5518
  68   2.0000      -0.485082       -13.1997
  69   2.0000      -0.463516       -12.6129
  70   2.0000      -0.459677       -12.5084
  71   2.0000      -0.448153       -12.1949
  72   2.0000      -0.353916        -9.6305
  73   2.0000      -0.348761        -9.4903
  74   2.0000      -0.327851        -8.9213
  75   2.0000      -0.320139        -8.7114
  76   2.0000      -0.315594        -8.5878
  77   0.0000       0.076860         2.0915
  78   0.0000       0.106991         2.9114
  79   0.0000       0.124742         3.3944
  80   0.0000       0.133005         3.6193
  81   0.0000       0.137174         3.7327

MULLIKEN ATOMIC CHARGES
-----------------------
   0 C :   -0.287295
   1 C :    0.041701
   2 O :   -0.341063
   3 C :    0.463934
   4 O :   -0.434083
   5 C :   -0.220027
   6 C :    0.150492
   7 C :   -0.274291
   8 N :   -0.120243
   9 C :    0.210481
  10 S :   -0.440344
  11 N :   -0.203207
  12 C :    0.047358
  13 C :    0.065101
  14 C :   -0.182828
  15 C :   -0.132661
  16 C :   -0.279717
  17 C :    0.316266
  18 O :   -0.356863
  19 C :   -0.267957
  20 H :    0.091117
  21 H :    0.105958
  22 H :    0.106897
  23 H :    0.090721
  24 H :    0.102958
  25 H :    0.131377
  26 H :    0.094747
  27 H :    0.131607
  28 H :    0.197205
  29 H :    0.194514
  30 H :    0.149208
  31 H :    0.152077
  32 H :    0.161552
  33 H :    0.129979
  34 H :    0.240449
  35 H :    0.164881
Sum of atomic charges:   -0.0000000

LOEWDIN ATOMIC CHARGES
----------------------
   0 C :    0.105166
   1 C :   -0.014904
   2 O :    0.310314
   3 C :   -0.412649
   4 O :    0.095070
   5 C :   -0.094483
   6 C :   -0.059255
   7 C :    0.131479
   8 N :    0.406441
   9 C :   -0.456720
  10 S :   -0.035888
  11 N :    0.396608
  12 C :   -0.052987
  13 C :   -0.039795
  14 C :    0.016694
  15 C :    0.039349
  16 C :   -0.001462
  17 C :   -0.189713
  18 O :    0.394972
  19 C :    0.031829
  20 H :   -0.030940
  21 H :   -0.024637
  22 H :   -0.024520
  23 H :   -0.030761
  24 H :   -0.027018
  25 H :   -0.003977
  26 H :   -0.023501
  27 H :   -0.004528
  28 H :   -0.057626
  29 H :   -0.064491
  30 H :   -0.012087
  31 H :   -0.030908
  32 H :   -0.021748
  33 H :   -0.035588
  34 H :   -0.154112
  35 H :   -0.023624

  Mayer bond orders larger than 0.100000
B(  0-C ,  1-C ) :   0.9726 B(  0-C , 20-H ) :   0.9785 B(  0-C , 21-H ) :   0.9791
B(  0-C , 22-H ) :   0.9728 B(  1-C ,  2-O ) :   0.9033 B(  1-C , 23-H ) :   0.9809
B(  1-C , 24-H ) :   0.9761 B(  2-O ,  3-C ) :   1.1816 B(  3-C ,  4-O ) :   1.9671
B(  3-C ,  5-C ) :   1.0608 B(  5-C ,  6-C ) :   1.6568 B(  5-C , 12-C ) :   0.9723
B(  6-C ,  7-C ) :   0.9675 B(  6-C ,  8-N ) :   1.1643 B(  7-C , 25-H ) :   0.9596
B(  7-C , 26-H ) :   0.9902 B(  7-C , 27-H ) :   0.9613 B(  8-N ,  9-C ) :   1.1832
B(  8-N , 28-H ) :   0.9479 B(  9-C , 10-S ) :   1.6074 B(  9-C , 11-N ) :   1.3047
B( 11-N , 12-C ) :   0.9897 B( 11-N , 29-H ) :   0.9514 B( 12-C , 13-C ) :   0.9366
B( 12-C , 30-H ) :   1.0033 B( 13-C , 14-C ) :   1.3567 B( 13-C , 19-C ) :   1.3810
B( 14-C , 15-C ) :   1.3903 B( 14-C , 31-H ) :   0.9702 B( 15-C , 16-C ) :   1.3629
B( 15-C , 32-H ) :   0.9701 B( 16-C , 17-C ) :   1.3308 B( 16-C , 33-H ) :   0.9851
B( 17-C , 18-O ) :   1.1095 B( 17-C , 19-C ) :   1.3738 B( 18-O , 34-H ) :   0.9801
B( 19-C , 35-H ) :   0.9582

MP2 TOTAL ENERGY:    -1274.351566274 Eh
FINAL SINGLE POINT ENERGY     -1274.351566273780

DIPOLE MOMENT
-------------
                                X             Y             Z
Electronic contribution:      8.90902      11.83403       6.99207
Nuclear contribution   :     -9.98862     -13.53594      -7.34791
                        -----------------------------------------
Total Dipole Moment    :     -1.07960      -1.70191      -0.35583
                        -----------------------------------------
Magnitude (a.u.)       :      2.04662
Magnitude (Debye)      :      5.20209

Rotational constants in cm-1:     0.011621     0.008527     0.006126
Rotational constants in MHz :   348.376194   255.624297   183.648573

                             ****ORCA TERMINATED NORMALLY****
TOTAL RUN TIME: 0 days 1 hours 54 minutes 30 seconds 751 msec
