                         Program Version 5.0.0 -  RELEASE  -
|  1> ! ri-mp2 cc-pvtz cc-pvtz/c TightSCF NoKeepInts
|  2>
|  3> %scf
|  4>   MaxCore 4096
|  5> end
|  6> *xyz  0  1
|  7>     C       14.7652996   14.4473352   17.2330594
|  8>     C       15.5447154   15.6534269   16.6847400
|  9>     O       16.8124884   15.1489680   16.2160465
| 10>     C       18.0470502   15.6586288   16.5385163
| 11>     O       19.0268317   14.9399523   16.4693740
| 12>     C       18.0682636   16.8905846   17.3829770
| 13>     C       17.5721358   18.0769897   16.9623323
| 14>     C       16.9605737   18.3794080   15.6113506
| 15>     N       17.6588903   19.1987668   17.7894669
| 16>     C       18.3035869   19.2266939   18.9992640
| 17>     S       18.4043071   20.6121291   19.8960106
| 18>     N       18.8550268   18.0455391   19.4334099
| 19>     C       18.7300359   16.7420883   18.7505513
| 20>     C       17.9526650   15.7390809   19.5973118
| 21>     C       18.4089686   14.4140743   19.7199879
| 22>     C       17.6803034   13.4716732   20.4645062
| 23>     C       16.4811173   13.8550212   21.0885956
| 24>     C       16.0186668   15.1716231   20.9619387
| 25>     O       14.8520956   15.5410655   21.5475937
| 26>     C       16.7464573   16.1082295   20.2212879
| 27>     H       15.3149020   13.9786915   18.0596805
| 28>     H       14.6142516   13.6946125   16.4492228
| 29>     H       13.7827716   14.7588130   17.6076699
| 30>     H       14.9905929   16.1190548   15.8597736
| 31>     H       15.6463921   16.3797341   17.4990764
| 32>     H       17.1193956   17.5664297   14.8919515
| 33>     H       17.4097126   19.2789222   15.1710648
| 34>     H       15.8803038   18.5491946   15.6954769
| 35>     H       17.2729165   20.0786896   17.4843881
| 36>     H       19.3044815   18.0917993   20.3392980
| 37>     H       19.7443084   16.3468653   18.5911590
| 38>     H       19.3242922   14.1083957   19.2174295
| 39>     H       18.0420977   12.4480677   20.5464765
| 40>     H       15.9131223   13.1283237   21.6600507
| 41>     H       14.5310526   14.7823896   22.0584652
| 42>     H       16.3669272   17.1207383   20.1344959
| 43> *
| 44>
| 45>                          ****END OF INPUT****

CARTESIAN COORDINATES (ANGSTROEM)
---------------------------------
  C     14.765300   14.447335   17.233059
  C     15.544715   15.653427   16.684740
  O     16.812488   15.148968   16.216047
  C     18.047050   15.658629   16.538516
  O     19.026832   14.939952   16.469374
  C     18.068264   16.890585   17.382977
  C     17.572136   18.076990   16.962332
  C     16.960574   18.379408   15.611351
  N     17.658890   19.198767   17.789467
  C     18.303587   19.226694   18.999264
  S     18.404307   20.612129   19.896011
  N     18.855027   18.045539   19.433410
  C     18.730036   16.742088   18.750551
  C     17.952665   15.739081   19.597312
  C     18.408969   14.414074   19.719988
  C     17.680303   13.471673   20.464506
  C     16.481117   13.855021   21.088596
  C     16.018667   15.171623   20.961939
  O     14.852096   15.541066   21.547594
  C     16.746457   16.108230   20.221288
  H     15.314902   13.978692   18.059680
  H     14.614252   13.694612   16.449223
  H     13.782772   14.758813   17.607670
  H     14.990593   16.119055   15.859774
  H     15.646392   16.379734   17.499076
  H     17.119396   17.566430   14.891951
  H     17.409713   19.278922   15.171065
  H     15.880304   18.549195   15.695477
  H     17.272917   20.078690   17.484388
  H     19.304482   18.091799   20.339298
  H     19.744308   16.346865   18.591159
  H     19.324292   14.108396   19.217429
  H     18.042098   12.448068   20.546477
  H     15.913122   13.128324   21.660051
  H     14.531053   14.782390   22.058465
  H     16.366927   17.120738   20.134496

 Total Charge           Charge          ....    0
 Multiplicity           Mult            ....    1
 Number of Electrons    NEL             ....  154
 Basis Dimension        Dim             ....  828

ORBITAL ENERGIES
----------------

  NO   OCC          E(Eh)            E(eV)
   0   2.0000     -91.890713     -2500.4734
   1   2.0000     -20.601600      -560.5980
   2   2.0000     -20.600650      -560.5722
   3   2.0000     -20.548218      -559.1454
   4   2.0000     -15.628160      -425.2639
   5   2.0000     -15.612197      -424.8295
   6   2.0000     -11.397639      -310.1455
   7   2.0000     -11.387531      -309.8705
   8   2.0000     -11.330442      -308.3170
   9   2.0000     -11.317417      -307.9626
  10   2.0000     -11.314859      -307.8930
  11   2.0000     -11.303705      -307.5895
  12   2.0000     -11.269759      -306.6657
  13   2.0000     -11.264544      -306.5238
  14   2.0000     -11.264090      -306.5115
  15   2.0000     -11.257310      -306.3270
  16   2.0000     -11.246586      -306.0352
  17   2.0000     -11.243118      -305.9408
  18   2.0000     -11.239853      -305.8520
  19   2.0000     -11.227978      -305.5288
  20   2.0000      -8.895821      -242.0676
  21   2.0000      -6.577406      -178.9803
  22   2.0000      -6.575382      -178.9253
  23   2.0000      -6.574805      -178.9095
  24   2.0000      -1.447162       -39.3793
  25   2.0000      -1.420429       -38.6519
  26   2.0000      -1.358589       -36.9691
  27   2.0000      -1.341092       -36.4930
  28   2.0000      -1.240645       -33.7597
  29   2.0000      -1.162201       -31.6251
  30   2.0000      -1.126381       -30.6504
  31   2.0000      -1.049723       -28.5644
  32   2.0000      -1.038448       -28.2576
  33   2.0000      -1.019462       -27.7410
  34   2.0000      -1.005820       -27.3698
  35   2.0000      -0.990073       -26.9413
  36   2.0000      -0.928520       -25.2663
  37   2.0000      -0.882120       -24.0037
  38   2.0000      -0.855768       -23.2866
  39   2.0000      -0.842477       -22.9250
  40   2.0000      -0.837655       -22.7937
  41   2.0000      -0.836576       -22.7644
  42   2.0000      -0.755554       -20.5597
  43   2.0000      -0.740903       -20.1610
  44   2.0000      -0.731847       -19.9146
  45   2.0000      -0.698821       -19.0159
  46   2.0000      -0.689050       -18.7500
  47   2.0000      -0.681083       -18.5332
  48   2.0000      -0.677550       -18.4371
  49   2.0000      -0.659931       -17.9576
  50   2.0000      -0.657749       -17.8983
  51   2.0000      -0.648584       -17.6489
  52   2.0000      -0.640661       -17.4333
  53   2.0000      -0.612356       -16.6631
  54   2.0000      -0.608964       -16.5707
  55   2.0000      -0.605428       -16.4745
  56   2.0000      -0.599226       -16.3058
  57   2.0000      -0.583621       -15.8811
  58   2.0000      -0.579182       -15.7603
  59   2.0000      -0.570270       -15.5178
  60   2.0000      -0.560239       -15.2449
  61   2.0000      -0.559383       -15.2216
  62   2.0000      -0.548650       -14.9295
  63   2.0000      -0.528910       -14.3924
  64   2.0000      -0.518975       -14.1220
  65   2.0000      -0.515135       -14.0175
  66   2.0000      -0.503130       -13.6909
  67   2.0000      -0.501710       -13.6522
  68   2.0000      -0.489265       -13.3136
  69   2.0000      -0.472020       -12.8443
  70   2.0000      -0.451914       -12.2972
  71   2.0000      -0.450371       -12.2552
  72   2.0000      -0.357180        -9.7194
  73   2.0000      -0.352985        -9.6052
  74   2.0000      -0.330341        -8.9890
  75   2.0000      -0.325125        -8.8471
  76   2.0000      -0.318963        -8.6794
  77   0.0000       0.083102         2.2613
  78   0.0000       0.103306         2.8111
  79   0.0000       0.113412         3.0861
  80   0.0000       0.127043         3.4570
  81   0.0000       0.134409         3.6575

MULLIKEN ATOMIC CHARGES
-----------------------
   0 C :   -0.260598
   1 C :    0.002776
   2 O :   -0.312078
   3 C :    0.398602
   4 O :   -0.385566
   5 C :   -0.187032
   6 C :    0.131608
   7 C :   -0.323479
   8 N :   -0.135304
   9 C :    0.202639
  10 S :   -0.439754
  11 N :   -0.211536
  12 C :    0.071043
  13 C :    0.034093
  14 C :   -0.192584
  15 C :   -0.126566
  16 C :   -0.281662
  17 C :    0.315901
  18 O :   -0.360641
  19 C :   -0.287433
  20 H :    0.108716
  21 H :    0.106645
  22 H :    0.089610
  23 H :    0.107170
  24 H :    0.103095
  25 H :    0.130008
  26 H :    0.136869
  27 H :    0.122602
  28 H :    0.196653
  29 H :    0.197772
  30 H :    0.163643
  31 H :    0.167117
  32 H :    0.164117
  33 H :    0.132763
  34 H :    0.242131
  35 H :    0.178661
Sum of atomic charges:    0.0000000

LOEWDIN ATOMIC CHARGES
----------------------
   0 C :    0.110307
   1 C :   -0.022529
   2 O :    0.309956
   3 C :   -0.417610
   4 O :    0.121505
   5 C :   -0.084800
   6 C :   -0.100669
   7 C :    0.125945
   8 N :    0.401512
   9 C :   -0.456009
  10 S :   -0.036783
  11 N :    0.397190
  12 C :   -0.044602
  13 C :   -0.043271
  14 C :    0.023585
  15 C :    0.045608
  16 C :   -0.000281
  17 C :   -0.193681
  18 O :    0.394877
  19 C :    0.027013
  20 H :   -0.022061
  21 H :   -0.025942
  22 H :   -0.025936
  23 H :   -0.034849
  24 H :   -0.038737
  25 H :   -0.007137
  26 H :   -0.010166
  27 H :   -0.016490
  28 H :   -0.057687
  29 H :   -0.063567
  30 H :   -0.002371
  31 H :   -0.021626
  32 H :   -0.018337
  33 H :   -0.034648
  34 H :   -0.152695
  35 H :   -0.025015

  Mayer bond orders larger than 0.100000
B(  0-C ,  1-C ) :   0.9829 B(  0-C , 20-H ) :   0.9723 B(  0-C , 21-H ) :   0.9805
B(  0-C , 22-H ) :   0.9761 B(  1-C ,  2-O ) :   0.9050 B(  1-C , 23-H ) :   0.9760
B(  1-C , 24-H ) :   0.9593 B(  2-O ,  3-C ) :   1.1930 B(  3-C ,  4-O ) :   2.0889
B(  3-C ,  5-C ) :   0.9275 B(  5-C ,  6-C ) :   1.6838 B(  5-C , 12-C ) :   0.9608
B(  6-C ,  7-C ) :   0.9430 B(  6-C ,  8-N ) :   1.1193 B(  7-C , 25-H ) :   0.9800
B(  7-C , 26-H ) :   0.9724 B(  7-C , 27-H ) :   0.9650 B(  8-N ,  9-C ) :   1.1931
B(  8-N , 28-H ) :   0.9520 B(  9-C , 10-S ) :   1.6129 B(  9-C , 11-N ) :   1.2884
B( 11-N , 12-C ) :   0.9995 B( 11-N , 29-H ) :   0.9495 B( 12-C , 13-C ) :   0.9420
B( 12-C , 30-H ) :   0.9970 B( 13-C , 14-C ) :   1.3880 B( 13-C , 19-C ) :   1.3426
B( 14-C , 15-C ) :   1.3953 B( 14-C , 31-H ) :   0.9610 B( 15-C , 16-C ) :   1.3614
B( 15-C , 32-H ) :   0.9702 B( 16-C , 17-C ) :   1.3296 B( 16-C , 33-H ) :   0.9849
B( 17-C , 18-O ) :   1.1061 B( 17-C , 19-C ) :   1.3703 B( 18-O , 34-H ) :   0.9789
B( 19-C , 35-H ) :   0.9558

MP2 TOTAL ENERGY:    -1274.335134980 Eh
FINAL SINGLE POINT ENERGY     -1274.335134980476

DIPOLE MOMENT
-------------
                                X             Y             Z
Electronic contribution:     10.38588       8.15771       6.02258
Nuclear contribution   :    -11.90663      -9.08934      -6.42558
                        -----------------------------------------
Total Dipole Moment    :     -1.52075      -0.93162      -0.40300
                        -----------------------------------------
Magnitude (a.u.)       :      1.82839
Magnitude (Debye)      :      4.64739

Rotational constants in cm-1:     0.012487     0.009070     0.006917
Rotational constants in MHz :   374.342386   271.919053   207.366368

                             ****ORCA TERMINATED NORMALLY****
TOTAL RUN TIME: 0 days 1 hours 42 minutes 49 seconds 559 msec
