                         Program Version 5.0.0 -  RELEASE  -
|  1> ! ri-mp2 cc-pvtz cc-pvtz/c TightSCF NoKeepInts
|  2>
|  3> %scf
|  4>   MaxCore 4096
|  5> end
|  6> *xyz  0  1
|  7>     C       15.0208174   14.1064500   15.6419925
|  8>     C       16.2380952   13.9184048   16.5719815
|  9>     O       17.1182295   15.0659773   16.6922364
| 10>     C       16.7700730   16.3881050   16.5655884
| 11>     O       15.8789066   16.7947169   15.8419194
| 12>     C       17.5568803   17.2676609   17.5007372
| 13>     C       17.4312187   18.6197986   17.5092210
| 14>     C       16.5330450   19.4653330   16.6313866
| 15>     N       18.2084356   19.3919269   18.3778312
| 16>     C       19.1936197   18.9041649   19.1936943
| 17>     S       20.1271285   19.8983470   20.1297407
| 18>     N       19.3702439   17.5444727   19.1939707
| 19>     C       18.5146143   16.5750872   18.4861309
| 20>     C       17.7683468   15.7135723   19.5012276
| 21>     C       18.1069649   14.3577107   19.6701909
| 22>     C       17.4175570   13.5588234   20.5978940
| 23>     C       16.3834387   14.1208316   21.3658055
| 24>     C       16.0481197   15.4722860   21.2048951
| 25>     O       15.0517902   16.0183024   21.9465467
| 26>     C       16.7354796   16.2645354   20.2802855
| 27>     H       14.3015196   14.8173254   16.0674585
| 28>     H       14.4985946   13.1523050   15.5034335
| 29>     H       15.3336904   14.4667443   14.6538395
| 30>     H       15.8611011   13.6642650   17.5715140
| 31>     H       16.8271294   13.0607438   16.2229942
| 32>     H       15.4786865   19.2159489   16.8069241
| 33>     H       16.7410709   19.2765357   15.5705061
| 34>     H       16.6523214   20.5412718   16.8042045
| 35>     H       18.0934730   20.3927407   18.3902853
| 36>     H       20.0785340   17.2116606   19.8353092
| 37>     H       19.1782989   15.9240846   17.8998418
| 38>     H       18.9041564   13.9203363   19.0750296
| 39>     H       17.6863083   12.5110746   20.7212250
| 40>     H       15.8488920   13.5086174   22.0847463
| 41>     H       14.7250083   15.3319839   22.5473890
| 42>     H       16.4652108   17.3098549   20.1760233
| 43> *
| 44>
| 45>                          ****END OF INPUT****

CARTESIAN COORDINATES (ANGSTROEM)
---------------------------------
  C     15.020817   14.106450   15.641993
  C     16.238095   13.918405   16.571981
  O     17.118230   15.065977   16.692236
  C     16.770073   16.388105   16.565588
  O     15.878907   16.794717   15.841919
  C     17.556880   17.267661   17.500737
  C     17.431219   18.619799   17.509221
  C     16.533045   19.465333   16.631387
  N     18.208436   19.391927   18.377831
  C     19.193620   18.904165   19.193694
  S     20.127128   19.898347   20.129741
  N     19.370244   17.544473   19.193971
  C     18.514614   16.575087   18.486131
  C     17.768347   15.713572   19.501228
  C     18.106965   14.357711   19.670191
  C     17.417557   13.558823   20.597894
  C     16.383439   14.120832   21.365806
  C     16.048120   15.472286   21.204895
  O     15.051790   16.018302   21.946547
  C     16.735480   16.264535   20.280285
  H     14.301520   14.817325   16.067459
  H     14.498595   13.152305   15.503433
  H     15.333690   14.466744   14.653840
  H     15.861101   13.664265   17.571514
  H     16.827129   13.060744   16.222994
  H     15.478687   19.215949   16.806924
  H     16.741071   19.276536   15.570506
  H     16.652321   20.541272   16.804205
  H     18.093473   20.392741   18.390285
  H     20.078534   17.211661   19.835309
  H     19.178299   15.924085   17.899842
  H     18.904156   13.920336   19.075030
  H     17.686308   12.511075   20.721225
  H     15.848892   13.508617   22.084746
  H     14.725008   15.331984   22.547389
  H     16.465211   17.309855   20.176023

 Total Charge           Charge          ....    0
 Multiplicity           Mult            ....    1
 Number of Electrons    NEL             ....  154
 Basis Dimension        Dim             ....  828

ORBITAL ENERGIES
----------------

  NO   OCC          E(Eh)            E(eV)
   0   2.0000     -91.888218     -2500.4055
   1   2.0000     -20.597652      -560.4906
   2   2.0000     -20.594645      -560.4088
   3   2.0000     -20.541220      -558.9550
   4   2.0000     -15.628236      -425.2659
   5   2.0000     -15.607547      -424.7029
   6   2.0000     -11.397175      -310.1329
   7   2.0000     -11.383257      -309.7542
   8   2.0000     -11.334950      -308.4397
   9   2.0000     -11.314990      -307.8965
  10   2.0000     -11.308098      -307.7090
  11   2.0000     -11.301413      -307.5271
  12   2.0000     -11.260522      -306.4144
  13   2.0000     -11.257722      -306.3382
  14   2.0000     -11.256453      -306.3037
  15   2.0000     -11.251427      -306.1669
  16   2.0000     -11.244082      -305.9670
  17   2.0000     -11.239197      -305.8341
  18   2.0000     -11.238991      -305.8285
  19   2.0000     -11.220864      -305.3352
  20   2.0000      -8.893291      -241.9987
  21   2.0000      -6.574868      -178.9113
  22   2.0000      -6.572861      -178.8567
  23   2.0000      -6.572277      -178.8407
  24   2.0000      -1.441968       -39.2380
  25   2.0000      -1.417295       -38.5665
  26   2.0000      -1.353802       -36.8388
  27   2.0000      -1.339361       -36.4459
  28   2.0000      -1.237935       -33.6859
  29   2.0000      -1.158225       -31.5169
  30   2.0000      -1.119285       -30.4573
  31   2.0000      -1.042710       -28.3736
  32   2.0000      -1.034910       -28.1613
  33   2.0000      -1.016091       -27.6493
  34   2.0000      -0.994916       -27.0731
  35   2.0000      -0.983161       -26.7532
  36   2.0000      -0.922222       -25.0949
  37   2.0000      -0.895554       -24.3693
  38   2.0000      -0.846951       -23.0467
  39   2.0000      -0.838502       -22.8168
  40   2.0000      -0.834880       -22.7182
  41   2.0000      -0.819111       -22.2891
  42   2.0000      -0.745360       -20.2823
  43   2.0000      -0.730978       -19.8909
  44   2.0000      -0.717615       -19.5273
  45   2.0000      -0.696366       -18.9491
  46   2.0000      -0.687631       -18.7114
  47   2.0000      -0.676131       -18.3985
  48   2.0000      -0.667895       -18.1743
  49   2.0000      -0.661880       -18.0107
  50   2.0000      -0.650592       -17.7035
  51   2.0000      -0.644627       -17.5412
  52   2.0000      -0.635423       -17.2907
  53   2.0000      -0.607868       -16.5409
  54   2.0000      -0.601499       -16.3676
  55   2.0000      -0.599707       -16.3189
  56   2.0000      -0.598067       -16.2742
  57   2.0000      -0.579469       -15.7681
  58   2.0000      -0.575161       -15.6509
  59   2.0000      -0.570292       -15.5184
  60   2.0000      -0.561733       -15.2855
  61   2.0000      -0.538739       -14.6598
  62   2.0000      -0.534616       -14.5476
  63   2.0000      -0.525062       -14.2877
  64   2.0000      -0.523560       -14.2468
  65   2.0000      -0.512804       -13.9541
  66   2.0000      -0.501106       -13.6358
  67   2.0000      -0.497508       -13.5379
  68   2.0000      -0.484987       -13.1972
  69   2.0000      -0.463034       -12.5998
  70   2.0000      -0.451189       -12.2775
  71   2.0000      -0.439645       -11.9634
  72   2.0000      -0.353219        -9.6116
  73   2.0000      -0.350199        -9.5294
  74   2.0000      -0.327850        -8.9213
  75   2.0000      -0.322482        -8.7752
  76   2.0000      -0.315659        -8.5895
  77   0.0000       0.076160         2.0724
  78   0.0000       0.105581         2.8730
  79   0.0000       0.124829         3.3968
  80   0.0000       0.132484         3.6051
  81   0.0000       0.138203         3.7607

MULLIKEN ATOMIC CHARGES
-----------------------
   0 C :   -0.281262
   1 C :    0.044472
   2 O :   -0.375371
   3 C :    0.458315
   4 O :   -0.425418
   5 C :   -0.216112
   6 C :    0.154167
   7 C :   -0.271045
   8 N :   -0.121909
   9 C :    0.213404
  10 S :   -0.441719
  11 N :   -0.206581
  12 C :    0.067584
  13 C :    0.064056
  14 C :   -0.198685
  15 C :   -0.128393
  16 C :   -0.281410
  17 C :    0.316284
  18 O :   -0.356011
  19 C :   -0.268801
  20 H :    0.108052
  21 H :    0.094973
  22 H :    0.108013
  23 H :    0.096661
  24 H :    0.097025
  25 H :    0.131154
  26 H :    0.130891
  27 H :    0.095007
  28 H :    0.197217
  29 H :    0.194883
  30 H :    0.148950
  31 H :    0.152256
  32 H :    0.161637
  33 H :    0.130920
  34 H :    0.240845
  35 H :    0.165952
Sum of atomic charges:    0.0000000

LOEWDIN ATOMIC CHARGES
----------------------
   0 C :    0.102532
   1 C :   -0.011089
   2 O :    0.292550
   3 C :   -0.412132
   4 O :    0.110242
   5 C :   -0.094885
   6 C :   -0.059314
   7 C :    0.130760
   8 N :    0.406444
   9 C :   -0.456340
  10 S :   -0.036701
  11 N :    0.396278
  12 C :   -0.052567
  13 C :   -0.037722
  14 C :    0.014359
  15 C :    0.038589
  16 C :   -0.002951
  17 C :   -0.189624
  18 O :    0.395539
  19 C :    0.030842
  20 H :   -0.026455
  21 H :   -0.028596
  22 H :   -0.024357
  23 H :   -0.029006
  24 H :   -0.025824
  25 H :   -0.005081
  26 H :   -0.004141
  27 H :   -0.023622
  28 H :   -0.057732
  29 H :   -0.064806
  30 H :   -0.011137
  31 H :   -0.030000
  32 H :   -0.021220
  33 H :   -0.035520
  34 H :   -0.153733
  35 H :   -0.023581

  Mayer bond orders larger than 0.100000
B(  0-C ,  1-C ) :   0.9839 B(  0-C , 20-H ) :   0.9734 B(  0-C , 21-H ) :   0.9738
B(  0-C , 22-H ) :   0.9746 B(  1-C ,  2-O ) :   0.8933 B(  1-C , 23-H ) :   0.9707
B(  1-C , 24-H ) :   0.9805 B(  2-O ,  3-C ) :   1.1246 B(  3-C ,  4-O ) :   1.9874
B(  3-C ,  5-C ) :   1.0670 B(  5-C ,  6-C ) :   1.6534 B(  5-C , 12-C ) :   0.9749
B(  6-C ,  7-C ) :   0.9666 B(  6-C ,  8-N ) :   1.1600 B(  7-C , 25-H ) :   0.9600
B(  7-C , 26-H ) :   0.9606 B(  7-C , 27-H ) :   0.9910 B(  8-N ,  9-C ) :   1.1843
B(  8-N , 28-H ) :   0.9478 B(  9-C , 10-S ) :   1.6047 B(  9-C , 11-N ) :   1.3068
B( 11-N , 12-C ) :   0.9827 B( 11-N , 29-H ) :   0.9515 B( 12-C , 13-C ) :   0.9351
B( 12-C , 30-H ) :   1.0020 B( 13-C , 14-C ) :   1.3508 B( 13-C , 19-C ) :   1.3837
B( 14-C , 15-C ) :   1.3899 B( 14-C , 31-H ) :   0.9728 B( 15-C , 16-C ) :   1.3616
B( 15-C , 32-H ) :   0.9706 B( 16-C , 17-C ) :   1.3310 B( 16-C , 33-H ) :   0.9850
B( 17-C , 18-O ) :   1.1111 B( 17-C , 19-C ) :   1.3704 B( 18-O , 34-H ) :   0.9797
B( 19-C , 35-H ) :   0.9581

MP2 TOTAL ENERGY:    -1274.337627668 Eh
FINAL SINGLE POINT ENERGY     -1274.337627668157

DIPOLE MOMENT
-------------
                                X             Y             Z
Electronic contribution:     10.19423      10.14507       8.50930
Nuclear contribution   :    -11.20307     -11.92735      -8.76235
                        -----------------------------------------
Total Dipole Moment    :     -1.00884      -1.78228      -0.25305
                        -----------------------------------------
Magnitude (a.u.)       :      2.06356
Magnitude (Debye)      :      5.24516

Rotational constants in cm-1:     0.011812     0.008674     0.006147
Rotational constants in MHz :   354.104018   260.052958   184.293470

                             ****ORCA TERMINATED NORMALLY****
TOTAL RUN TIME: 0 days 2 hours 6 minutes 34 seconds 283 msec
