                         Program Version 5.0.0 -  RELEASE  -
|  1> ! ri-mp2 cc-pvtz cc-pvtz/c TightSCF NoKeepInts
|  2>
|  3> %scf
|  4>   MaxCore 4096
|  5> end
|  6> *xyz  0  1
|  7>     C       15.0963473   15.2853805   17.5669300
|  8>     C       15.5924444   15.4014964   16.1143782
|  9>     O       16.9739804   14.9955762   16.0065555
| 10>     C       18.0993585   15.6284832   16.4837353
| 11>     O       19.1528269   15.0187992   16.4890323
| 12>     C       17.9216625   16.8209781   17.3688370
| 13>     C       17.4214853   17.9979298   16.9223704
| 14>     C       17.0079920   18.3439725   15.5075716
| 15>     N       17.3885442   19.1082432   17.7687839
| 16>     C       17.9766450   19.1650898   19.0046867
| 17>     S       17.9638306   20.5486489   19.9099441
| 18>     N       18.5851699   18.0181436   19.4494949
| 19>     C       18.5401242   16.7083409   18.7688160
| 20>     C       17.8477228   15.6505954   19.6282918
| 21>     C       18.2877571   14.3143210   19.5834218
| 22>     C       17.6617110   13.3240322   20.3581756
| 23>     C       16.5852317   13.6702367   21.1915293
| 24>     C       16.1445378   14.9989694   21.2446023
| 25>     O       15.0998402   15.3357329   22.0419064
| 26>     C       16.7698413   15.9833106   20.4724993
| 27>     H       15.5061352   14.3902527   18.0526864
| 28>     H       14.0023194   15.2130468   17.5909795
| 29>     H       15.3774538   16.1671260   18.1513142
| 30>     H       14.9986185   14.7086120   15.5040194
| 31>     H       15.4081110   16.4028190   15.7202322
| 32>     H       17.2083603   17.5294896   14.8007628
| 33>     H       17.5715563   19.2131254   15.1440803
| 34>     H       15.9412871   18.5936180   15.4528804
| 35>     H       16.9719478   19.9688491   17.4497131
| 36>     H       19.0039985   18.0855427   20.3686242
| 37>     H       19.5819556   16.3808697   18.6348679
| 38>     H       19.1164491   14.0385856   18.9344660
| 39>     H       18.0109708   12.2941045   20.3069828
| 40>     H       16.0974898   12.9077445   21.7897752
| 41>     H       14.8317128   14.5376792   22.5219342
| 42>     H       16.4015810   17.0022550   20.5291189
| 43> *
| 44>
| 45>                          ****END OF INPUT****

CARTESIAN COORDINATES (ANGSTROEM)
---------------------------------
  C     15.096347   15.285381   17.566930
  C     15.592444   15.401496   16.114378
  O     16.973980   14.995576   16.006556
  C     18.099358   15.628483   16.483735
  O     19.152827   15.018799   16.489032
  C     17.921663   16.820978   17.368837
  C     17.421485   17.997930   16.922370
  C     17.007992   18.343972   15.507572
  N     17.388544   19.108243   17.768784
  C     17.976645   19.165090   19.004687
  S     17.963831   20.548649   19.909944
  N     18.585170   18.018144   19.449495
  C     18.540124   16.708341   18.768816
  C     17.847723   15.650595   19.628292
  C     18.287757   14.314321   19.583422
  C     17.661711   13.324032   20.358176
  C     16.585232   13.670237   21.191529
  C     16.144538   14.998969   21.244602
  O     15.099840   15.335733   22.041906
  C     16.769841   15.983311   20.472499
  H     15.506135   14.390253   18.052686
  H     14.002319   15.213047   17.590979
  H     15.377454   16.167126   18.151314
  H     14.998618   14.708612   15.504019
  H     15.408111   16.402819   15.720232
  H     17.208360   17.529490   14.800763
  H     17.571556   19.213125   15.144080
  H     15.941287   18.593618   15.452880
  H     16.971948   19.968849   17.449713
  H     19.003999   18.085543   20.368624
  H     19.581956   16.380870   18.634868
  H     19.116449   14.038586   18.934466
  H     18.010971   12.294104   20.306983
  H     16.097490   12.907744   21.789775
  H     14.831713   14.537679   22.521934
  H     16.401581   17.002255   20.529119

 Total Charge           Charge          ....    0
 Multiplicity           Mult            ....    1
 Number of Electrons    NEL             ....  154
 Basis Dimension        Dim             ....  828

ORBITAL ENERGIES
----------------

  NO   OCC          E(Eh)            E(eV)
   0   2.0000     -91.890629     -2500.4711
   1   2.0000     -20.600930      -560.5798
   2   2.0000     -20.597379      -560.4832
   3   2.0000     -20.549594      -559.1829
   4   2.0000     -15.627981      -425.2590
   5   2.0000     -15.611609      -424.8135
   6   2.0000     -11.401008      -310.2372
   7   2.0000     -11.387127      -309.8595
   8   2.0000     -11.332193      -308.3647
   9   2.0000     -11.315165      -307.9013
  10   2.0000     -11.313975      -307.8689
  11   2.0000     -11.307513      -307.6931
  12   2.0000     -11.272120      -306.7300
  13   2.0000     -11.268716      -306.6374
  14   2.0000     -11.262092      -306.4571
  15   2.0000     -11.254383      -306.2473
  16   2.0000     -11.243676      -305.9560
  17   2.0000     -11.239289      -305.8366
  18   2.0000     -11.235887      -305.7440
  19   2.0000     -11.227312      -305.5107
  20   2.0000      -8.895738      -242.0653
  21   2.0000      -6.577328      -178.9782
  22   2.0000      -6.575299      -178.9230
  23   2.0000      -6.574724      -178.9073
  24   2.0000      -1.446611       -39.3643
  25   2.0000      -1.417199       -38.5640
  26   2.0000      -1.358607       -36.9696
  27   2.0000      -1.341684       -36.5091
  28   2.0000      -1.240871       -33.7658
  29   2.0000      -1.158826       -31.5333
  30   2.0000      -1.125616       -30.6296
  31   2.0000      -1.047954       -28.5163
  32   2.0000      -1.038487       -28.2587
  33   2.0000      -1.017351       -27.6835
  34   2.0000      -1.006062       -27.3763
  35   2.0000      -0.990325       -26.9481
  36   2.0000      -0.928127       -25.2556
  37   2.0000      -0.895040       -24.3553
  38   2.0000      -0.855635       -23.2830
  39   2.0000      -0.840881       -22.8815
  40   2.0000      -0.834195       -22.6996
  41   2.0000      -0.830799       -22.6072
  42   2.0000      -0.749317       -20.3899
  43   2.0000      -0.740918       -20.1614
  44   2.0000      -0.730420       -19.8757
  45   2.0000      -0.695369       -18.9220
  46   2.0000      -0.687602       -18.7106
  47   2.0000      -0.680080       -18.5059
  48   2.0000      -0.675612       -18.3843
  49   2.0000      -0.663220       -18.0471
  50   2.0000      -0.652776       -17.7629
  51   2.0000      -0.645657       -17.5692
  52   2.0000      -0.639462       -17.4006
  53   2.0000      -0.620202       -16.8766
  54   2.0000      -0.611361       -16.6360
  55   2.0000      -0.605969       -16.4893
  56   2.0000      -0.601605       -16.3705
  57   2.0000      -0.590560       -16.0700
  58   2.0000      -0.578360       -15.7380
  59   2.0000      -0.570558       -15.5257
  60   2.0000      -0.565942       -15.4001
  61   2.0000      -0.555595       -15.1185
  62   2.0000      -0.537948       -14.6383
  63   2.0000      -0.533895       -14.5280
  64   2.0000      -0.518715       -14.1150
  65   2.0000      -0.512688       -13.9509
  66   2.0000      -0.503405       -13.6983
  67   2.0000      -0.501292       -13.6409
  68   2.0000      -0.483012       -13.1434
  69   2.0000      -0.466298       -12.6886
  70   2.0000      -0.454695       -12.3729
  71   2.0000      -0.450745       -12.2654
  72   2.0000      -0.358550        -9.7566
  73   2.0000      -0.348021        -9.4701
  74   2.0000      -0.330260        -8.9868
  75   2.0000      -0.322902        -8.7866
  76   2.0000      -0.319358        -8.6902
  77   0.0000       0.084374         2.2959
  78   0.0000       0.107397         2.9224
  79   0.0000       0.111849         3.0436
  80   0.0000       0.129788         3.5317
  81   0.0000       0.131142         3.5686

MULLIKEN ATOMIC CHARGES
-----------------------
   0 C :   -0.319082
   1 C :    0.013682
   2 O :   -0.318457
   3 C :    0.418673
   4 O :   -0.385190
   5 C :   -0.228755
   6 C :    0.159120
   7 C :   -0.330729
   8 N :   -0.138723
   9 C :    0.205251
  10 S :   -0.440796
  11 N :   -0.229731
  12 C :    0.100109
  13 C :    0.017527
  14 C :   -0.214991
  15 C :   -0.137201
  16 C :   -0.277991
  17 C :    0.324598
  18 O :   -0.358206
  19 C :   -0.274517
  20 H :    0.126683
  21 H :    0.112694
  22 H :    0.105885
  23 H :    0.130042
  24 H :    0.088678
  25 H :    0.125587
  26 H :    0.143283
  27 H :    0.120155
  28 H :    0.196088
  29 H :    0.203569
  30 H :    0.167854
  31 H :    0.177267
  32 H :    0.164306
  33 H :    0.131845
  34 H :    0.241026
  35 H :    0.180449
Sum of atomic charges:   -0.0000000

LOEWDIN ATOMIC CHARGES
----------------------
   0 C :    0.104309
   1 C :   -0.021763
   2 O :    0.303575
   3 C :   -0.414439
   4 O :    0.122883
   5 C :   -0.077376
   6 C :   -0.100836
   7 C :    0.120909
   8 N :    0.402032
   9 C :   -0.458042
  10 S :   -0.037508
  11 N :    0.398395
  12 C :   -0.041698
  13 C :   -0.041698
  14 C :    0.020534
  15 C :    0.043054
  16 C :   -0.001664
  17 C :   -0.192961
  18 O :    0.395406
  19 C :    0.028154
  20 H :   -0.017845
  21 H :   -0.025734
  22 H :   -0.035509
  23 H :   -0.019144
  24 H :   -0.039963
  25 H :   -0.008708
  26 H :   -0.008029
  27 H :   -0.018461
  28 H :   -0.057557
  29 H :   -0.063214
  30 H :   -0.001713
  31 H :   -0.022132
  32 H :   -0.018647
  33 H :   -0.035033
  34 H :   -0.153541
  35 H :   -0.026034

  Mayer bond orders larger than 0.100000
B(  0-C ,  1-C ) :   0.9541 B(  0-C , 20-H ) :   0.9681 B(  0-C , 21-H ) :   0.9770
B(  0-C , 22-H ) :   0.9723 B(  1-C ,  2-O ) :   0.9063 B(  1-C , 23-H ) :   0.9850
B(  1-C , 24-H ) :   0.9734 B(  2-O ,  3-C ) :   1.1788 B(  3-C ,  4-O ) :   2.0782
B(  3-C ,  5-C ) :   0.9257 B(  5-C ,  6-C ) :   1.6922 B(  5-C , 12-C ) :   0.9436
B(  6-C ,  7-C ) :   0.9436 B(  6-C ,  8-N ) :   1.1083 B(  7-C , 25-H ) :   0.9813
B(  7-C , 26-H ) :   0.9677 B(  7-C , 27-H ) :   0.9673 B(  8-N ,  9-C ) :   1.1971
B(  8-N , 28-H ) :   0.9527 B(  9-C , 10-S ) :   1.6079 B(  9-C , 11-N ) :   1.2890
B( 11-N , 12-C ) :   0.9867 B( 11-N , 29-H ) :   0.9471 B( 12-C , 13-C ) :   0.9558
B( 12-C , 30-H ) :   0.9941 B( 13-C , 14-C ) :   1.3896 B( 13-C , 19-C ) :   1.3354
B( 14-C , 15-C ) :   1.4031 B( 14-C , 31-H ) :   0.9574 B( 15-C , 16-C ) :   1.3570
B( 15-C , 32-H ) :   0.9700 B( 16-C , 17-C ) :   1.3321 B( 16-C , 33-H ) :   0.9849
B( 17-C , 18-O ) :   1.1085 B( 17-C , 19-C ) :   1.3657 B( 18-O , 34-H ) :   0.9796
B( 19-C , 35-H ) :   0.9566

MP2 TOTAL ENERGY:    -1274.328819377 Eh
FINAL SINGLE POINT ENERGY     -1274.328819377245

DIPOLE MOMENT
-------------
                                X             Y             Z
Electronic contribution:      8.84553       6.46414       6.24700
Nuclear contribution   :    -10.32721      -7.44868      -6.96901
                        -----------------------------------------
Total Dipole Moment    :     -1.48168      -0.98454      -0.72201
                        -----------------------------------------
Magnitude (a.u.)       :      1.91989
Magnitude (Debye)      :      4.87998

Rotational constants in cm-1:     0.011913     0.009533     0.006750
Rotational constants in MHz :   357.138501   285.780250   202.351543

                             ****ORCA TERMINATED NORMALLY****
TOTAL RUN TIME: 0 days 1 hours 42 minutes 40 seconds 770 msec
