                         Program Version 5.0.0 -  RELEASE  -
|  1> ! ri-mp2 cc-pvtz cc-pvtz/c TightSCF NoKeepInts
|  2>
|  3> %scf
|  4>   MaxCore 4096
|  5> end
|  6> *xyz  0  1
|  7>     C       15.1175099   14.0991953   15.3524409
|  8>     C       16.1667846   13.8955145   16.4662500
|  9>     O       16.9988294   15.0472444   16.7610729
| 10>     C       16.6611666   16.3730694   16.6378080
| 11>     O       15.7421711   16.7883867   15.9553315
| 12>     C       17.4929499   17.2472331   17.5387011
| 13>     C       17.3838004   18.6008840   17.5459930
| 14>     C       16.4617323   19.4539301   16.7007580
| 15>     N       18.2063458   19.3671890   18.3773414
| 16>     C       19.2245617   18.8715890   19.1466926
| 17>     S       20.2135279   19.8588833   20.0316998
| 18>     N       19.3859355   17.5099694   19.1440567
| 19>     C       18.4814174   16.5481563   18.4883779
| 20>     C       17.7639981   15.7148851   19.5469660
| 21>     C       18.0576825   14.3463432   19.6967369
| 22>     C       17.3961668   13.5750852   20.6671851
| 23>     C       16.4353424   14.1774803   21.4971884
| 24>     C       16.1443960   15.5411993   21.3544743
| 25>     O       15.2187095   16.1260475   22.1557497
| 26>     C       16.8040242   16.3059686   20.3874924
| 27>     H       14.2993722   14.7475782   15.6899158
| 28>     H       14.6764260   13.1367416   15.0670237
| 29>     H       15.5744234   14.5405911   14.4577947
| 30>     H       15.6349888   13.6057545   17.3820993
| 31>     H       16.8189046   13.0558740   16.1940627
| 32>     H       15.4122955   19.2190312   16.9203419
| 33>     H       16.6240503   19.2575325   15.6333359
| 34>     H       16.6016075   20.5290128   16.8631225
| 35>     H       18.1028868   20.3692290   18.3911494
| 36>     H       20.1206713   17.1713837   19.7517268
| 37>     H       19.1061780   15.8770200   17.8824576
| 38>     H       18.7977315   13.8777296   19.0536287
| 39>     H       17.6294516   12.5172378   20.7749334
| 40>     H       15.9224332   13.5865812   22.2489120
| 41>     H       14.8990688   15.4512509   22.7731836
| 42>     H       16.5694583   17.3611980   20.2979955
| 43> *
| 44>
| 45>                          ****END OF INPUT****

CARTESIAN COORDINATES (ANGSTROEM)
---------------------------------
  C     15.117510   14.099195   15.352441
  C     16.166785   13.895514   16.466250
  O     16.998829   15.047244   16.761073
  C     16.661167   16.373069   16.637808
  O     15.742171   16.788387   15.955331
  C     17.492950   17.247233   17.538701
  C     17.383800   18.600884   17.545993
  C     16.461732   19.453930   16.700758
  N     18.206346   19.367189   18.377341
  C     19.224562   18.871589   19.146693
  S     20.213528   19.858883   20.031700
  N     19.385935   17.509969   19.144057
  C     18.481417   16.548156   18.488378
  C     17.763998   15.714885   19.546966
  C     18.057682   14.346343   19.696737
  C     17.396167   13.575085   20.667185
  C     16.435342   14.177480   21.497188
  C     16.144396   15.541199   21.354474
  O     15.218709   16.126047   22.155750
  C     16.804024   16.305969   20.387492
  H     14.299372   14.747578   15.689916
  H     14.676426   13.136742   15.067024
  H     15.574423   14.540591   14.457795
  H     15.634989   13.605754   17.382099
  H     16.818905   13.055874   16.194063
  H     15.412296   19.219031   16.920342
  H     16.624050   19.257532   15.633336
  H     16.601608   20.529013   16.863122
  H     18.102887   20.369229   18.391149
  H     20.120671   17.171384   19.751727
  H     19.106178   15.877020   17.882458
  H     18.797731   13.877730   19.053629
  H     17.629452   12.517238   20.774933
  H     15.922433   13.586581   22.248912
  H     14.899069   15.451251   22.773184
  H     16.569458   17.361198   20.297995

 Total Charge           Charge          ....    0
 Multiplicity           Mult            ....    1
 Number of Electrons    NEL             ....  154
 Basis Dimension        Dim             ....  828

ORBITAL ENERGIES
----------------

  NO   OCC          E(Eh)            E(eV)
   0   2.0000     -91.887895     -2500.3967
   1   2.0000     -20.597249      -560.4796
   2   2.0000     -20.596298      -560.4538
   3   2.0000     -20.540624      -558.9388
   4   2.0000     -15.627914      -425.2572
   5   2.0000     -15.607126      -424.6915
   6   2.0000     -11.397769      -310.1491
   7   2.0000     -11.382888      -309.7441
   8   2.0000     -11.334634      -308.4311
   9   2.0000     -11.313432      -307.8541
  10   2.0000     -11.307580      -307.6949
  11   2.0000     -11.302510      -307.5569
  12   2.0000     -11.259174      -306.3777
  13   2.0000     -11.257818      -306.3408
  14   2.0000     -11.254991      -306.2639
  15   2.0000     -11.251146      -306.1592
  16   2.0000     -11.242633      -305.9276
  17   2.0000     -11.237840      -305.7972
  18   2.0000     -11.237727      -305.7941
  19   2.0000     -11.221421      -305.3504
  20   2.0000      -8.892968      -241.9900
  21   2.0000      -6.574546      -178.9025
  22   2.0000      -6.572539      -178.8479
  23   2.0000      -6.571955      -178.8320
  24   2.0000      -1.442647       -39.2564
  25   2.0000      -1.415938       -38.5296
  26   2.0000      -1.354407       -36.8553
  27   2.0000      -1.339019       -36.4366
  28   2.0000      -1.237494       -33.6739
  29   2.0000      -1.156923       -31.4815
  30   2.0000      -1.118827       -30.4448
  31   2.0000      -1.041831       -28.3497
  32   2.0000      -1.035800       -28.1855
  33   2.0000      -1.014642       -27.6098
  34   2.0000      -0.994432       -27.0599
  35   2.0000      -0.982723       -26.7412
  36   2.0000      -0.921551       -25.0767
  37   2.0000      -0.896601       -24.3977
  38   2.0000      -0.846457       -23.0333
  39   2.0000      -0.837476       -22.7889
  40   2.0000      -0.833592       -22.6832
  41   2.0000      -0.818536       -22.2735
  42   2.0000      -0.745578       -20.2882
  43   2.0000      -0.729979       -19.8637
  44   2.0000      -0.717885       -19.5346
  45   2.0000      -0.695222       -18.9180
  46   2.0000      -0.687312       -18.7027
  47   2.0000      -0.676841       -18.4178
  48   2.0000      -0.667788       -18.1714
  49   2.0000      -0.660460       -17.9720
  50   2.0000      -0.650395       -17.6982
  51   2.0000      -0.644114       -17.5272
  52   2.0000      -0.634691       -17.2708
  53   2.0000      -0.606522       -16.5043
  54   2.0000      -0.600239       -16.3333
  55   2.0000      -0.598342       -16.2817
  56   2.0000      -0.596450       -16.2302
  57   2.0000      -0.582512       -15.8509
  58   2.0000      -0.575350       -15.6561
  59   2.0000      -0.570041       -15.5116
  60   2.0000      -0.561511       -15.2795
  61   2.0000      -0.538454       -14.6521
  62   2.0000      -0.535039       -14.5592
  63   2.0000      -0.523997       -14.2587
  64   2.0000      -0.523211       -14.2373
  65   2.0000      -0.512232       -13.9385
  66   2.0000      -0.501341       -13.6422
  67   2.0000      -0.498466       -13.5639
  68   2.0000      -0.483822       -13.1655
  69   2.0000      -0.462953       -12.5976
  70   2.0000      -0.451747       -12.2927
  71   2.0000      -0.439235       -11.9522
  72   2.0000      -0.352965        -9.6047
  73   2.0000      -0.348889        -9.4938
  74   2.0000      -0.327386        -8.9086
  75   2.0000      -0.321029        -8.7356
  76   2.0000      -0.315147        -8.5756
  77   0.0000       0.077070         2.0972
  78   0.0000       0.107238         2.9181
  79   0.0000       0.125037         3.4024
  80   0.0000       0.133163         3.6235
  81   0.0000       0.138134         3.7588

MULLIKEN ATOMIC CHARGES
-----------------------
   0 C :   -0.282719
   1 C :    0.048223
   2 O :   -0.369924
   3 C :    0.457938
   4 O :   -0.430257
   5 C :   -0.202926
   6 C :    0.148459
   7 C :   -0.272749
   8 N :   -0.120727
   9 C :    0.212682
  10 S :   -0.441786
  11 N :   -0.204852
  12 C :    0.057471
  13 C :    0.069480
  14 C :   -0.192369
  15 C :   -0.130713
  16 C :   -0.280685
  17 C :    0.316583
  18 O :   -0.356472
  19 C :   -0.270002
  20 H :    0.113349
  21 H :    0.094878
  22 H :    0.103768
  23 H :    0.092952
  24 H :    0.095914
  25 H :    0.131756
  26 H :    0.130117
  27 H :    0.094941
  28 H :    0.197168
  29 H :    0.194365
  30 H :    0.148945
  31 H :    0.150934
  32 H :    0.160557
  33 H :    0.129998
  34 H :    0.240607
  35 H :    0.165094
Sum of atomic charges:   -0.0000000

LOEWDIN ATOMIC CHARGES
----------------------
   0 C :    0.102334
   1 C :   -0.009762
   2 O :    0.294380
   3 C :   -0.411918
   4 O :    0.108450
   5 C :   -0.093771
   6 C :   -0.059446
   7 C :    0.130570
   8 N :    0.406345
   9 C :   -0.456655
  10 S :   -0.036849
  11 N :    0.396367
  12 C :   -0.052725
  13 C :   -0.037802
  14 C :    0.014114
  15 C :    0.038490
  16 C :   -0.002687
  17 C :   -0.189548
  18 O :    0.395239
  19 C :    0.031199
  20 H :   -0.025796
  21 H :   -0.028866
  22 H :   -0.024908
  23 H :   -0.028580
  24 H :   -0.025839
  25 H :   -0.004974
  26 H :   -0.004404
  27 H :   -0.023671
  28 H :   -0.057789
  29 H :   -0.064793
  30 H :   -0.011349
  31 H :   -0.030373
  32 H :   -0.021508
  33 H :   -0.035760
  34 H :   -0.153994
  35 H :   -0.023721

  Mayer bond orders larger than 0.100000
B(  0-C ,  1-C ) :   0.9830 B(  0-C , 20-H ) :   0.9728 B(  0-C , 21-H ) :   0.9746
B(  0-C , 22-H ) :   0.9751 B(  1-C ,  2-O ) :   0.8946 B(  1-C , 23-H ) :   0.9723
B(  1-C , 24-H ) :   0.9811 B(  2-O ,  3-C ) :   1.1353 B(  3-C ,  4-O ) :   1.9771
B(  3-C ,  5-C ) :   1.0678 B(  5-C ,  6-C ) :   1.6556 B(  5-C , 12-C ) :   0.9759
B(  6-C ,  7-C ) :   0.9674 B(  6-C ,  8-N ) :   1.1609 B(  7-C , 25-H ) :   0.9600
B(  7-C , 26-H ) :   0.9607 B(  7-C , 27-H ) :   0.9910 B(  8-N ,  9-C ) :   1.1837
B(  8-N , 28-H ) :   0.9479 B(  9-C , 10-S ) :   1.6052 B(  9-C , 11-N ) :   1.3061
B( 11-N , 12-C ) :   0.9846 B( 11-N , 29-H ) :   0.9516 B( 12-C , 13-C ) :   0.9358
B( 12-C , 30-H ) :   1.0024 B( 13-C , 14-C ) :   1.3516 B( 13-C , 19-C ) :   1.3840
B( 14-C , 15-C ) :   1.3909 B( 14-C , 31-H ) :   0.9724 B( 15-C , 16-C ) :   1.3626
B( 15-C , 32-H ) :   0.9707 B( 16-C , 17-C ) :   1.3314 B( 16-C , 33-H ) :   0.9852
B( 17-C , 18-O ) :   1.1103 B( 17-C , 19-C ) :   1.3716 B( 18-O , 34-H ) :   0.9799
B( 19-C , 35-H ) :   0.9583

MP2 TOTAL ENERGY:    -1274.338564057 Eh
FINAL SINGLE POINT ENERGY     -1274.338564057266

DIPOLE MOMENT
-------------
                                X             Y             Z
Electronic contribution:     10.08074      10.10421       9.21509
Nuclear contribution   :    -11.10460     -11.89812      -9.55384
                        -----------------------------------------
Total Dipole Moment    :     -1.02386      -1.79391      -0.33875
                        -----------------------------------------
Magnitude (a.u.)       :      2.09312
Magnitude (Debye)      :      5.32029

Rotational constants in cm-1:     0.011433     0.008715     0.006068
Rotational constants in MHz :   342.757223   261.271806   181.906944

                             ****ORCA TERMINATED NORMALLY****
TOTAL RUN TIME: 0 days 2 hours 7 minutes 2 seconds 200 msec
