                         Program Version 5.0.0 -  RELEASE  -
|  1> ! ri-mp2 cc-pvtz cc-pvtz/c TightSCF NoKeepInts
|  2>
|  3> %scf
|  4>   MaxCore 4096
|  5> end
|  6> *xyz  0  1
|  7>     C       15.7970256   14.0151236   14.6740250
|  8>     C       15.0290571   14.9481152   15.6371889
|  9>     O       15.8816476   15.9579304   16.2232482
| 10>     C       17.0399712   15.6762678   16.8959347
| 11>     O       17.4598379   14.5427324   17.0564321
| 12>     C       17.5964550   16.8403323   17.6674690
| 13>     C       17.3012925   18.1466577   17.4333756
| 14>     C       16.3876172   18.7243964   16.3715346
| 15>     N       17.9357550   19.1461504   18.1789635
| 16>     C       18.9749254   18.9371495   19.0465628
| 17>     S       19.7608899   20.1916527   19.7842904
| 18>     N       19.3298501   17.6313732   19.2699051
| 19>     C       18.5773800   16.4599255   18.7834049
| 20>     C       17.8558234   15.7720135   19.9397121
| 21>     C       18.0537781   14.4010967   20.1879027
| 22>     C       17.3918315   13.7618449   21.2495606
| 23>     C       16.5232380   14.4990942   22.0720960
| 24>     C       16.3201071   15.8637948   21.8263252
| 25>     O       15.4773421   16.5771446   22.6152234
| 26>     C       16.9800941   16.4971790   20.7686252
| 27>     H       16.4610822   14.5911935   14.0179794
| 28>     H       15.0914477   13.4624408   14.0421621
| 29>     H       16.3957769   13.2737135   15.2162656
| 30>     H       14.2216425   15.4465280   15.0856922
| 31>     H       14.5685907   14.3447062   16.4308487
| 32>     H       15.3388273   18.4947805   16.5976381
| 33>     H       16.6215914   18.3046613   15.3853027
| 34>     H       16.4749411   19.8142086   16.2847564
| 35>     H       17.6890386   20.1113296   18.0292260
| 36>     H       20.0777774   17.5013242   19.9388886
| 37>     H       19.3050871   15.7510089   18.3626434
| 38>     H       18.7114776   13.8246758   19.5418397
| 39>     H       17.5489109   12.6993772   21.4262334
| 40>     H       16.0084429   14.0089567   22.8915975
| 41>     H       15.1475601   15.9782744   23.3017120
| 42>     H       16.8108867   17.5548463   20.5994340
| 43> *
| 44>
| 45>                          ****END OF INPUT****

CARTESIAN COORDINATES (ANGSTROEM)
---------------------------------
  C     15.797026   14.015124   14.674025
  C     15.029057   14.948115   15.637189
  O     15.881648   15.957930   16.223248
  C     17.039971   15.676268   16.895935
  O     17.459838   14.542732   17.056432
  C     17.596455   16.840332   17.667469
  C     17.301292   18.146658   17.433376
  C     16.387617   18.724396   16.371535
  N     17.935755   19.146150   18.178963
  C     18.974925   18.937150   19.046563
  S     19.760890   20.191653   19.784290
  N     19.329850   17.631373   19.269905
  C     18.577380   16.459926   18.783405
  C     17.855823   15.772013   19.939712
  C     18.053778   14.401097   20.187903
  C     17.391831   13.761845   21.249561
  C     16.523238   14.499094   22.072096
  C     16.320107   15.863795   21.826325
  O     15.477342   16.577145   22.615223
  C     16.980094   16.497179   20.768625
  H     16.461082   14.591193   14.017979
  H     15.091448   13.462441   14.042162
  H     16.395777   13.273713   15.216266
  H     14.221642   15.446528   15.085692
  H     14.568591   14.344706   16.430849
  H     15.338827   18.494781   16.597638
  H     16.621591   18.304661   15.385303
  H     16.474941   19.814209   16.284756
  H     17.689039   20.111330   18.029226
  H     20.077777   17.501324   19.938889
  H     19.305087   15.751009   18.362643
  H     18.711478   13.824676   19.541840
  H     17.548911   12.699377   21.426233
  H     16.008443   14.008957   22.891597
  H     15.147560   15.978274   23.301712
  H     16.810887   17.554846   20.599434

 Total Charge           Charge          ....    0
 Multiplicity           Mult            ....    1
 Number of Electrons    NEL             ....  154
 Basis Dimension        Dim             ....  828

ORBITAL ENERGIES
----------------

  NO   OCC          E(Eh)            E(eV)
   0   2.0000     -91.887433     -2500.3842
   1   2.0000     -20.602557      -560.6241
   2   2.0000     -20.590648      -560.3000
   3   2.0000     -20.545522      -559.0721
   4   2.0000     -15.627526      -425.2466
   5   2.0000     -15.606047      -424.6621
   6   2.0000     -11.397608      -310.1447
   7   2.0000     -11.382261      -309.7271
   8   2.0000     -11.335197      -308.4464
   9   2.0000     -11.306440      -307.6639
  10   2.0000     -11.304888      -307.6216
  11   2.0000     -11.304372      -307.6076
  12   2.0000     -11.259981      -306.3996
  13   2.0000     -11.258298      -306.3539
  14   2.0000     -11.252441      -306.1945
  15   2.0000     -11.246654      -306.0370
  16   2.0000     -11.236262      -305.7542
  17   2.0000     -11.232324      -305.6471
  18   2.0000     -11.229405      -305.5676
  19   2.0000     -11.224761      -305.4413
  20   2.0000      -8.892502      -241.9773
  21   2.0000      -6.574080      -178.8898
  22   2.0000      -6.572073      -178.8352
  23   2.0000      -6.571488      -178.8193
  24   2.0000      -1.450293       -39.4645
  25   2.0000      -1.410378       -38.3783
  26   2.0000      -1.357519       -36.9400
  27   2.0000      -1.338608       -36.4254
  28   2.0000      -1.236225       -33.6394
  29   2.0000      -1.151050       -31.3217
  30   2.0000      -1.118509       -30.4362
  31   2.0000      -1.041392       -28.3377
  32   2.0000      -1.034021       -28.1371
  33   2.0000      -1.008433       -27.4409
  34   2.0000      -0.996330       -27.1115
  35   2.0000      -0.981902       -26.7189
  36   2.0000      -0.920710       -25.0538
  37   2.0000      -0.895754       -24.3747
  38   2.0000      -0.847249       -23.0548
  39   2.0000      -0.834841       -22.7172
  40   2.0000      -0.826874       -22.5004
  41   2.0000      -0.816982       -22.2312
  42   2.0000      -0.747727       -20.3467
  43   2.0000      -0.731243       -19.8981
  44   2.0000      -0.723977       -19.7004
  45   2.0000      -0.690097       -18.7785
  46   2.0000      -0.684240       -18.6191
  47   2.0000      -0.678881       -18.4733
  48   2.0000      -0.670106       -18.2345
  49   2.0000      -0.663436       -18.0530
  50   2.0000      -0.645312       -17.5598
  51   2.0000      -0.641484       -17.4557
  52   2.0000      -0.632585       -17.2135
  53   2.0000      -0.609036       -16.5727
  54   2.0000      -0.599159       -16.3039
  55   2.0000      -0.598390       -16.2830
  56   2.0000      -0.593768       -16.1573
  57   2.0000      -0.585869       -15.9423
  58   2.0000      -0.571934       -15.5631
  59   2.0000      -0.566875       -15.4254
  60   2.0000      -0.559451       -15.2234
  61   2.0000      -0.544180       -14.8079
  62   2.0000      -0.535978       -14.5847
  63   2.0000      -0.521904       -14.2017
  64   2.0000      -0.516274       -14.0485
  65   2.0000      -0.510989       -13.9047
  66   2.0000      -0.501081       -13.6351
  67   2.0000      -0.494721       -13.4620
  68   2.0000      -0.479628       -13.0513
  69   2.0000      -0.461689       -12.5632
  70   2.0000      -0.456839       -12.4312
  71   2.0000      -0.449909       -12.2426
  72   2.0000      -0.353437        -9.6175
  73   2.0000      -0.342968        -9.3326
  74   2.0000      -0.326572        -8.8865
  75   2.0000      -0.314865        -8.5679
  76   2.0000      -0.312832        -8.5126
  77   0.0000       0.077103         2.0981
  78   0.0000       0.114372         3.1122
  79   0.0000       0.121103         3.2954
  80   0.0000       0.136752         3.7212
  81   0.0000       0.140827         3.8321

MULLIKEN ATOMIC CHARGES
-----------------------
   0 C :   -0.305578
   1 C :    0.047101
   2 O :   -0.348583
   3 C :    0.445178
   4 O :   -0.434689
   5 C :   -0.158116
   6 C :    0.141442
   7 C :   -0.285667
   8 N :   -0.120818
   9 C :    0.201153
  10 S :   -0.440214
  11 N :   -0.196139
  12 C :    0.032642
  13 C :    0.058027
  14 C :   -0.161254
  15 C :   -0.134082
  16 C :   -0.278906
  17 C :    0.311538
  18 O :   -0.359114
  19 C :   -0.270569
  20 H :    0.091004
  21 H :    0.096565
  22 H :    0.129895
  23 H :    0.102732
  24 H :    0.095315
  25 H :    0.129173
  26 H :    0.123415
  27 H :    0.102107
  28 H :    0.196609
  29 H :    0.193137
  30 H :    0.153452
  31 H :    0.152925
  32 H :    0.158560
  33 H :    0.127642
  34 H :    0.239853
  35 H :    0.164265
Sum of atomic charges:   -0.0000000

LOEWDIN ATOMIC CHARGES
----------------------
   0 C :    0.103775
   1 C :   -0.011587
   2 O :    0.298804
   3 C :   -0.412961
   4 O :    0.109408
   5 C :   -0.089846
   6 C :   -0.066169
   7 C :    0.124581
   8 N :    0.404615
   9 C :   -0.459052
  10 S :   -0.036703
  11 N :    0.397834
  12 C :   -0.046329
  13 C :   -0.038523
  14 C :    0.021723
  15 C :    0.040664
  16 C :   -0.002376
  17 C :   -0.192361
  18 O :    0.393014
  19 C :    0.028948
  20 H :   -0.029294
  21 H :   -0.028345
  22 H :   -0.025372
  23 H :   -0.024960
  24 H :   -0.027397
  25 H :   -0.009358
  26 H :   -0.009499
  27 H :   -0.021150
  28 H :   -0.059319
  29 H :   -0.063730
  30 H :   -0.005299
  31 H :   -0.025591
  32 H :   -0.021444
  33 H :   -0.036538
  34 H :   -0.155067
  35 H :   -0.025096

  Mayer bond orders larger than 0.100000
B(  0-C ,  1-C ) :   0.9667 B(  0-C , 20-H ) :   0.9759 B(  0-C , 21-H ) :   0.9775
B(  0-C , 22-H ) :   0.9708 B(  1-C ,  2-O ) :   0.9061 B(  1-C , 23-H ) :   0.9842
B(  1-C , 24-H ) :   0.9796 B(  2-O ,  3-C ) :   1.1578 B(  3-C ,  4-O ) :   1.9573
B(  3-C ,  5-C ) :   1.0626 B(  5-C ,  6-C ) :   1.6450 B(  5-C , 12-C ) :   0.9656
B(  6-C ,  7-C ) :   0.9553 B(  6-C ,  8-N ) :   1.1495 B(  7-C , 25-H ) :   0.9628
B(  7-C , 26-H ) :   0.9665 B(  7-C , 27-H ) :   0.9918 B(  8-N ,  9-C ) :   1.1785
B(  8-N , 28-H ) :   0.9492 B(  9-C , 10-S ) :   1.6101 B(  9-C , 11-N ) :   1.3040
B( 11-N , 12-C ) :   0.9943 B( 11-N , 29-H ) :   0.9520 B( 12-C , 13-C ) :   0.9474
B( 12-C , 30-H ) :   1.0000 B( 13-C , 14-C ) :   1.3752 B( 13-C , 19-C ) :   1.3702
B( 14-C , 15-C ) :   1.3948 B( 14-C , 31-H ) :   0.9652 B( 15-C , 16-C ) :   1.3628
B( 15-C , 32-H ) :   0.9715 B( 16-C , 17-C ) :   1.3314 B( 16-C , 33-H ) :   0.9861
B( 17-C , 18-O ) :   1.1079 B( 17-C , 19-C ) :   1.3795 B( 18-O , 34-H ) :   0.9808
B( 19-C , 35-H ) :   0.9584

MP2 TOTAL ENERGY:    -1274.342626881 Eh
FINAL SINGLE POINT ENERGY     -1274.342626881481

DIPOLE MOMENT
-------------
                                X             Y             Z
Electronic contribution:      9.55524       9.64721      11.83995
Nuclear contribution   :    -11.23311     -10.78205     -12.83254
                        -----------------------------------------
Total Dipole Moment    :     -1.67787      -1.13484      -0.99259
                        -----------------------------------------
Magnitude (a.u.)       :      2.25574
Magnitude (Debye)      :      5.73363

Rotational constants in cm-1:     0.010572     0.008831     0.005785
Rotational constants in MHz :   316.938083   264.740381   173.418260

                             ****ORCA TERMINATED NORMALLY****
TOTAL RUN TIME: 0 days 1 hours 53 minutes 54 seconds 722 msec
