                         Program Version 5.0.0 -  RELEASE  -
|  1> ! ri-mp2 cc-pvtz cc-pvtz/c TightSCF NoKeepInts
|  2>
|  3> %scf
|  4>   MaxCore 4096
|  5> end
|  6> *xyz  0  1
|  7>     C       14.9679570   15.7702043   17.1257360
|  8>     C       15.9098345   14.5482131   17.0516848
|  9>     O       17.1312009   14.7936085   16.3107623
| 10>     C       17.8473619   15.9589283   16.1852697
| 11>     O       18.3851235   16.2213205   15.1256656
| 12>     C       17.8127757   16.9578236   17.2989888
| 13>     C       17.4276929   18.2328820   17.0566887
| 14>     C       16.8410617   18.7640781   15.7670208
| 15>     N       17.5923725   19.2162047   18.0340109
| 16>     C       18.2833526   19.0402046   19.2030661
| 17>     S       18.5139561   20.2767574   20.2764262
| 18>     N       18.7805067   17.7827890   19.4398363
| 19>     C       18.5190916   16.5870443   18.6139181
| 20>     C       17.8173654   15.5279617   19.4535309
| 21>     C       18.3348183   14.2200533   19.5181163
| 22>     C       17.7040509   13.2400729   20.3030153
| 23>     C       16.5507584   13.5709477   21.0348142
| 24>     C       16.0400466   14.8749867   20.9834103
| 25>     O       14.9259756   15.1975166   21.6865416
| 26>     C       16.6697045   15.8487605   20.2019398
| 27>     H       15.3107630   16.5204043   17.8442488
| 28>     H       13.9725928   15.4480534   17.4553368
| 29>     H       14.8548745   16.2370203   16.1400604
| 30>     H       16.1295361   14.1945368   18.0625878
| 31>     H       15.3760886   13.7293170   16.5523450
| 32>     H       16.2449696   18.0025006   15.2506143
| 33>     H       17.6444106   19.0616466   15.0805460
| 34>     H       16.1913629   19.6319834   15.9307792
| 35>     H       17.2625342   20.1526087   17.8607865
| 36>     H       19.2691038   17.6822818   20.3207391
| 37>     H       19.4997587   16.1777517   18.3316488
| 38>     H       19.2250622   13.9584131   18.9512190
| 39>     H       18.1096206   12.2301403   20.3425528
| 40>     H       16.0604970   12.8165452   21.6418159
| 41>     H       14.6779353   14.4236366   22.2150108
| 42>     H       16.2628828   16.8548022   20.1832661
| 43> *
| 44>
| 45>                          ****END OF INPUT****

CARTESIAN COORDINATES (ANGSTROEM)
---------------------------------
  C     14.967957   15.770204   17.125736
  C     15.909835   14.548213   17.051685
  O     17.131201   14.793608   16.310762
  C     17.847362   15.958928   16.185270
  O     18.385123   16.221321   15.125666
  C     17.812776   16.957824   17.298989
  C     17.427693   18.232882   17.056689
  C     16.841062   18.764078   15.767021
  N     17.592372   19.216205   18.034011
  C     18.283353   19.040205   19.203066
  S     18.513956   20.276757   20.276426
  N     18.780507   17.782789   19.439836
  C     18.519092   16.587044   18.613918
  C     17.817365   15.527962   19.453531
  C     18.334818   14.220053   19.518116
  C     17.704051   13.240073   20.303015
  C     16.550758   13.570948   21.034814
  C     16.040047   14.874987   20.983410
  O     14.925976   15.197517   21.686542
  C     16.669705   15.848760   20.201940
  H     15.310763   16.520404   17.844249
  H     13.972593   15.448053   17.455337
  H     14.854874   16.237020   16.140060
  H     16.129536   14.194537   18.062588
  H     15.376089   13.729317   16.552345
  H     16.244970   18.002501   15.250614
  H     17.644411   19.061647   15.080546
  H     16.191363   19.631983   15.930779
  H     17.262534   20.152609   17.860786
  H     19.269104   17.682282   20.320739
  H     19.499759   16.177752   18.331649
  H     19.225062   13.958413   18.951219
  H     18.109621   12.230140   20.342553
  H     16.060497   12.816545   21.641816
  H     14.677935   14.423637   22.215011
  H     16.262883   16.854802   20.183266

 Total Charge           Charge          ....    0
 Multiplicity           Mult            ....    1
 Number of Electrons    NEL             ....  154
 Basis Dimension        Dim             ....  828

ORBITAL ENERGIES
----------------

  NO   OCC          E(Eh)            E(eV)
   0   2.0000     -91.890079     -2500.4562
   1   2.0000     -20.606021      -560.7183
   2   2.0000     -20.591516      -560.3236
   3   2.0000     -20.548767      -559.1604
   4   2.0000     -15.626466      -425.2178
   5   2.0000     -15.611986      -424.8237
   6   2.0000     -11.396069      -310.1028
   7   2.0000     -11.385925      -309.8268
   8   2.0000     -11.327334      -308.2324
   9   2.0000     -11.324519      -308.1558
  10   2.0000     -11.319475      -308.0186
  11   2.0000     -11.301337      -307.5250
  12   2.0000     -11.270060      -306.6739
  13   2.0000     -11.265452      -306.5485
  14   2.0000     -11.259248      -306.3797
  15   2.0000     -11.256305      -306.2996
  16   2.0000     -11.254441      -306.2489
  17   2.0000     -11.248865      -306.0972
  18   2.0000     -11.248821      -306.0960
  19   2.0000     -11.233025      -305.6662
  20   2.0000      -8.895173      -242.0500
  21   2.0000      -6.576757      -178.9626
  22   2.0000      -6.574738      -178.9077
  23   2.0000      -6.574159      -178.8920
  24   2.0000      -1.440694       -39.2033
  25   2.0000      -1.425813       -38.7983
  26   2.0000      -1.353501       -36.8306
  27   2.0000      -1.340110       -36.4662
  28   2.0000      -1.240901       -33.7666
  29   2.0000      -1.167464       -31.7683
  30   2.0000      -1.123951       -30.5843
  31   2.0000      -1.051448       -28.6114
  32   2.0000      -1.035286       -28.1716
  33   2.0000      -1.025722       -27.9113
  34   2.0000      -1.003554       -27.3081
  35   2.0000      -0.989188       -26.9172
  36   2.0000      -0.928890       -25.2764
  37   2.0000      -0.898875       -24.4596
  38   2.0000      -0.851542       -23.1716
  39   2.0000      -0.844969       -22.9928
  40   2.0000      -0.844663       -22.9844
  41   2.0000      -0.829041       -22.5593
  42   2.0000      -0.749624       -20.3983
  43   2.0000      -0.739595       -20.1254
  44   2.0000      -0.720672       -19.6105
  45   2.0000      -0.704978       -19.1834
  46   2.0000      -0.692494       -18.8437
  47   2.0000      -0.678633       -18.4665
  48   2.0000      -0.675351       -18.3772
  49   2.0000      -0.661665       -18.0048
  50   2.0000      -0.654647       -17.8139
  51   2.0000      -0.650197       -17.6927
  52   2.0000      -0.638967       -17.3872
  53   2.0000      -0.621379       -16.9086
  54   2.0000      -0.614999       -16.7350
  55   2.0000      -0.608583       -16.5604
  56   2.0000      -0.604407       -16.4468
  57   2.0000      -0.584625       -15.9085
  58   2.0000      -0.578323       -15.7370
  59   2.0000      -0.568067       -15.4579
  60   2.0000      -0.563342       -15.3293
  61   2.0000      -0.551623       -15.0104
  62   2.0000      -0.540041       -14.6953
  63   2.0000      -0.535057       -14.5596
  64   2.0000      -0.530008       -14.4222
  65   2.0000      -0.517427       -14.0799
  66   2.0000      -0.506461       -13.7815
  67   2.0000      -0.498908       -13.5760
  68   2.0000      -0.486907       -13.2494
  69   2.0000      -0.467689       -12.7265
  70   2.0000      -0.451132       -12.2759
  71   2.0000      -0.445716       -12.1286
  72   2.0000      -0.359637        -9.7862
  73   2.0000      -0.352644        -9.5959
  74   2.0000      -0.333817        -9.0836
  75   2.0000      -0.329133        -8.9562
  76   2.0000      -0.318080        -8.6554
  77   0.0000       0.082495         2.2448
  78   0.0000       0.097364         2.6494
  79   0.0000       0.119006         3.2383
  80   0.0000       0.125958         3.4275
  81   0.0000       0.129904         3.5349

MULLIKEN ATOMIC CHARGES
-----------------------
   0 C :   -0.343281
   1 C :    0.035265
   2 O :   -0.328703
   3 C :    0.393797
   4 O :   -0.369183
   5 C :   -0.223421
   6 C :    0.150316
   7 C :   -0.287436
   8 N :   -0.127857
   9 C :    0.203841
  10 S :   -0.439920
  11 N :   -0.206118
  12 C :    0.061962
  13 C :    0.007672
  14 C :   -0.173131
  15 C :   -0.133933
  16 C :   -0.273232
  17 C :    0.318739
  18 O :   -0.355183
  19 C :   -0.278717
  20 H :    0.112306
  21 H :    0.122940
  22 H :    0.110555
  23 H :    0.101808
  24 H :    0.127052
  25 H :    0.117689
  26 H :    0.146747
  27 H :    0.098089
  28 H :    0.197361
  29 H :    0.196150
  30 H :    0.160675
  31 H :    0.151941
  32 H :    0.164483
  33 H :    0.135428
  34 H :    0.242300
  35 H :    0.182998
Sum of atomic charges:   -0.0000000

LOEWDIN ATOMIC CHARGES
----------------------
   0 C :    0.103333
   1 C :   -0.012636
   2 O :    0.292726
   3 C :   -0.420325
   4 O :    0.128793
   5 C :   -0.086840
   6 C :   -0.084235
   7 C :    0.129804
   8 N :    0.404431
   9 C :   -0.457020
  10 S :   -0.036636
  11 N :    0.397007
  12 C :   -0.052563
  13 C :   -0.045456
  14 C :    0.016802
  15 C :    0.043612
  16 C :    0.001022
  17 C :   -0.192384
  18 O :    0.397966
  19 C :    0.033752
  20 H :   -0.037265
  21 H :   -0.021150
  22 H :   -0.030009
  23 H :   -0.034528
  24 H :   -0.021403
  25 H :   -0.011652
  26 H :   -0.003088
  27 H :   -0.020528
  28 H :   -0.057659
  29 H :   -0.064210
  30 H :   -0.007597
  31 H :   -0.026949
  32 H :   -0.018216
  33 H :   -0.032994
  34 H :   -0.151849
  35 H :   -0.022053

  Mayer bond orders larger than 0.100000
B(  0-C ,  1-C ) :   0.9576 B(  0-C , 20-H ) :   0.9693 B(  0-C , 21-H ) :   0.9763
B(  0-C , 22-H ) :   0.9757 B(  1-C ,  2-O ) :   0.9048 B(  1-C , 23-H ) :   0.9673
B(  1-C , 24-H ) :   0.9836 B(  2-O ,  3-C ) :   1.1921 B(  3-C ,  4-O ) :   2.1133
B(  3-C ,  5-C ) :   0.9137 B(  5-C ,  6-C ) :   1.7160 B(  5-C , 12-C ) :   0.9553
B(  6-C ,  7-C ) :   0.9529 B(  6-C ,  8-N ) :   1.1253 B(  7-C , 25-H ) :   0.9747
B(  7-C , 26-H ) :   0.9590 B(  7-C , 27-H ) :   0.9823 B(  8-N ,  9-C ) :   1.1977
B(  8-N , 28-H ) :   0.9505 B(  9-C , 10-S ) :   1.6130 B(  9-C , 11-N ) :   1.2822
B( 11-N , 12-C ) :   0.9981 B( 11-N , 29-H ) :   0.9496 B( 12-C , 13-C ) :   0.9324
B( 12-C , 30-H ) :   1.0070 B( 13-C , 14-C ) :   1.3690 B( 13-C , 19-C ) :   1.3539
B( 14-C , 15-C ) :   1.3976 B( 14-C , 31-H ) :   0.9709 B( 15-C , 16-C ) :   1.3635
B( 15-C , 32-H ) :   0.9701 B( 16-C , 17-C ) :   1.3266 B( 16-C , 33-H ) :   0.9834
B( 17-C , 18-O ) :   1.1144 B( 17-C , 19-C ) :   1.3640 B( 18-O , 34-H ) :   0.9784
B( 19-C , 35-H ) :   0.9522

MP2 TOTAL ENERGY:    -1274.324940465 Eh
FINAL SINGLE POINT ENERGY     -1274.324940464782

DIPOLE MOMENT
-------------
                                X             Y             Z
Electronic contribution:      9.34460       6.10495       5.66687
Nuclear contribution   :    -10.70661      -7.78159      -5.29147
                        -----------------------------------------
Total Dipole Moment    :     -1.36201      -1.67663       0.37539
                        -----------------------------------------
Magnitude (a.u.)       :      2.19251
Magnitude (Debye)      :      5.57292

Rotational constants in cm-1:     0.012238     0.009470     0.006651
Rotational constants in MHz :   366.883934   283.901776   199.396914

                             ****ORCA TERMINATED NORMALLY****
TOTAL RUN TIME: 0 days 2 hours 13 minutes 55 seconds 189 msec
