                         Program Version 5.0.0 -  RELEASE  -
|  1> ! ri-mp2 cc-pvtz cc-pvtz/c TightSCF NoKeepInts
|  2>
|  3> %scf
|  4>   MaxCore 4096
|  5> end
|  6> *xyz  0  1
|  7>     C       15.1264045   15.2719354   17.5444301
|  8>     C       15.5666344   15.4265063   16.0769212
|  9>     O       16.9547278   15.0632069   15.9019538
| 10>     C       18.0733917   15.6149177   16.4848808
| 11>     O       19.1044274   14.9682513   16.5062924
| 12>     C       17.9142272   16.8111002   17.3704586
| 13>     C       17.4140665   17.9923066   16.9336065
| 14>     C       16.9893057   18.3498841   15.5249273
| 15>     N       17.3978790   19.1004359   17.7835387
| 16>     C       18.0051397   19.1527164   19.0102057
| 17>     S       18.0138127   20.5351471   19.9172246
| 18>     N       18.6139589   18.0019119   19.4439318
| 19>     C       18.5478521   16.6930469   18.7635466
| 20>     C       17.8520099   15.6450449   19.6318331
| 21>     C       18.2916003   14.3081772   19.6047634
| 22>     C       17.6608284   13.3273665   20.3877298
| 23>     C       16.5800182   13.6838823   21.2111206
| 24>     C       16.1398074   15.0133885   21.2463505
| 25>     O       15.0910535   15.3600624   22.0340177
| 26>     C       16.7699038   15.9882370   20.4661803
| 27>     H       15.5855035   14.3864914   18.0030905
| 28>     H       14.0374144   15.1565365   17.6038422
| 29>     H       15.3910163   16.1563302   18.1323891
| 30>     H       14.9662385   14.7368269   15.4693608
| 31>     H       15.3445229   16.4338925   15.7181589
| 32>     H       17.1831530   17.5413060   14.8097268
| 33>     H       17.5514727   19.2207532   15.1634542
| 34>     H       15.9228865   18.6024187   15.4806846
| 35>     H       16.9811726   19.9637535   17.4720403
| 36>     H       19.0465225   18.0654357   20.3569571
| 37>     H       19.5845952   16.3542866   18.6187270
| 38>     H       19.1234221   14.0244967   18.9632781
| 39>     H       18.0097443   12.2967098   20.3505665
| 40>     H       16.0886112   12.9287013   21.8156246
| 41>     H       14.8207931   14.5682234   22.5230728
| 42>     H       16.4028817   17.0083121   20.5091134
| 43> *
| 44>
| 45>                          ****END OF INPUT****

CARTESIAN COORDINATES (ANGSTROEM)
---------------------------------
  C     15.126404   15.271935   17.544430
  C     15.566634   15.426506   16.076921
  O     16.954728   15.063207   15.901954
  C     18.073392   15.614918   16.484881
  O     19.104427   14.968251   16.506292
  C     17.914227   16.811100   17.370459
  C     17.414067   17.992307   16.933606
  C     16.989306   18.349884   15.524927
  N     17.397879   19.100436   17.783539
  C     18.005140   19.152716   19.010206
  S     18.013813   20.535147   19.917225
  N     18.613959   18.001912   19.443932
  C     18.547852   16.693047   18.763547
  C     17.852010   15.645045   19.631833
  C     18.291600   14.308177   19.604763
  C     17.660828   13.327366   20.387730
  C     16.580018   13.683882   21.211121
  C     16.139807   15.013388   21.246350
  O     15.091053   15.360062   22.034018
  C     16.769904   15.988237   20.466180
  H     15.585503   14.386491   18.003090
  H     14.037414   15.156536   17.603842
  H     15.391016   16.156330   18.132389
  H     14.966238   14.736827   15.469361
  H     15.344523   16.433892   15.718159
  H     17.183153   17.541306   14.809727
  H     17.551473   19.220753   15.163454
  H     15.922887   18.602419   15.480685
  H     16.981173   19.963753   17.472040
  H     19.046522   18.065436   20.356957
  H     19.584595   16.354287   18.618727
  H     19.123422   14.024497   18.963278
  H     18.009744   12.296710   20.350566
  H     16.088611   12.928701   21.815625
  H     14.820793   14.568223   22.523073
  H     16.402882   17.008312   20.509113

 Total Charge           Charge          ....    0
 Multiplicity           Mult            ....    1
 Number of Electrons    NEL             ....  154
 Basis Dimension        Dim             ....  828

ORBITAL ENERGIES
----------------

  NO   OCC          E(Eh)            E(eV)
   0   2.0000     -91.890884     -2500.4781
   1   2.0000     -20.600172      -560.5592
   2   2.0000     -20.597469      -560.4856
   3   2.0000     -20.548870      -559.1632
   4   2.0000     -15.628604      -425.2759
   5   2.0000     -15.611550      -424.8119
   6   2.0000     -11.401007      -310.2372
   7   2.0000     -11.387253      -309.8629
   8   2.0000     -11.333530      -308.4010
   9   2.0000     -11.314540      -307.8843
  10   2.0000     -11.314066      -307.8714
  11   2.0000     -11.308155      -307.7105
  12   2.0000     -11.271249      -306.7063
  13   2.0000     -11.268776      -306.6390
  14   2.0000     -11.261902      -306.4519
  15   2.0000     -11.254413      -306.2481
  16   2.0000     -11.243778      -305.9587
  17   2.0000     -11.239366      -305.8387
  18   2.0000     -11.235885      -305.7440
  19   2.0000     -11.228014      -305.5298
  20   2.0000      -8.895989      -242.0722
  21   2.0000      -6.577577      -178.9850
  22   2.0000      -6.575550      -178.9298
  23   2.0000      -6.574973      -178.9141
  24   2.0000      -1.445576       -39.3361
  25   2.0000      -1.417287       -38.5664
  26   2.0000      -1.358029       -36.9538
  27   2.0000      -1.342125       -36.5211
  28   2.0000      -1.241090       -33.7718
  29   2.0000      -1.158849       -31.5339
  30   2.0000      -1.125517       -30.6269
  31   2.0000      -1.047776       -28.5114
  32   2.0000      -1.038388       -28.2560
  33   2.0000      -1.017350       -27.6835
  34   2.0000      -1.006144       -27.3786
  35   2.0000      -0.990368       -26.9493
  36   2.0000      -0.928163       -25.2566
  37   2.0000      -0.896105       -24.3843
  38   2.0000      -0.855709       -23.2850
  39   2.0000      -0.840993       -22.8846
  40   2.0000      -0.834292       -22.7022
  41   2.0000      -0.830254       -22.5924
  42   2.0000      -0.747495       -20.3404
  43   2.0000      -0.740729       -20.1563
  44   2.0000      -0.730431       -19.8760
  45   2.0000      -0.695407       -18.9230
  46   2.0000      -0.687395       -18.7050
  47   2.0000      -0.680025       -18.5044
  48   2.0000      -0.675568       -18.3831
  49   2.0000      -0.662343       -18.0233
  50   2.0000      -0.653183       -17.7740
  51   2.0000      -0.648763       -17.6537
  52   2.0000      -0.639478       -17.4011
  53   2.0000      -0.620809       -16.8931
  54   2.0000      -0.610970       -16.6253
  55   2.0000      -0.605868       -16.4865
  56   2.0000      -0.601660       -16.3720
  57   2.0000      -0.590058       -16.0563
  58   2.0000      -0.577706       -15.7202
  59   2.0000      -0.569363       -15.4932
  60   2.0000      -0.565987       -15.4013
  61   2.0000      -0.554605       -15.0916
  62   2.0000      -0.538443       -14.6518
  63   2.0000      -0.534494       -14.5443
  64   2.0000      -0.519776       -14.1438
  65   2.0000      -0.512898       -13.9567
  66   2.0000      -0.501870       -13.6566
  67   2.0000      -0.501166       -13.6374
  68   2.0000      -0.482745       -13.1362
  69   2.0000      -0.467138       -12.7115
  70   2.0000      -0.455352       -12.3907
  71   2.0000      -0.450443       -12.2572
  72   2.0000      -0.358692        -9.7605
  73   2.0000      -0.348151        -9.4737
  74   2.0000      -0.330465        -8.9924
  75   2.0000      -0.322982        -8.7888
  76   2.0000      -0.319572        -8.6960
  77   0.0000       0.082266         2.2386
  78   0.0000       0.107482         2.9247
  79   0.0000       0.112788         3.0691
  80   0.0000       0.130183         3.5425
  81   0.0000       0.131111         3.5677

MULLIKEN ATOMIC CHARGES
-----------------------
   0 C :   -0.325712
   1 C :    0.019673
   2 O :   -0.322362
   3 C :    0.424717
   4 O :   -0.386628
   5 C :   -0.238537
   6 C :    0.167613
   7 C :   -0.332729
   8 N :   -0.138445
   9 C :    0.203094
  10 S :   -0.440077
  11 N :   -0.227013
  12 C :    0.095618
  13 C :    0.017672
  14 C :   -0.216187
  15 C :   -0.136634
  16 C :   -0.277665
  17 C :    0.323961
  18 O :   -0.358121
  19 C :   -0.273242
  20 H :    0.128108
  21 H :    0.113921
  22 H :    0.107426
  23 H :    0.130374
  24 H :    0.087688
  25 H :    0.129088
  26 H :    0.142725
  27 H :    0.119959
  28 H :    0.196508
  29 H :    0.202953
  30 H :    0.167206
  31 H :    0.177858
  32 H :    0.164342
  33 H :    0.131842
  34 H :    0.241020
  35 H :    0.179986
Sum of atomic charges:   -0.0000000

LOEWDIN ATOMIC CHARGES
----------------------
   0 C :    0.104177
   1 C :   -0.020551
   2 O :    0.299693
   3 C :   -0.413743
   4 O :    0.121963
   5 C :   -0.078634
   6 C :   -0.097291
   7 C :    0.121362
   8 N :    0.402491
   9 C :   -0.458492
  10 S :   -0.036956
  11 N :    0.398303
  12 C :   -0.042112
  13 C :   -0.042116
  14 C :    0.020051
  15 C :    0.042764
  16 C :   -0.001545
  17 C :   -0.192968
  18 O :    0.395326
  19 C :    0.028250
  20 H :   -0.017926
  21 H :   -0.025234
  22 H :   -0.035448
  23 H :   -0.018769
  24 H :   -0.039900
  25 H :   -0.008108
  26 H :   -0.008235
  27 H :   -0.018771
  28 H :   -0.057241
  29 H :   -0.063121
  30 H :   -0.001846
  31 H :   -0.022193
  32 H :   -0.018710
  33 H :   -0.035013
  34 H :   -0.153534
  35 H :   -0.025925

  Mayer bond orders larger than 0.100000
B(  0-C ,  1-C ) :   0.9536 B(  0-C , 20-H ) :   0.9677 B(  0-C , 21-H ) :   0.9771
B(  0-C , 22-H ) :   0.9725 B(  1-C ,  2-O ) :   0.9045 B(  1-C , 23-H ) :   0.9840
B(  1-C , 24-H ) :   0.9732 B(  2-O ,  3-C ) :   1.1844 B(  3-C ,  4-O ) :   2.0776
B(  3-C ,  5-C ) :   0.9287 B(  5-C ,  6-C ) :   1.6869 B(  5-C , 12-C ) :   0.9457
B(  6-C ,  7-C ) :   0.9442 B(  6-C ,  8-N ) :   1.1108 B(  7-C , 25-H ) :   0.9801
B(  7-C , 26-H ) :   0.9680 B(  7-C , 27-H ) :   0.9670 B(  8-N ,  9-C ) :   1.1955
B(  8-N , 28-H ) :   0.9524 B(  9-C , 10-S ) :   1.6091 B(  9-C , 11-N ) :   1.2898
B( 11-N , 12-C ) :   0.9879 B( 11-N , 29-H ) :   0.9476 B( 12-C , 13-C ) :   0.9545
B( 12-C , 30-H ) :   0.9945 B( 13-C , 14-C ) :   1.3903 B( 13-C , 19-C ) :   1.3360
B( 14-C , 15-C ) :   1.4018 B( 14-C , 31-H ) :   0.9570 B( 15-C , 16-C ) :   1.3578
B( 15-C , 32-H ) :   0.9701 B( 16-C , 17-C ) :   1.3317 B( 16-C , 33-H ) :   0.9848
B( 17-C , 18-O ) :   1.1089 B( 17-C , 19-C ) :   1.3661 B( 18-O , 34-H ) :   0.9796
B( 19-C , 35-H ) :   0.9568

MP2 TOTAL ENERGY:    -1274.330444041 Eh
FINAL SINGLE POINT ENERGY     -1274.330444041061

DIPOLE MOMENT
-------------
                                X             Y             Z
Electronic contribution:      8.85552       6.45746       6.23160
Nuclear contribution   :    -10.35431      -7.42374      -6.90287
                        -----------------------------------------
Total Dipole Moment    :     -1.49879      -0.96628      -0.67127
                        -----------------------------------------
Magnitude (a.u.)       :      1.90543
Magnitude (Debye)      :      4.84322

Rotational constants in cm-1:     0.011823     0.009566     0.006742
Rotational constants in MHz :   354.445766   286.777744   202.109345

                             ****ORCA TERMINATED NORMALLY****
TOTAL RUN TIME: 0 days 2 hours 13 minutes 58 seconds 348 msec
