                         Program Version 5.0.0 -  RELEASE  -
|  1> ! ri-mp2 cc-pvtz cc-pvtz/c TightSCF NoKeepInts
|  2>
|  3> %scf
|  4>   MaxCore 4096
|  5> end
|  6> *xyz  0  1
|  7>     C       15.7162794   13.2202766   16.5915397
|  8>     C       15.6905986   14.7384609   16.8330991
|  9>     O       16.9128225   15.2809191   16.3014766
| 10>     C       16.9710751   16.6321858   16.1340066
| 11>     O       16.2430413   17.1656008   15.3163781
| 12>     C       17.5699987   17.3564521   17.3117554
| 13>     C       17.4270028   18.6952769   17.4941521
| 14>     C       16.6054707   19.6574404   16.6626788
| 15>     N       18.1314598   19.3405237   18.5158144
| 16>     C       19.1468236   18.7715369   19.2381060
| 17>     S       20.0654847   19.6460679   20.2994854
| 18>     N       19.3715169   17.4355342   19.0226812
| 19>     C       18.4710360   16.5488522   18.2638429
| 20>     C       17.6891035   15.6831851   19.2456270
| 21>     C       17.9607350   14.3057792   19.3483678
| 22>     C       17.2423615   13.5004166   20.2479574
| 23>     C       16.2492370   14.0776478   21.0573716
| 24>     C       15.9843599   15.4508748   20.9668354
| 25>     O       15.0266960   16.0116421   21.7469733
| 26>     C       16.6986179   16.2495468   20.0684576
| 27>     H       14.7926045   12.7571616   16.9589205
| 28>     H       16.5631686   12.7596663   17.1144273
| 29>     H       15.8087851   13.0016299   15.5203116
| 30>     H       14.8271897   15.1653011   16.3042176
| 31>     H       15.5784386   14.9572315   17.9008063
| 32>     H       15.5575596   19.3341769   16.6204654
| 33>     H       16.9787523   19.6912491   15.6310705
| 34>     H       16.6180968   20.6816467   17.0534126
| 35>     H       17.9879440   20.3253136   18.6736044
| 36>     H       20.1106414   17.0364955   19.5870059
| 37>     H       19.0972251   15.8889663   17.6466755
| 38>     H       18.7260564   13.8555323   18.7214581
| 39>     H       17.4574114   12.4353008   20.3172160
| 40>     H       15.6927208   13.4597433   21.7546208
| 41>     H       14.6935886   15.3230117   22.3421272
| 42>     H       16.4830961   17.3113536   20.0210538
| 43> *
| 44>
| 45>                          ****END OF INPUT****

CARTESIAN COORDINATES (ANGSTROEM)
---------------------------------
  C     15.716279   13.220277   16.591540
  C     15.690599   14.738461   16.833099
  O     16.912823   15.280919   16.301477
  C     16.971075   16.632186   16.134007
  O     16.243041   17.165601   15.316378
  C     17.569999   17.356452   17.311755
  C     17.427003   18.695277   17.494152
  C     16.605471   19.657440   16.662679
  N     18.131460   19.340524   18.515814
  C     19.146824   18.771537   19.238106
  S     20.065485   19.646068   20.299485
  N     19.371517   17.435534   19.022681
  C     18.471036   16.548852   18.263843
  C     17.689103   15.683185   19.245627
  C     17.960735   14.305779   19.348368
  C     17.242362   13.500417   20.247957
  C     16.249237   14.077648   21.057372
  C     15.984360   15.450875   20.966835
  O     15.026696   16.011642   21.746973
  C     16.698618   16.249547   20.068458
  H     14.792604   12.757162   16.958921
  H     16.563169   12.759666   17.114427
  H     15.808785   13.001630   15.520312
  H     14.827190   15.165301   16.304218
  H     15.578439   14.957231   17.900806
  H     15.557560   19.334177   16.620465
  H     16.978752   19.691249   15.631070
  H     16.618097   20.681647   17.053413
  H     17.987944   20.325314   18.673604
  H     20.110641   17.036496   19.587006
  H     19.097225   15.888966   17.646676
  H     18.726056   13.855532   18.721458
  H     17.457411   12.435301   20.317216
  H     15.692721   13.459743   21.754621
  H     14.693589   15.323012   22.342127
  H     16.483096   17.311354   20.021054

 Total Charge           Charge          ....    0
 Multiplicity           Mult            ....    1
 Number of Electrons    NEL             ....  154
 Basis Dimension        Dim             ....  828

ORBITAL ENERGIES
----------------

  NO   OCC          E(Eh)            E(eV)
   0   2.0000     -91.891234     -2500.4876
   1   2.0000     -20.601619      -560.5986
   2   2.0000     -20.582217      -560.0706
   3   2.0000     -20.548351      -559.1491
   4   2.0000     -15.631714      -425.3606
   5   2.0000     -15.610084      -424.7720
   6   2.0000     -11.392459      -310.0046
   7   2.0000     -11.385786      -309.8230
   8   2.0000     -11.338072      -308.5246
   9   2.0000     -11.319560      -308.0209
  10   2.0000     -11.312466      -307.8278
  11   2.0000     -11.292841      -307.2938
  12   2.0000     -11.264150      -306.5131
  13   2.0000     -11.260882      -306.4242
  14   2.0000     -11.260231      -306.4065
  15   2.0000     -11.253655      -306.2275
  16   2.0000     -11.248656      -306.0915
  17   2.0000     -11.243081      -305.9398
  18   2.0000     -11.242946      -305.9361
  19   2.0000     -11.225614      -305.4645
  20   2.0000      -8.896258      -242.0795
  21   2.0000      -6.577823      -178.9917
  22   2.0000      -6.575829      -178.9374
  23   2.0000      -6.575232      -178.9212
  24   2.0000      -1.449238       -39.4358
  25   2.0000      -1.421325       -38.6762
  26   2.0000      -1.352377       -36.8001
  27   2.0000      -1.342792       -36.5392
  28   2.0000      -1.241115       -33.7725
  29   2.0000      -1.162362       -31.6295
  30   2.0000      -1.121616       -30.5207
  31   2.0000      -1.046338       -28.4723
  32   2.0000      -1.033922       -28.1344
  33   2.0000      -1.020709       -27.7749
  34   2.0000      -0.998238       -27.1634
  35   2.0000      -0.986223       -26.8365
  36   2.0000      -0.925805       -25.1924
  37   2.0000      -0.878246       -23.8983
  38   2.0000      -0.849518       -23.1166
  39   2.0000      -0.842680       -22.9305
  40   2.0000      -0.838837       -22.8259
  41   2.0000      -0.828891       -22.5553
  42   2.0000      -0.761475       -20.7208
  43   2.0000      -0.736397       -20.0384
  44   2.0000      -0.724478       -19.7141
  45   2.0000      -0.700921       -19.0730
  46   2.0000      -0.691712       -18.8224
  47   2.0000      -0.679076       -18.4786
  48   2.0000      -0.672947       -18.3118
  49   2.0000      -0.656827       -17.8732
  50   2.0000      -0.648641       -17.6504
  51   2.0000      -0.644530       -17.5386
  52   2.0000      -0.627765       -17.0823
  53   2.0000      -0.625439       -17.0191
  54   2.0000      -0.612068       -16.6552
  55   2.0000      -0.603918       -16.4335
  56   2.0000      -0.601297       -16.3621
  57   2.0000      -0.581955       -15.8358
  58   2.0000      -0.572537       -15.5795
  59   2.0000      -0.565761       -15.3951
  60   2.0000      -0.554358       -15.0848
  61   2.0000      -0.541332       -14.7304
  62   2.0000      -0.532935       -14.5019
  63   2.0000      -0.529922       -14.4199
  64   2.0000      -0.517872       -14.0920
  65   2.0000      -0.516256       -14.0480
  66   2.0000      -0.506567       -13.7844
  67   2.0000      -0.500340       -13.6149
  68   2.0000      -0.485744       -13.2178
  69   2.0000      -0.464844       -12.6490
  70   2.0000      -0.457234       -12.4420
  71   2.0000      -0.444592       -12.0980
  72   2.0000      -0.358138        -9.7454
  73   2.0000      -0.354137        -9.6366
  74   2.0000      -0.331007        -9.0072
  75   2.0000      -0.327033        -8.8990
  76   2.0000      -0.318145        -8.6572
  77   0.0000       0.067614         1.8399
  78   0.0000       0.101450         2.7606
  79   0.0000       0.122138         3.3235
  80   0.0000       0.127217         3.4618
  81   0.0000       0.132570         3.6074

MULLIKEN ATOMIC CHARGES
-----------------------
   0 C :   -0.267539
   1 C :    0.012949
   2 O :   -0.382723
   3 C :    0.512542
   4 O :   -0.405792
   5 C :   -0.281328
   6 C :    0.155046
   7 C :   -0.269996
   8 N :   -0.124698
   9 C :    0.209525
  10 S :   -0.435212
  11 N :   -0.197085
  12 C :    0.042035
  13 C :    0.027744
  14 C :   -0.170647
  15 C :   -0.135816
  16 C :   -0.269489
  17 C :    0.303318
  18 O :   -0.356314
  19 C :   -0.246387
  20 H :    0.088604
  21 H :    0.089218
  22 H :    0.107088
  23 H :    0.117807
  24 H :    0.114274
  25 H :    0.129614
  26 H :    0.134764
  27 H :    0.094561
  28 H :    0.198647
  29 H :    0.192254
  30 H :    0.149291
  31 H :    0.154724
  32 H :    0.165716
  33 H :    0.133707
  34 H :    0.241684
  35 H :    0.167916
Sum of atomic charges:   -0.0000000

LOEWDIN ATOMIC CHARGES
----------------------
   0 C :    0.109733
   1 C :   -0.017369
   2 O :    0.287548
   3 C :   -0.419867
   4 O :    0.120742
   5 C :   -0.099243
   6 C :   -0.057777
   7 C :    0.130894
   8 N :    0.406976
   9 C :   -0.457291
  10 S :   -0.031885
  11 N :    0.396302
  12 C :   -0.053349
  13 C :   -0.039580
  14 C :    0.015548
  15 C :    0.043325
  16 C :   -0.001204
  17 C :   -0.191104
  18 O :    0.396700
  19 C :    0.030046
  20 H :   -0.025436
  21 H :   -0.031972
  22 H :   -0.024707
  23 H :   -0.029705
  24 H :   -0.035250
  25 H :   -0.005286
  26 H :   -0.003116
  27 H :   -0.023244
  28 H :   -0.057391
  29 H :   -0.065188
  30 H :   -0.006903
  31 H :   -0.029628
  32 H :   -0.019864
  33 H :   -0.034270
  34 H :   -0.152669
  35 H :   -0.024515

  Mayer bond orders larger than 0.100000
B(  0-C ,  1-C ) :   0.9807 B(  0-C , 20-H ) :   0.9758 B(  0-C , 21-H ) :   0.9779
B(  0-C , 22-H ) :   0.9785 B(  1-C ,  2-O ) :   0.8727 B(  1-C , 23-H ) :   0.9782
B(  1-C , 24-H ) :   0.9629 B(  2-O ,  3-C ) :   1.1088 B(  3-C ,  4-O ) :   2.0215
B(  3-C ,  5-C ) :   1.0569 B(  5-C ,  6-C ) :   1.6547 B(  5-C , 12-C ) :   0.9712
B(  6-C ,  7-C ) :   0.9704 B(  6-C ,  8-N ) :   1.1549 B(  7-C , 25-H ) :   0.9626
B(  7-C , 26-H ) :   0.9575 B(  7-C , 27-H ) :   0.9892 B(  8-N ,  9-C ) :   1.1784
B(  8-N , 28-H ) :   0.9480 B(  9-C , 10-S ) :   1.6147 B(  9-C , 11-N ) :   1.3022
B( 11-N , 12-C ) :   0.9761 B( 11-N , 29-H ) :   0.9540 B( 12-C , 13-C ) :   0.9462
B( 12-C , 30-H ) :   1.0021 B( 13-C , 14-C ) :   1.3573 B( 13-C , 19-C ) :   1.3720
B( 14-C , 15-C ) :   1.3827 B( 14-C , 31-H ) :   0.9715 B( 15-C , 16-C ) :   1.3658
B( 15-C , 32-H ) :   0.9687 B( 16-C , 17-C ) :   1.3273 B( 16-C , 33-H ) :   0.9837
B( 17-C , 18-O ) :   1.1151 B( 17-C , 19-C ) :   1.3798 B( 18-O , 34-H ) :   0.9789
B( 19-C , 35-H ) :   0.9568

MP2 TOTAL ENERGY:    -1274.330044426 Eh
FINAL SINGLE POINT ENERGY     -1274.330044426449

DIPOLE MOMENT
-------------
                                X             Y             Z
Electronic contribution:      9.58914      10.79023       5.57616
Nuclear contribution   :    -10.70564     -12.23844      -5.36247
                        -----------------------------------------
Total Dipole Moment    :     -1.11650      -1.44821       0.21369
                        -----------------------------------------
Magnitude (a.u.)       :      1.84107
Magnitude (Debye)      :      4.67964

Rotational constants in cm-1:     0.012341     0.008974     0.006405
Rotational constants in MHz :   369.984569   269.035071   192.031024

                             ****ORCA TERMINATED NORMALLY****
TOTAL RUN TIME: 0 days 2 hours 5 minutes 50 seconds 212 msec
