                         Program Version 5.0.0 -  RELEASE  -
|  1> ! ri-mp2 cc-pvtz cc-pvtz/c TightSCF NoKeepInts
|  2>
|  3> %scf
|  4>   MaxCore 4096
|  5> end
|  6> *xyz  0  1
|  7>     C       15.3302939   14.5482752   17.1911676
|  8>     C       15.5643103   15.0237241   15.7382489
|  9>     O       16.6821205   15.9331111   15.6143728
| 10>     C       17.7675488   15.8539897   16.4373398
| 11>     O       18.3739410   14.8058847   16.5821967
| 12>     C       17.8957744   16.9964681   17.4033824
| 13>     C       17.3751971   18.2358522   17.2088291
| 14>     C       16.5958508   18.7401421   16.0117720
| 15>     N       17.6070540   19.2418854   18.1525668
| 16>     C       18.4635057   19.1351101   19.2166005
| 17>     S       18.7806889   20.4171988   20.2120287
| 18>     N       19.0433906   17.9074803   19.4136425
| 19>     C       18.6882514   16.6800437   18.6766434
| 20>     C       17.9136135   15.7199906   19.5761241
| 21>     C       18.3333025   14.3847780   19.7211179
| 22>     C       17.6149609   13.4915528   20.5333682
| 23>     C       16.4654440   13.9360626   21.2081584
| 24>     C       16.0428136   15.2644886   21.0656340
| 25>     O       14.9275185   15.6944663   21.7076068
| 26>     C       16.7600447   16.1513474   20.2567392
| 27>     H       16.1494463   13.9119282   17.5488813
| 28>     H       14.4085391   13.9573831   17.2508279
| 29>     H       15.2254583   15.4023281   17.8712072
| 30>     H       15.7549606   14.1398512   15.1152166
| 31>     H       14.6576648   15.5097685   15.3559224
| 32>     H       15.5823599   18.3206833   16.0045079
| 33>     H       17.0882640   18.4506108   15.0748717
| 34>     H       16.5028812   19.8329207   15.9986164
| 35>     H       17.1923096   20.1510612   18.0241775
| 36>     H       19.6484687   17.8466320   20.2224780
| 37>     H       19.6253704   16.1895658   18.3756042
| 38>     H       19.2104961   14.0328514   19.1832665
| 39>     H       17.9469237   12.4594134   20.6305822
| 40>     H       15.9059455   13.2486053   21.8337486
| 41>     H       14.6072318   14.9614129   22.2544876
| 42>     H       16.4150551   17.1751323   20.1620641
| 43> *
| 44>
| 45>                          ****END OF INPUT****

CARTESIAN COORDINATES (ANGSTROEM)
---------------------------------
  C     15.330294   14.548275   17.191168
  C     15.564310   15.023724   15.738249
  O     16.682120   15.933111   15.614373
  C     17.767549   15.853990   16.437340
  O     18.373941   14.805885   16.582197
  C     17.895774   16.996468   17.403382
  C     17.375197   18.235852   17.208829
  C     16.595851   18.740142   16.011772
  N     17.607054   19.241885   18.152567
  C     18.463506   19.135110   19.216600
  S     18.780689   20.417199   20.212029
  N     19.043391   17.907480   19.413643
  C     18.688251   16.680044   18.676643
  C     17.913614   15.719991   19.576124
  C     18.333302   14.384778   19.721118
  C     17.614961   13.491553   20.533368
  C     16.465444   13.936063   21.208158
  C     16.042814   15.264489   21.065634
  O     14.927518   15.694466   21.707607
  C     16.760045   16.151347   20.256739
  H     16.149446   13.911928   17.548881
  H     14.408539   13.957383   17.250828
  H     15.225458   15.402328   17.871207
  H     15.754961   14.139851   15.115217
  H     14.657665   15.509768   15.355922
  H     15.582360   18.320683   16.004508
  H     17.088264   18.450611   15.074872
  H     16.502881   19.832921   15.998616
  H     17.192310   20.151061   18.024178
  H     19.648469   17.846632   20.222478
  H     19.625370   16.189566   18.375604
  H     19.210496   14.032851   19.183266
  H     17.946924   12.459413   20.630582
  H     15.905945   13.248605   21.833749
  H     14.607232   14.961413   22.254488
  H     16.415055   17.175132   20.162064

 Total Charge           Charge          ....    0
 Multiplicity           Mult            ....    1
 Number of Electrons    NEL             ....  154
 Basis Dimension        Dim             ....  828

ORBITAL ENERGIES
----------------

  NO   OCC          E(Eh)            E(eV)
   0   2.0000     -91.889586     -2500.4427
   1   2.0000     -20.595113      -560.4215
   2   2.0000     -20.585678      -560.1648
   3   2.0000     -20.550414      -559.2052
   4   2.0000     -15.629989      -425.3136
   5   2.0000     -15.608306      -424.7236
   6   2.0000     -11.395359      -310.0835
   7   2.0000     -11.384603      -309.7908
   8   2.0000     -11.337101      -308.4982
   9   2.0000     -11.311020      -307.7885
  10   2.0000     -11.307588      -307.6951
  11   2.0000     -11.303854      -307.5935
  12   2.0000     -11.260928      -306.4254
  13   2.0000     -11.260330      -306.4091
  14   2.0000     -11.256495      -306.3048
  15   2.0000     -11.251183      -306.1603
  16   2.0000     -11.240885      -305.8800
  17   2.0000     -11.236474      -305.7600
  18   2.0000     -11.233431      -305.6772
  19   2.0000     -11.224894      -305.4449
  20   2.0000      -8.894643      -242.0355
  21   2.0000      -6.576217      -178.9480
  22   2.0000      -6.574212      -178.8934
  23   2.0000      -6.573623      -178.8774
  24   2.0000      -1.447774       -39.3959
  25   2.0000      -1.414902       -38.5014
  26   2.0000      -1.354154       -36.8484
  27   2.0000      -1.340840       -36.4861
  28   2.0000      -1.238517       -33.7018
  29   2.0000      -1.155284       -31.4369
  30   2.0000      -1.120926       -30.5019
  31   2.0000      -1.043433       -28.3932
  32   2.0000      -1.031060       -28.0566
  33   2.0000      -1.012916       -27.5628
  34   2.0000      -0.999917       -27.2091
  35   2.0000      -0.985630       -26.8203
  36   2.0000      -0.923811       -25.1382
  37   2.0000      -0.895891       -24.3784
  38   2.0000      -0.849344       -23.1118
  39   2.0000      -0.838240       -22.8097
  40   2.0000      -0.831328       -22.6216
  41   2.0000      -0.817435       -22.2435
  42   2.0000      -0.745183       -20.2774
  43   2.0000      -0.731650       -19.9092
  44   2.0000      -0.727323       -19.7915
  45   2.0000      -0.693123       -18.8608
  46   2.0000      -0.686635       -18.6843
  47   2.0000      -0.676491       -18.4082
  48   2.0000      -0.672277       -18.2936
  49   2.0000      -0.660120       -17.9628
  50   2.0000      -0.652995       -17.7689
  51   2.0000      -0.646103       -17.5814
  52   2.0000      -0.634837       -17.2748
  53   2.0000      -0.622173       -16.9302
  54   2.0000      -0.603380       -16.4188
  55   2.0000      -0.602251       -16.3881
  56   2.0000      -0.598948       -16.2982
  57   2.0000      -0.579134       -15.7590
  58   2.0000      -0.575469       -15.6593
  59   2.0000      -0.563685       -15.3386
  60   2.0000      -0.551532       -15.0080
  61   2.0000      -0.546154       -14.8616
  62   2.0000      -0.535498       -14.5716
  63   2.0000      -0.530183       -14.4270
  64   2.0000      -0.519929       -14.1480
  65   2.0000      -0.511081       -13.9072
  66   2.0000      -0.499682       -13.5970
  67   2.0000      -0.494784       -13.4638
  68   2.0000      -0.480302       -13.0697
  69   2.0000      -0.464766       -12.6469
  70   2.0000      -0.455455       -12.3936
  71   2.0000      -0.449413       -12.2292
  72   2.0000      -0.355249        -9.6668
  73   2.0000      -0.346817        -9.4374
  74   2.0000      -0.328714        -8.9448
  75   2.0000      -0.318626        -8.6702
  76   2.0000      -0.316329        -8.6078
  77   0.0000       0.070732         1.9247
  78   0.0000       0.107200         2.9171
  79   0.0000       0.119022         3.2388
  80   0.0000       0.132635         3.6092
  81   0.0000       0.139385         3.7929

MULLIKEN ATOMIC CHARGES
-----------------------
   0 C :   -0.340964
   1 C :    0.053800
   2 O :   -0.386718
   3 C :    0.483389
   4 O :   -0.412937
   5 C :   -0.206789
   6 C :    0.146881
   7 C :   -0.283941
   8 N :   -0.122640
   9 C :    0.198010
  10 S :   -0.437208
  11 N :   -0.199853
  12 C :    0.045888
  13 C :    0.064351
  14 C :   -0.177533
  15 C :   -0.133290
  16 C :   -0.277840
  17 C :    0.322972
  18 O :   -0.360626
  19 C :   -0.299613
  20 H :    0.132024
  21 H :    0.112159
  22 H :    0.102384
  23 H :    0.107413
  24 H :    0.103189
  25 H :    0.120521
  26 H :    0.131245
  27 H :    0.105181
  28 H :    0.197305
  29 H :    0.193932
  30 H :    0.155018
  31 H :    0.159444
  32 H :    0.161990
  33 H :    0.130522
  34 H :    0.240644
  35 H :    0.171690
Sum of atomic charges:    0.0000000

LOEWDIN ATOMIC CHARGES
----------------------
   0 C :    0.105931
   1 C :   -0.013261
   2 O :    0.285982
   3 C :   -0.418857
   4 O :    0.119207
   5 C :   -0.094359
   6 C :   -0.067869
   7 C :    0.125959
   8 N :    0.405102
   9 C :   -0.458997
  10 S :   -0.034646
  11 N :    0.397708
  12 C :   -0.045815
  13 C :   -0.039862
  14 C :    0.021905
  15 C :    0.041094
  16 C :   -0.002176
  17 C :   -0.193390
  18 O :    0.393849
  19 C :    0.029462
  20 H :   -0.022471
  21 H :   -0.024544
  22 H :   -0.030591
  23 H :   -0.027545
  24 H :   -0.026971
  25 H :   -0.010739
  26 H :   -0.006424
  27 H :   -0.020317
  28 H :   -0.058781
  29 H :   -0.063770
  30 H :   -0.004211
  31 H :   -0.024625
  32 H :   -0.020563
  33 H :   -0.035791
  34 H :   -0.154180
  35 H :   -0.025445

  Mayer bond orders larger than 0.100000
B(  0-C ,  1-C ) :   0.9596 B(  0-C , 20-H ) :   0.9660 B(  0-C , 21-H ) :   0.9756
B(  0-C , 22-H ) :   0.9709 B(  1-C ,  2-O ) :   0.8950 B(  1-C , 23-H ) :   0.9859
B(  1-C , 24-H ) :   0.9815 B(  2-O ,  3-C ) :   1.0895 B(  3-C ,  4-O ) :   2.0163
B(  3-C ,  5-C ) :   1.0394 B(  5-C ,  6-C ) :   1.6526 B(  5-C , 12-C ) :   0.9641
B(  6-C ,  7-C ) :   0.9547 B(  6-C ,  8-N ) :   1.1445 B(  7-C , 25-H ) :   0.9654
B(  7-C , 26-H ) :   0.9657 B(  7-C , 27-H ) :   0.9902 B(  8-N ,  9-C ) :   1.1797
B(  8-N , 28-H ) :   0.9489 B(  9-C , 10-S ) :   1.6136 B(  9-C , 11-N ) :   1.3023
B( 11-N , 12-C ) :   0.9899 B( 11-N , 29-H ) :   0.9520 B( 12-C , 13-C ) :   0.9458
B( 12-C , 30-H ) :   0.9994 B( 13-C , 14-C ) :   1.3778 B( 13-C , 19-C ) :   1.3516
B( 14-C , 15-C ) :   1.3925 B( 14-C , 31-H ) :   0.9629 B( 15-C , 16-C ) :   1.3619
B( 15-C , 32-H ) :   0.9707 B( 16-C , 17-C ) :   1.3322 B( 16-C , 33-H ) :   0.9848
B( 17-C , 18-O ) :   1.1089 B( 17-C , 19-C ) :   1.3675 B( 18-O , 34-H ) :   0.9803
B( 19-C , 35-H ) :   0.9590

MP2 TOTAL ENERGY:    -1274.332575838 Eh
FINAL SINGLE POINT ENERGY     -1274.332575837565

DIPOLE MOMENT
-------------
                                X             Y             Z
Electronic contribution:      9.73218       9.09237       6.53538
Nuclear contribution   :    -11.18568     -10.29071      -7.27169
                        -----------------------------------------
Total Dipole Moment    :     -1.45350      -1.19834      -0.73630
                        -----------------------------------------
Magnitude (a.u.)       :      2.02258
Magnitude (Debye)      :      5.14099

Rotational constants in cm-1:     0.011708     0.009567     0.006641
Rotational constants in MHz :   350.996074   286.823185   199.104691

                             ****ORCA TERMINATED NORMALLY****
TOTAL RUN TIME: 0 days 2 hours 4 minutes 46 seconds 563 msec
