                         Program Version 5.0.0 -  RELEASE  -
|  1> ! ri-mp2 cc-pvtz cc-pvtz/c TightSCF NoKeepInts
|  2>
|  3> %scf
|  4>   MaxCore 4096
|  5> end
|  6> *xyz  0  1
|  7>     C       14.9269997   14.3164378   16.0578960
|  8>     C       16.0806542   14.5777671   17.0418957
|  9>     O       17.2058543   15.0546512   16.2802043
| 10>     C       17.3604589   16.3983653   16.0985535
| 11>     O       16.9982828   16.9052149   15.0530509
| 12>     C       17.6779185   17.1840371   17.3440149
| 13>     C       17.3522979   18.4962021   17.4678863
| 14>     C       16.5068198   19.3249134   16.5251636
| 15>     N       17.8598213   19.2436051   18.5352918
| 16>     C       18.8815586   18.8294985   19.3492100
| 17>     S       19.5866064   19.8373491   20.4546177
| 18>     N       19.2998630   17.5322670   19.1873358
| 19>     C       18.5733705   16.5153770   18.4046354
| 20>     C       17.8304568   15.6001602   19.3718685
| 21>     C       18.2264435   14.2575342   19.5220442
| 22>     C       17.5485997   13.4074847   20.4119332
| 23>     C       16.4713659   13.9051127   21.1646381
| 24>     C       16.0836338   15.2449442   21.0292998
| 25>     O       15.0446995   15.7293267   21.7544530
| 26>     C       16.7583438   16.0882279   20.1412083
| 27>     H       14.6276591   15.2440413   15.5534884
| 28>     H       14.0532821   13.9152283   16.5854219
| 29>     H       15.2297496   13.5915523   15.2918914
| 30>     H       15.7564161   15.3029065   17.7974725
| 31>     H       16.3421581   13.6372918   17.5435181
| 32>     H       15.5905594   18.7878373   16.2492178
| 33>     H       17.0562132   19.5298508   15.5970857
| 34>     H       16.2047603   20.2863315   16.9567628
| 35>     H       17.5792897   20.2049722   18.6476727
| 36>     H       20.0424087   17.2484101   19.8136833
| 37>     H       19.3202691   15.9121177   17.8690403
| 38>     H       19.0589848   13.8682902   18.9412704
| 39>     H       17.8604605   12.3695615   20.5185944
| 40>     H       15.9457587   13.2523182   21.8542071
| 41>     H       14.7574529   15.0286816   22.3596192
| 42>     H       16.4475290   17.1241325   20.0598531
| 43> *
| 44>
| 45>                          ****END OF INPUT****

CARTESIAN COORDINATES (ANGSTROEM)
---------------------------------
  C     14.927000   14.316438   16.057896
  C     16.080654   14.577767   17.041896
  O     17.205854   15.054651   16.280204
  C     17.360459   16.398365   16.098554
  O     16.998283   16.905215   15.053051
  C     17.677919   17.184037   17.344015
  C     17.352298   18.496202   17.467886
  C     16.506820   19.324913   16.525164
  N     17.859821   19.243605   18.535292
  C     18.881559   18.829498   19.349210
  S     19.586606   19.837349   20.454618
  N     19.299863   17.532267   19.187336
  C     18.573370   16.515377   18.404635
  C     17.830457   15.600160   19.371868
  C     18.226443   14.257534   19.522044
  C     17.548600   13.407485   20.411933
  C     16.471366   13.905113   21.164638
  C     16.083634   15.244944   21.029300
  O     15.044700   15.729327   21.754453
  C     16.758344   16.088228   20.141208
  H     14.627659   15.244041   15.553488
  H     14.053282   13.915228   16.585422
  H     15.229750   13.591552   15.291891
  H     15.756416   15.302906   17.797473
  H     16.342158   13.637292   17.543518
  H     15.590559   18.787837   16.249218
  H     17.056213   19.529851   15.597086
  H     16.204760   20.286331   16.956763
  H     17.579290   20.204972   18.647673
  H     20.042409   17.248410   19.813683
  H     19.320269   15.912118   17.869040
  H     19.058985   13.868290   18.941270
  H     17.860460   12.369561   20.518594
  H     15.945759   13.252318   21.854207
  H     14.757453   15.028682   22.359619
  H     16.447529   17.124132   20.059853

 Total Charge           Charge          ....    0
 Multiplicity           Mult            ....    1
 Number of Electrons    NEL             ....  154
 Basis Dimension        Dim             ....  828

ORBITAL ENERGIES
----------------

  NO   OCC          E(Eh)            E(eV)
   0   2.0000     -91.892175     -2500.5132
   1   2.0000     -20.603290      -560.6440
   2   2.0000     -20.582820      -560.0870
   3   2.0000     -20.549929      -559.1920
   4   2.0000     -15.632134      -425.3720
   5   2.0000     -15.611253      -424.8038
   6   2.0000     -11.393295      -310.0273
   7   2.0000     -11.386768      -309.8497
   8   2.0000     -11.337880      -308.5194
   9   2.0000     -11.321338      -308.0693
  10   2.0000     -11.315518      -307.9109
  11   2.0000     -11.295244      -307.3592
  12   2.0000     -11.266045      -306.5647
  13   2.0000     -11.262491      -306.4680
  14   2.0000     -11.260622      -306.4171
  15   2.0000     -11.255069      -306.2660
  16   2.0000     -11.250604      -306.1445
  17   2.0000     -11.244978      -305.9914
  18   2.0000     -11.244649      -305.9825
  19   2.0000     -11.220192      -305.3169
  20   2.0000      -8.897184      -242.1047
  21   2.0000      -6.578744      -179.0167
  22   2.0000      -6.576755      -178.9626
  23   2.0000      -6.576154      -178.9463
  24   2.0000      -1.446960       -39.3738
  25   2.0000      -1.423001       -38.7218
  26   2.0000      -1.354408       -36.8553
  27   2.0000      -1.343610       -36.5615
  28   2.0000      -1.242179       -33.8014
  29   2.0000      -1.163948       -31.6726
  30   2.0000      -1.122691       -30.5500
  31   2.0000      -1.048226       -28.5237
  32   2.0000      -1.030401       -28.0386
  33   2.0000      -1.022530       -27.8244
  34   2.0000      -1.000400       -27.2223
  35   2.0000      -0.987642       -26.8751
  36   2.0000      -0.927429       -25.2366
  37   2.0000      -0.881107       -23.9762
  38   2.0000      -0.851626       -23.1739
  39   2.0000      -0.846125       -23.0242
  40   2.0000      -0.840892       -22.8818
  41   2.0000      -0.832525       -22.6542
  42   2.0000      -0.756265       -20.5790
  43   2.0000      -0.736928       -20.0528
  44   2.0000      -0.719329       -19.5739
  45   2.0000      -0.702659       -19.1203
  46   2.0000      -0.693390       -18.8681
  47   2.0000      -0.680416       -18.5151
  48   2.0000      -0.669405       -18.2154
  49   2.0000      -0.667667       -18.1681
  50   2.0000      -0.652059       -17.7434
  51   2.0000      -0.649211       -17.6659
  52   2.0000      -0.639938       -17.4136
  53   2.0000      -0.613648       -16.6982
  54   2.0000      -0.607569       -16.5328
  55   2.0000      -0.602956       -16.4073
  56   2.0000      -0.591076       -16.0840
  57   2.0000      -0.582846       -15.8600
  58   2.0000      -0.575417       -15.6579
  59   2.0000      -0.573957       -15.6182
  60   2.0000      -0.562804       -15.3147
  61   2.0000      -0.545528       -14.8446
  62   2.0000      -0.539213       -14.6727
  63   2.0000      -0.531006       -14.4494
  64   2.0000      -0.519417       -14.1341
  65   2.0000      -0.516141       -14.0449
  66   2.0000      -0.506948       -13.7948
  67   2.0000      -0.499547       -13.5934
  68   2.0000      -0.482371       -13.1260
  69   2.0000      -0.467454       -12.7201
  70   2.0000      -0.452520       -12.3137
  71   2.0000      -0.444478       -12.0949
  72   2.0000      -0.359913        -9.7937
  73   2.0000      -0.354877        -9.6567
  74   2.0000      -0.332246        -9.0409
  75   2.0000      -0.328548        -8.9402
  76   2.0000      -0.319359        -8.6902
  77   0.0000       0.069513         1.8915
  78   0.0000       0.098332         2.6757
  79   0.0000       0.119840         3.2610
  80   0.0000       0.126874         3.4524
  81   0.0000       0.130277         3.5450

MULLIKEN ATOMIC CHARGES
-----------------------
   0 C :   -0.258783
   1 C :    0.021292
   2 O :   -0.366985
   3 C :    0.471071
   4 O :   -0.386782
   5 C :   -0.276759
   6 C :    0.159214
   7 C :   -0.271203
   8 N :   -0.127434
   9 C :    0.206869
  10 S :   -0.432780
  11 N :   -0.191821
  12 C :    0.038700
  13 C :    0.054908
  14 C :   -0.196775
  15 C :   -0.130567
  16 C :   -0.272738
  17 C :    0.311591
  18 O :   -0.355332
  19 C :   -0.260864
  20 H :    0.098614
  21 H :    0.087414
  22 H :    0.099898
  23 H :    0.102809
  24 H :    0.111869
  25 H :    0.124536
  26 H :    0.139747
  27 H :    0.094201
  28 H :    0.198850
  29 H :    0.191234
  30 H :    0.149909
  31 H :    0.150791
  32 H :    0.166457
  33 H :    0.134397
  34 H :    0.242067
  35 H :    0.172380
Sum of atomic charges:   -0.0000000

LOEWDIN ATOMIC CHARGES
----------------------
   0 C :    0.106106
   1 C :   -0.024228
   2 O :    0.289436
   3 C :   -0.423660
   4 O :    0.127282
   5 C :   -0.100138
   6 C :   -0.062835
   7 C :    0.130296
   8 N :    0.406507
   9 C :   -0.457221
  10 S :   -0.030263
  11 N :    0.396374
  12 C :   -0.052225
  13 C :   -0.039493
  14 C :    0.015410
  15 C :    0.042368
  16 C :   -0.000012
  17 C :   -0.190919
  18 O :    0.396798
  19 C :    0.031758
  20 H :   -0.027180
  21 H :   -0.029667
  22 H :   -0.025137
  23 H :   -0.035494
  24 H :   -0.024491
  25 H :   -0.006770
  26 H :   -0.002511
  27 H :   -0.022721
  28 H :   -0.057258
  29 H :   -0.065132
  30 H :   -0.005823
  31 H :   -0.028802
  32 H :   -0.019488
  33 H :   -0.033854
  34 H :   -0.152234
  35 H :   -0.024783

  Mayer bond orders larger than 0.100000
B(  0-C ,  1-C ) :   0.9787 B(  0-C , 20-H ) :   0.9747 B(  0-C , 21-H ) :   0.9771
B(  0-C , 22-H ) :   0.9805 B(  1-C ,  2-O ) :   0.8747 B(  1-C , 23-H ) :   0.9628
B(  1-C , 24-H ) :   0.9793 B(  2-O ,  3-C ) :   1.1289 B(  3-C ,  4-O ) :   2.0540
B(  3-C ,  5-C ) :   1.0142 B(  5-C ,  6-C ) :   1.6649 B(  5-C , 12-C ) :   0.9697
B(  6-C ,  7-C ) :   0.9687 B(  6-C ,  8-N ) :   1.1478 B(  7-C , 25-H ) :   0.9679
B(  7-C , 26-H ) :   0.9551 B(  7-C , 27-H ) :   0.9867 B(  8-N ,  9-C ) :   1.1781
B(  8-N , 28-H ) :   0.9488 B(  9-C , 10-S ) :   1.6192 B(  9-C , 11-N ) :   1.2971
B( 11-N , 12-C ) :   0.9814 B( 11-N , 29-H ) :   0.9542 B( 12-C , 13-C ) :   0.9528
B( 12-C , 30-H ) :   1.0033 B( 13-C , 14-C ) :   1.3486 B( 13-C , 19-C ) :   1.3590
B( 14-C , 15-C ) :   1.3842 B( 14-C , 31-H ) :   0.9769 B( 15-C , 16-C ) :   1.3695
B( 15-C , 32-H ) :   0.9687 B( 16-C , 17-C ) :   1.3246 B( 16-C , 33-H ) :   0.9832
B( 17-C , 18-O ) :   1.1156 B( 17-C , 19-C ) :   1.3779 B( 18-O , 34-H ) :   0.9788
B( 19-C , 35-H ) :   0.9563

MP2 TOTAL ENERGY:    -1274.328246391 Eh
FINAL SINGLE POINT ENERGY     -1274.328246390862

DIPOLE MOMENT
-------------
                                X             Y             Z
Electronic contribution:     10.86718       8.79694       6.74686
Nuclear contribution   :    -12.02256     -10.30980      -6.28715
                        -----------------------------------------
Total Dipole Moment    :     -1.15539      -1.51286       0.45971
                        -----------------------------------------
Magnitude (a.u.)       :      1.95831
Magnitude (Debye)      :      4.97764

Rotational constants in cm-1:     0.011499     0.009587     0.006414
Rotational constants in MHz :   344.729185   287.417627   192.293295

                             ****ORCA TERMINATED NORMALLY****
TOTAL RUN TIME: 0 days 2 hours 52 minutes 52 seconds 745 msec
