                         Program Version 5.0.0 -  RELEASE  -
|  1> ! ri-mp2 cc-pvtz cc-pvtz/c TightSCF NoKeepInts
|  2>
|  3> %scf
|  4>   MaxCore 4096
|  5> end
|  6> *xyz  0  1
|  7>     C       15.0728513   14.7441306   16.8295104
|  8>     C       16.4591869   14.0663819   16.7235396
|  9>     O       17.5418919   14.9703513   16.3818275
| 10>     C       17.3475039   16.3035844   16.1538985
| 11>     O       16.7338605   16.6861430   15.1733993
| 12>     C       17.7302467   17.1797620   17.3169558
| 13>     C       17.4218393   18.5016583   17.3605115
| 14>     C       16.6158819   19.2920671   16.3519493
| 15>     N       17.8999383   19.2980000   18.4057684
| 16>     C       18.8309794   18.8974661   19.3267542
| 17>     S       19.4722250   19.9424378   20.4369432
| 18>     N       19.2163513   17.5823241   19.2711153
| 19>     C       18.5635073   16.5491995   18.4470421
| 20>     C       17.7532718   15.6325796   19.3573544
| 21>     C       18.2463421   14.3585442   19.6971983
| 22>     C       17.5105944   13.5086079   20.5401343
| 23>     C       16.2754850   13.9387259   21.0541756
| 24>     C       15.7900782   15.2134189   20.7322131
| 25>     O       14.5999235   15.6337530   21.2292797
| 26>     C       16.5250597   16.0575456   19.8944439
| 27>     H       15.0786450   15.5667507   17.5537218
| 28>     H       14.3230401   14.0155287   17.1602958
| 29>     H       14.7480979   15.1334306   15.8562988
| 30>     H       16.6851916   13.5723437   17.6757405
| 31>     H       16.4045168   13.2795719   15.9601762
| 32>     H       15.6287015   18.8361327   16.2034556
| 33>     H       17.1210904   19.3011674   15.3775535
| 34>     H       16.4552598   20.3340549   16.6523378
| 35>     H       17.6373406   20.2696908   18.4509526
| 36>     H       19.8847782   17.3098154   19.9801444
| 37>     H       19.3567875   15.9514684   17.9760666
| 38>     H       19.2011994   14.0230899   19.3007482
| 39>     H       17.8986847   12.5235671   20.7945174
| 40>     H       15.7035781   13.2860557   21.7057973
| 41>     H       14.2764031   14.9479514   21.8329246
| 42>     H       16.1366671   17.0446995   19.6692546
| 43> *
| 44>
| 45>                          ****END OF INPUT****

CARTESIAN COORDINATES (ANGSTROEM)
---------------------------------
  C     15.072851   14.744131   16.829510
  C     16.459187   14.066382   16.723540
  O     17.541892   14.970351   16.381827
  C     17.347504   16.303584   16.153899
  O     16.733860   16.686143   15.173399
  C     17.730247   17.179762   17.316956
  C     17.421839   18.501658   17.360511
  C     16.615882   19.292067   16.351949
  N     17.899938   19.298000   18.405768
  C     18.830979   18.897466   19.326754
  S     19.472225   19.942438   20.436943
  N     19.216351   17.582324   19.271115
  C     18.563507   16.549200   18.447042
  C     17.753272   15.632580   19.357354
  C     18.246342   14.358544   19.697198
  C     17.510594   13.508608   20.540134
  C     16.275485   13.938726   21.054176
  C     15.790078   15.213419   20.732213
  O     14.599923   15.633753   21.229280
  C     16.525060   16.057546   19.894444
  H     15.078645   15.566751   17.553722
  H     14.323040   14.015529   17.160296
  H     14.748098   15.133431   15.856299
  H     16.685192   13.572344   17.675740
  H     16.404517   13.279572   15.960176
  H     15.628702   18.836133   16.203456
  H     17.121090   19.301167   15.377553
  H     16.455260   20.334055   16.652338
  H     17.637341   20.269691   18.450953
  H     19.884778   17.309815   19.980144
  H     19.356787   15.951468   17.976067
  H     19.201199   14.023090   19.300748
  H     17.898685   12.523567   20.794517
  H     15.703578   13.286056   21.705797
  H     14.276403   14.947951   21.832925
  H     16.136667   17.044700   19.669255

 Total Charge           Charge          ....    0
 Multiplicity           Mult            ....    1
 Number of Electrons    NEL             ....  154
 Basis Dimension        Dim             ....  828

ORBITAL ENERGIES
----------------

  NO   OCC          E(Eh)            E(eV)
   0   2.0000     -91.890565     -2500.4694
   1   2.0000     -20.602421      -560.6204
   2   2.0000     -20.580757      -560.0309
   3   2.0000     -20.545340      -559.0671
   4   2.0000     -15.631013      -425.3415
   5   2.0000     -15.609651      -424.7602
   6   2.0000     -11.393270      -310.0266
   7   2.0000     -11.385308      -309.8100
   8   2.0000     -11.337441      -308.5075
   9   2.0000     -11.319828      -308.0282
  10   2.0000     -11.311640      -307.8054
  11   2.0000     -11.297910      -307.4318
  12   2.0000     -11.264632      -306.5262
  13   2.0000     -11.261085      -306.4297
  14   2.0000     -11.259110      -306.3760
  15   2.0000     -11.253420      -306.2211
  16   2.0000     -11.248865      -306.0972
  17   2.0000     -11.243563      -305.9529
  18   2.0000     -11.243360      -305.9474
  19   2.0000     -11.224760      -305.4412
  20   2.0000      -8.895602      -242.0616
  21   2.0000      -6.577169      -178.9739
  22   2.0000      -6.575172      -178.9195
  23   2.0000      -6.574579      -178.9034
  24   2.0000      -1.441582       -39.2274
  25   2.0000      -1.422056       -38.6961
  26   2.0000      -1.349380       -36.7185
  27   2.0000      -1.342130       -36.5212
  28   2.0000      -1.240660       -33.7601
  29   2.0000      -1.162633       -31.6369
  30   2.0000      -1.121464       -30.5166
  31   2.0000      -1.046417       -28.4745
  32   2.0000      -1.030497       -28.0412
  33   2.0000      -1.021090       -27.7853
  34   2.0000      -0.998798       -27.1787
  35   2.0000      -0.986390       -26.8410
  36   2.0000      -0.925534       -25.1851
  37   2.0000      -0.895617       -24.3710
  38   2.0000      -0.849354       -23.1121
  39   2.0000      -0.843526       -22.9535
  40   2.0000      -0.839157       -22.8346
  41   2.0000      -0.820378       -22.3236
  42   2.0000      -0.744652       -20.2630
  43   2.0000      -0.735201       -20.0058
  44   2.0000      -0.718857       -19.5611
  45   2.0000      -0.701097       -19.0778
  46   2.0000      -0.691376       -18.8133
  47   2.0000      -0.672920       -18.3111
  48   2.0000      -0.670739       -18.2517
  49   2.0000      -0.659294       -17.9403
  50   2.0000      -0.655027       -17.8242
  51   2.0000      -0.645367       -17.5613
  52   2.0000      -0.637247       -17.3404
  53   2.0000      -0.625955       -17.0331
  54   2.0000      -0.612877       -16.6772
  55   2.0000      -0.604412       -16.4469
  56   2.0000      -0.601574       -16.3697
  57   2.0000      -0.582168       -15.8416
  58   2.0000      -0.572346       -15.5743
  59   2.0000      -0.566905       -15.4263
  60   2.0000      -0.545490       -14.8435
  61   2.0000      -0.542237       -14.7550
  62   2.0000      -0.535319       -14.5668
  63   2.0000      -0.530466       -14.4347
  64   2.0000      -0.526411       -14.3244
  65   2.0000      -0.515725       -14.0336
  66   2.0000      -0.505142       -13.7456
  67   2.0000      -0.493035       -13.4162
  68   2.0000      -0.486511       -13.2386
  69   2.0000      -0.463639       -12.6163
  70   2.0000      -0.454432       -12.3657
  71   2.0000      -0.441601       -12.0166
  72   2.0000      -0.356597        -9.7035
  73   2.0000      -0.354919        -9.6578
  74   2.0000      -0.330763        -9.0005
  75   2.0000      -0.326739        -8.8910
  76   2.0000      -0.317861        -8.6494
  77   0.0000       0.070242         1.9114
  78   0.0000       0.101261         2.7555
  79   0.0000       0.121160         3.2969
  80   0.0000       0.128188         3.4882
  81   0.0000       0.132148         3.5959

MULLIKEN ATOMIC CHARGES
-----------------------
   0 C :   -0.331609
   1 C :    0.038148
   2 O :   -0.399696
   3 C :    0.516638
   4 O :   -0.413546
   5 C :   -0.286533
   6 C :    0.162216
   7 C :   -0.271335
   8 N :   -0.123677
   9 C :    0.213515
  10 S :   -0.437947
  11 N :   -0.203945
  12 C :    0.059467
  13 C :    0.073119
  14 C :   -0.191283
  15 C :   -0.130146
  16 C :   -0.274153
  17 C :    0.326088
  18 O :   -0.358342
  19 C :   -0.305666
  20 H :    0.101810
  21 H :    0.108755
  22 H :    0.128455
  23 H :    0.110787
  24 H :    0.118051
  25 H :    0.128695
  26 H :    0.135977
  27 H :    0.094994
  28 H :    0.198155
  29 H :    0.193746
  30 H :    0.151092
  31 H :    0.150674
  32 H :    0.164739
  33 H :    0.133623
  34 H :    0.242195
  35 H :    0.176939
Sum of atomic charges:   -0.0000000

LOEWDIN ATOMIC CHARGES
----------------------
   0 C :    0.105172
   1 C :   -0.008002
   2 O :    0.279492
   3 C :   -0.421145
   4 O :    0.116774
   5 C :   -0.099597
   6 C :   -0.058921
   7 C :    0.131251
   8 N :    0.407192
   9 C :   -0.455946
  10 S :   -0.033434
  11 N :    0.396378
  12 C :   -0.052836
  13 C :   -0.036987
  14 C :    0.014212
  15 C :    0.040714
  16 C :   -0.001771
  17 C :   -0.189378
  18 O :    0.396484
  19 C :    0.033168
  20 H :   -0.032605
  21 H :   -0.023162
  22 H :   -0.025386
  23 H :   -0.031039
  24 H :   -0.027383
  25 H :   -0.005790
  26 H :   -0.002765
  27 H :   -0.023278
  28 H :   -0.057384
  29 H :   -0.065351
  30 H :   -0.007414
  31 H :   -0.029150
  32 H :   -0.019945
  33 H :   -0.034415
  34 H :   -0.152401
  35 H :   -0.025352

  Mayer bond orders larger than 0.100000
B(  0-C ,  1-C ) :   0.9637 B(  0-C , 20-H ) :   0.9717 B(  0-C , 21-H ) :   0.9752
B(  0-C , 22-H ) :   0.9714 B(  1-C ,  2-O ) :   0.8845 B(  1-C , 23-H ) :   0.9709
B(  1-C , 24-H ) :   0.9853 B(  2-O ,  3-C ) :   1.0973 B(  3-C ,  4-O ) :   2.0080
B(  3-C ,  5-C ) :   1.0625 B(  5-C ,  6-C ) :   1.6472 B(  5-C , 12-C ) :   0.9725
B(  6-C ,  7-C ) :   0.9685 B(  6-C ,  8-N ) :   1.1601 B(  7-C , 25-H ) :   0.9631
B(  7-C , 26-H ) :   0.9574 B(  7-C , 27-H ) :   0.9891 B(  8-N ,  9-C ) :   1.1804
B(  8-N , 28-H ) :   0.9480 B(  9-C , 10-S ) :   1.6093 B(  9-C , 11-N ) :   1.3056
B( 11-N , 12-C ) :   0.9705 B( 11-N , 29-H ) :   0.9530 B( 12-C , 13-C ) :   0.9443
B( 12-C , 30-H ) :   1.0020 B( 13-C , 14-C ) :   1.3476 B( 13-C , 19-C ) :   1.3568
B( 14-C , 15-C ) :   1.3908 B( 14-C , 31-H ) :   0.9751 B( 15-C , 16-C ) :   1.3619
B( 15-C , 32-H ) :   0.9696 B( 16-C , 17-C ) :   1.3309 B( 16-C , 33-H ) :   0.9837
B( 17-C , 18-O ) :   1.1120 B( 17-C , 19-C ) :   1.3638 B( 18-O , 34-H ) :   0.9792
B( 19-C , 35-H ) :   0.9560

MP2 TOTAL ENERGY:    -1274.331763365 Eh
FINAL SINGLE POINT ENERGY     -1274.331763364954

DIPOLE MOMENT
-------------
                                X             Y             Z
Electronic contribution:      9.78737       8.59460       5.63990
Nuclear contribution   :    -10.82276     -10.21736      -5.43737
                        -----------------------------------------
Total Dipole Moment    :     -1.03539      -1.62276       0.20253
                        -----------------------------------------
Magnitude (a.u.)       :      1.93556
Magnitude (Debye)      :      4.91980

Rotational constants in cm-1:     0.012300     0.009318     0.006673
Rotational constants in MHz :   368.756943   279.355013   200.059277

                             ****ORCA TERMINATED NORMALLY****
TOTAL RUN TIME: 0 days 2 hours 11 minutes 21 seconds 397 msec
