                         Program Version 5.0.0 -  RELEASE  -
|  1> ! ri-mp2 cc-pvtz cc-pvtz/c TightSCF NoKeepInts
|  2>
|  3> %scf
|  4>   MaxCore 4096
|  5> end
|  6> *xyz  0  1
|  7>     C       14.6355020   14.4456336   17.1519125
|  8>     C       15.6022019   15.5857501   16.7948267
|  9>     O       16.8921804   14.9865585   16.5778430
| 10>     C       18.0733281   15.6826788   16.5375493
| 11>     O       19.1066218   15.0616461   16.3729750
| 12>     C       18.0867520   16.9098969   17.3848004
| 13>     C       17.5952990   18.0914276   16.9503002
| 14>     C       16.9902812   18.3754493   15.5928595
| 15>     N       17.6654847   19.2174382   17.7730101
| 16>     C       18.2835011   19.2498260   18.9967775
| 17>     S       18.3608823   20.6380192   19.8916418
| 18>     N       18.8271493   18.0708600   19.4473592
| 19>     C       18.7248306   16.7651496   18.7643337
| 20>     C       17.9537212   15.7504064   19.6029411
| 21>     C       18.4078463   14.4220528   19.6942349
| 22>     C       17.6863474   13.4673093   20.4298794
| 23>     C       16.4966551   13.8416766   21.0770601
| 24>     C       16.0366570   15.1617910   20.9822159
| 25>     O       14.8792307   15.5228189   21.5909164
| 26>     C       16.7575874   16.1110534   20.2510297
| 27>     H       14.9739682   13.9266795   18.0580558
| 28>     H       14.5802823   13.7143821   16.3358127
| 29>     H       13.6272658   14.8357662   17.3360464
| 30>     H       15.2591227   16.1063256   15.8919529
| 31>     H       15.6199058   16.2920138   17.6343480
| 32>     H       17.1495058   17.5525637   14.8850904
| 33>     H       17.4437558   19.2680249   15.1428019
| 34>     H       15.9101691   18.5499264   15.6710441
| 35>     H       17.2840258   20.0955212   17.4572129
| 36>     H       19.2565779   18.1209374   20.3626893
| 37>     H       19.7460231   16.3829072   18.6183172
| 38>     H       19.3147995   14.1235395   19.1726680
| 39>     H       18.0456748   12.4411848   20.4863018
| 40>     H       15.9338682   13.1054288   21.6412874
| 41>     H       14.5609846   14.7536818   22.0875948
| 42>     H       16.3790114   17.1256749   20.1883098
| 43> *
| 44>
| 45>                          ****END OF INPUT****

CARTESIAN COORDINATES (ANGSTROEM)
---------------------------------
  C     14.635502   14.445634   17.151913
  C     15.602202   15.585750   16.794827
  O     16.892180   14.986558   16.577843
  C     18.073328   15.682679   16.537549
  O     19.106622   15.061646   16.372975
  C     18.086752   16.909897   17.384800
  C     17.595299   18.091428   16.950300
  C     16.990281   18.375449   15.592859
  N     17.665485   19.217438   17.773010
  C     18.283501   19.249826   18.996777
  S     18.360882   20.638019   19.891642
  N     18.827149   18.070860   19.447359
  C     18.724831   16.765150   18.764334
  C     17.953721   15.750406   19.602941
  C     18.407846   14.422053   19.694235
  C     17.686347   13.467309   20.429879
  C     16.496655   13.841677   21.077060
  C     16.036657   15.161791   20.982216
  O     14.879231   15.522819   21.590916
  C     16.757587   16.111053   20.251030
  H     14.973968   13.926680   18.058056
  H     14.580282   13.714382   16.335813
  H     13.627266   14.835766   17.336046
  H     15.259123   16.106326   15.891953
  H     15.619906   16.292014   17.634348
  H     17.149506   17.552564   14.885090
  H     17.443756   19.268025   15.142802
  H     15.910169   18.549926   15.671044
  H     17.284026   20.095521   17.457213
  H     19.256578   18.120937   20.362689
  H     19.746023   16.382907   18.618317
  H     19.314799   14.123539   19.172668
  H     18.045675   12.441185   20.486302
  H     15.933868   13.105429   21.641287
  H     14.560985   14.753682   22.087595
  H     16.379011   17.125675   20.188310

 Total Charge           Charge          ....    0
 Multiplicity           Mult            ....    1
 Number of Electrons    NEL             ....  154
 Basis Dimension        Dim             ....  828

ORBITAL ENERGIES
----------------

  NO   OCC          E(Eh)            E(eV)
   0   2.0000     -91.889077     -2500.4289
   1   2.0000     -20.602846      -560.6320
   2   2.0000     -20.599917      -560.5522
   3   2.0000     -20.552795      -559.2700
   4   2.0000     -15.625027      -425.1786
   5   2.0000     -15.611560      -424.8121
   6   2.0000     -11.396625      -310.1179
   7   2.0000     -11.386139      -309.8326
   8   2.0000     -11.325088      -308.1713
   9   2.0000     -11.316581      -307.9398
  10   2.0000     -11.316148      -307.9280
  11   2.0000     -11.303148      -307.5743
  12   2.0000     -11.270597      -306.6885
  13   2.0000     -11.264189      -306.5142
  14   2.0000     -11.263459      -306.4943
  15   2.0000     -11.256401      -306.3022
  16   2.0000     -11.245670      -306.0102
  17   2.0000     -11.242064      -305.9121
  18   2.0000     -11.238948      -305.8273
  19   2.0000     -11.230816      -305.6060
  20   2.0000      -8.894209      -242.0237
  21   2.0000      -6.575803      -178.9367
  22   2.0000      -6.573771      -178.8814
  23   2.0000      -6.573201      -178.8659
  24   2.0000      -1.451572       -39.4993
  25   2.0000      -1.419723       -38.6326
  26   2.0000      -1.361009       -37.0349
  27   2.0000      -1.338889       -36.4330
  28   2.0000      -1.239180       -33.7198
  29   2.0000      -1.161103       -31.5952
  30   2.0000      -1.125409       -30.6239
  31   2.0000      -1.049114       -28.5479
  32   2.0000      -1.040019       -28.3004
  33   2.0000      -1.018620       -27.7181
  34   2.0000      -1.004940       -27.3458
  35   2.0000      -0.988844       -26.9078
  36   2.0000      -0.927795       -25.2466
  37   2.0000      -0.880878       -23.9699
  38   2.0000      -0.854889       -23.2627
  39   2.0000      -0.841251       -22.8916
  40   2.0000      -0.836846       -22.7717
  41   2.0000      -0.836623       -22.7657
  42   2.0000      -0.757662       -20.6170
  43   2.0000      -0.739169       -20.1138
  44   2.0000      -0.731370       -19.9016
  45   2.0000      -0.698294       -19.0015
  46   2.0000      -0.689019       -18.7492
  47   2.0000      -0.682505       -18.5719
  48   2.0000      -0.677252       -18.4290
  49   2.0000      -0.660363       -17.9694
  50   2.0000      -0.658321       -17.9138
  51   2.0000      -0.649301       -17.6684
  52   2.0000      -0.639688       -17.4068
  53   2.0000      -0.612040       -16.6544
  54   2.0000      -0.608419       -16.5559
  55   2.0000      -0.604210       -16.4414
  56   2.0000      -0.599364       -16.3095
  57   2.0000      -0.585630       -15.9358
  58   2.0000      -0.577833       -15.7236
  59   2.0000      -0.568349       -15.4656
  60   2.0000      -0.561733       -15.2855
  61   2.0000      -0.555316       -15.1109
  62   2.0000      -0.550548       -14.9812
  63   2.0000      -0.528386       -14.3781
  64   2.0000      -0.519031       -14.1235
  65   2.0000      -0.514819       -14.0089
  66   2.0000      -0.505643       -13.7592
  67   2.0000      -0.502045       -13.6613
  68   2.0000      -0.488180       -13.2841
  69   2.0000      -0.469723       -12.7818
  70   2.0000      -0.453986       -12.3536
  71   2.0000      -0.451428       -12.2840
  72   2.0000      -0.355937        -9.6855
  73   2.0000      -0.351543        -9.5660
  74   2.0000      -0.328893        -8.9496
  75   2.0000      -0.324079        -8.8186
  76   2.0000      -0.317412        -8.6372
  77   0.0000       0.089509         2.4357
  78   0.0000       0.103573         2.8184
  79   0.0000       0.108528         2.9532
  80   0.0000       0.126867         3.4522
  81   0.0000       0.131337         3.5739

MULLIKEN ATOMIC CHARGES
-----------------------
   0 C :   -0.261475
   1 C :    0.000938
   2 O :   -0.301702
   3 C :    0.386634
   4 O :   -0.374799
   5 C :   -0.165907
   6 C :    0.126110
   7 C :   -0.327531
   8 N :   -0.135718
   9 C :    0.206586
  10 S :   -0.442930
  11 N :   -0.215633
  12 C :    0.064242
  13 C :    0.036236
  14 C :   -0.187745
  15 C :   -0.127653
  16 C :   -0.281223
  17 C :    0.313271
  18 O :   -0.359665
  19 C :   -0.284569
  20 H :    0.109516
  21 H :    0.104680
  22 H :    0.088257
  23 H :    0.102138
  24 H :    0.103048
  25 H :    0.122276
  26 H :    0.137133
  27 H :    0.123449
  28 H :    0.195340
  29 H :    0.198880
  30 H :    0.165279
  31 H :    0.163545
  32 H :    0.163146
  33 H :    0.133126
  34 H :    0.241914
  35 H :    0.180805
Sum of atomic charges:   -0.0000000

LOEWDIN ATOMIC CHARGES
----------------------
   0 C :    0.112926
   1 C :   -0.028255
   2 O :    0.318858
   3 C :   -0.420402
   4 O :    0.130034
   5 C :   -0.080332
   6 C :   -0.109720
   7 C :    0.123504
   8 N :    0.400027
   9 C :   -0.455206
  10 S :   -0.039483
  11 N :    0.397329
  12 C :   -0.042930
  13 C :   -0.041235
  14 C :    0.025060
  15 C :    0.046337
  16 C :   -0.000465
  17 C :   -0.193875
  18 O :    0.394677
  19 C :    0.027326
  20 H :   -0.022270
  21 H :   -0.025704
  22 H :   -0.025227
  23 H :   -0.037942
  24 H :   -0.037810
  25 H :   -0.009930
  26 H :   -0.010014
  27 H :   -0.016728
  28 H :   -0.058823
  29 H :   -0.063674
  30 H :   -0.002311
  31 H :   -0.022273
  32 H :   -0.018535
  33 H :   -0.034893
  34 H :   -0.152965
  35 H :   -0.025074

  Mayer bond orders larger than 0.100000
B(  0-C ,  1-C ) :   0.9833 B(  0-C , 20-H ) :   0.9749 B(  0-C , 21-H ) :   0.9801
B(  0-C , 22-H ) :   0.9764 B(  1-C ,  2-O ) :   0.9180 B(  1-C , 23-H ) :   0.9753
B(  1-C , 24-H ) :   0.9590 B(  2-O ,  3-C ) :   1.1561 B(  3-C ,  4-O ) :   2.0966
B(  3-C ,  5-C ) :   0.9182 B(  5-C ,  6-C ) :   1.6999 B(  5-C , 12-C ) :   0.9642
B(  6-C ,  7-C ) :   0.9403 B(  6-C ,  8-N ) :   1.1094 B(  7-C , 25-H ) :   0.9825
B(  7-C , 26-H ) :   0.9712 B(  7-C , 27-H ) :   0.9658 B(  8-N ,  9-C ) :   1.1986
B(  8-N , 28-H ) :   0.9531 B(  9-C , 10-S ) :   1.6092 B(  9-C , 11-N ) :   1.2854
B( 11-N , 12-C ) :   0.9972 B( 11-N , 29-H ) :   0.9484 B( 12-C , 13-C ) :   0.9444
B( 12-C , 30-H ) :   0.9974 B( 13-C , 14-C ) :   1.3871 B( 13-C , 19-C ) :   1.3396
B( 14-C , 15-C ) :   1.3980 B( 14-C , 31-H ) :   0.9632 B( 15-C , 16-C ) :   1.3612
B( 15-C , 32-H ) :   0.9703 B( 16-C , 17-C ) :   1.3298 B( 16-C , 33-H ) :   0.9845
B( 17-C , 18-O ) :   1.1071 B( 17-C , 19-C ) :   1.3676 B( 18-O , 34-H ) :   0.9791
B( 19-C , 35-H ) :   0.9556

MP2 TOTAL ENERGY:    -1274.327550292 Eh
FINAL SINGLE POINT ENERGY     -1274.327550291837

DIPOLE MOMENT
-------------
                                X             Y             Z
Electronic contribution:     10.59125       8.11137       6.37286
Nuclear contribution   :    -12.15362      -9.16423      -6.92490
                        -----------------------------------------
Total Dipole Moment    :     -1.56237      -1.05286      -0.55204
                        -----------------------------------------
Magnitude (a.u.)       :      1.96323
Magnitude (Debye)      :      4.99014

Rotational constants in cm-1:     0.012611     0.008981     0.006907
Rotational constants in MHz :   378.059821   269.234286   207.071872

                             ****ORCA TERMINATED NORMALLY****
TOTAL RUN TIME: 0 days 2 hours 10 minutes 35 seconds 309 msec
