                         Program Version 5.0.0 -  RELEASE  -
|  1> ! ri-mp2 cc-pvtz cc-pvtz/c TightSCF NoKeepInts
|  2>
|  3> %scf
|  4>   MaxCore 4096
|  5> end
|  6> *xyz  0  1
|  7>     C       14.7510889   14.5046764   17.3398734
|  8>     C       15.5868733   15.5719503   16.6150430
|  9>     O       16.9010917   15.0129278   16.4286125
| 10>     C       18.0831051   15.7082782   16.4863811
| 11>     O       19.1218309   15.0905994   16.3442730
| 12>     C       18.0663714   16.9093663   17.3705905
| 13>     C       17.5756395   18.0993464   16.9573422
| 14>     C       16.9810515   18.4103243   15.6007097
| 15>     N       17.6387958   19.2088178   17.8027905
| 16>     C       18.2687090   19.2231535   19.0207161
| 17>     S       18.3510314   20.5966412   19.9376112
| 18>     N       18.8222712   18.0390394   19.4447542
| 19>     C       18.7050478   16.7422606   18.7469542
| 20>     C       17.9263233   15.7267545   19.5773063
| 21>     C       18.3648725   14.3920100   19.6490068
| 22>     C       17.6470743   13.4410902   20.3932508
| 23>     C       16.4775551   13.8262402   21.0703053
| 24>     C       16.0316714   15.1524823   20.9935259
| 25>     O       14.8929274   15.5236509   21.6306796
| 26>     C       16.7468868   16.0969434   20.2503851
| 27>     H       15.2188010   14.2298845   18.2932811
| 28>     H       14.6664884   13.5988594   16.7266577
| 29>     H       13.7407268   14.8772707   17.5471175
| 30>     H       15.1357740   15.8321328   15.6488141
| 31>     H       15.5968043   16.4610988   17.2549135
| 32>     H       17.1630469   17.6102053   14.8726479
| 33>     H       17.4228783   19.3229958   15.1803468
| 34>     H       15.8970063   18.5624242   15.6706143
| 35>     H       17.2511500   20.0905803   17.5053983
| 36>     H       19.2619689   18.0753673   20.3558121
| 37>     H       19.7220974   16.3510459   18.5956302
| 38>     H       19.2592197   14.0870744   19.1095492
| 39>     H       17.9952429   12.4104524   20.4360437
| 40>     H       15.9188273   13.0936236   21.6432591
| 41>     H       14.5770964   14.7558900   22.1309403
| 42>     H       16.3796531   17.1165418   20.2028627
| 43> *
| 44>
| 45>                          ****END OF INPUT****

CARTESIAN COORDINATES (ANGSTROEM)
---------------------------------
  C     14.751089   14.504676   17.339873
  C     15.586873   15.571950   16.615043
  O     16.901092   15.012928   16.428612
  C     18.083105   15.708278   16.486381
  O     19.121831   15.090599   16.344273
  C     18.066371   16.909366   17.370590
  C     17.575639   18.099346   16.957342
  C     16.981051   18.410324   15.600710
  N     17.638796   19.208818   17.802791
  C     18.268709   19.223153   19.020716
  S     18.351031   20.596641   19.937611
  N     18.822271   18.039039   19.444754
  C     18.705048   16.742261   18.746954
  C     17.926323   15.726755   19.577306
  C     18.364873   14.392010   19.649007
  C     17.647074   13.441090   20.393251
  C     16.477555   13.826240   21.070305
  C     16.031671   15.152482   20.993526
  O     14.892927   15.523651   21.630680
  C     16.746887   16.096943   20.250385
  H     15.218801   14.229885   18.293281
  H     14.666488   13.598859   16.726658
  H     13.740727   14.877271   17.547117
  H     15.135774   15.832133   15.648814
  H     15.596804   16.461099   17.254914
  H     17.163047   17.610205   14.872648
  H     17.422878   19.322996   15.180347
  H     15.897006   18.562424   15.670614
  H     17.251150   20.090580   17.505398
  H     19.261969   18.075367   20.355812
  H     19.722097   16.351046   18.595630
  H     19.259220   14.087074   19.109549
  H     17.995243   12.410452   20.436044
  H     15.918827   13.093624   21.643259
  H     14.577096   14.755890   22.130940
  H     16.379653   17.116542   20.202863

 Total Charge           Charge          ....    0
 Multiplicity           Mult            ....    1
 Number of Electrons    NEL             ....  154
 Basis Dimension        Dim             ....  828

ORBITAL ENERGIES
----------------

  NO   OCC          E(Eh)            E(eV)
   0   2.0000     -91.889407     -2500.4379
   1   2.0000     -20.603105      -560.6390
   2   2.0000     -20.599788      -560.5487
   3   2.0000     -20.551607      -559.2377
   4   2.0000     -15.625740      -425.1980
   5   2.0000     -15.611593      -424.8131
   6   2.0000     -11.397322      -310.1369
   7   2.0000     -11.386366      -309.8388
   8   2.0000     -11.326193      -308.2014
   9   2.0000     -11.316542      -307.9388
  10   2.0000     -11.315813      -307.9189
  11   2.0000     -11.303698      -307.5893
  12   2.0000     -11.270881      -306.6963
  13   2.0000     -11.264700      -306.5281
  14   2.0000     -11.263695      -306.5007
  15   2.0000     -11.256751      -306.3118
  16   2.0000     -11.245722      -306.0117
  17   2.0000     -11.242048      -305.9117
  18   2.0000     -11.239172      -305.8334
  19   2.0000     -11.228265      -305.5366
  20   2.0000      -8.894530      -242.0325
  21   2.0000      -6.576121      -178.9454
  22   2.0000      -6.574092      -178.8901
  23   2.0000      -6.573520      -178.8746
  24   2.0000      -1.450561       -39.4718
  25   2.0000      -1.419583       -38.6288
  26   2.0000      -1.360126       -37.0109
  27   2.0000      -1.339416       -36.4474
  28   2.0000      -1.239467       -33.7276
  29   2.0000      -1.161229       -31.5987
  30   2.0000      -1.125820       -30.6351
  31   2.0000      -1.049281       -28.5524
  32   2.0000      -1.039312       -28.2811
  33   2.0000      -1.018734       -27.7212
  34   2.0000      -1.005264       -27.3546
  35   2.0000      -0.989180       -26.9169
  36   2.0000      -0.927992       -25.2519
  37   2.0000      -0.882154       -24.0046
  38   2.0000      -0.854650       -23.2562
  39   2.0000      -0.841488       -22.8980
  40   2.0000      -0.836892       -22.7730
  41   2.0000      -0.836040       -22.7498
  42   2.0000      -0.757591       -20.6151
  43   2.0000      -0.739445       -20.1213
  44   2.0000      -0.731360       -19.9013
  45   2.0000      -0.698094       -18.9961
  46   2.0000      -0.689466       -18.7613
  47   2.0000      -0.682999       -18.5854
  48   2.0000      -0.676862       -18.4184
  49   2.0000      -0.661486       -17.9999
  50   2.0000      -0.655693       -17.8423
  51   2.0000      -0.646110       -17.5816
  52   2.0000      -0.639739       -17.4082
  53   2.0000      -0.612518       -16.6675
  54   2.0000      -0.609093       -16.5743
  55   2.0000      -0.606622       -16.5070
  56   2.0000      -0.601537       -16.3686
  57   2.0000      -0.586411       -15.9571
  58   2.0000      -0.578195       -15.7335
  59   2.0000      -0.568223       -15.4621
  60   2.0000      -0.560171       -15.2430
  61   2.0000      -0.556411       -15.1407
  62   2.0000      -0.545695       -14.8491
  63   2.0000      -0.530701       -14.4411
  64   2.0000      -0.519858       -14.1461
  65   2.0000      -0.514194       -13.9919
  66   2.0000      -0.502534       -13.6746
  67   2.0000      -0.502028       -13.6609
  68   2.0000      -0.488321       -13.2879
  69   2.0000      -0.470170       -12.7940
  70   2.0000      -0.453517       -12.3408
  71   2.0000      -0.450997       -12.2722
  72   2.0000      -0.356474        -9.7002
  73   2.0000      -0.352010        -9.5787
  74   2.0000      -0.329167        -8.9571
  75   2.0000      -0.324332        -8.8255
  76   2.0000      -0.317664        -8.6441
  77   0.0000       0.088481         2.4077
  78   0.0000       0.104031         2.8308
  79   0.0000       0.108447         2.9510
  80   0.0000       0.127597         3.4721
  81   0.0000       0.131546         3.5796

MULLIKEN ATOMIC CHARGES
-----------------------
   0 C :   -0.264310
   1 C :    0.009167
   2 O :   -0.305997
   3 C :    0.385310
   4 O :   -0.377089
   5 C :   -0.153418
   6 C :    0.115126
   7 C :   -0.321234
   8 N :   -0.136509
   9 C :    0.205032
  10 S :   -0.442096
  11 N :   -0.214814
  12 C :    0.059552
  13 C :    0.030558
  14 C :   -0.192587
  15 C :   -0.127749
  16 C :   -0.278914
  17 C :    0.301847
  18 O :   -0.361055
  19 C :   -0.260712
  20 H :    0.113470
  21 H :    0.104859
  22 H :    0.088628
  23 H :    0.109012
  24 H :    0.092204
  25 H :    0.121457
  26 H :    0.136082
  27 H :    0.123376
  28 H :    0.195901
  29 H :    0.198621
  30 H :    0.166169
  31 H :    0.165569
  32 H :    0.163406
  33 H :    0.132680
  34 H :    0.241753
  35 H :    0.176703
Sum of atomic charges:   -0.0000000

LOEWDIN ATOMIC CHARGES
----------------------
   0 C :    0.111662
   1 C :   -0.025332
   2 O :    0.318489
   3 C :   -0.420553
   4 O :    0.128059
   5 C :   -0.080892
   6 C :   -0.109893
   7 C :    0.124799
   8 N :    0.400221
   9 C :   -0.455589
  10 S :   -0.038906
  11 N :    0.397557
  12 C :   -0.043100
  13 C :   -0.041315
  14 C :    0.024052
  15 C :    0.045903
  16 C :   -0.001287
  17 C :   -0.194104
  18 O :    0.395319
  19 C :    0.026891
  20 H :   -0.022156
  21 H :   -0.026373
  22 H :   -0.025840
  23 H :   -0.035241
  24 H :   -0.039575
  25 H :   -0.009289
  26 H :   -0.009948
  27 H :   -0.016268
  28 H :   -0.058706
  29 H :   -0.063658
  30 H :   -0.001996
  31 H :   -0.021951
  32 H :   -0.018431
  33 H :   -0.034926
  34 H :   -0.152952
  35 H :   -0.024670

  Mayer bond orders larger than 0.100000
B(  0-C ,  1-C ) :   0.9790 B(  0-C , 20-H ) :   0.9710 B(  0-C , 21-H ) :   0.9818
B(  0-C , 22-H ) :   0.9756 B(  1-C ,  2-O ) :   0.9202 B(  1-C , 23-H ) :   0.9763
B(  1-C , 24-H ) :   0.9616 B(  2-O ,  3-C ) :   1.1556 B(  3-C ,  4-O ) :   2.0937
B(  3-C ,  5-C ) :   0.9231 B(  5-C ,  6-C ) :   1.6969 B(  5-C , 12-C ) :   0.9634
B(  6-C ,  7-C ) :   0.9455 B(  6-C ,  8-N ) :   1.1080 B(  7-C , 25-H ) :   0.9814
B(  7-C , 26-H ) :   0.9726 B(  7-C , 27-H ) :   0.9651 B(  8-N ,  9-C ) :   1.1975
B(  8-N , 28-H ) :   0.9528 B(  9-C , 10-S ) :   1.6097 B(  9-C , 11-N ) :   1.2860
B( 11-N , 12-C ) :   0.9965 B( 11-N , 29-H ) :   0.9487 B( 12-C , 13-C ) :   0.9466
B( 12-C , 30-H ) :   0.9966 B( 13-C , 14-C ) :   1.3864 B( 13-C , 19-C ) :   1.3478
B( 14-C , 15-C ) :   1.3974 B( 14-C , 31-H ) :   0.9624 B( 15-C , 16-C ) :   1.3595
B( 15-C , 32-H ) :   0.9705 B( 16-C , 17-C ) :   1.3309 B( 16-C , 33-H ) :   0.9853
B( 17-C , 18-O ) :   1.1065 B( 17-C , 19-C ) :   1.3720 B( 18-O , 34-H ) :   0.9791
B( 19-C , 35-H ) :   0.9560

MP2 TOTAL ENERGY:    -1274.328332461 Eh
FINAL SINGLE POINT ENERGY     -1274.328332460776

DIPOLE MOMENT
-------------
                                X             Y             Z
Electronic contribution:     10.39367       7.99092       6.08287
Nuclear contribution   :    -11.96405      -9.00546      -6.64261
                        -----------------------------------------
Total Dipole Moment    :     -1.57038      -1.01454      -0.55973
                        -----------------------------------------
Magnitude (a.u.)       :      1.95158
Magnitude (Debye)      :      4.96053

Rotational constants in cm-1:     0.012503     0.009105     0.006897
Rotational constants in MHz :   374.816012   272.961351   206.766292

                             ****ORCA TERMINATED NORMALLY****
TOTAL RUN TIME: 0 days 2 hours 4 minutes 46 seconds 975 msec
