                         Program Version 5.0.0 -  RELEASE  -
|  1> ! ri-mp2 cc-pvtz cc-pvtz/c TightSCF NoKeepInts
|  2>
|  3> %scf
|  4>   MaxCore 4096
|  5> end
|  6> *xyz  0  1
|  7>     C       14.4900513   14.7123176   16.0731964
|  8>     C       15.6892776   15.1220544   16.9432215
|  9>     O       16.8255516   15.2631415   16.0720908
| 10>     C       18.0343630   15.5185049   16.6497124
| 11>     O       18.8122272   14.6068739   16.8650602
| 12>     C       18.0731436   16.7941529   17.4340128
| 13>     C       17.5129793   17.9501672   17.0021553
| 14>     C       16.8103340   18.1860193   15.6816998
| 15>     N       17.6218838   19.1071589   17.7784148
| 16>     C       18.3753255   19.2133850   18.9186229
| 17>     S       18.5294016   20.6470040   19.7280283
| 18>     N       18.9918059   18.0675273   19.3576322
| 19>     C       18.7960217   16.7236173   18.7795798
| 20>     C       18.0250027   15.8240162   19.7414189
| 21>     C       18.5069159   14.5405576   20.0567815
| 22>     C       17.7862596   13.6962627   20.9178223
| 23>     C       16.5704353   14.1370090   21.4674068
| 24>     C       16.0839052   15.4124838   21.1516232
| 25>     O       14.9032547   15.8364896   21.6680171
| 26>     C       16.8030642   16.2505669   20.2938654
| 27>     H       14.6959369   13.7670084   15.5552687
| 28>     H       14.2761888   15.4801226   15.3195733
| 29>     H       13.5943211   14.5765842   16.6914561
| 30>     H       15.4662585   16.0605494   17.4668928
| 31>     H       15.8843894   14.3432275   17.6938639
| 32>     H       17.2659512   17.5939246   14.8777819
| 33>     H       16.8632735   19.2360172   15.3682027
| 34>     H       15.7518206   17.9065707   15.7441304
| 35>     H       17.1821160   19.9601560   17.4704073
| 36>     H       19.5204192   18.1695910   20.2147704
| 37>     H       19.7886144   16.2816382   18.6083084
| 38>     H       19.4362284   14.1882084   19.6146553
| 39>     H       18.1679909   12.7030986   21.1486374
| 40>     H       16.0093453   13.4861251   22.1298852
| 41>     H       14.5948195   15.1553360   22.2849474
| 42>     H       16.4081227   17.2345323   20.0648564
| 43> *
| 44>
| 45>                          ****END OF INPUT****

CARTESIAN COORDINATES (ANGSTROEM)
---------------------------------
  C     14.490051   14.712318   16.073196
  C     15.689278   15.122054   16.943221
  O     16.825552   15.263141   16.072091
  C     18.034363   15.518505   16.649712
  O     18.812227   14.606874   16.865060
  C     18.073144   16.794153   17.434013
  C     17.512979   17.950167   17.002155
  C     16.810334   18.186019   15.681700
  N     17.621884   19.107159   17.778415
  C     18.375325   19.213385   18.918623
  S     18.529402   20.647004   19.728028
  N     18.991806   18.067527   19.357632
  C     18.796022   16.723617   18.779580
  C     18.025003   15.824016   19.741419
  C     18.506916   14.540558   20.056781
  C     17.786260   13.696263   20.917822
  C     16.570435   14.137009   21.467407
  C     16.083905   15.412484   21.151623
  O     14.903255   15.836490   21.668017
  C     16.803064   16.250567   20.293865
  H     14.695937   13.767008   15.555269
  H     14.276189   15.480123   15.319573
  H     13.594321   14.576584   16.691456
  H     15.466259   16.060549   17.466893
  H     15.884389   14.343227   17.693864
  H     17.265951   17.593925   14.877782
  H     16.863273   19.236017   15.368203
  H     15.751821   17.906571   15.744130
  H     17.182116   19.960156   17.470407
  H     19.520419   18.169591   20.214770
  H     19.788614   16.281638   18.608308
  H     19.436228   14.188208   19.614655
  H     18.167991   12.703099   21.148637
  H     16.009345   13.486125   22.129885
  H     14.594819   15.155336   22.284947
  H     16.408123   17.234532   20.064856

 Total Charge           Charge          ....    0
 Multiplicity           Mult            ....    1
 Number of Electrons    NEL             ....  154
 Basis Dimension        Dim             ....  828

ORBITAL ENERGIES
----------------

  NO   OCC          E(Eh)            E(eV)
   0   2.0000     -91.890859     -2500.4774
   1   2.0000     -20.598257      -560.5071
   2   2.0000     -20.586354      -560.1832
   3   2.0000     -20.556088      -559.3596
   4   2.0000     -15.630443      -425.3260
   5   2.0000     -15.610485      -424.7829
   6   2.0000     -11.393858      -310.0426
   7   2.0000     -11.386670      -309.8470
   8   2.0000     -11.335039      -308.4421
   9   2.0000     -11.314448      -307.8818
  10   2.0000     -11.310806      -307.7827
  11   2.0000     -11.302156      -307.5473
  12   2.0000     -11.265022      -306.5368
  13   2.0000     -11.261185      -306.4324
  14   2.0000     -11.260027      -306.4009
  15   2.0000     -11.254362      -306.2467
  16   2.0000     -11.244157      -305.9691
  17   2.0000     -11.240105      -305.8588
  18   2.0000     -11.236959      -305.7732
  19   2.0000     -11.233672      -305.6837
  20   2.0000      -8.895932      -242.0706
  21   2.0000      -6.577508      -178.9831
  22   2.0000      -6.575498      -178.9284
  23   2.0000      -6.574912      -178.9124
  24   2.0000      -1.451393       -39.4944
  25   2.0000      -1.418060       -38.5874
  26   2.0000      -1.359133       -36.9839
  27   2.0000      -1.341667       -36.5086
  28   2.0000      -1.239958       -33.7410
  29   2.0000      -1.158900       -31.5353
  30   2.0000      -1.123834       -30.5811
  31   2.0000      -1.046838       -28.4859
  32   2.0000      -1.037591       -28.2343
  33   2.0000      -1.016268       -27.6541
  34   2.0000      -1.002686       -27.2845
  35   2.0000      -0.988213       -26.8906
  36   2.0000      -0.925992       -25.1975
  37   2.0000      -0.878164       -23.8961
  38   2.0000      -0.853285       -23.2191
  39   2.0000      -0.842492       -22.9254
  40   2.0000      -0.834864       -22.7178
  41   2.0000      -0.833878       -22.6910
  42   2.0000      -0.757494       -20.6125
  43   2.0000      -0.737442       -20.0668
  44   2.0000      -0.730786       -19.8857
  45   2.0000      -0.696169       -18.9437
  46   2.0000      -0.688111       -18.7245
  47   2.0000      -0.682945       -18.5839
  48   2.0000      -0.675843       -18.3906
  49   2.0000      -0.659947       -17.9581
  50   2.0000      -0.651011       -17.7149
  51   2.0000      -0.643226       -17.5031
  52   2.0000      -0.639324       -17.3969
  53   2.0000      -0.618244       -16.8233
  54   2.0000      -0.606684       -16.5087
  55   2.0000      -0.605679       -16.4814
  56   2.0000      -0.601917       -16.3790
  57   2.0000      -0.582280       -15.8446
  58   2.0000      -0.577392       -15.7116
  59   2.0000      -0.566057       -15.4032
  60   2.0000      -0.558885       -15.2080
  61   2.0000      -0.553474       -15.0608
  62   2.0000      -0.538879       -14.6636
  63   2.0000      -0.524800       -14.2805
  64   2.0000      -0.524024       -14.2594
  65   2.0000      -0.515073       -14.0158
  66   2.0000      -0.502431       -13.6719
  67   2.0000      -0.497780       -13.5453
  68   2.0000      -0.485970       -13.2239
  69   2.0000      -0.466925       -12.7057
  70   2.0000      -0.461560       -12.5597
  71   2.0000      -0.452735       -12.3195
  72   2.0000      -0.357071        -9.7164
  73   2.0000      -0.350116        -9.5271
  74   2.0000      -0.330149        -8.9838
  75   2.0000      -0.321944        -8.7605
  76   2.0000      -0.318313        -8.6617
  77   0.0000       0.071262         1.9391
  78   0.0000       0.103881         2.8267
  79   0.0000       0.116843         3.1795
  80   0.0000       0.130430         3.5492
  81   0.0000       0.134435         3.6582

MULLIKEN ATOMIC CHARGES
-----------------------
   0 C :   -0.258771
   1 C :    0.007203
   2 O :   -0.355110
   3 C :    0.458445
   4 O :   -0.381286
   5 C :   -0.234135
   6 C :    0.147460
   7 C :   -0.292610
   8 N :   -0.126506
   9 C :    0.199299
  10 S :   -0.437092
  11 N :   -0.202735
  12 C :    0.050458
  13 C :    0.042024
  14 C :   -0.169422
  15 C :   -0.133458
  16 C :   -0.279578
  17 C :    0.311619
  18 O :   -0.358820
  19 C :   -0.286155
  20 H :    0.107945
  21 H :    0.091999
  22 H :    0.092618
  23 H :    0.097091
  24 H :    0.120945
  25 H :    0.133677
  26 H :    0.115127
  27 H :    0.119133
  28 H :    0.197362
  29 H :    0.194923
  30 H :    0.158650
  31 H :    0.161871
  32 H :    0.162225
  33 H :    0.131788
  34 H :    0.241628
  35 H :    0.172190
Sum of atomic charges:   -0.0000000

LOEWDIN ATOMIC CHARGES
----------------------
   0 C :    0.111912
   1 C :   -0.024111
   2 O :    0.291388
   3 C :   -0.420453
   4 O :    0.134971
   5 C :   -0.093772
   6 C :   -0.081113
   7 C :    0.127860
   8 N :    0.403860
   9 C :   -0.457534
  10 S :   -0.034459
  11 N :    0.397106
  12 C :   -0.045820
  13 C :   -0.042459
  14 C :    0.022088
  15 C :    0.043032
  16 C :   -0.001611
  17 C :   -0.195266
  18 O :    0.393519
  19 C :    0.028343
  20 H :   -0.022361
  21 H :   -0.030071
  22 H :   -0.023808
  23 H :   -0.039441
  24 H :   -0.024108
  25 H :   -0.006071
  26 H :   -0.016578
  27 H :   -0.013202
  28 H :   -0.058302
  29 H :   -0.063742
  30 H :   -0.003545
  31 H :   -0.023217
  32 H :   -0.019413
  33 H :   -0.035061
  34 H :   -0.153269
  35 H :   -0.025295

  Mayer bond orders larger than 0.100000
B(  0-C ,  1-C ) :   0.9782 B(  0-C , 20-H ) :   0.9790 B(  0-C , 21-H ) :   0.9782
B(  0-C , 22-H ) :   0.9763 B(  1-C ,  2-O ) :   0.8921 B(  1-C , 23-H ) :   0.9663
B(  1-C , 24-H ) :   0.9743 B(  2-O ,  3-C ) :   1.1253 B(  3-C ,  4-O ) :   2.0832
B(  3-C ,  5-C ) :   0.9673 B(  5-C ,  6-C ) :   1.6646 B(  5-C , 12-C ) :   0.9658
B(  6-C ,  7-C ) :   0.9506 B(  6-C ,  8-N ) :   1.1339 B(  7-C , 25-H ) :   0.9705
B(  7-C , 26-H ) :   0.9851 B(  7-C , 27-H ) :   0.9630 B(  8-N ,  9-C ) :   1.1839
B(  8-N , 28-H ) :   0.9499 B(  9-C , 10-S ) :   1.6143 B(  9-C , 11-N ) :   1.2967
B( 11-N , 12-C ) :   0.9960 B( 11-N , 29-H ) :   0.9516 B( 12-C , 13-C ) :   0.9450
B( 12-C , 30-H ) :   0.9986 B( 13-C , 14-C ) :   1.3836 B( 13-C , 19-C ) :   1.3524
B( 14-C , 15-C ) :   1.3952 B( 14-C , 31-H ) :   0.9614 B( 15-C , 16-C ) :   1.3643
B( 15-C , 32-H ) :   0.9706 B( 16-C , 17-C ) :   1.3289 B( 16-C , 33-H ) :   0.9846
B( 17-C , 18-O ) :   1.1115 B( 17-C , 19-C ) :   1.3746 B( 18-O , 34-H ) :   0.9795
B( 19-C , 35-H ) :   0.9588

MP2 TOTAL ENERGY:    -1274.328737436 Eh
FINAL SINGLE POINT ENERGY     -1274.328737436229

DIPOLE MOMENT
-------------
                                X             Y             Z
Electronic contribution:     11.18309       8.48755       7.48123
Nuclear contribution   :    -12.54936      -9.56735      -7.83212
                        -----------------------------------------
Total Dipole Moment    :     -1.36627      -1.07979      -0.35089
                        -----------------------------------------
Magnitude (a.u.)       :      1.77645
Magnitude (Debye)      :      4.51538

Rotational constants in cm-1:     0.011357     0.009307     0.006780
Rotational constants in MHz :   340.463879   279.023054   203.270479

                             ****ORCA TERMINATED NORMALLY****
TOTAL RUN TIME: 0 days 2 hours 12 minutes 49 seconds 153 msec
