                         Program Version 5.0.0 -  RELEASE  -
|  1> ! ri-mp2 cc-pvtz cc-pvtz/c TightSCF NoKeepInts
|  2>
|  3> %scf
|  4>   MaxCore 4096
|  5> end
|  6> *xyz  0  1
|  7>     C       14.9285522   15.0027026   16.2171318
|  8>     C       16.1510358   14.4026158   16.9419532
|  9>     O       17.3783628   14.8713831   16.3360377
| 10>     C       17.5959355   16.2016308   16.1096078
| 11>     O       17.4048251   16.6591774   14.9976440
| 12>     C       17.7446199   17.0529027   17.3406909
| 13>     C       17.3382154   18.3474231   17.3677701
| 14>     C       16.5336979   19.0771914   16.3139466
| 15>     N       17.7141979   19.1749507   18.4302326
| 16>     C       18.6929994   18.8649565   19.3379828
| 17>     S       19.2483733   19.9661213   20.4396975
| 18>     N       19.1984285   17.5900709   19.2756980
| 19>     C       18.5966488   16.4929130   18.4946554
| 20>     C       17.8443207   15.5727476   19.4474639
| 21>     C       18.2579657   14.2378409   19.6183681
| 22>     C       17.5669289   13.3819617   20.4923888
| 23>     C       16.4572277   13.8652301   21.2064317
| 24>     C       16.0484144   15.1961699   21.0468102
| 25>     O       14.9760965   15.6653114   21.7323994
| 26>     C       16.7359164   16.0453445   20.1742321
| 27>     H       14.8450288   16.0804173   16.4013981
| 28>     H       14.0049612   14.5293311   16.5716454
| 29>     H       15.0018675   14.8393767   15.1341172
| 30>     H       16.0833915   14.6653310   17.9986522
| 31>     H       16.1149047   13.3079301   16.8713676
| 32>     H       15.7044026   18.4562650   15.9535729
| 33>     H       17.1641989   19.3121704   15.4464981
| 34>     H       16.1029887   20.0154617   16.6827104
| 35>     H       17.3710022   20.1216129   18.4696514
| 36>     H       19.9059475   17.3833691   19.9692152
| 37>     H       19.4182199   15.9177402   18.0444332
| 38>     H       19.1141733   13.8590184   19.0658339
| 39>     H       17.8932135   12.3504207   20.6160297
| 40>     H       15.9214029   13.2077232   21.8834944
| 41>     H       14.6825254   14.9638125   22.3334180
| 42>     H       16.4060084   17.0733740   20.0708195
| 43> *
| 44>
| 45>                          ****END OF INPUT****

CARTESIAN COORDINATES (ANGSTROEM)
---------------------------------
  C     14.928552   15.002703   16.217132
  C     16.151036   14.402616   16.941953
  O     17.378363   14.871383   16.336038
  C     17.595935   16.201631   16.109608
  O     17.404825   16.659177   14.997644
  C     17.744620   17.052903   17.340691
  C     17.338215   18.347423   17.367770
  C     16.533698   19.077191   16.313947
  N     17.714198   19.174951   18.430233
  C     18.692999   18.864957   19.337983
  S     19.248373   19.966121   20.439697
  N     19.198428   17.590071   19.275698
  C     18.596649   16.492913   18.494655
  C     17.844321   15.572748   19.447464
  C     18.257966   14.237841   19.618368
  C     17.566929   13.381962   20.492389
  C     16.457228   13.865230   21.206432
  C     16.048414   15.196170   21.046810
  O     14.976097   15.665311   21.732399
  C     16.735916   16.045344   20.174232
  H     14.845029   16.080417   16.401398
  H     14.004961   14.529331   16.571645
  H     15.001867   14.839377   15.134117
  H     16.083392   14.665331   17.998652
  H     16.114905   13.307930   16.871368
  H     15.704403   18.456265   15.953573
  H     17.164199   19.312170   15.446498
  H     16.102989   20.015462   16.682710
  H     17.371002   20.121613   18.469651
  H     19.905947   17.383369   19.969215
  H     19.418220   15.917740   18.044433
  H     19.114173   13.859018   19.065834
  H     17.893214   12.350421   20.616030
  H     15.921403   13.207723   21.883494
  H     14.682525   14.963812   22.333418
  H     16.406008   17.073374   20.070819

 Total Charge           Charge          ....    0
 Multiplicity           Mult            ....    1
 Number of Electrons    NEL             ....  154
 Basis Dimension        Dim             ....  828

ORBITAL ENERGIES
----------------

  NO   OCC          E(Eh)            E(eV)
   0   2.0000     -91.891749     -2500.5016
   1   2.0000     -20.602854      -560.6322
   2   2.0000     -20.581648      -560.0551
   3   2.0000     -20.551013      -559.2215
   4   2.0000     -15.631200      -425.3466
   5   2.0000     -15.610918      -424.7947
   6   2.0000     -11.393368      -310.0293
   7   2.0000     -11.386387      -309.8393
   8   2.0000     -11.336381      -308.4786
   9   2.0000     -11.321093      -308.0626
  10   2.0000     -11.315445      -307.9089
  11   2.0000     -11.296932      -307.4052
  12   2.0000     -11.265585      -306.5522
  13   2.0000     -11.262132      -306.4582
  14   2.0000     -11.259932      -306.3983
  15   2.0000     -11.255205      -306.2697
  16   2.0000     -11.250222      -306.1341
  17   2.0000     -11.244597      -305.9810
  18   2.0000     -11.244327      -305.9737
  19   2.0000     -11.226206      -305.4806
  20   2.0000      -8.896760      -242.0931
  21   2.0000      -6.578322      -179.0052
  22   2.0000      -6.576331      -178.9511
  23   2.0000      -6.575732      -178.9348
  24   2.0000      -1.444048       -39.2946
  25   2.0000      -1.422574       -38.7102
  26   2.0000      -1.352486       -36.8030
  27   2.0000      -1.342900       -36.5422
  28   2.0000      -1.241632       -33.7865
  29   2.0000      -1.163606       -31.6633
  30   2.0000      -1.122424       -30.5427
  31   2.0000      -1.048009       -28.5178
  32   2.0000      -1.031201       -28.0604
  33   2.0000      -1.021994       -27.8099
  34   2.0000      -1.001011       -27.2389
  35   2.0000      -0.987655       -26.8755
  36   2.0000      -0.927192       -25.2302
  37   2.0000      -0.890564       -24.2335
  38   2.0000      -0.850591       -23.1458
  39   2.0000      -0.845614       -23.0103
  40   2.0000      -0.840413       -22.8688
  41   2.0000      -0.828469       -22.5438
  42   2.0000      -0.750606       -20.4250
  43   2.0000      -0.736583       -20.0434
  44   2.0000      -0.716199       -19.4888
  45   2.0000      -0.701869       -19.0988
  46   2.0000      -0.692001       -18.8303
  47   2.0000      -0.680212       -18.5095
  48   2.0000      -0.671057       -18.2604
  49   2.0000      -0.665509       -18.1094
  50   2.0000      -0.653316       -17.7776
  51   2.0000      -0.649801       -17.6820
  52   2.0000      -0.637593       -17.3498
  53   2.0000      -0.618301       -16.8248
  54   2.0000      -0.612804       -16.6752
  55   2.0000      -0.605033       -16.4638
  56   2.0000      -0.602368       -16.3913
  57   2.0000      -0.582745       -15.8573
  58   2.0000      -0.575521       -15.6607
  59   2.0000      -0.566968       -15.4280
  60   2.0000      -0.551022       -14.9941
  61   2.0000      -0.546307       -14.8658
  62   2.0000      -0.539406       -14.6780
  63   2.0000      -0.531251       -14.4561
  64   2.0000      -0.526779       -14.3344
  65   2.0000      -0.518504       -14.1092
  66   2.0000      -0.506509       -13.7828
  67   2.0000      -0.497631       -13.5412
  68   2.0000      -0.476744       -12.9729
  69   2.0000      -0.469388       -12.7727
  70   2.0000      -0.452825       -12.3220
  71   2.0000      -0.445099       -12.1118
  72   2.0000      -0.359623        -9.7858
  73   2.0000      -0.354770        -9.6538
  74   2.0000      -0.331891        -9.0312
  75   2.0000      -0.328403        -8.9363
  76   2.0000      -0.318756        -8.6738
  77   0.0000       0.070103         1.9076
  78   0.0000       0.100986         2.7480
  79   0.0000       0.120877         3.2892
  80   0.0000       0.127035         3.4568
  81   0.0000       0.131572         3.5803

MULLIKEN ATOMIC CHARGES
-----------------------
   0 C :   -0.290276
   1 C :    0.034615
   2 O :   -0.372084
   3 C :    0.439638
   4 O :   -0.379455
   5 C :   -0.235156
   6 C :    0.156231
   7 C :   -0.276170
   8 N :   -0.126856
   9 C :    0.203057
  10 S :   -0.432917
  11 N :   -0.188458
  12 C :    0.033685
  13 C :    0.037343
  14 C :   -0.177282
  15 C :   -0.131149
  16 C :   -0.273120
  17 C :    0.302193
  18 O :   -0.355699
  19 C :   -0.250884
  20 H :    0.082905
  21 H :    0.104943
  22 H :    0.117234
  23 H :    0.102848
  24 H :    0.116493
  25 H :    0.123296
  26 H :    0.141387
  27 H :    0.094605
  28 H :    0.198420
  29 H :    0.190481
  30 H :    0.148903
  31 H :    0.153052
  32 H :    0.163758
  33 H :    0.134256
  34 H :    0.241790
  35 H :    0.168372
Sum of atomic charges:   -0.0000000

LOEWDIN ATOMIC CHARGES
----------------------
   0 C :    0.105798
   1 C :   -0.014568
   2 O :    0.280292
   3 C :   -0.423715
   4 O :    0.131027
   5 C :   -0.097445
   6 C :   -0.064694
   7 C :    0.130016
   8 N :    0.406215
   9 C :   -0.457721
  10 S :   -0.030761
  11 N :    0.396604
  12 C :   -0.052314
  13 C :   -0.042687
  14 C :    0.015296
  15 C :    0.043106
  16 C :   -0.000136
  17 C :   -0.191369
  18 O :    0.397057
  19 C :    0.030390
  20 H :   -0.033083
  21 H :   -0.025383
  22 H :   -0.021281
  23 H :   -0.038634
  24 H :   -0.021434
  25 H :   -0.009680
  26 H :   -0.002542
  27 H :   -0.022358
  28 H :   -0.057422
  29 H :   -0.065106
  30 H :   -0.005609
  31 H :   -0.028424
  32 H :   -0.019196
  33 H :   -0.033922
  34 H :   -0.152423
  35 H :   -0.023894

  Mayer bond orders larger than 0.100000
B(  0-C ,  1-C ) :   0.9768 B(  0-C , 20-H ) :   0.9748 B(  0-C , 21-H ) :   0.9766
B(  0-C , 22-H ) :   0.9745 B(  1-C ,  2-O ) :   0.8892 B(  1-C , 23-H ) :   0.9616
B(  1-C , 24-H ) :   0.9808 B(  2-O ,  3-C ) :   1.1205 B(  3-C ,  4-O ) :   2.0689
B(  3-C ,  5-C ) :   1.0014 B(  5-C ,  6-C ) :   1.6713 B(  5-C , 12-C ) :   0.9682
B(  6-C ,  7-C ) :   0.9681 B(  6-C ,  8-N ) :   1.1432 B(  7-C , 25-H ) :   0.9697
B(  7-C , 26-H ) :   0.9553 B(  7-C , 27-H ) :   0.9858 B(  8-N ,  9-C ) :   1.1792
B(  8-N , 28-H ) :   0.9494 B(  9-C , 10-S ) :   1.6209 B(  9-C , 11-N ) :   1.2941
B( 11-N , 12-C ) :   0.9868 B( 11-N , 29-H ) :   0.9544 B( 12-C , 13-C ) :   0.9452
B( 12-C , 30-H ) :   1.0059 B( 13-C , 14-C ) :   1.3648 B( 13-C , 19-C ) :   1.3691
B( 14-C , 15-C ) :   1.3849 B( 14-C , 31-H ) :   0.9700 B( 15-C , 16-C ) :   1.3693
B( 15-C , 32-H ) :   0.9699 B( 16-C , 17-C ) :   1.3260 B( 16-C , 33-H ) :   0.9833
B( 17-C , 18-O ) :   1.1156 B( 17-C , 19-C ) :   1.3786 B( 18-O , 34-H ) :   0.9788
B( 19-C , 35-H ) :   0.9573

MP2 TOTAL ENERGY:    -1274.326210509 Eh
FINAL SINGLE POINT ENERGY     -1274.326210508689

DIPOLE MOMENT
-------------
                                X             Y             Z
Electronic contribution:     10.70705       7.58295       6.83451
Nuclear contribution   :    -11.94577      -9.17841      -6.45502
                        -----------------------------------------
Total Dipole Moment    :     -1.23872      -1.59547       0.37948
                        -----------------------------------------
Magnitude (a.u.)       :      2.05523
Magnitude (Debye)      :      5.22397

Rotational constants in cm-1:     0.011307     0.009892     0.006555
Rotational constants in MHz :   338.961914   296.561555   196.499783

                             ****ORCA TERMINATED NORMALLY****
TOTAL RUN TIME: 0 days 2 hours 32 minutes 55 seconds 66 msec
