                         Program Version 5.0.0 -  RELEASE  -
|  1> ! ri-mp2 cc-pvtz cc-pvtz/c TightSCF NoKeepInts
|  2>
|  3> %scf
|  4>   MaxCore 4096
|  5> end
|  6> *xyz  0  1
|  7>     C       14.4839976   16.0647898   16.5615025
|  8>     C       15.5799933   15.0940562   17.0365536
|  9>     O       16.7198087   15.1160190   16.1486789
| 10>     C       17.9143676   15.7295334   16.4374469
| 11>     O       18.9570269   15.1420354   16.2166155
| 12>     C       17.8692441   16.8605634   17.4094516
| 13>     C       17.3006275   18.0470081   17.0961685
| 14>     C       16.6899643   18.4394634   15.7672083
| 15>     N       17.3751612   19.1130925   17.9948750
| 16>     C       18.0967474   19.1010609   19.1602022
| 17>     S       18.1825554   20.4283644   20.1424364
| 18>     N       18.7493570   17.9330153   19.4705791
| 19>     C       18.6517433   16.6703933   18.7105607
| 20>     C       18.0583198   15.5478692   19.5573280
| 21>     C       18.5478865   14.2355694   19.4235065
| 22>     C       17.9971170   13.1843296   20.1748069
| 23>     C       16.9451605   13.4452710   21.0688512
| 24>     C       16.4508548   14.7494072   21.2031926
| 25>     O       15.4262210   15.0026780   22.0552903
| 26>     C       16.9994085   15.7942085   20.4524179
| 27>     H       14.6586386   17.0765661   16.9389969
| 28>     H       13.5078970   15.7424986   16.9445970
| 29>     H       14.4253708   16.0894896   15.4661009
| 30>     H       15.8541130   15.2955262   18.0775018
| 31>     H       15.1616030   14.0794472   17.0092993
| 32>     H       16.5069878   17.5773301   15.1152868
| 33>     H       17.3642166   19.1126983   15.2225791
| 34>     H       15.7340342   18.9602409   15.9011986
| 35>     H       16.9286742   19.9887283   17.7713329
| 36>     H       19.2640020   17.9506094   20.3421592
| 37>     H       19.6747849   16.3729246   18.4356815
| 38>     H       19.3529436   14.0272799   18.7212597
| 39>     H       18.3843169   12.1732807   20.0584372
| 40>     H       16.5161525   12.6353760   21.6498356
| 41>     H       15.2248719   14.1777338   22.5227573
| 42>     H       16.5928306   16.7935424   20.5693036
| 43> *
| 44>
| 45>                          ****END OF INPUT****

CARTESIAN COORDINATES (ANGSTROEM)
---------------------------------
  C     14.483998   16.064790   16.561502
  C     15.579993   15.094056   17.036554
  O     16.719809   15.116019   16.148679
  C     17.914368   15.729533   16.437447
  O     18.957027   15.142035   16.216615
  C     17.869244   16.860563   17.409452
  C     17.300627   18.047008   17.096169
  C     16.689964   18.439463   15.767208
  N     17.375161   19.113093   17.994875
  C     18.096747   19.101061   19.160202
  S     18.182555   20.428364   20.142436
  N     18.749357   17.933015   19.470579
  C     18.651743   16.670393   18.710561
  C     18.058320   15.547869   19.557328
  C     18.547887   14.235569   19.423506
  C     17.997117   13.184330   20.174807
  C     16.945161   13.445271   21.068851
  C     16.450855   14.749407   21.203193
  O     15.426221   15.002678   22.055290
  C     16.999409   15.794208   20.452418
  H     14.658639   17.076566   16.938997
  H     13.507897   15.742499   16.944597
  H     14.425371   16.089490   15.466101
  H     15.854113   15.295526   18.077502
  H     15.161603   14.079447   17.009299
  H     16.506988   17.577330   15.115287
  H     17.364217   19.112698   15.222579
  H     15.734034   18.960241   15.901199
  H     16.928674   19.988728   17.771333
  H     19.264002   17.950609   20.342159
  H     19.674785   16.372925   18.435682
  H     19.352944   14.027280   18.721260
  H     18.384317   12.173281   20.058437
  H     16.516153   12.635376   21.649836
  H     15.224872   14.177734   22.522757
  H     16.592831   16.793542   20.569304

 Total Charge           Charge          ....    0
 Multiplicity           Mult            ....    1
 Number of Electrons    NEL             ....  154
 Basis Dimension        Dim             ....  828

ORBITAL ENERGIES
----------------

  NO   OCC          E(Eh)            E(eV)
   0   2.0000     -91.890698     -2500.4730
   1   2.0000     -20.601220      -560.5877
   2   2.0000     -20.594150      -560.3953
   3   2.0000     -20.552403      -559.2593
   4   2.0000     -15.627326      -425.2412
   5   2.0000     -15.612324      -424.8329
   6   2.0000     -11.397747      -310.1485
   7   2.0000     -11.387403      -309.8670
   8   2.0000     -11.330283      -308.3127
   9   2.0000     -11.318739      -307.9986
  10   2.0000     -11.316161      -307.9284
  11   2.0000     -11.301982      -307.5426
  12   2.0000     -11.266096      -306.5661
  13   2.0000     -11.265717      -306.5557
  14   2.0000     -11.264826      -306.5315
  15   2.0000     -11.258921      -306.3708
  16   2.0000     -11.247711      -306.0658
  17   2.0000     -11.243563      -305.9529
  18   2.0000     -11.240529      -305.8704
  19   2.0000     -11.235034      -305.7208
  20   2.0000      -8.895804      -242.0671
  21   2.0000      -6.577391      -178.9799
  22   2.0000      -6.575366      -178.9248
  23   2.0000      -6.574789      -178.9091
  24   2.0000      -1.446126       -39.3511
  25   2.0000      -1.421041       -38.6685
  26   2.0000      -1.357852       -36.9490
  27   2.0000      -1.340896       -36.4876
  28   2.0000      -1.240753       -33.7626
  29   2.0000      -1.162799       -31.6414
  30   2.0000      -1.126182       -30.6450
  31   2.0000      -1.049761       -28.5654
  32   2.0000      -1.039232       -28.2789
  33   2.0000      -1.020575       -27.7713
  34   2.0000      -1.004966       -27.3465
  35   2.0000      -0.990570       -26.9548
  36   2.0000      -0.928527       -25.2665
  37   2.0000      -0.890439       -24.2301
  38   2.0000      -0.853303       -23.2196
  39   2.0000      -0.842663       -22.9300
  40   2.0000      -0.838220       -22.8091
  41   2.0000      -0.835541       -22.7362
  42   2.0000      -0.755860       -20.5680
  43   2.0000      -0.735708       -20.0196
  44   2.0000      -0.732470       -19.9315
  45   2.0000      -0.698858       -19.0169
  46   2.0000      -0.689790       -18.7701
  47   2.0000      -0.680259       -18.5108
  48   2.0000      -0.676652       -18.4126
  49   2.0000      -0.664781       -18.0896
  50   2.0000      -0.654503       -17.8099
  51   2.0000      -0.639913       -17.4129
  52   2.0000      -0.632181       -17.2025
  53   2.0000      -0.622195       -16.9308
  54   2.0000      -0.610464       -16.6116
  55   2.0000      -0.608049       -16.5459
  56   2.0000      -0.604711       -16.4550
  57   2.0000      -0.586300       -15.9540
  58   2.0000      -0.579417       -15.7667
  59   2.0000      -0.577061       -15.7026
  60   2.0000      -0.566805       -15.4236
  61   2.0000      -0.559087       -15.2135
  62   2.0000      -0.539873       -14.6907
  63   2.0000      -0.533793       -14.5253
  64   2.0000      -0.523854       -14.2548
  65   2.0000      -0.515753       -14.0343
  66   2.0000      -0.503551       -13.7023
  67   2.0000      -0.495075       -13.4717
  68   2.0000      -0.488953       -13.3051
  69   2.0000      -0.469517       -12.7762
  70   2.0000      -0.455214       -12.3870
  71   2.0000      -0.449648       -12.2355
  72   2.0000      -0.357984        -9.7412
  73   2.0000      -0.352968        -9.6048
  74   2.0000      -0.330350        -8.9893
  75   2.0000      -0.326550        -8.8859
  76   2.0000      -0.319916        -8.7054
  77   0.0000       0.085591         2.3291
  78   0.0000       0.102439         2.7875
  79   0.0000       0.116661         3.1745
  80   0.0000       0.126397         3.4394
  81   0.0000       0.128826         3.5055

MULLIKEN ATOMIC CHARGES
-----------------------
   0 C :   -0.311072
   1 C :    0.028653
   2 O :   -0.332221
   3 C :    0.406911
   4 O :   -0.375811
   5 C :   -0.190220
   6 C :    0.128029
   7 C :   -0.329380
   8 N :   -0.135979
   9 C :    0.203838
  10 S :   -0.440091
  11 N :   -0.224190
  12 C :    0.087104
  13 C :    0.005396
  14 C :   -0.202429
  15 C :   -0.135579
  16 C :   -0.272489
  17 C :    0.315313
  18 O :   -0.356233
  19 C :   -0.265580
  20 H :    0.089943
  21 H :    0.118343
  22 H :    0.109106
  23 H :    0.105715
  24 H :    0.124033
  25 H :    0.126217
  26 H :    0.151126
  27 H :    0.114638
  28 H :    0.196683
  29 H :    0.201584
  30 H :    0.165206
  31 H :    0.174314
  32 H :    0.165197
  33 H :    0.133530
  34 H :    0.241537
  35 H :    0.178858
Sum of atomic charges:    0.0000000

LOEWDIN ATOMIC CHARGES
----------------------
   0 C :    0.104057
   1 C :   -0.014592
   2 O :    0.293677
   3 C :   -0.415977
   4 O :    0.127640
   5 C :   -0.083160
   6 C :   -0.099278
   7 C :    0.124273
   8 N :    0.402595
   9 C :   -0.456045
  10 S :   -0.036991
  11 N :    0.397325
  12 C :   -0.043650
  13 C :   -0.045052
  14 C :    0.020602
  15 C :    0.045999
  16 C :   -0.000065
  17 C :   -0.193770
  18 O :    0.395816
  19 C :    0.024688
  20 H :   -0.034458
  21 H :   -0.022108
  22 H :   -0.025184
  23 H :   -0.033887
  24 H :   -0.021403
  25 H :   -0.010201
  26 H :   -0.008556
  27 H :   -0.018105
  28 H :   -0.057588
  29 H :   -0.063829
  30 H :   -0.002405
  31 H :   -0.021351
  32 H :   -0.017791
  33 H :   -0.034300
  34 H :   -0.152671
  35 H :   -0.024256

  Mayer bond orders larger than 0.100000
B(  0-C ,  1-C ) :   0.9601 B(  0-C , 20-H ) :   0.9763 B(  0-C , 21-H ) :   0.9798
B(  0-C , 22-H ) :   0.9746 B(  1-C ,  2-O ) :   0.8960 B(  1-C , 23-H ) :   0.9605
B(  1-C , 24-H ) :   0.9878 B(  2-O ,  3-C ) :   1.1732 B(  3-C ,  4-O ) :   2.0969
B(  3-C ,  5-C ) :   0.9138 B(  5-C ,  6-C ) :   1.6911 B(  5-C , 12-C ) :   0.9485
B(  6-C ,  7-C ) :   0.9539 B(  6-C ,  8-N ) :   1.1068 B(  7-C , 25-H ) :   0.9771
B(  7-C , 26-H ) :   0.9637 B(  7-C , 27-H ) :   0.9704 B(  8-N ,  9-C ) :   1.1981
B(  8-N , 28-H ) :   0.9513 B(  9-C , 10-S ) :   1.6107 B(  9-C , 11-N ) :   1.2869
B( 11-N , 12-C ) :   0.9920 B( 11-N , 29-H ) :   0.9475 B( 12-C , 13-C ) :   0.9524
B( 12-C , 30-H ) :   0.9969 B( 13-C , 14-C ) :   1.3913 B( 13-C , 19-C ) :   1.3375
B( 14-C , 15-C ) :   1.3991 B( 14-C , 31-H ) :   0.9588 B( 15-C , 16-C ) :   1.3624
B( 15-C , 32-H ) :   0.9694 B( 16-C , 17-C ) :   1.3299 B( 16-C , 33-H ) :   0.9840
B( 17-C , 18-O ) :   1.1110 B( 17-C , 19-C ) :   1.3667 B( 18-O , 34-H ) :   0.9791
B( 19-C , 35-H ) :   0.9593

MP2 TOTAL ENERGY:    -1274.328353526 Eh
FINAL SINGLE POINT ENERGY     -1274.328353525719

DIPOLE MOMENT
-------------
                                X             Y             Z
Electronic contribution:     10.45928       5.18636       7.25782
Nuclear contribution   :    -11.87161      -6.36447      -7.52727
                        -----------------------------------------
Total Dipole Moment    :     -1.41234      -1.17811      -0.26945
                        -----------------------------------------
Magnitude (a.u.)       :      1.85883
Magnitude (Debye)      :      4.72476

Rotational constants in cm-1:     0.011661     0.009322     0.006839
Rotational constants in MHz :   349.593685   279.481501   205.015641

                             ****ORCA TERMINATED NORMALLY****
TOTAL RUN TIME: 0 days 2 hours 27 minutes 37 seconds 980 msec
