                         Program Version 5.0.0 -  RELEASE  -
|  1> ! ri-mp2 cc-pvtz cc-pvtz/c TightSCF NoKeepInts
|  2>
|  3> %scf
|  4>   MaxCore 4096
|  5> end
|  6> *xyz  0  1
|  7>     C       15.5053534   13.7294937   16.2659414
|  8>     C       15.2474448   15.1910820   15.8406986
|  9>     O       16.4203848   16.0447601   15.8226439
| 10>     C       17.5348604   15.8634617   16.5961164
| 11>     O       18.1145303   14.7958101   16.7000542
| 12>     C       17.8443844   17.0241638   17.4971233
| 13>     C       17.4321571   18.3025709   17.2923974
| 14>     C       16.6257103   18.8481501   16.1316464
| 15>     N       17.8183239   19.3078713   18.1850520
| 16>     C       18.7110185   19.1459403   19.2113787
| 17>     S       19.1981933   20.4169450   20.1508978
| 18>     N       19.1784725   17.8734244   19.4201998
| 19>     C       18.6850426   16.6680904   18.7280376
| 20>     C       17.8906661   15.7853552   19.6874342
| 21>     C       18.2274020   14.4291563   19.8526450
| 22>     C       17.4912596   13.6088109   20.7237606
| 23>     C       16.4074234   14.1481954   21.4371361
| 24>     C       16.0660012   15.4974077   21.2726416
| 25>     O       15.0149082   16.0193476   21.9538298
| 26>     C       16.8000037   16.3111922   20.4040377
| 27>     H       16.2597890   13.2609691   15.6212294
| 28>     H       14.5830038   13.1420186   16.1855893
| 29>     H       15.8460368   13.6723599   17.3079221
| 30>     H       14.7866363   15.2012218   14.8445806
| 31>     H       14.5168966   15.6186932   16.5396152
| 32>     H       15.5785737   18.5295757   16.2029321
| 33>     H       17.0251231   18.4873845   15.1753876
| 34>     H       16.6367336   19.9440393   16.0881453
| 35>     H       17.4876484   20.2496456   18.0482248
| 36>     H       19.8124680   17.7750507   20.2027248
| 37>     H       19.5617995   16.1010614   18.3827635
| 38>     H       19.0534282   14.0048828   19.2867616
| 39>     H       17.7588899   12.5598207   20.8374199
| 40>     H       15.8351276   13.5176656   22.1093618
| 41>     H       14.6713580   15.3232516   22.5337980
| 42>     H       16.5199469   17.3531302   20.2938715
| 43> *
| 44>
| 45>                          ****END OF INPUT****

CARTESIAN COORDINATES (ANGSTROEM)
---------------------------------
  C     15.505353   13.729494   16.265941
  C     15.247445   15.191082   15.840699
  O     16.420385   16.044760   15.822644
  C     17.534860   15.863462   16.596116
  O     18.114530   14.795810   16.700054
  C     17.844384   17.024164   17.497123
  C     17.432157   18.302571   17.292397
  C     16.625710   18.848150   16.131646
  N     17.818324   19.307871   18.185052
  C     18.711018   19.145940   19.211379
  S     19.198193   20.416945   20.150898
  N     19.178473   17.873424   19.420200
  C     18.685043   16.668090   18.728038
  C     17.890666   15.785355   19.687434
  C     18.227402   14.429156   19.852645
  C     17.491260   13.608811   20.723761
  C     16.407423   14.148195   21.437136
  C     16.066001   15.497408   21.272642
  O     15.014908   16.019348   21.953830
  C     16.800004   16.311192   20.404038
  H     16.259789   13.260969   15.621229
  H     14.583004   13.142019   16.185589
  H     15.846037   13.672360   17.307922
  H     14.786636   15.201222   14.844581
  H     14.516897   15.618693   16.539615
  H     15.578574   18.529576   16.202932
  H     17.025123   18.487385   15.175388
  H     16.636734   19.944039   16.088145
  H     17.487648   20.249646   18.048225
  H     19.812468   17.775051   20.202725
  H     19.561799   16.101061   18.382763
  H     19.053428   14.004883   19.286762
  H     17.758890   12.559821   20.837420
  H     15.835128   13.517666   22.109362
  H     14.671358   15.323252   22.533798
  H     16.519947   17.353130   20.293872

 Total Charge           Charge          ....    0
 Multiplicity           Mult            ....    1
 Number of Electrons    NEL             ....  154
 Basis Dimension        Dim             ....  828

ORBITAL ENERGIES
----------------

  NO   OCC          E(Eh)            E(eV)
   0   2.0000     -91.888253     -2500.4065
   1   2.0000     -20.594068      -560.3931
   2   2.0000     -20.590949      -560.3082
   3   2.0000     -20.548847      -559.1625
   4   2.0000     -15.628204      -425.2651
   5   2.0000     -15.607173      -424.6928
   6   2.0000     -11.397201      -310.1336
   7   2.0000     -11.383281      -309.7548
   8   2.0000     -11.335254      -308.4479
   9   2.0000     -11.310132      -307.7643
  10   2.0000     -11.306990      -307.6788
  11   2.0000     -11.306115      -307.6550
  12   2.0000     -11.259301      -306.3811
  13   2.0000     -11.258896      -306.3701
  14   2.0000     -11.255719      -306.2837
  15   2.0000     -11.250256      -306.1350
  16   2.0000     -11.239914      -305.8536
  17   2.0000     -11.235904      -305.7445
  18   2.0000     -11.232786      -305.6597
  19   2.0000     -11.223958      -305.4194
  20   2.0000      -8.893324      -241.9996
  21   2.0000      -6.574902      -178.9122
  22   2.0000      -6.572894      -178.8575
  23   2.0000      -6.572309      -178.8416
  24   2.0000      -1.445087       -39.3228
  25   2.0000      -1.413826       -38.4722
  26   2.0000      -1.356302       -36.9068
  27   2.0000      -1.339278       -36.4436
  28   2.0000      -1.237188       -33.6656
  29   2.0000      -1.154289       -31.4098
  30   2.0000      -1.119586       -30.4655
  31   2.0000      -1.042706       -28.3735
  32   2.0000      -1.033483       -28.1225
  33   2.0000      -1.011818       -27.5330
  34   2.0000      -0.998143       -27.1609
  35   2.0000      -0.983349       -26.7583
  36   2.0000      -0.922413       -25.1001
  37   2.0000      -0.894336       -24.3361
  38   2.0000      -0.848631       -23.0924
  39   2.0000      -0.837319       -22.7846
  40   2.0000      -0.830337       -22.5946
  41   2.0000      -0.820578       -22.3291
  42   2.0000      -0.743417       -20.2294
  43   2.0000      -0.726902       -19.7800
  44   2.0000      -0.725267       -19.7355
  45   2.0000      -0.692043       -18.8314
  46   2.0000      -0.684397       -18.6234
  47   2.0000      -0.678314       -18.4579
  48   2.0000      -0.674133       -18.3441
  49   2.0000      -0.665925       -18.1207
  50   2.0000      -0.647484       -17.6189
  51   2.0000      -0.644737       -17.5442
  52   2.0000      -0.635329       -17.2882
  53   2.0000      -0.611516       -16.6402
  54   2.0000      -0.602611       -16.3979
  55   2.0000      -0.601040       -16.3551
  56   2.0000      -0.597593       -16.2613
  57   2.0000      -0.575428       -15.6582
  58   2.0000      -0.574071       -15.6213
  59   2.0000      -0.568260       -15.4631
  60   2.0000      -0.557323       -15.1655
  61   2.0000      -0.545781       -14.8515
  62   2.0000      -0.536962       -14.6115
  63   2.0000      -0.526172       -14.3179
  64   2.0000      -0.518265       -14.1027
  65   2.0000      -0.511087       -13.9074
  66   2.0000      -0.499077       -13.5806
  67   2.0000      -0.494635       -13.4597
  68   2.0000      -0.480081       -13.0637
  69   2.0000      -0.463434       -12.6107
  70   2.0000      -0.454586       -12.3699
  71   2.0000      -0.447830       -12.1861
  72   2.0000      -0.353828        -9.6281
  73   2.0000      -0.346203        -9.4207
  74   2.0000      -0.327502        -8.9118
  75   2.0000      -0.317304        -8.6343
  76   2.0000      -0.315147        -8.5756
  77   0.0000       0.074041         2.0147
  78   0.0000       0.108282         2.9465
  79   0.0000       0.121052         3.2940
  80   0.0000       0.133942         3.6447
  81   0.0000       0.138868         3.7788

MULLIKEN ATOMIC CHARGES
-----------------------
   0 C :   -0.289497
   1 C :    0.049332
   2 O :   -0.376380
   3 C :    0.445329
   4 O :   -0.406578
   5 C :   -0.177634
   6 C :    0.145547
   7 C :   -0.283857
   8 N :   -0.123585
   9 C :    0.201696
  10 S :   -0.439856
  11 N :   -0.201148
  12 C :    0.050041
  13 C :    0.050262
  14 C :   -0.171329
  15 C :   -0.134163
  16 C :   -0.280214
  17 C :    0.312034
  18 O :   -0.358628
  19 C :   -0.275625
  20 H :    0.113999
  21 H :    0.096870
  22 H :    0.112994
  23 H :    0.100035
  24 H :    0.083485
  25 H :    0.122604
  26 H :    0.129391
  27 H :    0.103660
  28 H :    0.196957
  29 H :    0.194349
  30 H :    0.154965
  31 H :    0.157129
  32 H :    0.161063
  33 H :    0.129649
  34 H :    0.240442
  35 H :    0.166660
Sum of atomic charges:    0.0000000

LOEWDIN ATOMIC CHARGES
----------------------
   0 C :    0.104954
   1 C :   -0.012106
   2 O :    0.286585
   3 C :   -0.413401
   4 O :    0.123200
   5 C :   -0.093318
   6 C :   -0.068199
   7 C :    0.125072
   8 N :    0.404548
   9 C :   -0.458612
  10 S :   -0.036456
  11 N :    0.397590
  12 C :   -0.046418
  13 C :   -0.040277
  14 C :    0.021385
  15 C :    0.040246
  16 C :   -0.002620
  17 C :   -0.193226
  18 O :    0.393177
  19 C :    0.027781
  20 H :   -0.023167
  21 H :   -0.027324
  22 H :   -0.024573
  23 H :   -0.024720
  24 H :   -0.032942
  25 H :   -0.010650
  26 H :   -0.007130
  27 H :   -0.020676
  28 H :   -0.059053
  29 H :   -0.063839
  30 H :   -0.005180
  31 H :   -0.024764
  32 H :   -0.020796
  33 H :   -0.036030
  34 H :   -0.154507
  35 H :   -0.024553

  Mayer bond orders larger than 0.100000
B(  0-C ,  1-C ) :   0.9823 B(  0-C , 20-H ) :   0.9726 B(  0-C , 21-H ) :   0.9723
B(  0-C , 22-H ) :   0.9705 B(  1-C ,  2-O ) :   0.9040 B(  1-C , 23-H ) :   0.9789
B(  1-C , 24-H ) :   0.9744 B(  2-O ,  3-C ) :   1.0978 B(  3-C ,  4-O ) :   2.0196
B(  3-C ,  5-C ) :   1.0314 B(  5-C ,  6-C ) :   1.6600 B(  5-C , 12-C ) :   0.9633
B(  6-C ,  7-C ) :   0.9524 B(  6-C ,  8-N ) :   1.1430 B(  7-C , 25-H ) :   0.9656
B(  7-C , 26-H ) :   0.9663 B(  7-C , 27-H ) :   0.9905 B(  8-N ,  9-C ) :   1.1820
B(  8-N , 28-H ) :   0.9489 B(  9-C , 10-S ) :   1.6100 B(  9-C , 11-N ) :   1.3029
B( 11-N , 12-C ) :   0.9901 B( 11-N , 29-H ) :   0.9517 B( 12-C , 13-C ) :   0.9435
B( 12-C , 30-H ) :   0.9994 B( 13-C , 14-C ) :   1.3756 B( 13-C , 19-C ) :   1.3687
B( 14-C , 15-C ) :   1.3939 B( 14-C , 31-H ) :   0.9639 B( 15-C , 16-C ) :   1.3622
B( 15-C , 32-H ) :   0.9708 B( 16-C , 17-C ) :   1.3312 B( 16-C , 33-H ) :   0.9855
B( 17-C , 18-O ) :   1.1088 B( 17-C , 19-C ) :   1.3762 B( 18-O , 34-H ) :   0.9802
B( 19-C , 35-H ) :   0.9580

MP2 TOTAL ENERGY:    -1274.331517611 Eh
FINAL SINGLE POINT ENERGY     -1274.331517610558

DIPOLE MOMENT
-------------
                                X             Y             Z
Electronic contribution:      9.96110      10.43813       8.38022
Nuclear contribution   :    -11.56123     -11.65227      -9.19394
                        -----------------------------------------
Total Dipole Moment    :     -1.60012      -1.21414      -0.81372
                        -----------------------------------------
Magnitude (a.u.)       :      2.16718
Magnitude (Debye)      :      5.50853

Rotational constants in cm-1:     0.011420     0.009121     0.006251
Rotational constants in MHz :   342.375233   273.438035   187.390350

                             ****ORCA TERMINATED NORMALLY****
TOTAL RUN TIME: 0 days 1 hours 54 minutes 25 seconds 246 msec
