                         Program Version 5.0.0 -  RELEASE  -
|  1> ! ri-mp2 cc-pvtz cc-pvtz/c TightSCF NoKeepInts
|  2>
|  3> %scf
|  4>   MaxCore 4096
|  5> end
|  6> *xyz  0  1
|  7>     C       15.2215146   14.0353877   14.8580907
|  8>     C       15.1587089   14.8019718   16.1908830
|  9>     O       16.1543883   15.8398874   16.1517844
| 10>     C       17.3370605   15.6518355   16.8073487
| 11>     O       17.7875681   14.5368107   17.0146397
| 12>     C       17.7868537   16.8488587   17.5937503
| 13>     C       17.4529069   18.1333070   17.3038248
| 14>     C       16.6058310   18.6368476   16.1531624
| 15>     N       17.9765916   19.1774927   18.0731509
| 16>     C       18.9427361   19.0344827   19.0338821
| 17>     S       19.6000471   20.3387693   19.8099882
| 18>     N       19.3371587   17.7516047   19.3179756
| 19>     C       18.6928625   16.5344996   18.7894008
| 20>     C       17.9151304   15.8202667   19.8919076
| 21>     C       18.1673410   14.4660283   20.1791434
| 22>     C       17.4514992   13.8022611   21.1895332
| 23>     C       16.4736086   14.4978816   21.9205895
| 24>     C       16.2163588   15.8456431   21.6352509
| 25>     O       15.2680185   16.5183572   22.3348502
| 26>     C       16.9299948   16.5033850   20.6284840
| 27>     H       15.0657372   14.7145414   14.0108639
| 28>     H       14.4484085   13.2583107   14.8242870
| 29>     H       16.1988052   13.5502246   14.7393141
| 30>     H       14.1647600   15.2559833   16.2929613
| 31>     H       15.3110583   14.1222334   17.0411386
| 32>     H       16.9031584   18.1598328   15.2108526
| 33>     H       16.6952932   19.7199125   16.0052766
| 34>     H       15.5460069   18.4114626   16.3253160
| 35>     H       17.7002394   20.1266954   17.8790289
| 36>     H       20.0284505   17.6712820   20.0525602
| 37>     H       19.4892848   15.8621633   18.4388080
| 38>     H       18.9109466   13.9209246   19.6027439
| 39>     H       17.6525324   12.7528838   21.3974990
| 40>     H       15.9173406   13.9886389   22.7004462
| 41>     H       14.9215210   15.9137537   23.0080585
| 42>     H       16.7172776   17.5475786   20.4272049
| 43> *
| 44>
| 45>                          ****END OF INPUT****

CARTESIAN COORDINATES (ANGSTROEM)
---------------------------------
  C     15.221515   14.035388   14.858091
  C     15.158709   14.801972   16.190883
  O     16.154388   15.839887   16.151784
  C     17.337060   15.651836   16.807349
  O     17.787568   14.536811   17.014640
  C     17.786854   16.848859   17.593750
  C     17.452907   18.133307   17.303825
  C     16.605831   18.636848   16.153162
  N     17.976592   19.177493   18.073151
  C     18.942736   19.034483   19.033882
  S     19.600047   20.338769   19.809988
  N     19.337159   17.751605   19.317976
  C     18.692863   16.534500   18.789401
  C     17.915130   15.820267   19.891908
  C     18.167341   14.466028   20.179143
  C     17.451499   13.802261   21.189533
  C     16.473609   14.497882   21.920589
  C     16.216359   15.845643   21.635251
  O     15.268019   16.518357   22.334850
  C     16.929995   16.503385   20.628484
  H     15.065737   14.714541   14.010864
  H     14.448408   13.258311   14.824287
  H     16.198805   13.550225   14.739314
  H     14.164760   15.255983   16.292961
  H     15.311058   14.122233   17.041139
  H     16.903158   18.159833   15.210853
  H     16.695293   19.719912   16.005277
  H     15.546007   18.411463   16.325316
  H     17.700239   20.126695   17.879029
  H     20.028451   17.671282   20.052560
  H     19.489285   15.862163   18.438808
  H     18.910947   13.920925   19.602744
  H     17.652532   12.752884   21.397499
  H     15.917341   13.988639   22.700446
  H     14.921521   15.913754   23.008059
  H     16.717278   17.547579   20.427205

 Total Charge           Charge          ....    0
 Multiplicity           Mult            ....    1
 Number of Electrons    NEL             ....  154
 Basis Dimension        Dim             ....  828

ORBITAL ENERGIES
----------------

  NO   OCC          E(Eh)            E(eV)
   0   2.0000     -91.888187     -2500.4047
   1   2.0000     -20.597289      -560.4807
   2   2.0000     -20.592634      -560.3541
   3   2.0000     -20.549559      -559.1819
   4   2.0000     -15.628277      -425.2670
   5   2.0000     -15.607090      -424.6905
   6   2.0000     -11.396490      -310.1143
   7   2.0000     -11.383249      -309.7540
   8   2.0000     -11.335163      -308.4455
   9   2.0000     -11.308590      -307.7224
  10   2.0000     -11.306522      -307.6661
  11   2.0000     -11.299884      -307.4855
  12   2.0000     -11.260375      -306.4104
  13   2.0000     -11.259161      -306.3774
  14   2.0000     -11.254508      -306.2507
  15   2.0000     -11.248811      -306.0957
  16   2.0000     -11.238410      -305.8127
  17   2.0000     -11.234447      -305.7048
  18   2.0000     -11.231578      -305.6268
  19   2.0000     -11.225304      -305.4561
  20   2.0000      -8.893252      -241.9977
  21   2.0000      -6.574830      -178.9102
  22   2.0000      -6.572822      -178.8556
  23   2.0000      -6.572237      -178.8397
  24   2.0000      -1.454077       -39.5675
  25   2.0000      -1.412374       -38.4327
  26   2.0000      -1.357636       -36.9432
  27   2.0000      -1.339290       -36.4439
  28   2.0000      -1.237109       -33.6635
  29   2.0000      -1.153099       -31.3774
  30   2.0000      -1.120033       -30.4777
  31   2.0000      -1.042871       -28.3780
  32   2.0000      -1.034472       -28.1494
  33   2.0000      -1.010468       -27.4962
  34   2.0000      -0.997606       -27.1462
  35   2.0000      -0.982988       -26.7485
  36   2.0000      -0.921685       -25.0803
  37   2.0000      -0.888268       -24.1710
  38   2.0000      -0.847773       -23.0691
  39   2.0000      -0.836263       -22.7559
  40   2.0000      -0.828952       -22.5569
  41   2.0000      -0.820608       -22.3299
  42   2.0000      -0.756218       -20.5777
  43   2.0000      -0.735096       -20.0030
  44   2.0000      -0.725812       -19.7504
  45   2.0000      -0.691425       -18.8146
  46   2.0000      -0.685595       -18.6560
  47   2.0000      -0.680428       -18.5154
  48   2.0000      -0.672000       -18.2861
  49   2.0000      -0.658743       -17.9253
  50   2.0000      -0.646323       -17.5873
  51   2.0000      -0.641298       -17.4506
  52   2.0000      -0.629549       -17.1309
  53   2.0000      -0.612643       -16.6709
  54   2.0000      -0.600756       -16.3474
  55   2.0000      -0.600662       -16.3449
  56   2.0000      -0.595861       -16.2142
  57   2.0000      -0.584279       -15.8991
  58   2.0000      -0.573977       -15.6187
  59   2.0000      -0.565790       -15.3959
  60   2.0000      -0.561215       -15.2714
  61   2.0000      -0.546740       -14.8775
  62   2.0000      -0.534150       -14.5350
  63   2.0000      -0.522378       -14.2146
  64   2.0000      -0.518020       -14.0960
  65   2.0000      -0.510515       -13.8918
  66   2.0000      -0.501599       -13.6492
  67   2.0000      -0.496076       -13.4989
  68   2.0000      -0.480757       -13.0821
  69   2.0000      -0.462349       -12.5812
  70   2.0000      -0.457223       -12.4417
  71   2.0000      -0.454925       -12.3791
  72   2.0000      -0.353991        -9.6326
  73   2.0000      -0.344909        -9.3855
  74   2.0000      -0.327358        -8.9079
  75   2.0000      -0.316107        -8.6017
  76   2.0000      -0.314634        -8.5616
  77   0.0000       0.074714         2.0331
  78   0.0000       0.111107         3.0234
  79   0.0000       0.121286         3.3004
  80   0.0000       0.135161         3.6779
  81   0.0000       0.139942         3.8080

MULLIKEN ATOMIC CHARGES
-----------------------
   0 C :   -0.276030
   1 C :    0.041429
   2 O :   -0.355485
   3 C :    0.431938
   4 O :   -0.421131
   5 C :   -0.161716
   6 C :    0.142858
   7 C :   -0.283502
   8 N :   -0.123366
   9 C :    0.201903
  10 S :   -0.439564
  11 N :   -0.198195
  12 C :    0.040660
  13 C :    0.053766
  14 C :   -0.163818
  15 C :   -0.134199
  16 C :   -0.279524
  17 C :    0.311336
  18 O :   -0.358803
  19 C :   -0.271939
  20 H :    0.090531
  21 H :    0.090958
  22 H :    0.110051
  23 H :    0.099148
  24 H :    0.105059
  25 H :    0.125472
  26 H :    0.102290
  27 H :    0.127036
  28 H :    0.196968
  29 H :    0.193808
  30 H :    0.153943
  31 H :    0.154427
  32 H :    0.159703
  33 H :    0.128586
  34 H :    0.240166
  35 H :    0.165235
Sum of atomic charges:   -0.0000000

LOEWDIN ATOMIC CHARGES
----------------------
   0 C :    0.104293
   1 C :   -0.014783
   2 O :    0.302162
   3 C :   -0.414373
   4 O :    0.110275
   5 C :   -0.091528
   6 C :   -0.068379
   7 C :    0.125349
   8 N :    0.404574
   9 C :   -0.458487
  10 S :   -0.036219
  11 N :    0.397553
  12 C :   -0.045966
  13 C :   -0.039266
  14 C :    0.021389
  15 C :    0.040511
  16 C :   -0.002386
  17 C :   -0.192735
  18 O :    0.393130
  19 C :    0.028526
  20 H :   -0.029722
  21 H :   -0.028030
  22 H :   -0.023519
  23 H :   -0.028350
  24 H :   -0.025686
  25 H :   -0.008457
  26 H :   -0.020515
  27 H :   -0.009578
  28 H :   -0.058975
  29 H :   -0.063809
  30 H :   -0.004890
  31 H :   -0.025207
  32 H :   -0.021091
  33 H :   -0.036269
  34 H :   -0.154760
  35 H :   -0.024781

  Mayer bond orders larger than 0.100000
B(  0-C ,  1-C ) :   0.9710 B(  0-C , 20-H ) :   0.9778 B(  0-C , 21-H ) :   0.9763
B(  0-C , 22-H ) :   0.9761 B(  1-C ,  2-O ) :   0.8930 B(  1-C , 23-H ) :   0.9833
B(  1-C , 24-H ) :   0.9729 B(  2-O ,  3-C ) :   1.1202 B(  3-C ,  4-O ) :   1.9822
B(  3-C ,  5-C ) :   1.0512 B(  5-C ,  6-C ) :   1.6551 B(  5-C , 12-C ) :   0.9647
B(  6-C ,  7-C ) :   0.9538 B(  6-C ,  8-N ) :   1.1418 B(  7-C , 25-H ) :   0.9678
B(  7-C , 26-H ) :   0.9904 B(  7-C , 27-H ) :   0.9633 B(  8-N ,  9-C ) :   1.1810
B(  8-N , 28-H ) :   0.9491 B(  9-C , 10-S ) :   1.6105 B(  9-C , 11-N ) :   1.3025
B( 11-N , 12-C ) :   0.9918 B( 11-N , 29-H ) :   0.9518 B( 12-C , 13-C ) :   0.9465
B( 12-C , 30-H ) :   0.9991 B( 13-C , 14-C ) :   1.3758 B( 13-C , 19-C ) :   1.3699
B( 14-C , 15-C ) :   1.3944 B( 14-C , 31-H ) :   0.9646 B( 15-C , 16-C ) :   1.3628
B( 15-C , 32-H ) :   0.9712 B( 16-C , 17-C ) :   1.3312 B( 16-C , 33-H ) :   0.9858
B( 17-C , 18-O ) :   1.1084 B( 17-C , 19-C ) :   1.3782 B( 18-O , 34-H ) :   0.9805
B( 19-C , 35-H ) :   0.9584

MP2 TOTAL ENERGY:    -1274.339236157 Eh
FINAL SINGLE POINT ENERGY     -1274.339236156938

DIPOLE MOMENT
-------------
                                X             Y             Z
Electronic contribution:     10.72964      10.02360      10.82767
Nuclear contribution   :    -12.34841     -11.19713     -11.56973
                        -----------------------------------------
Total Dipole Moment    :     -1.61877      -1.17353      -0.74206
                        -----------------------------------------
Magnitude (a.u.)       :      2.13266
Magnitude (Debye)      :      5.42080

Rotational constants in cm-1:     0.010700     0.008948     0.005903
Rotational constants in MHz :   320.776227   268.263806   176.977629

                             ****ORCA TERMINATED NORMALLY****
TOTAL RUN TIME: 0 days 1 hours 35 minutes 33 seconds 765 msec
