                         Program Version 5.0.0 -  RELEASE  -
|  1> ! ri-mp2 cc-pvtz cc-pvtz/c TightSCF NoKeepInts
|  2>
|  3> %scf
|  4>   MaxCore 4096
|  5> end
|  6> *xyz  0  1
|  7>     C       14.6585785   14.4495841   17.2426506
|  8>     C       15.5999755   15.5596165   16.7487946
|  9>     O       16.9093198   14.9762431   16.6348103
| 10>     C       18.0587277   15.7103926   16.5051078
| 11>     O       19.0995349   15.1151881   16.2986765
| 12>     C       18.0833752   16.9209600   17.3744113
| 13>     C       17.5974952   18.1106393   16.9574617
| 14>     C       16.9797220   18.4096699   15.6089335
| 15>     N       17.6769950   19.2253565   17.7946050
| 16>     C       18.3035170   19.2385925   19.0144455
| 17>     S       18.3951874   20.6150025   19.9261038
| 18>     N       18.8429241   18.0506790   19.4465246
| 19>     C       18.7246047   16.7534770   18.7498293
| 20>     C       17.9474764   15.7397267   19.5834519
| 21>     C       18.4043059   14.4131735   19.6861289
| 22>     C       17.6797741   13.4614233   20.4227692
| 23>     C       16.4847745   13.8371928   21.0594022
| 24>     C       16.0219108   15.1554366   20.9522649
| 25>     O       14.8591412   15.5173487   21.5502154
| 26>     C       16.7454112   16.1015196   20.2195648
| 27>     H       14.9999570   14.0591201   18.2098856
| 28>     H       14.6310322   13.6187426   16.5266120
| 29>     H       13.6387231   14.8329009   17.3673882
| 30>     H       15.2622941   15.9469989   15.7789682
| 31>     H       15.5821888   16.3710892   17.4870027
| 32>     H       17.1903283   17.6242877   14.8724886
| 33>     H       17.3792635   19.3435812   15.1929760
| 34>     H       15.8909619   18.5158099   15.6891733
| 35>     H       17.2973978   20.1092164   17.4931372
| 36>     H       19.2779373   18.0865161   20.3598321
| 37>     H       19.7411003   16.3624304   18.5949928
| 38>     H       19.3160452   14.1140196   19.1736088
| 39>     H       18.0411112   12.4365936   20.4885484
| 40>     H       15.9198919   13.1033031   21.6245726
| 41>     H       14.5403722   14.7511597   22.0510554
| 42>     H       16.3656442   17.1150081   20.1476063
| 43> *
| 44>
| 45>                          ****END OF INPUT****

CARTESIAN COORDINATES (ANGSTROEM)
---------------------------------
  C     14.658578   14.449584   17.242651
  C     15.599975   15.559617   16.748795
  O     16.909320   14.976243   16.634810
  C     18.058728   15.710393   16.505108
  O     19.099535   15.115188   16.298676
  C     18.083375   16.920960   17.374411
  C     17.597495   18.110639   16.957462
  C     16.979722   18.409670   15.608933
  N     17.676995   19.225357   17.794605
  C     18.303517   19.238592   19.014446
  S     18.395187   20.615002   19.926104
  N     18.842924   18.050679   19.446525
  C     18.724605   16.753477   18.749829
  C     17.947476   15.739727   19.583452
  C     18.404306   14.413173   19.686129
  C     17.679774   13.461423   20.422769
  C     16.484775   13.837193   21.059402
  C     16.021911   15.155437   20.952265
  O     14.859141   15.517349   21.550215
  C     16.745411   16.101520   20.219565
  H     14.999957   14.059120   18.209886
  H     14.631032   13.618743   16.526612
  H     13.638723   14.832901   17.367388
  H     15.262294   15.946999   15.778968
  H     15.582189   16.371089   17.487003
  H     17.190328   17.624288   14.872489
  H     17.379263   19.343581   15.192976
  H     15.890962   18.515810   15.689173
  H     17.297398   20.109216   17.493137
  H     19.277937   18.086516   20.359832
  H     19.741100   16.362430   18.594993
  H     19.316045   14.114020   19.173609
  H     18.041111   12.436594   20.488548
  H     15.919892   13.103303   21.624573
  H     14.540372   14.751160   22.051055
  H     16.365644   17.115008   20.147606

 Total Charge           Charge          ....    0
 Multiplicity           Mult            ....    1
 Number of Electrons    NEL             ....  154
 Basis Dimension        Dim             ....  828

ORBITAL ENERGIES
----------------

  NO   OCC          E(Eh)            E(eV)
   0   2.0000     -91.888416     -2500.4109
   1   2.0000     -20.602738      -560.6290
   2   2.0000     -20.599754      -560.5478
   3   2.0000     -20.554954      -559.3287
   4   2.0000     -15.624069      -425.1525
   5   2.0000     -15.611122      -424.8002
   6   2.0000     -11.395974      -310.1002
   7   2.0000     -11.385480      -309.8147
   8   2.0000     -11.323397      -308.1253
   9   2.0000     -11.316294      -307.9320
  10   2.0000     -11.316158      -307.9283
  11   2.0000     -11.303511      -307.5842
  12   2.0000     -11.270179      -306.6772
  13   2.0000     -11.263749      -306.5022
  14   2.0000     -11.263104      -306.4846
  15   2.0000     -11.256285      -306.2991
  16   2.0000     -11.245412      -306.0032
  17   2.0000     -11.241644      -305.9007
  18   2.0000     -11.238887      -305.8257
  19   2.0000     -11.230438      -305.5958
  20   2.0000      -8.893553      -242.0059
  21   2.0000      -6.575148      -178.9189
  22   2.0000      -6.573115      -178.8636
  23   2.0000      -6.572547      -178.8481
  24   2.0000      -1.453438       -39.5501
  25   2.0000      -1.419549       -38.6279
  26   2.0000      -1.362006       -37.0621
  27   2.0000      -1.338116       -36.4120
  28   2.0000      -1.238554       -33.7028
  29   2.0000      -1.160721       -31.5848
  30   2.0000      -1.124998       -30.6128
  31   2.0000      -1.048787       -28.5390
  32   2.0000      -1.040027       -28.3006
  33   2.0000      -1.018245       -27.7079
  34   2.0000      -1.004494       -27.3337
  35   2.0000      -0.988253       -26.8917
  36   2.0000      -0.927421       -25.2364
  37   2.0000      -0.881044       -23.9744
  38   2.0000      -0.854125       -23.2419
  39   2.0000      -0.840801       -22.8794
  40   2.0000      -0.836616       -22.7655
  41   2.0000      -0.836348       -22.7582
  42   2.0000      -0.758286       -20.6340
  43   2.0000      -0.738386       -20.0925
  44   2.0000      -0.731141       -19.8954
  45   2.0000      -0.698212       -18.9993
  46   2.0000      -0.689470       -18.7614
  47   2.0000      -0.683104       -18.5882
  48   2.0000      -0.676994       -18.4219
  49   2.0000      -0.660690       -17.9783
  50   2.0000      -0.657259       -17.8849
  51   2.0000      -0.648271       -17.6403
  52   2.0000      -0.639273       -17.3955
  53   2.0000      -0.611678       -16.6446
  54   2.0000      -0.608988       -16.5714
  55   2.0000      -0.605250       -16.4697
  56   2.0000      -0.600871       -16.3505
  57   2.0000      -0.586418       -15.9572
  58   2.0000      -0.577831       -15.7236
  59   2.0000      -0.567258       -15.4359
  60   2.0000      -0.560853       -15.2616
  61   2.0000      -0.553872       -15.0716
  62   2.0000      -0.548107       -14.9147
  63   2.0000      -0.528994       -14.3946
  64   2.0000      -0.520126       -14.1534
  65   2.0000      -0.514147       -13.9907
  66   2.0000      -0.504637       -13.7319
  67   2.0000      -0.501713       -13.6523
  68   2.0000      -0.488673       -13.2975
  69   2.0000      -0.468799       -12.7567
  70   2.0000      -0.455284       -12.3889
  71   2.0000      -0.451867       -12.2959
  72   2.0000      -0.355419        -9.6714
  73   2.0000      -0.351260        -9.5583
  74   2.0000      -0.328307        -8.9337
  75   2.0000      -0.323793        -8.8109
  76   2.0000      -0.316622        -8.6157
  77   0.0000       0.090633         2.4663
  78   0.0000       0.102100         2.7783
  79   0.0000       0.107511         2.9255
  80   0.0000       0.126689         3.4474
  81   0.0000       0.129961         3.5364

MULLIKEN ATOMIC CHARGES
-----------------------
   0 C :   -0.263550
   1 C :    0.000059
   2 O :   -0.301664
   3 C :    0.382801
   4 O :   -0.369411
   5 C :   -0.153541
   6 C :    0.116229
   7 C :   -0.323199
   8 N :   -0.134854
   9 C :    0.206965
  10 S :   -0.444007
  11 N :   -0.213254
  12 C :    0.054630
  13 C :    0.037868
  14 C :   -0.184400
  15 C :   -0.126992
  16 C :   -0.280131
  17 C :    0.301365
  18 O :   -0.361078
  19 C :   -0.269193
  20 H :    0.111134
  21 H :    0.104671
  22 H :    0.088231
  23 H :    0.106231
  24 H :    0.098891
  25 H :    0.121781
  26 H :    0.133459
  27 H :    0.123716
  28 H :    0.195046
  29 H :    0.198175
  30 H :    0.165401
  31 H :    0.161595
  32 H :    0.162739
  33 H :    0.133210
  34 H :    0.241885
  35 H :    0.179190
Sum of atomic charges:    0.0000000

LOEWDIN ATOMIC CHARGES
----------------------
   0 C :    0.113039
   1 C :   -0.029847
   2 O :    0.322368
   3 C :   -0.422175
   4 O :    0.134645
   5 C :   -0.080079
   6 C :   -0.112524
   7 C :    0.123800
   8 N :    0.399532
   9 C :   -0.455054
  10 S :   -0.040336
  11 N :    0.397390
  12 C :   -0.042448
  13 C :   -0.040424
  14 C :    0.024922
  15 C :    0.046319
  16 C :   -0.000914
  17 C :   -0.194071
  18 O :    0.394769
  19 C :    0.027847
  20 H :   -0.022339
  21 H :   -0.025724
  22 H :   -0.025415
  23 H :   -0.037312
  24 H :   -0.038573
  25 H :   -0.010174
  26 H :   -0.010571
  27 H :   -0.016637
  28 H :   -0.059385
  29 H :   -0.063714
  30 H :   -0.002433
  31 H :   -0.022815
  32 H :   -0.018685
  33 H :   -0.035025
  34 H :   -0.153028
  35 H :   -0.024931

  Mayer bond orders larger than 0.100000
B(  0-C ,  1-C ) :   0.9823 B(  0-C , 20-H ) :   0.9734 B(  0-C , 21-H ) :   0.9806
B(  0-C , 22-H ) :   0.9762 B(  1-C ,  2-O ) :   0.9196 B(  1-C , 23-H ) :   0.9758
B(  1-C , 24-H ) :   0.9610 B(  2-O ,  3-C ) :   1.1396 B(  3-C ,  4-O ) :   2.1007
B(  3-C ,  5-C ) :   0.9203 B(  5-C ,  6-C ) :   1.7070 B(  5-C , 12-C ) :   0.9663
B(  6-C ,  7-C ) :   0.9389 B(  6-C ,  8-N ) :   1.1058 B(  7-C , 25-H ) :   0.9823
B(  7-C , 26-H ) :   0.9738 B(  7-C , 27-H ) :   0.9653 B(  8-N ,  9-C ) :   1.1998
B(  8-N , 28-H ) :   0.9534 B(  9-C , 10-S ) :   1.6080 B(  9-C , 11-N ) :   1.2850
B( 11-N , 12-C ) :   0.9980 B( 11-N , 29-H ) :   0.9486 B( 12-C , 13-C ) :   0.9460
B( 12-C , 30-H ) :   0.9975 B( 13-C , 14-C ) :   1.3855 B( 13-C , 19-C ) :   1.3429
B( 14-C , 15-C ) :   1.3976 B( 14-C , 31-H ) :   0.9641 B( 15-C , 16-C ) :   1.3607
B( 15-C , 32-H ) :   0.9705 B( 16-C , 17-C ) :   1.3301 B( 16-C , 33-H ) :   0.9848
B( 17-C , 18-O ) :   1.1052 B( 17-C , 19-C ) :   1.3701 B( 18-O , 34-H ) :   0.9791
B( 19-C , 35-H ) :   0.9560

MP2 TOTAL ENERGY:    -1274.324487190 Eh
FINAL SINGLE POINT ENERGY     -1274.324487189508

DIPOLE MOMENT
-------------
                                X             Y             Z
Electronic contribution:     10.61906       8.06048       6.23063
Nuclear contribution   :    -12.20681      -9.15151      -6.81957
                        -----------------------------------------
Total Dipole Moment    :     -1.58775      -1.09103      -0.58894
                        -----------------------------------------
Magnitude (a.u.)       :      2.01449
Magnitude (Debye)      :      5.12042

Rotational constants in cm-1:     0.012686     0.008988     0.006921
Rotational constants in MHz :   380.325261   269.464416   207.489843

                             ****ORCA TERMINATED NORMALLY****
TOTAL RUN TIME: 0 days 2 hours 11 minutes 1 seconds 158 msec
