                         Program Version 5.0.0 -  RELEASE  -
|  1> ! ri-mp2 cc-pvtz cc-pvtz/c TightSCF NoKeepInts
|  2>
|  3> %scf
|  4>   MaxCore 4096
|  5> end
|  6> *xyz  0  1
|  7>     C       15.2995821   14.5283121   16.9362221
|  8>     C       16.7411411   14.1537514   16.5322916
|  9>     O       17.2804368   15.1470030   15.6425553
| 10>     C       17.2847615   16.5092309   15.8179079
| 11>     O       17.1212074   17.2007334   14.8302852
| 12>     C       17.5633162   17.1091876   17.1807971
| 13>     C       17.2841640   18.4188232   17.4252725
| 14>     C       16.4859920   19.3731445   16.5626011
| 15>     N       17.8310291   19.0518672   18.5478651
| 16>     C       18.9095396   18.5635284   19.2398301
| 17>     S       19.7353253   19.4721076   20.3481431
| 18>     N       19.2837257   17.2788005   18.9333170
| 19>     C       18.4018397   16.3377031   18.2207527
| 20>     C       17.5957210   15.5937403   19.2891004
| 21>     C       18.1018031   14.3931834   19.8257397
| 22>     C       17.3959347   13.6949407   20.8195159
| 23>     C       16.1780870   14.2071294   21.2962016
| 24>     C       15.6820870   15.4139464   20.7865645
| 25>     O       14.5107946   15.9178140   21.2495928
| 26>     C       16.3860767   16.1057126   19.7962820
| 27>     H       15.2462346   15.5065527   17.4242016
| 28>     H       14.8927008   13.7825709   17.6301403
| 29>     H       14.6518998   14.5571373   16.0509103
| 30>     H       17.3760667   14.0066054   17.4047066
| 31>     H       16.7167890   13.1910937   16.0052746
| 32>     H       15.5981145   18.8787258   16.1487320
| 33>     H       17.0907725   19.7205356   15.7146966
| 34>     H       16.1392782   20.2545372   17.1146601
| 35>     H       17.5814899   20.0065838   18.7519399
| 36>     H       20.0769859   16.9347105   19.4584005
| 37>     H       19.0356505   15.6175150   17.6843917
| 38>     H       19.0495282   13.9978131   19.4694607
| 39>     H       17.7961556   12.7660355   21.2229501
| 40>     H       15.6300526   13.6733200   22.0659487
| 41>     H       14.2109948   15.3441019   21.9712144
| 42>     H       15.9817217   17.0435020   19.4355342
| 43> *
| 44>
| 45>                          ****END OF INPUT****

CARTESIAN COORDINATES (ANGSTROEM)
---------------------------------
  C     15.299582   14.528312   16.936222
  C     16.741141   14.153751   16.532292
  O     17.280437   15.147003   15.642555
  C     17.284761   16.509231   15.817908
  O     17.121207   17.200733   14.830285
  C     17.563316   17.109188   17.180797
  C     17.284164   18.418823   17.425272
  C     16.485992   19.373144   16.562601
  N     17.831029   19.051867   18.547865
  C     18.909540   18.563528   19.239830
  S     19.735325   19.472108   20.348143
  N     19.283726   17.278800   18.933317
  C     18.401840   16.337703   18.220753
  C     17.595721   15.593740   19.289100
  C     18.101803   14.393183   19.825740
  C     17.395935   13.694941   20.819516
  C     16.178087   14.207129   21.296202
  C     15.682087   15.413946   20.786565
  O     14.510795   15.917814   21.249593
  C     16.386077   16.105713   19.796282
  H     15.246235   15.506553   17.424202
  H     14.892701   13.782571   17.630140
  H     14.651900   14.557137   16.050910
  H     17.376067   14.006605   17.404707
  H     16.716789   13.191094   16.005275
  H     15.598114   18.878726   16.148732
  H     17.090772   19.720536   15.714697
  H     16.139278   20.254537   17.114660
  H     17.581490   20.006584   18.751940
  H     20.076986   16.934711   19.458400
  H     19.035650   15.617515   17.684392
  H     19.049528   13.997813   19.469461
  H     17.796156   12.766035   21.222950
  H     15.630053   13.673320   22.065949
  H     14.210995   15.344102   21.971214
  H     15.981722   17.043502   19.435534

 Total Charge           Charge          ....    0
 Multiplicity           Mult            ....    1
 Number of Electrons    NEL             ....  154
 Basis Dimension        Dim             ....  828

ORBITAL ENERGIES
----------------

  NO   OCC          E(Eh)            E(eV)
   0   2.0000     -91.892777     -2500.5296
   1   2.0000     -20.604806      -560.6853
   2   2.0000     -20.590493      -560.2958
   3   2.0000     -20.538886      -558.8915
   4   2.0000     -15.632703      -425.3875
   5   2.0000     -15.611778      -424.8181
   6   2.0000     -11.394657      -310.0644
   7   2.0000     -11.386569      -309.8443
   8   2.0000     -11.337936      -308.5209
   9   2.0000     -11.322337      -308.0964
  10   2.0000     -11.320161      -308.0372
  11   2.0000     -11.300761      -307.5093
  12   2.0000     -11.270505      -306.6860
  13   2.0000     -11.264643      -306.5265
  14   2.0000     -11.262972      -306.4811
  15   2.0000     -11.253335      -306.2188
  16   2.0000     -11.250492      -306.1414
  17   2.0000     -11.247592      -306.0625
  18   2.0000     -11.246114      -306.0223
  19   2.0000     -11.229373      -305.5668
  20   2.0000      -8.897718      -242.1192
  21   2.0000      -6.579267      -179.0310
  22   2.0000      -6.577293      -178.9773
  23   2.0000      -6.576684      -178.9607
  24   2.0000      -1.441104       -39.2144
  25   2.0000      -1.424355       -38.7587
  26   2.0000      -1.350692       -36.7542
  27   2.0000      -1.344787       -36.5935
  28   2.0000      -1.243343       -33.8331
  29   2.0000      -1.165316       -31.7099
  30   2.0000      -1.121998       -30.5311
  31   2.0000      -1.049003       -28.5448
  32   2.0000      -1.032965       -28.1084
  33   2.0000      -1.024530       -27.8789
  34   2.0000      -1.002018       -27.2663
  35   2.0000      -0.987618       -26.8744
  36   2.0000      -0.928475       -25.2651
  37   2.0000      -0.896893       -24.4057
  38   2.0000      -0.851355       -23.1665
  39   2.0000      -0.850654       -23.1475
  40   2.0000      -0.842147       -22.9160
  41   2.0000      -0.827059       -22.5054
  42   2.0000      -0.754183       -20.5224
  43   2.0000      -0.738712       -20.1014
  44   2.0000      -0.714727       -19.4487
  45   2.0000      -0.704601       -19.1732
  46   2.0000      -0.695873       -18.9357
  47   2.0000      -0.678112       -18.4524
  48   2.0000      -0.672275       -18.2935
  49   2.0000      -0.661416       -17.9980
  50   2.0000      -0.654085       -17.7986
  51   2.0000      -0.652559       -17.7570
  52   2.0000      -0.637274       -17.3411
  53   2.0000      -0.623634       -16.9699
  54   2.0000      -0.616152       -16.7664
  55   2.0000      -0.606611       -16.5067
  56   2.0000      -0.602054       -16.3827
  57   2.0000      -0.585254       -15.9256
  58   2.0000      -0.574603       -15.6357
  59   2.0000      -0.566892       -15.4259
  60   2.0000      -0.552823       -15.0431
  61   2.0000      -0.543766       -14.7966
  62   2.0000      -0.538919       -14.6647
  63   2.0000      -0.538726       -14.6595
  64   2.0000      -0.534001       -14.5309
  65   2.0000      -0.517783       -14.0896
  66   2.0000      -0.510868       -13.9014
  67   2.0000      -0.496076       -13.4989
  68   2.0000      -0.483596       -13.1593
  69   2.0000      -0.465448       -12.6655
  70   2.0000      -0.448612       -12.2073
  71   2.0000      -0.442549       -12.0424
  72   2.0000      -0.363794        -9.8993
  73   2.0000      -0.357251        -9.7213
  74   2.0000      -0.333444        -9.0735
  75   2.0000      -0.328283        -8.9330
  76   2.0000      -0.318671        -8.6715
  77   0.0000       0.071604         1.9484
  78   0.0000       0.103056         2.8043
  79   0.0000       0.117270         3.1911
  80   0.0000       0.122116         3.3230
  81   0.0000       0.129067         3.5121

MULLIKEN ATOMIC CHARGES
-----------------------
   0 C :   -0.311234
   1 C :    0.025779
   2 O :   -0.329204
   3 C :    0.451591
   4 O :   -0.386981
   5 C :   -0.238732
   6 C :    0.117503
   7 C :   -0.272347
   8 N :   -0.121371
   9 C :    0.214741
  10 S :   -0.433150
  11 N :   -0.201195
  12 C :    0.034117
  13 C :    0.075184
  14 C :   -0.227135
  15 C :   -0.127752
  16 C :   -0.277076
  17 C :    0.327216
  18 O :   -0.357178
  19 C :   -0.278551
  20 H :    0.098589
  21 H :    0.106194
  22 H :    0.122229
  23 H :    0.081631
  24 H :    0.125260
  25 H :    0.124048
  26 H :    0.144210
  27 H :    0.093211
  28 H :    0.199653
  29 H :    0.188501
  30 H :    0.161592
  31 H :    0.154977
  32 H :    0.162984
  33 H :    0.133284
  34 H :    0.243154
  35 H :    0.176256
Sum of atomic charges:    0.0000000

LOEWDIN ATOMIC CHARGES
----------------------
   0 C :    0.107433
   1 C :   -0.023257
   2 O :    0.298949
   3 C :   -0.422090
   4 O :    0.118358
   5 C :   -0.096870
   6 C :   -0.060237
   7 C :    0.128575
   8 N :    0.409393
   9 C :   -0.453373
  10 S :   -0.028488
  11 N :    0.395852
  12 C :   -0.054133
  13 C :   -0.037490
  14 C :    0.005322
  15 C :    0.043108
  16 C :   -0.000276
  17 C :   -0.187704
  18 O :    0.396788
  19 C :    0.032986
  20 H :   -0.034982
  21 H :   -0.022424
  22 H :   -0.023976
  23 H :   -0.046563
  24 H :   -0.019188
  25 H :   -0.006807
  26 H :   -0.001526
  27 H :   -0.023054
  28 H :   -0.056779
  29 H :   -0.068139
  30 H :   -0.004590
  31 H :   -0.031545
  32 H :   -0.018757
  33 H :   -0.033974
  34 H :   -0.151461
  35 H :   -0.029082

  Mayer bond orders larger than 0.100000
B(  0-C ,  1-C ) :   0.9626 B(  0-C , 20-H ) :   0.9705 B(  0-C , 21-H ) :   0.9740
B(  0-C , 22-H ) :   0.9767 B(  1-C ,  2-O ) :   0.9088 B(  1-C , 23-H ) :   0.9707
B(  1-C , 24-H ) :   0.9809 B(  2-O ,  3-C ) :   1.1705 B(  3-C ,  4-O ) :   2.0652
B(  3-C ,  5-C ) :   0.9813 B(  5-C ,  6-C ) :   1.6519 B(  5-C , 12-C ) :   0.9676
B(  6-C ,  7-C ) :   0.9814 B(  6-C ,  8-N ) :   1.1411 B(  7-C , 25-H ) :   0.9685
B(  7-C , 26-H ) :   0.9521 B(  7-C , 27-H ) :   0.9840 B(  8-N ,  9-C ) :   1.1827
B(  8-N , 28-H ) :   0.9497 B(  9-C , 10-S ) :   1.6202 B(  9-C , 11-N ) :   1.2913
B( 11-N , 12-C ) :   0.9533 B( 11-N , 29-H ) :   0.9545 B( 12-C , 13-C ) :   0.9611
B( 12-C , 30-H ) :   0.9969 B( 13-C , 14-C ) :   1.3316 B( 13-C , 19-C ) :   1.3653
B( 14-C , 15-C ) :   1.4052 B( 14-C , 31-H ) :   0.9754 B( 15-C , 16-C ) :   1.3647
B( 15-C , 32-H ) :   0.9695 B( 16-C , 17-C ) :   1.3335 B( 16-C , 33-H ) :   0.9836
B( 17-C , 18-O ) :   1.1177 B( 17-C , 19-C ) :   1.3642 B( 18-O , 34-H ) :   0.9785
B( 19-C , 35-H ) :   0.9496

MP2 TOTAL ENERGY:    -1274.330374049 Eh
FINAL SINGLE POINT ENERGY     -1274.330374048873

DIPOLE MOMENT
-------------
                                X             Y             Z
Electronic contribution:      9.08080       8.30518       3.89831
Nuclear contribution   :    -10.30466     -10.02239      -3.01152
                        -----------------------------------------
Total Dipole Moment    :     -1.22386      -1.71721       0.88679
                        -----------------------------------------
Magnitude (a.u.)       :      2.28759
Magnitude (Debye)      :      5.81459

Rotational constants in cm-1:     0.011114     0.010086     0.006800
Rotational constants in MHz :   333.175966   302.369305   203.850982

                             ****ORCA TERMINATED NORMALLY****
TOTAL RUN TIME: 0 days 2 hours 35 minutes 45 seconds 395 msec
