                         Program Version 5.0.0 -  RELEASE  -
|  1> ! ri-mp2 cc-pvtz cc-pvtz/c TightSCF NoKeepInts
|  2>
|  3> %scf
|  4>   MaxCore 4096
|  5> end
|  6> *xyz  0  1
|  7>     C       14.6288006   16.1665492   16.7243358
|  8>     C       15.5821059   15.0089779   17.0731135
|  9>     O       16.7644688   14.9933739   16.2419916
| 10>     C       17.9069409   15.7360187   16.4227369
| 11>     O       18.9800459   15.2679986   16.0915672
| 12>     C       17.8518529   16.8594403   17.4001533
| 13>     C       17.3490277   18.0665038   17.0565748
| 14>     C       16.7741191   18.4607644   15.7124968
| 15>     N       17.4315111   19.1364724   17.9496209
| 16>     C       18.1012008   19.1031239   19.1450083
| 17>     S       18.1889361   20.4288352   20.1292773
| 18>     N       18.6988484   17.9141522   19.4852533
| 19>     C       18.6042485   16.6562431   18.7167364
| 20>     C       17.9953650   15.5306527   19.5467365
| 21>     C       18.4648936   14.2137327   19.3882101
| 22>     C       17.9013058   13.1582965   20.1239300
| 23>     C       16.8572678   13.4199650   21.0270812
| 24>     C       16.3831843   14.7289138   21.1859923
| 25>     O       15.3660744   14.9828113   22.0468138
| 26>     C       16.9438595   15.7780460   20.4502884
| 27>     H       14.8956722   17.0813885   17.2617023
| 28>     H       13.6064446   15.9080687   17.0266527
| 29>     H       14.6189536   16.3600786   15.6447597
| 30>     H       15.8342143   15.0204609   18.1383710
| 31>     H       15.0420688   14.0714706   16.8873712
| 32>     H       16.6659548   17.6058947   15.0342862
| 33>     H       17.4314376   19.1828991   15.2115083
| 34>     H       15.7855137   18.9234688   15.8204754
| 35>     H       17.0248840   20.0257920   17.7049845
| 36>     H       19.1765881   17.9170674   20.3777618
| 37>     H       19.6301303   16.3541244   18.4577659
| 38>     H       19.2640643   14.0057781   18.6790566
| 39>     H       18.2727848   12.1435987   19.9891662
| 40>     H       16.4187112   12.6068853   21.5964314
| 41>     H       15.1540035   14.1532311   22.5011768
| 42>     H       16.5515174   16.7809216   20.5846115
| 43> *
| 44>
| 45>                          ****END OF INPUT****

CARTESIAN COORDINATES (ANGSTROEM)
---------------------------------
  C     14.628801   16.166549   16.724336
  C     15.582106   15.008978   17.073113
  O     16.764469   14.993374   16.241992
  C     17.906941   15.736019   16.422737
  O     18.980046   15.267999   16.091567
  C     17.851853   16.859440   17.400153
  C     17.349028   18.066504   17.056575
  C     16.774119   18.460764   15.712497
  N     17.431511   19.136472   17.949621
  C     18.101201   19.103124   19.145008
  S     18.188936   20.428835   20.129277
  N     18.698848   17.914152   19.485253
  C     18.604249   16.656243   18.716736
  C     17.995365   15.530653   19.546737
  C     18.464894   14.213733   19.388210
  C     17.901306   13.158297   20.123930
  C     16.857268   13.419965   21.027081
  C     16.383184   14.728914   21.185992
  O     15.366074   14.982811   22.046814
  C     16.943859   15.778046   20.450288
  H     14.895672   17.081388   17.261702
  H     13.606445   15.908069   17.026653
  H     14.618954   16.360079   15.644760
  H     15.834214   15.020461   18.138371
  H     15.042069   14.071471   16.887371
  H     16.665955   17.605895   15.034286
  H     17.431438   19.182899   15.211508
  H     15.785514   18.923469   15.820475
  H     17.024884   20.025792   17.704984
  H     19.176588   17.917067   20.377762
  H     19.630130   16.354124   18.457766
  H     19.264064   14.005778   18.679057
  H     18.272785   12.143599   19.989166
  H     16.418711   12.606885   21.596431
  H     15.154003   14.153231   22.501177
  H     16.551517   16.780922   20.584612

 Total Charge           Charge          ....    0
 Multiplicity           Mult            ....    1
 Number of Electrons    NEL             ....  154
 Basis Dimension        Dim             ....  828

ORBITAL ENERGIES
----------------

  NO   OCC          E(Eh)            E(eV)
   0   2.0000     -91.890080     -2500.4562
   1   2.0000     -20.602384      -560.6194
   2   2.0000     -20.596037      -560.4466
   3   2.0000     -20.551693      -559.2400
   4   2.0000     -15.625948      -425.2037
   5   2.0000     -15.612400      -424.8350
   6   2.0000     -11.398405      -310.1664
   7   2.0000     -11.386981      -309.8555
   8   2.0000     -11.327458      -308.2358
   9   2.0000     -11.320190      -308.0380
  10   2.0000     -11.317297      -307.9593
  11   2.0000     -11.302462      -307.5556
  12   2.0000     -11.267234      -306.5970
  13   2.0000     -11.266287      -306.5713
  14   2.0000     -11.264046      -306.5103
  15   2.0000     -11.260639      -306.4176
  16   2.0000     -11.249156      -306.1051
  17   2.0000     -11.244707      -305.9840
  18   2.0000     -11.242250      -305.9172
  19   2.0000     -11.235061      -305.7216
  20   2.0000      -8.895194      -242.0505
  21   2.0000      -6.576784      -178.9634
  22   2.0000      -6.574756      -178.9082
  23   2.0000      -6.574182      -178.8926
  24   2.0000      -1.445351       -39.3300
  25   2.0000      -1.422200       -38.7000
  26   2.0000      -1.357585       -36.9418
  27   2.0000      -1.340028       -36.4640
  28   2.0000      -1.240385       -33.7526
  29   2.0000      -1.164113       -31.6771
  30   2.0000      -1.126277       -30.6476
  31   2.0000      -1.050648       -28.5896
  32   2.0000      -1.039286       -28.2804
  33   2.0000      -1.021979       -27.8095
  34   2.0000      -1.005281       -27.3551
  35   2.0000      -0.990549       -26.9542
  36   2.0000      -0.928879       -25.2761
  37   2.0000      -0.894749       -24.3474
  38   2.0000      -0.853076       -23.2134
  39   2.0000      -0.842814       -22.9341
  40   2.0000      -0.839354       -22.8400
  41   2.0000      -0.834448       -22.7065
  42   2.0000      -0.753951       -20.5161
  43   2.0000      -0.735733       -20.0203
  44   2.0000      -0.730731       -19.8842
  45   2.0000      -0.699822       -19.0431
  46   2.0000      -0.690558       -18.7910
  47   2.0000      -0.679640       -18.4939
  48   2.0000      -0.676875       -18.4187
  49   2.0000      -0.665047       -18.0969
  50   2.0000      -0.655098       -17.8261
  51   2.0000      -0.640603       -17.4317
  52   2.0000      -0.637828       -17.3562
  53   2.0000      -0.619110       -16.8468
  54   2.0000      -0.610821       -16.6213
  55   2.0000      -0.608715       -16.5640
  56   2.0000      -0.605715       -16.4823
  57   2.0000      -0.586583       -15.9617
  58   2.0000      -0.582207       -15.8427
  59   2.0000      -0.578130       -15.7317
  60   2.0000      -0.567303       -15.4371
  61   2.0000      -0.558124       -15.1873
  62   2.0000      -0.538930       -14.6650
  63   2.0000      -0.535264       -14.5653
  64   2.0000      -0.524184       -14.2638
  65   2.0000      -0.515629       -14.0310
  66   2.0000      -0.504128       -13.7180
  67   2.0000      -0.496939       -13.5224
  68   2.0000      -0.490310       -13.3420
  69   2.0000      -0.466976       -12.7071
  70   2.0000      -0.453773       -12.3478
  71   2.0000      -0.450103       -12.2479
  72   2.0000      -0.356863        -9.7107
  73   2.0000      -0.354155        -9.6371
  74   2.0000      -0.329966        -8.9788
  75   2.0000      -0.328060        -8.9270
  76   2.0000      -0.319251        -8.6873
  77   0.0000       0.090171         2.4537
  78   0.0000       0.102199         2.7810
  79   0.0000       0.116742         3.1767
  80   0.0000       0.125214         3.4073
  81   0.0000       0.127993         3.4829

MULLIKEN ATOMIC CHARGES
-----------------------
   0 C :   -0.320781
   1 C :    0.035817
   2 O :   -0.327523
   3 C :    0.394562
   4 O :   -0.376473
   5 C :   -0.164870
   6 C :    0.109905
   7 C :   -0.327015
   8 N :   -0.137347
   9 C :    0.208071
  10 S :   -0.442287
  11 N :   -0.227698
  12 C :    0.087611
  13 C :   -0.001366
  14 C :   -0.202239
  15 C :   -0.137295
  16 C :   -0.271032
  17 C :    0.311428
  18 O :   -0.356239
  19 C :   -0.256947
  20 H :    0.096170
  21 H :    0.120518
  22 H :    0.105687
  23 H :    0.106484
  24 H :    0.124512
  25 H :    0.121207
  26 H :    0.150380
  27 H :    0.119582
  28 H :    0.196846
  29 H :    0.202830
  30 H :    0.165721
  31 H :    0.172115
  32 H :    0.165625
  33 H :    0.134189
  34 H :    0.241703
  35 H :    0.178148
Sum of atomic charges:    0.0000000

LOEWDIN ATOMIC CHARGES
----------------------
   0 C :    0.103332
   1 C :   -0.015466
   2 O :    0.296557
   3 C :   -0.416923
   4 O :    0.126434
   5 C :   -0.081070
   6 C :   -0.104097
   7 C :    0.125069
   8 N :    0.402032
   9 C :   -0.455401
  10 S :   -0.038366
  11 N :    0.397564
  12 C :   -0.044032
  13 C :   -0.045278
  14 C :    0.020281
  15 C :    0.046372
  16 C :   -0.000114
  17 C :   -0.193710
  18 O :    0.396400
  19 C :    0.024838
  20 H :   -0.034052
  21 H :   -0.022039
  22 H :   -0.027047
  23 H :   -0.032917
  24 H :   -0.019408
  25 H :   -0.010129
  26 H :   -0.008735
  27 H :   -0.016767
  28 H :   -0.057575
  29 H :   -0.064054
  30 H :   -0.002517
  31 H :   -0.021241
  32 H :   -0.017450
  33 H :   -0.034027
  34 H :   -0.152456
  35 H :   -0.024011

  Mayer bond orders larger than 0.100000
B(  0-C ,  1-C ) :   0.9534 B(  0-C , 20-H ) :   0.9774 B(  0-C , 21-H ) :   0.9790
B(  0-C , 22-H ) :   0.9743 B(  1-C ,  2-O ) :   0.8985 B(  1-C , 23-H ) :   0.9632
B(  1-C , 24-H ) :   0.9872 B(  2-O ,  3-C ) :   1.1800 B(  3-C ,  4-O ) :   2.1025
B(  3-C ,  5-C ) :   0.8976 B(  5-C ,  6-C ) :   1.7188 B(  5-C , 12-C ) :   0.9486
B(  6-C ,  7-C ) :   0.9521 B(  6-C ,  8-N ) :   1.0954 B(  7-C , 25-H ) :   0.9804
B(  7-C , 26-H ) :   0.9656 B(  7-C , 27-H ) :   0.9675 B(  8-N ,  9-C ) :   1.2020
B(  8-N , 28-H ) :   0.9514 B(  9-C , 10-S ) :   1.6081 B(  9-C , 11-N ) :   1.2854
B( 11-N , 12-C ) :   0.9905 B( 11-N , 29-H ) :   0.9463 B( 12-C , 13-C ) :   0.9516
B( 12-C , 30-H ) :   0.9961 B( 13-C , 14-C ) :   1.3929 B( 13-C , 19-C ) :   1.3407
B( 14-C , 15-C ) :   1.3978 B( 14-C , 31-H ) :   0.9605 B( 15-C , 16-C ) :   1.3616
B( 15-C , 32-H ) :   0.9692 B( 16-C , 17-C ) :   1.3295 B( 16-C , 33-H ) :   0.9839
B( 17-C , 18-O ) :   1.1113 B( 17-C , 19-C ) :   1.3658 B( 18-O , 34-H ) :   0.9788
B( 19-C , 35-H ) :   0.9590

MP2 TOTAL ENERGY:    -1274.327574337 Eh
FINAL SINGLE POINT ENERGY     -1274.327574337175

DIPOLE MOMENT
-------------
                                X             Y             Z
Electronic contribution:     10.06534       4.97321       7.01951
Nuclear contribution   :    -11.54721      -6.23011      -7.24736
                        -----------------------------------------
Total Dipole Moment    :     -1.48186      -1.25690      -0.22785
                        -----------------------------------------
Magnitude (a.u.)       :      1.95643
Magnitude (Debye)      :      4.97285

Rotational constants in cm-1:     0.011964     0.009278     0.006816
Rotational constants in MHz :   358.673462   278.152856   204.325448

                             ****ORCA TERMINATED NORMALLY****
TOTAL RUN TIME: 0 days 1 hours 36 minutes 26 seconds 800 msec
