                         Program Version 5.0.0 -  RELEASE  -
|  1> ! ri-mp2 cc-pvtz cc-pvtz/c TightSCF NoKeepInts
|  2>
|  3> %scf
|  4>   MaxCore 4096
|  5> end
|  6> *xyz  0  1
|  7>     C       15.0236810   14.0658550   15.6988974
|  8>     C       16.0475929   14.1345229   16.8514451
|  9>     O       17.0797601   15.1174561   16.6122299
| 10>     C       16.8041033   16.4530075   16.4870980
| 11>     O       15.8775254   16.8776164   15.8204469
| 12>     C       17.5819526   17.2908366   17.4668289
| 13>     C       17.4591273   18.6418966   17.5261396
| 14>     C       16.5701469   19.5219944   16.6733323
| 15>     N       18.2340947   19.3784521   18.4270077
| 16>     C       19.2249234   18.8592202   19.2162946
| 17>     S       20.1637225   19.8156085   20.1857462
| 18>     N       19.4042664   17.5010323   19.1584238
| 19>     C       18.5376084   16.5599373   18.4264464
| 20>     C       17.7923647   15.6752249   19.4219994
| 21>     C       18.1572858   14.3254723   19.5849718
| 22>     C       17.4673120   13.5026734   20.4910415
| 23>     C       16.4067170   14.0346353   21.2440373
| 24>     C       16.0462683   15.3804133   21.0906958
| 25>     O       15.0241057   15.8974731   21.8175828
| 26>     C       16.7335275   16.1962780   20.1868006
| 27>     H       14.3223433   14.9081725   15.7353504
| 28>     H       14.4338961   13.1441351   15.7688977
| 29>     H       15.5307505   14.0745703   14.7260233
| 30>     H       15.5274738   14.3562668   17.7930945
| 31>     H       16.5228975   13.1512886   16.9594155
| 32>     H       15.5129548   19.2826799   16.8459217
| 33>     H       16.7720857   19.3580916   15.6071446
| 34>     H       16.7053621   20.5913873   16.8731081
| 35>     H       18.1179629   20.3778064   18.4808076
| 36>     H       20.1188647   17.1439182   19.7794097
| 37>     H       19.1914383   15.9203030   17.8168596
| 38>     H       18.9751930   13.9110766   19.0013757
| 39>     H       17.7565031   12.4597184   20.6096316
| 40>     H       15.8719306   13.4038332   21.9466662
| 41>     H       14.7083461   15.2024415   22.4144650
| 42>     H       16.4429119   17.2367043   20.0883628
| 43> *
| 44>
| 45>                          ****END OF INPUT****

CARTESIAN COORDINATES (ANGSTROEM)
---------------------------------
  C     15.023681   14.065855   15.698897
  C     16.047593   14.134523   16.851445
  O     17.079760   15.117456   16.612230
  C     16.804103   16.453007   16.487098
  O     15.877525   16.877616   15.820447
  C     17.581953   17.290837   17.466829
  C     17.459127   18.641897   17.526140
  C     16.570147   19.521994   16.673332
  N     18.234095   19.378452   18.427008
  C     19.224923   18.859220   19.216295
  S     20.163722   19.815608   20.185746
  N     19.404266   17.501032   19.158424
  C     18.537608   16.559937   18.426446
  C     17.792365   15.675225   19.421999
  C     18.157286   14.325472   19.584972
  C     17.467312   13.502673   20.491042
  C     16.406717   14.034635   21.244037
  C     16.046268   15.380413   21.090696
  O     15.024106   15.897473   21.817583
  C     16.733528   16.196278   20.186801
  H     14.322343   14.908172   15.735350
  H     14.433896   13.144135   15.768898
  H     15.530750   14.074570   14.726023
  H     15.527474   14.356267   17.793094
  H     16.522897   13.151289   16.959415
  H     15.512955   19.282680   16.845922
  H     16.772086   19.358092   15.607145
  H     16.705362   20.591387   16.873108
  H     18.117963   20.377806   18.480808
  H     20.118865   17.143918   19.779410
  H     19.191438   15.920303   17.816860
  H     18.975193   13.911077   19.001376
  H     17.756503   12.459718   20.609632
  H     15.871931   13.403833   21.946666
  H     14.708346   15.202441   22.414465
  H     16.442912   17.236704   20.088363

 Total Charge           Charge          ....    0
 Multiplicity           Mult            ....    1
 Number of Electrons    NEL             ....  154
 Basis Dimension        Dim             ....  828

ORBITAL ENERGIES
----------------

  NO   OCC          E(Eh)            E(eV)
   0   2.0000     -91.889228     -2500.4330
   1   2.0000     -20.599550      -560.5423
   2   2.0000     -20.589420      -560.2666
   3   2.0000     -20.544819      -559.0530
   4   2.0000     -15.629424      -425.2983
   5   2.0000     -15.608620      -424.7321
   6   2.0000     -11.395592      -310.0898
   7   2.0000     -11.384271      -309.7818
   8   2.0000     -11.335998      -308.4682
   9   2.0000     -11.317155      -307.9554
  10   2.0000     -11.309671      -307.7518
  11   2.0000     -11.298501      -307.4478
  12   2.0000     -11.262308      -306.4630
  13   2.0000     -11.258455      -306.3581
  14   2.0000     -11.258425      -306.3573
  15   2.0000     -11.252553      -306.1975
  16   2.0000     -11.246033      -306.0201
  17   2.0000     -11.241074      -305.8852
  18   2.0000     -11.240718      -305.8755
  19   2.0000     -11.217073      -305.2321
  20   2.0000      -8.894292      -242.0260
  21   2.0000      -6.575866      -178.9384
  22   2.0000      -6.573862      -178.8839
  23   2.0000      -6.573275      -178.8679
  24   2.0000      -1.445085       -39.3228
  25   2.0000      -1.419219       -38.6189
  26   2.0000      -1.354225       -36.8503
  27   2.0000      -1.340520       -36.4774
  28   2.0000      -1.239127       -33.7184
  29   2.0000      -1.160095       -31.5678
  30   2.0000      -1.120405       -30.4878
  31   2.0000      -1.044267       -28.4159
  32   2.0000      -1.032132       -28.0857
  33   2.0000      -1.018112       -27.7042
  34   2.0000      -0.995691       -27.0941
  35   2.0000      -0.984100       -26.7787
  36   2.0000      -0.923641       -25.1335
  37   2.0000      -0.889631       -24.2081
  38   2.0000      -0.848159       -23.0796
  39   2.0000      -0.840251       -22.8644
  40   2.0000      -0.836638       -22.7661
  41   2.0000      -0.822168       -22.3723
  42   2.0000      -0.750271       -20.4159
  43   2.0000      -0.733151       -19.9500
  44   2.0000      -0.719554       -19.5801
  45   2.0000      -0.698186       -18.9986
  46   2.0000      -0.689192       -18.7539
  47   2.0000      -0.679401       -18.4874
  48   2.0000      -0.669179       -18.2093
  49   2.0000      -0.658100       -17.9078
  50   2.0000      -0.649857       -17.6835
  51   2.0000      -0.646390       -17.5892
  52   2.0000      -0.635781       -17.3005
  53   2.0000      -0.609890       -16.5959
  54   2.0000      -0.603480       -16.4215
  55   2.0000      -0.600223       -16.3329
  56   2.0000      -0.594861       -16.1870
  57   2.0000      -0.581513       -15.8238
  58   2.0000      -0.575889       -15.6707
  59   2.0000      -0.571035       -15.5386
  60   2.0000      -0.563651       -15.3377
  61   2.0000      -0.539162       -14.6713
  62   2.0000      -0.534516       -14.5449
  63   2.0000      -0.526874       -14.3370
  64   2.0000      -0.519102       -14.1255
  65   2.0000      -0.513674       -13.9778
  66   2.0000      -0.502211       -13.6658
  67   2.0000      -0.497255       -13.5310
  68   2.0000      -0.484335       -13.1794
  69   2.0000      -0.463636       -12.6162
  70   2.0000      -0.455581       -12.3970
  71   2.0000      -0.439681       -11.9643
  72   2.0000      -0.354538        -9.6475
  73   2.0000      -0.352162        -9.5828
  74   2.0000      -0.329015        -8.9530
  75   2.0000      -0.324443        -8.8285
  76   2.0000      -0.316704        -8.6180
  77   0.0000       0.073044         1.9876
  78   0.0000       0.103207         2.8084
  79   0.0000       0.123991         3.3740
  80   0.0000       0.130867         3.5611
  81   0.0000       0.135970         3.6999

MULLIKEN ATOMIC CHARGES
-----------------------
   0 C :   -0.275949
   1 C :    0.038665
   2 O :   -0.382705
   3 C :    0.475836
   4 O :   -0.420649
   5 C :   -0.240754
   6 C :    0.159293
   7 C :   -0.270570
   8 N :   -0.122680
   9 C :    0.214189
  10 S :   -0.440457
  11 N :   -0.207362
  12 C :    0.071802
  13 C :    0.027094
  14 C :   -0.165600
  15 C :   -0.132878
  16 C :   -0.280100
  17 C :    0.311709
  18 O :   -0.355924
  19 C :   -0.256463
  20 H :    0.113256
  21 H :    0.090737
  22 H :    0.098471
  23 H :    0.097459
  24 H :    0.101999
  25 H :    0.131459
  26 H :    0.130859
  27 H :    0.095445
  28 H :    0.197376
  29 H :    0.194978
  30 H :    0.149435
  31 H :    0.148578
  32 H :    0.162274
  33 H :    0.132404
  34 H :    0.241301
  35 H :    0.167471
Sum of atomic charges:   -0.0000000

LOEWDIN ATOMIC CHARGES
----------------------
   0 C :    0.103847
   1 C :   -0.016412
   2 O :    0.289836
   3 C :   -0.412987
   4 O :    0.115146
   5 C :   -0.096643
   6 C :   -0.058896
   7 C :    0.131072
   8 N :    0.406700
   9 C :   -0.456100
  10 S :   -0.035603
  11 N :    0.396162
  12 C :   -0.052392
  13 C :   -0.037670
  14 C :    0.015169
  15 C :    0.040024
  16 C :   -0.002708
  17 C :   -0.190418
  18 O :    0.396136
  19 C :    0.030053
  20 H :   -0.027935
  21 H :   -0.030657
  22 H :   -0.024934
  23 H :   -0.029291
  24 H :   -0.024341
  25 H :   -0.005003
  26 H :   -0.003947
  27 H :   -0.023332
  28 H :   -0.057534
  29 H :   -0.064858
  30 H :   -0.010058
  31 H :   -0.029701
  32 H :   -0.020662
  33 H :   -0.035093
  34 H :   -0.153253
  35 H :   -0.023720

  Mayer bond orders larger than 0.100000
B(  0-C ,  1-C ) :   0.9827 B(  0-C , 20-H ) :   0.9722 B(  0-C , 21-H ) :   0.9772
B(  0-C , 22-H ) :   0.9766 B(  1-C ,  2-O ) :   0.8861 B(  1-C , 23-H ) :   0.9686
B(  1-C , 24-H ) :   0.9818 B(  2-O ,  3-C ) :   1.1015 B(  3-C ,  4-O ) :   1.9905
B(  3-C ,  5-C ) :   1.0757 B(  5-C ,  6-C ) :   1.6504 B(  5-C , 12-C ) :   0.9718
B(  6-C ,  7-C ) :   0.9664 B(  6-C ,  8-N ) :   1.1609 B(  7-C , 25-H ) :   0.9596
B(  7-C , 26-H ) :   0.9608 B(  7-C , 27-H ) :   0.9908 B(  8-N ,  9-C ) :   1.1832
B(  8-N , 28-H ) :   0.9477 B(  9-C , 10-S ) :   1.6056 B(  9-C , 11-N ) :   1.3071
B( 11-N , 12-C ) :   0.9779 B( 11-N , 29-H ) :   0.9516 B( 12-C , 13-C ) :   0.9380
B( 12-C , 30-H ) :   1.0012 B( 13-C , 14-C ) :   1.3546 B( 13-C , 19-C ) :   1.3838
B( 14-C , 15-C ) :   1.3913 B( 14-C , 31-H ) :   0.9749 B( 15-C , 16-C ) :   1.3635
B( 15-C , 32-H ) :   0.9704 B( 16-C , 17-C ) :   1.3301 B( 16-C , 33-H ) :   0.9843
B( 17-C , 18-O ) :   1.1128 B( 17-C , 19-C ) :   1.3702 B( 18-O , 34-H ) :   0.9793
B( 19-C , 35-H ) :   0.9578

MP2 TOTAL ENERGY:    -1274.336586346 Eh
FINAL SINGLE POINT ENERGY     -1274.336586346150

DIPOLE MOMENT
-------------
                                X             Y             Z
Electronic contribution:     10.48774       9.86885       7.91996
Nuclear contribution   :    -11.48010     -11.51044      -8.00335
                        -----------------------------------------
Total Dipole Moment    :     -0.99236      -1.64159      -0.08339
                        -----------------------------------------
Magnitude (a.u.)       :      1.92004
Magnitude (Debye)      :      4.88036

Rotational constants in cm-1:     0.012129     0.008709     0.006230
Rotational constants in MHz :   363.605135   261.101966   186.769894

                             ****ORCA TERMINATED NORMALLY****
TOTAL RUN TIME: 0 days 1 hours 53 minutes 11 seconds 465 msec
