                         Program Version 5.0.0 -  RELEASE  -
|  1> ! ri-mp2 cc-pvtz cc-pvtz/c TightSCF NoKeepInts
|  2>
|  3> %scf
|  4>   MaxCore 4096
|  5> end
|  6> *xyz  0  1
|  7>     C       14.9872534   14.2555731   15.9648447
|  8>     C       16.1515198   14.3352395   16.9718001
|  9>     O       17.2620403   15.0528864   16.3920496
| 10>     C       17.1641530   16.4021651   16.2046795
| 11>     O       16.5237633   16.8551652   15.2733391
| 12>     C       17.6485030   17.2176979   17.3752393
| 13>     C       17.3868953   18.5456630   17.4910657
| 14>     C       16.5239621   19.3971308   16.5844581
| 15>     N       17.9845311   19.2897247   18.5134548
| 16>     C       19.0026044   18.8368550   19.3101532
| 17>     S       19.7905624   19.8272399   20.3748268
| 18>     N       19.3448107   17.5160821   19.1677174
| 19>     C       18.5626031   16.5271591   18.4040589
| 20>     C       17.8063688   15.6359668   19.3831547
| 21>     C       18.1955842   14.2957178   19.5679686
| 22>     C       17.5011955   13.4668858   20.4650780
| 23>     C       16.4135319   13.9836926   21.1894172
| 24>     C       16.0312204   15.3210681   21.0179310
| 25>     O       14.9825606   15.8237608   21.7162863
| 26>     C       16.7220091   16.1428592   20.1220861
| 27>     H       14.5282657   15.2396748   15.8094509
| 28>     H       14.2087131   13.5766376   16.3327643
| 29>     H       15.3389809   13.8812993   14.9952309
| 30>     H       15.8012406   14.8184187   17.8916619
| 31>     H       16.4754027   13.3173816   17.2240782
| 32>     H       15.5228886   18.9597136   16.4801503
| 33>     H       16.9614707   19.4544745   15.5793956
| 34>     H       16.3974918   20.4224323   16.9512767
| 35>     H       17.7553159   20.2653937   18.6176172
| 36>     H       20.0836801   17.2039062   19.7846512
| 37>     H       19.2738919   15.9011792   17.8466061
| 38>     H       19.0360705   13.8926341   19.0086497
| 39>     H       17.8085696   12.4309489   20.5997017
| 40>     H       15.8754726   13.3478069   21.8850905
| 41>     H       14.6792118   15.1344811   22.3264671
| 42>     H       16.4146613   17.1770845   20.0115987
| 43> *
| 44>
| 45>                          ****END OF INPUT****

CARTESIAN COORDINATES (ANGSTROEM)
---------------------------------
  C     14.987253   14.255573   15.964845
  C     16.151520   14.335240   16.971800
  O     17.262040   15.052886   16.392050
  C     17.164153   16.402165   16.204680
  O     16.523763   16.855165   15.273339
  C     17.648503   17.217698   17.375239
  C     17.386895   18.545663   17.491066
  C     16.523962   19.397131   16.584458
  N     17.984531   19.289725   18.513455
  C     19.002604   18.836855   19.310153
  S     19.790562   19.827240   20.374827
  N     19.344811   17.516082   19.167717
  C     18.562603   16.527159   18.404059
  C     17.806369   15.635967   19.383155
  C     18.195584   14.295718   19.567969
  C     17.501196   13.466886   20.465078
  C     16.413532   13.983693   21.189417
  C     16.031220   15.321068   21.017931
  O     14.982561   15.823761   21.716286
  C     16.722009   16.142859   20.122086
  H     14.528266   15.239675   15.809451
  H     14.208713   13.576638   16.332764
  H     15.338981   13.881299   14.995231
  H     15.801241   14.818419   17.891662
  H     16.475403   13.317382   17.224078
  H     15.522889   18.959714   16.480150
  H     16.961471   19.454474   15.579396
  H     16.397492   20.422432   16.951277
  H     17.755316   20.265394   18.617617
  H     20.083680   17.203906   19.784651
  H     19.273892   15.901179   17.846606
  H     19.036071   13.892634   19.008650
  H     17.808570   12.430949   20.599702
  H     15.875473   13.347807   21.885091
  H     14.679212   15.134481   22.326467
  H     16.414661   17.177084   20.011599

 Total Charge           Charge          ....    0
 Multiplicity           Mult            ....    1
 Number of Electrons    NEL             ....  154
 Basis Dimension        Dim             ....  828

ORBITAL ENERGIES
----------------

  NO   OCC          E(Eh)            E(eV)
   0   2.0000     -91.891288     -2500.4891
   1   2.0000     -20.602129      -560.6124
   2   2.0000     -20.581674      -560.0558
   3   2.0000     -20.548348      -559.1490
   4   2.0000     -15.631815      -425.3633
   5   2.0000     -15.610155      -424.7739
   6   2.0000     -11.393710      -310.0386
   7   2.0000     -11.385868      -309.8252
   8   2.0000     -11.338269      -308.5300
   9   2.0000     -11.320065      -308.0346
  10   2.0000     -11.312487      -307.8284
  11   2.0000     -11.296415      -307.3911
  12   2.0000     -11.264451      -306.5213
  13   2.0000     -11.261278      -306.4350
  14   2.0000     -11.259733      -306.3929
  15   2.0000     -11.254128      -306.2404
  16   2.0000     -11.249134      -306.1045
  17   2.0000     -11.243510      -305.9514
  18   2.0000     -11.243345      -305.9470
  19   2.0000     -11.217461      -305.2426
  20   2.0000      -8.896312      -242.0810
  21   2.0000      -6.577877      -178.9931
  22   2.0000      -6.575883      -178.9389
  23   2.0000      -6.575286      -178.9226
  24   2.0000      -1.445536       -39.3350
  25   2.0000      -1.421827       -38.6899
  26   2.0000      -1.353195       -36.8223
  27   2.0000      -1.342906       -36.5423
  28   2.0000      -1.241218       -33.7753
  29   2.0000      -1.162687       -31.6383
  30   2.0000      -1.121805       -30.5259
  31   2.0000      -1.046730       -28.4830
  32   2.0000      -1.029749       -28.0209
  33   2.0000      -1.021047       -27.7841
  34   2.0000      -0.998279       -27.1646
  35   2.0000      -0.986323       -26.8392
  36   2.0000      -0.926002       -25.1978
  37   2.0000      -0.884691       -24.0737
  38   2.0000      -0.850161       -23.1341
  39   2.0000      -0.844058       -22.9680
  40   2.0000      -0.839409       -22.8415
  41   2.0000      -0.827888       -22.5280
  42   2.0000      -0.752627       -20.4800
  43   2.0000      -0.735576       -20.0160
  44   2.0000      -0.718204       -19.5433
  45   2.0000      -0.701093       -19.0777
  46   2.0000      -0.691994       -18.8301
  47   2.0000      -0.679870       -18.5002
  48   2.0000      -0.668352       -18.1868
  49   2.0000      -0.663667       -18.0593
  50   2.0000      -0.650859       -17.7108
  51   2.0000      -0.648663       -17.6510
  52   2.0000      -0.639187       -17.3932
  53   2.0000      -0.612535       -16.6679
  54   2.0000      -0.607084       -16.5196
  55   2.0000      -0.601951       -16.3799
  56   2.0000      -0.596538       -16.2326
  57   2.0000      -0.582083       -15.8393
  58   2.0000      -0.573319       -15.6008
  59   2.0000      -0.571055       -15.5392
  60   2.0000      -0.561784       -15.2869
  61   2.0000      -0.541987       -14.7482
  62   2.0000      -0.536027       -14.5860
  63   2.0000      -0.529289       -14.4027
  64   2.0000      -0.519778       -14.1439
  65   2.0000      -0.516842       -14.0640
  66   2.0000      -0.505396       -13.7525
  67   2.0000      -0.497396       -13.5348
  68   2.0000      -0.480515       -13.0755
  69   2.0000      -0.464178       -12.6309
  70   2.0000      -0.455386       -12.3917
  71   2.0000      -0.442231       -12.0337
  72   2.0000      -0.358178        -9.7465
  73   2.0000      -0.354505        -9.6466
  74   2.0000      -0.331225        -9.0131
  75   2.0000      -0.327331        -8.9071
  76   2.0000      -0.318275        -8.6607
  77   0.0000       0.068874         1.8741
  78   0.0000       0.099802         2.7158
  79   0.0000       0.121826         3.3150
  80   0.0000       0.128011         3.4833
  81   0.0000       0.132411         3.6031

MULLIKEN ATOMIC CHARGES
-----------------------
   0 C :   -0.268215
   1 C :    0.025010
   2 O :   -0.386254
   3 C :    0.502924
   4 O :   -0.403165
   5 C :   -0.274761
   6 C :    0.155769
   7 C :   -0.270506
   8 N :   -0.125197
   9 C :    0.210509
  10 S :   -0.435243
  11 N :   -0.198107
  12 C :    0.045774
  13 C :    0.031975
  14 C :   -0.166390
  15 C :   -0.131689
  16 C :   -0.274412
  17 C :    0.309492
  18 O :   -0.356031
  19 C :   -0.256913
  20 H :    0.100975
  21 H :    0.090760
  22 H :    0.102693
  23 H :    0.104061
  24 H :    0.106804
  25 H :    0.127819
  26 H :    0.136297
  27 H :    0.094712
  28 H :    0.198615
  29 H :    0.192619
  30 H :    0.151353
  31 H :    0.149365
  32 H :    0.164571
  33 H :    0.133824
  34 H :    0.241842
  35 H :    0.169120
Sum of atomic charges:    0.0000000

LOEWDIN ATOMIC CHARGES
----------------------
   0 C :    0.105609
   1 C :   -0.021175
   2 O :    0.282504
   3 C :   -0.418030
   4 O :    0.123633
   5 C :   -0.099524
   6 C :   -0.057969
   7 C :    0.130941
   8 N :    0.406968
   9 C :   -0.457060
  10 S :   -0.031855
  11 N :    0.396451
  12 C :   -0.052835
  13 C :   -0.039364
  14 C :    0.016165
  15 C :    0.042296
  16 C :   -0.000916
  17 C :   -0.191054
  18 O :    0.396638
  19 C :    0.029641
  20 H :   -0.029339
  21 H :   -0.029918
  22 H :   -0.024025
  23 H :   -0.033157
  24 H :   -0.023386
  25 H :   -0.005846
  26 H :   -0.002770
  27 H :   -0.023131
  28 H :   -0.057327
  29 H :   -0.065113
  30 H :   -0.006885
  31 H :   -0.028958
  32 H :   -0.019796
  33 H :   -0.034235
  34 H :   -0.152529
  35 H :   -0.024649

  Mayer bond orders larger than 0.100000
B(  0-C ,  1-C ) :   0.9827 B(  0-C , 20-H ) :   0.9727 B(  0-C , 21-H ) :   0.9762
B(  0-C , 22-H ) :   0.9783 B(  1-C ,  2-O ) :   0.8804 B(  1-C , 23-H ) :   0.9654
B(  1-C , 24-H ) :   0.9805 B(  2-O ,  3-C ) :   1.0931 B(  3-C ,  4-O ) :   2.0205
B(  3-C ,  5-C ) :   1.0570 B(  5-C ,  6-C ) :   1.6538 B(  5-C , 12-C ) :   0.9686
B(  6-C ,  7-C ) :   0.9701 B(  6-C ,  8-N ) :   1.1557 B(  7-C , 25-H ) :   0.9638
B(  7-C , 26-H ) :   0.9564 B(  7-C , 27-H ) :   0.9890 B(  8-N ,  9-C ) :   1.1781
B(  8-N , 28-H ) :   0.9480 B(  9-C , 10-S ) :   1.6142 B(  9-C , 11-N ) :   1.3025
B( 11-N , 12-C ) :   0.9755 B( 11-N , 29-H ) :   0.9537 B( 12-C , 13-C ) :   0.9499
B( 12-C , 30-H ) :   1.0010 B( 13-C , 14-C ) :   1.3509 B( 13-C , 19-C ) :   1.3700
B( 14-C , 15-C ) :   1.3852 B( 14-C , 31-H ) :   0.9764 B( 15-C , 16-C ) :   1.3677
B( 15-C , 32-H ) :   0.9693 B( 16-C , 17-C ) :   1.3272 B( 16-C , 33-H ) :   0.9835
B( 17-C , 18-O ) :   1.1149 B( 17-C , 19-C ) :   1.3751 B( 18-O , 34-H ) :   0.9789
B( 19-C , 35-H ) :   0.9571

MP2 TOTAL ENERGY:    -1274.331039413 Eh
FINAL SINGLE POINT ENERGY     -1274.331039413333

DIPOLE MOMENT
-------------
                                X             Y             Z
Electronic contribution:     10.66738       9.19554       6.99111
Nuclear contribution   :    -11.73007     -10.73134      -6.69730
                        -----------------------------------------
Total Dipole Moment    :     -1.06269      -1.53581       0.29381
                        -----------------------------------------
Magnitude (a.u.)       :      1.89059
Magnitude (Debye)      :      4.80550

Rotational constants in cm-1:     0.011776     0.009286     0.006395
Rotational constants in MHz :   353.040049   278.373412   191.716053

                             ****ORCA TERMINATED NORMALLY****
TOTAL RUN TIME: 0 days 1 hours 35 minutes 59 seconds 638 msec
