                         Program Version 5.0.0 -  RELEASE  -
|  1> ! ri-mp2 cc-pvtz cc-pvtz/c TightSCF NoKeepInts
|  2>
|  3> %scf
|  4>   MaxCore 4096
|  5> end
|  6> *xyz  0  1
|  7>     C       15.1999132   13.6281960   16.1926574
|  8>     C       16.2803040   14.4894010   16.8664124
|  9>     O       16.8552765   15.3136833   15.8435321
| 10>     C       17.0285220   16.6684392   15.9535476
| 11>     O       16.8282673   17.3557884   14.9698962
| 12>     C       17.4934746   17.2516425   17.2689316
| 13>     C       17.3231385   18.5736056   17.5379468
| 14>     C       16.4991270   19.5744435   16.7565864
| 15>     N       18.0126397   19.1643854   18.6027640
| 16>     C       19.1078880   18.6000344   19.2042219
| 17>     S       20.0751276   19.4436932   20.2473794
| 18>     N       19.3739303   17.2965234   18.8655803
| 19>     C       18.3946727   16.4170920   18.2028253
| 20>     C       17.6592818   15.6529686   19.3034977
| 21>     C       18.1253431   14.3845063   19.6998686
| 22>     C       17.4711186   13.6638623   20.7128503
| 23>     C       16.3470628   14.2197489   21.3460938
| 24>     C       15.8908321   15.4899247   20.9702120
| 25>     O       14.8097949   16.0337727   21.5830606
| 26>     C       16.5412030   16.2033636   19.9586660
| 27>     H       14.7121207   12.9766263   16.9277954
| 28>     H       15.6407760   12.9965051   15.4112696
| 29>     H       14.4320308   14.2618588   15.7310232
| 30>     H       15.7887321   15.0975052   17.6348131
| 31>     H       17.0416997   13.8460038   17.3230528
| 32>     H       15.5441626   19.1355994   16.4411229
| 33>     H       17.0319868   19.8824710   15.8474042
| 34>     H       16.2675925   20.4764452   17.3350958
| 35>     H       17.8438714   20.1315570   18.8299691
| 36>     H       20.1826263   16.8993158   19.3259112
| 37>     H       18.9478635   15.6965505   17.5834319
| 38>     H       19.0004815   13.9537792   19.2199136
| 39>     H       17.8392907   12.6829209   21.0098078
| 40>     H       15.8403423   13.6684372   22.1317527
| 41>     H       14.5436780   15.4323460   22.2953475
| 42>     H       16.1728276   17.1890036   19.6997584
| 43> *
| 44>
| 45>                          ****END OF INPUT****

CARTESIAN COORDINATES (ANGSTROEM)
---------------------------------
  C     15.199913   13.628196   16.192657
  C     16.280304   14.489401   16.866412
  O     16.855276   15.313683   15.843532
  C     17.028522   16.668439   15.953548
  O     16.828267   17.355788   14.969896
  C     17.493475   17.251642   17.268932
  C     17.323138   18.573606   17.537947
  C     16.499127   19.574444   16.756586
  N     18.012640   19.164385   18.602764
  C     19.107888   18.600034   19.204222
  S     20.075128   19.443693   20.247379
  N     19.373930   17.296523   18.865580
  C     18.394673   16.417092   18.202825
  C     17.659282   15.652969   19.303498
  C     18.125343   14.384506   19.699869
  C     17.471119   13.663862   20.712850
  C     16.347063   14.219749   21.346094
  C     15.890832   15.489925   20.970212
  O     14.809795   16.033773   21.583061
  C     16.541203   16.203364   19.958666
  H     14.712121   12.976626   16.927795
  H     15.640776   12.996505   15.411270
  H     14.432031   14.261859   15.731023
  H     15.788732   15.097505   17.634813
  H     17.041700   13.846004   17.323053
  H     15.544163   19.135599   16.441123
  H     17.031987   19.882471   15.847404
  H     16.267592   20.476445   17.335096
  H     17.843871   20.131557   18.829969
  H     20.182626   16.899316   19.325911
  H     18.947864   15.696551   17.583432
  H     19.000481   13.953779   19.219914
  H     17.839291   12.682921   21.009808
  H     15.840342   13.668437   22.131753
  H     14.543678   15.432346   22.295347
  H     16.172828   17.189004   19.699758

 Total Charge           Charge          ....    0
 Multiplicity           Mult            ....    1
 Number of Electrons    NEL             ....  154
 Basis Dimension        Dim             ....  828

ORBITAL ENERGIES
----------------

  NO   OCC          E(Eh)            E(eV)
   0   2.0000     -91.892720     -2500.5280
   1   2.0000     -20.604978      -560.6899
   2   2.0000     -20.593133      -560.3676
   3   2.0000     -20.540147      -558.9258
   4   2.0000     -15.632616      -425.3851
   5   2.0000     -15.612175      -424.8289
   6   2.0000     -11.393617      -310.0361
   7   2.0000     -11.386884      -309.8529
   8   2.0000     -11.337809      -308.5175
   9   2.0000     -11.322987      -308.1141
  10   2.0000     -11.319625      -308.0227
  11   2.0000     -11.297305      -307.4153
  12   2.0000     -11.269760      -306.6658
  13   2.0000     -11.264991      -306.5360
  14   2.0000     -11.262448      -306.4668
  15   2.0000     -11.253907      -306.2344
  16   2.0000     -11.250834      -306.1508
  17   2.0000     -11.246962      -306.0454
  18   2.0000     -11.245587      -306.0080
  19   2.0000     -11.226791      -305.4965
  20   2.0000      -8.897681      -242.1182
  21   2.0000      -6.579233      -179.0300
  22   2.0000      -6.577254      -178.9762
  23   2.0000      -6.576647      -178.9597
  24   2.0000      -1.444562       -39.3085
  25   2.0000      -1.424547       -38.7639
  26   2.0000      -1.353603       -36.8334
  27   2.0000      -1.344684       -36.5907
  28   2.0000      -1.243376       -33.8340
  29   2.0000      -1.165534       -31.7158
  30   2.0000      -1.122483       -30.5443
  31   2.0000      -1.049346       -28.5542
  32   2.0000      -1.035443       -28.1758
  33   2.0000      -1.024451       -27.8767
  34   2.0000      -1.001361       -27.2484
  35   2.0000      -0.987669       -26.8758
  36   2.0000      -0.928516       -25.2662
  37   2.0000      -0.880159       -23.9503
  38   2.0000      -0.852921       -23.2092
  39   2.0000      -0.849979       -23.1291
  40   2.0000      -0.842311       -22.9204
  41   2.0000      -0.833999       -22.6943
  42   2.0000      -0.763110       -20.7653
  43   2.0000      -0.738766       -20.1028
  44   2.0000      -0.717284       -19.5183
  45   2.0000      -0.704986       -19.1836
  46   2.0000      -0.696470       -18.9519
  47   2.0000      -0.677587       -18.4381
  48   2.0000      -0.674517       -18.3545
  49   2.0000      -0.668773       -18.1982
  50   2.0000      -0.654194       -17.8015
  51   2.0000      -0.646635       -17.5958
  52   2.0000      -0.642425       -17.4813
  53   2.0000      -0.616835       -16.7849
  54   2.0000      -0.608103       -16.5473
  55   2.0000      -0.603150       -16.4125
  56   2.0000      -0.587760       -15.9938
  57   2.0000      -0.584722       -15.9111
  58   2.0000      -0.574799       -15.6411
  59   2.0000      -0.572393       -15.5756
  60   2.0000      -0.563702       -15.3391
  61   2.0000      -0.549568       -14.9545
  62   2.0000      -0.540879       -14.7181
  63   2.0000      -0.534322       -14.5396
  64   2.0000      -0.522084       -14.2066
  65   2.0000      -0.517070       -14.0702
  66   2.0000      -0.510923       -13.9029
  67   2.0000      -0.504090       -13.7170
  68   2.0000      -0.482795       -13.1375
  69   2.0000      -0.465065       -12.6551
  70   2.0000      -0.450887       -12.2692
  71   2.0000      -0.444480       -12.0949
  72   2.0000      -0.363130        -9.8813
  73   2.0000      -0.356598        -9.7035
  74   2.0000      -0.333727        -9.0812
  75   2.0000      -0.328532        -8.9398
  76   2.0000      -0.318994        -8.6803
  77   0.0000       0.072172         1.9639
  78   0.0000       0.098521         2.6809
  79   0.0000       0.116535         3.1711
  80   0.0000       0.124253         3.3811
  81   0.0000       0.128848         3.5061

MULLIKEN ATOMIC CHARGES
-----------------------
   0 C :   -0.255260
   1 C :    0.023129
   2 O :   -0.316329
   3 C :    0.438907
   4 O :   -0.386969
   5 C :   -0.251952
   6 C :    0.121783
   7 C :   -0.271611
   8 N :   -0.122476
   9 C :    0.215691
  10 S :   -0.433455
  11 N :   -0.201978
  12 C :    0.053849
  13 C :    0.056489
  14 C :   -0.230092
  15 C :   -0.127295
  16 C :   -0.274888
  17 C :    0.313656
  18 O :   -0.355476
  19 C :   -0.253466
  20 H :    0.087422
  21 H :    0.100835
  22 H :    0.099853
  23 H :    0.100498
  24 H :    0.092345
  25 H :    0.123262
  26 H :    0.143499
  27 H :    0.093651
  28 H :    0.199708
  29 H :    0.189680
  30 H :    0.156516
  31 H :    0.157458
  32 H :    0.163786
  33 H :    0.133330
  34 H :    0.243001
  35 H :    0.172902
Sum of atomic charges:    0.0000000

LOEWDIN ATOMIC CHARGES
----------------------
   0 C :    0.109665
   1 C :   -0.030433
   2 O :    0.307013
   3 C :   -0.424463
   4 O :    0.117030
   5 C :   -0.098772
   6 C :   -0.061130
   7 C :    0.129292
   8 N :    0.408547
   9 C :   -0.453535
  10 S :   -0.028867
  11 N :    0.395991
  12 C :   -0.051701
  13 C :   -0.037760
  14 C :    0.006493
  15 C :    0.043600
  16 C :   -0.000384
  17 C :   -0.189264
  18 O :    0.396778
  19 C :    0.028423
  20 H :   -0.027046
  21 H :   -0.025868
  22 H :   -0.024219
  23 H :   -0.032142
  24 H :   -0.033693
  25 H :   -0.006630
  26 H :   -0.001606
  27 H :   -0.022837
  28 H :   -0.056716
  29 H :   -0.067361
  30 H :   -0.004352
  31 H :   -0.031949
  32 H :   -0.018708
  33 H :   -0.033910
  34 H :   -0.151457
  35 H :   -0.028028

  Mayer bond orders larger than 0.100000
B(  0-C ,  1-C ) :   0.9812 B(  0-C , 20-H ) :   0.9778 B(  0-C , 21-H ) :   0.9809
B(  0-C , 22-H ) :   0.9777 B(  1-C ,  2-O ) :   0.8934 B(  1-C , 23-H ) :   0.9627
B(  1-C , 24-H ) :   0.9734 B(  2-O ,  3-C ) :   1.1847 B(  3-C ,  4-O ) :   2.0725
B(  3-C ,  5-C ) :   0.9838 B(  5-C ,  6-C ) :   1.6581 B(  5-C , 12-C ) :   0.9613
B(  6-C ,  7-C ) :   0.9779 B(  6-C ,  8-N ) :   1.1453 B(  7-C , 25-H ) :   0.9689
B(  7-C , 26-H ) :   0.9524 B(  7-C , 27-H ) :   0.9845 B(  8-N ,  9-C ) :   1.1833
B(  8-N , 28-H ) :   0.9493 B(  9-C , 10-S ) :   1.6180 B(  9-C , 11-N ) :   1.2934
B( 11-N , 12-C ) :   0.9568 B( 11-N , 29-H ) :   0.9542 B( 12-C , 13-C ) :   0.9602
B( 12-C , 30-H ) :   0.9987 B( 13-C , 14-C ) :   1.3448 B( 13-C , 19-C ) :   1.3606
B( 14-C , 15-C ) :   1.3958 B( 14-C , 31-H ) :   0.9724 B( 15-C , 16-C ) :   1.3678
B( 15-C , 32-H ) :   0.9693 B( 16-C , 17-C ) :   1.3302 B( 16-C , 33-H ) :   0.9836
B( 17-C , 18-O ) :   1.1176 B( 17-C , 19-C ) :   1.3712 B( 18-O , 34-H ) :   0.9783
B( 19-C , 35-H ) :   0.9528

MP2 TOTAL ENERGY:    -1274.332202067 Eh
FINAL SINGLE POINT ENERGY     -1274.332202066992

DIPOLE MOMENT
-------------
                                X             Y             Z
Electronic contribution:      9.76184       9.91671       5.14404
Nuclear contribution   :    -10.97909     -11.52379      -4.24360
                        -----------------------------------------
Total Dipole Moment    :     -1.21725      -1.60708       0.90044
                        -----------------------------------------
Magnitude (a.u.)       :      2.20798
Magnitude (Debye)      :      5.61224

Rotational constants in cm-1:     0.011083     0.009559     0.006436
Rotational constants in MHz :   332.257511   286.557727   192.933374

                             ****ORCA TERMINATED NORMALLY****
TOTAL RUN TIME: 0 days 2 hours 16 minutes 25 seconds 974 msec
