                         Program Version 5.0.0 -  RELEASE  -
|  1> ! ri-mp2 cc-pvtz cc-pvtz/c TightSCF NoKeepInts
|  2>
|  3> %scf
|  4>   MaxCore 4096
|  5> end
|  6> *xyz  0  1
|  7>     C       15.1088800   15.6152900   17.4050322
|  8>     C       15.5236936   15.2893214   15.9542118
|  9>     O       16.9512947   15.2206749   15.6910390
| 10>     C       18.0282367   15.5876809   16.4652008
| 11>     O       19.0022104   14.8583976   16.5068751
| 12>     C       17.9159398   16.7649282   17.3860259
| 13>     C       17.3752215   17.9501304   17.0084218
| 14>     C       16.7944577   18.3129691   15.6575713
| 15>     N       17.4112709   19.0418732   17.8795930
| 16>     C       18.1230753   19.0830538   19.0492621
| 17>     S       18.2036911   20.4540307   19.9701529
| 18>     N       18.7683180   17.9285365   19.4154809
| 19>     C       18.6249672   16.6243508   18.7383442
| 20>     C       17.9213062   15.6099490   19.6366092
| 21>     C       18.3546888   14.2713934   19.6598182
| 22>     C       17.7092109   13.3216729   20.4688482
| 23>     C       16.6186247   13.7117047   21.2640973
| 24>     C       16.1814069   15.0427302   21.2439194
| 25>     O       15.1214387   15.4203439   22.0018372
| 26>     C       16.8255243   15.9863543   20.4373559
| 27>     H       15.6613272   14.9879604   18.1138187
| 28>     H       14.0441783   15.3891110   17.5402786
| 29>     H       15.2383411   16.6688187   17.6657939
| 30>     H       15.0921905   14.3151960   15.6889860
| 31>     H       15.0652763   16.0242554   15.2811060
| 32>     H       17.1535636   17.6481134   14.8627542
| 33>     H       17.0853364   19.3286784   15.3605983
| 34>     H       15.6992670   18.2717143   15.6730911
| 35>     H       16.9593482   19.9043642   17.6195258
| 36>     H       19.2745959   17.9814534   20.2903731
| 37>     H       19.6392994   16.2460451   18.5424729
| 38>     H       19.1911633   13.9626883   19.0360356
| 39>     H       18.0535256   12.2888220   20.4729074
| 40>     H       16.1160186   12.9804925   21.8885420
| 41>     H       14.8471439   14.6500571   22.5220547
| 42>     H       16.4629672   17.0088437   20.4359652
| 43> *
| 44>
| 45>                          ****END OF INPUT****

CARTESIAN COORDINATES (ANGSTROEM)
---------------------------------
  C     15.108880   15.615290   17.405032
  C     15.523694   15.289321   15.954212
  O     16.951295   15.220675   15.691039
  C     18.028237   15.587681   16.465201
  O     19.002210   14.858398   16.506875
  C     17.915940   16.764928   17.386026
  C     17.375221   17.950130   17.008422
  C     16.794458   18.312969   15.657571
  N     17.411271   19.041873   17.879593
  C     18.123075   19.083054   19.049262
  S     18.203691   20.454031   19.970153
  N     18.768318   17.928536   19.415481
  C     18.624967   16.624351   18.738344
  C     17.921306   15.609949   19.636609
  C     18.354689   14.271393   19.659818
  C     17.709211   13.321673   20.468848
  C     16.618625   13.711705   21.264097
  C     16.181407   15.042730   21.243919
  O     15.121439   15.420344   22.001837
  C     16.825524   15.986354   20.437356
  H     15.661327   14.987960   18.113819
  H     14.044178   15.389111   17.540279
  H     15.238341   16.668819   17.665794
  H     15.092190   14.315196   15.688986
  H     15.065276   16.024255   15.281106
  H     17.153564   17.648113   14.862754
  H     17.085336   19.328678   15.360598
  H     15.699267   18.271714   15.673091
  H     16.959348   19.904364   17.619526
  H     19.274596   17.981453   20.290373
  H     19.639299   16.246045   18.542473
  H     19.191163   13.962688   19.036036
  H     18.053526   12.288822   20.472907
  H     16.116019   12.980492   21.888542
  H     14.847144   14.650057   22.522055
  H     16.462967   17.008844   20.435965

 Total Charge           Charge          ....    0
 Multiplicity           Mult            ....    1
 Number of Electrons    NEL             ....  154
 Basis Dimension        Dim             ....  828

ORBITAL ENERGIES
----------------

  NO   OCC          E(Eh)            E(eV)
   0   2.0000     -91.891052     -2500.4827
   1   2.0000     -20.597560      -560.4881
   2   2.0000     -20.594430      -560.4029
   3   2.0000     -20.546924      -559.1102
   4   2.0000     -15.630045      -425.3152
   5   2.0000     -15.610691      -424.7885
   6   2.0000     -11.399428      -310.1942
   7   2.0000     -11.386913      -309.8537
   8   2.0000     -11.334718      -308.4334
   9   2.0000     -11.314120      -307.8728
  10   2.0000     -11.312786      -307.8366
  11   2.0000     -11.311585      -307.8039
  12   2.0000     -11.267893      -306.6150
  13   2.0000     -11.265276      -306.5438
  14   2.0000     -11.260822      -306.4225
  15   2.0000     -11.254537      -306.2515
  16   2.0000     -11.243861      -305.9610
  17   2.0000     -11.239260      -305.8358
  18   2.0000     -11.236034      -305.7480
  19   2.0000     -11.235443      -305.7319
  20   2.0000      -8.896135      -242.0761
  21   2.0000      -6.577717      -178.9888
  22   2.0000      -6.575699      -178.9339
  23   2.0000      -6.575117      -178.9180
  24   2.0000      -1.441468       -39.2243
  25   2.0000      -1.417376       -38.5688
  26   2.0000      -1.354023       -36.8448
  27   2.0000      -1.342321       -36.5264
  28   2.0000      -1.240624       -33.7591
  29   2.0000      -1.158670       -31.5290
  30   2.0000      -1.124350       -30.5951
  31   2.0000      -1.046841       -28.4860
  32   2.0000      -1.040690       -28.3186
  33   2.0000      -1.016774       -27.6678
  34   2.0000      -1.005219       -27.3534
  35   2.0000      -0.990052       -26.9407
  36   2.0000      -0.927788       -25.2464
  37   2.0000      -0.901124       -24.5208
  38   2.0000      -0.854260       -23.2456
  39   2.0000      -0.841005       -22.8849
  40   2.0000      -0.834342       -22.7036
  41   2.0000      -0.826444       -22.4887
  42   2.0000      -0.745018       -20.2730
  43   2.0000      -0.733256       -19.9529
  44   2.0000      -0.730420       -19.8757
  45   2.0000      -0.694933       -18.9101
  46   2.0000      -0.686792       -18.6886
  47   2.0000      -0.679371       -18.4866
  48   2.0000      -0.674363       -18.3503
  49   2.0000      -0.661097       -17.9894
  50   2.0000      -0.657769       -17.8988
  51   2.0000      -0.651872       -17.7384
  52   2.0000      -0.642243       -17.4763
  53   2.0000      -0.618462       -16.8292
  54   2.0000      -0.607540       -16.5320
  55   2.0000      -0.605132       -16.4665
  56   2.0000      -0.602038       -16.3823
  57   2.0000      -0.588867       -16.0239
  58   2.0000      -0.576270       -15.6811
  59   2.0000      -0.568179       -15.4609
  60   2.0000      -0.565139       -15.3782
  61   2.0000      -0.555192       -15.1075
  62   2.0000      -0.544370       -14.8131
  63   2.0000      -0.531783       -14.4705
  64   2.0000      -0.522456       -14.2168
  65   2.0000      -0.513699       -13.9785
  66   2.0000      -0.501031       -13.6338
  67   2.0000      -0.493258       -13.4222
  68   2.0000      -0.483420       -13.1545
  69   2.0000      -0.470539       -12.8040
  70   2.0000      -0.456624       -12.4254
  71   2.0000      -0.447599       -12.1798
  72   2.0000      -0.356738        -9.7073
  73   2.0000      -0.348735        -9.4896
  74   2.0000      -0.330462        -8.9923
  75   2.0000      -0.322787        -8.7835
  76   2.0000      -0.319058        -8.6820
  77   0.0000       0.077964         2.1215
  78   0.0000       0.107774         2.9327
  79   0.0000       0.115481         3.1424
  80   0.0000       0.131091         3.5672
  81   0.0000       0.131329         3.5736

MULLIKEN ATOMIC CHARGES
-----------------------
   0 C :   -0.346506
   1 C :    0.043399
   2 O :   -0.343606
   3 C :    0.439335
   4 O :   -0.386428
   5 C :   -0.211758
   6 C :    0.140528
   7 C :   -0.334546
   8 N :   -0.134728
   9 C :    0.196282
  10 S :   -0.437920
  11 N :   -0.215520
  12 C :    0.072766
  13 C :    0.019665
  14 C :   -0.202701
  15 C :   -0.135518
  16 C :   -0.277621
  17 C :    0.316732
  18 O :   -0.358087
  19 C :   -0.268467
  20 H :    0.130821
  21 H :    0.123689
  22 H :    0.109057
  23 H :    0.128669
  24 H :    0.088820
  25 H :    0.142265
  26 H :    0.131998
  27 H :    0.119778
  28 H :    0.197811
  29 H :    0.199400
  30 H :    0.165509
  31 H :    0.175159
  32 H :    0.163612
  33 H :    0.131898
  34 H :    0.241068
  35 H :    0.175145
Sum of atomic charges:    0.0000000

LOEWDIN ATOMIC CHARGES
----------------------
   0 C :    0.104866
   1 C :   -0.014590
   2 O :    0.287396
   3 C :   -0.416617
   4 O :    0.120878
   5 C :   -0.084914
   6 C :   -0.087468
   7 C :    0.126957
   8 N :    0.403762
   9 C :   -0.459067
  10 S :   -0.035552
  11 N :    0.398123
  12 C :   -0.043730
  13 C :   -0.043951
  14 C :    0.019366
  15 C :    0.042866
  16 C :   -0.001835
  17 C :   -0.194239
  18 O :    0.395008
  19 C :    0.028668
  20 H :   -0.021007
  21 H :   -0.020774
  22 H :   -0.035697
  23 H :   -0.019160
  24 H :   -0.035171
  25 H :   -0.006416
  26 H :   -0.011648
  27 H :   -0.018248
  28 H :   -0.057522
  29 H :   -0.063274
  30 H :   -0.002220
  31 H :   -0.021939
  32 H :   -0.018880
  33 H :   -0.035087
  34 H :   -0.153665
  35 H :   -0.025218

  Mayer bond orders larger than 0.100000
B(  0-C ,  1-C ) :   0.9611 B(  0-C , 20-H ) :   0.9655 B(  0-C , 21-H ) :   0.9769
B(  0-C , 22-H ) :   0.9720 B(  1-C ,  2-O ) :   0.9009 B(  1-C , 23-H ) :   0.9796
B(  1-C , 24-H ) :   0.9758 B(  2-O ,  3-C ) :   1.1659 B(  3-C ,  4-O ) :   2.0705
B(  3-C ,  5-C ) :   0.9446 B(  5-C ,  6-C ) :   1.6886 B(  5-C , 12-C ) :   0.9566
B(  6-C ,  7-C ) :   0.9431 B(  6-C ,  8-N ) :   1.1110 B(  7-C , 25-H ) :   0.9736
B(  7-C , 26-H ) :   0.9794 B(  7-C , 27-H ) :   0.9639 B(  8-N ,  9-C ) :   1.1885
B(  8-N , 28-H ) :   0.9509 B(  9-C , 10-S ) :   1.6128 B(  9-C , 11-N ) :   1.2921
B( 11-N , 12-C ) :   0.9885 B( 11-N , 29-H ) :   0.9498 B( 12-C , 13-C ) :   0.9461
B( 12-C , 30-H ) :   0.9963 B( 13-C , 14-C ) :   1.3915 B( 13-C , 19-C ) :   1.3460
B( 14-C , 15-C ) :   1.3973 B( 14-C , 31-H ) :   0.9575 B( 15-C , 16-C ) :   1.3610
B( 15-C , 32-H ) :   0.9704 B( 16-C , 17-C ) :   1.3295 B( 16-C , 33-H ) :   0.9848
B( 17-C , 18-O ) :   1.1112 B( 17-C , 19-C ) :   1.3711 B( 18-O , 34-H ) :   0.9797
B( 19-C , 35-H ) :   0.9577

MP2 TOTAL ENERGY:    -1274.328160448 Eh
FINAL SINGLE POINT ENERGY     -1274.328160447928

DIPOLE MOMENT
-------------
                                X             Y             Z
Electronic contribution:      9.60658       6.01128       6.37063
Nuclear contribution   :    -11.24408      -7.02638      -6.91305
                        -----------------------------------------
Total Dipole Moment    :     -1.63750      -1.01510      -0.54242
                        -----------------------------------------
Magnitude (a.u.)       :      2.00151
Magnitude (Debye)      :      5.08743

Rotational constants in cm-1:     0.011419     0.009748     0.006807
Rotational constants in MHz :   342.336670   292.237657   204.057393

                             ****ORCA TERMINATED NORMALLY****
TOTAL RUN TIME: 0 days 2 hours 11 minutes 40 seconds 651 msec
