                         Program Version 5.0.0 -  RELEASE  -
|  1> ! ri-mp2 cc-pvtz cc-pvtz/c TightSCF NoKeepInts
|  2>
|  3> %scf
|  4>   MaxCore 4096
|  5> end
|  6> *xyz  0  1
|  7>     C       15.0363360   14.4681496   17.3372305
|  8>     C       15.4600572   15.6651086   16.4685295
|  9>     O       16.7440254   15.3459026   15.8915199
| 10>     C       17.9472649   15.6688356   16.4685196
| 11>     O       18.8596685   14.8631188   16.4599283
| 12>     C       17.9842573   16.8721856   17.3588363
| 13>     C       17.5191094   18.0875367   16.9805434
| 14>     C       16.9215211   18.4634828   15.6403600
| 15>     N       17.6513433   19.1819078   17.8383794
| 16>     C       18.3461053   19.1675534   19.0195651
| 17>     S       18.5192887   20.5292012   19.9414190
| 18>     N       18.8892059   17.9651509   19.3997947
| 19>     C       18.6845125   16.6790635   18.7042115
| 20>     C       17.9065189   15.7005842   19.5776055
| 21>     C       18.3410142   14.3689267   19.7081806
| 22>     C       17.6211368   13.4548407   20.4954811
| 23>     C       16.4538367   13.8740873   21.1561158
| 24>     C       16.0136724   15.1978393   21.0230493
| 25>     O       14.8786515   15.6020841   21.6465020
| 26>     C       16.7319750   16.1058386   20.2385777
| 27>     H       15.7721504   14.2766762   18.1267893
| 28>     H       14.9498449   13.5606596   16.7266639
| 29>     H       14.0660757   14.6577793   17.8119113
| 30>     H       14.7231988   15.7952233   15.6654461
| 31>     H       15.4656648   16.5759991   17.0758396
| 32>     H       17.1603391   17.7284206   14.8617203
| 33>     H       17.3150906   19.4254479   15.2878138
| 34>     H       15.8301399   18.5503263   15.7012827
| 35>     H       17.2738689   20.0773557   17.5703562
| 36>     H       19.3784237   17.9792238   20.2858901
| 37>     H       19.6760899   16.2460151   18.5053220
| 38>     H       19.2335176   14.0369856   19.1817967
| 39>     H       17.9658880   12.4259258   20.5843319
| 40>     H       15.8932936   13.1697814   21.7619571
| 41>     H       14.5619090   14.8595081   22.1829787
| 42>     H       16.3720038   17.1252745   20.1495512
| 43> *
| 44>
| 45>                          ****END OF INPUT****

CARTESIAN COORDINATES (ANGSTROEM)
---------------------------------
  C     15.036336   14.468150   17.337231
  C     15.460057   15.665109   16.468529
  O     16.744025   15.345903   15.891520
  C     17.947265   15.668836   16.468520
  O     18.859668   14.863119   16.459928
  C     17.984257   16.872186   17.358836
  C     17.519109   18.087537   16.980543
  C     16.921521   18.463483   15.640360
  N     17.651343   19.181908   17.838379
  C     18.346105   19.167553   19.019565
  S     18.519289   20.529201   19.941419
  N     18.889206   17.965151   19.399795
  C     18.684513   16.679064   18.704211
  C     17.906519   15.700584   19.577606
  C     18.341014   14.368927   19.708181
  C     17.621137   13.454841   20.495481
  C     16.453837   13.874087   21.156116
  C     16.013672   15.197839   21.023049
  O     14.878652   15.602084   21.646502
  C     16.731975   16.105839   20.238578
  H     15.772150   14.276676   18.126789
  H     14.949845   13.560660   16.726664
  H     14.066076   14.657779   17.811911
  H     14.723199   15.795223   15.665446
  H     15.465665   16.575999   17.075840
  H     17.160339   17.728421   14.861720
  H     17.315091   19.425448   15.287814
  H     15.830140   18.550326   15.701283
  H     17.273869   20.077356   17.570356
  H     19.378424   17.979224   20.285890
  H     19.676090   16.246015   18.505322
  H     19.233518   14.036986   19.181797
  H     17.965888   12.425926   20.584332
  H     15.893294   13.169781   21.761957
  H     14.561909   14.859508   22.182979
  H     16.372004   17.125274   20.149551

 Total Charge           Charge          ....    0
 Multiplicity           Mult            ....    1
 Number of Electrons    NEL             ....  154
 Basis Dimension        Dim             ....  828

ORBITAL ENERGIES
----------------

  NO   OCC          E(Eh)            E(eV)
   0   2.0000     -91.891149     -2500.4853
   1   2.0000     -20.599847      -560.5503
   2   2.0000     -20.598120      -560.5034
   3   2.0000     -20.549509      -559.1806
   4   2.0000     -15.629717      -425.3062
   5   2.0000     -15.611681      -424.8154
   6   2.0000     -11.397901      -310.1526
   7   2.0000     -11.387480      -309.8691
   8   2.0000     -11.334368      -308.4238
   9   2.0000     -11.316596      -307.9402
  10   2.0000     -11.313142      -307.8462
  11   2.0000     -11.304928      -307.6227
  12   2.0000     -11.268052      -306.6193
  13   2.0000     -11.265317      -306.5448
  14   2.0000     -11.262883      -306.4786
  15   2.0000     -11.256814      -306.3135
  16   2.0000     -11.246112      -306.0223
  17   2.0000     -11.242172      -305.9150
  18   2.0000     -11.239191      -305.8339
  19   2.0000     -11.224843      -305.4435
  20   2.0000      -8.896243      -242.0791
  21   2.0000      -6.577824      -178.9917
  22   2.0000      -6.575806      -178.9368
  23   2.0000      -6.575224      -178.9210
  24   2.0000      -1.446981       -39.3743
  25   2.0000      -1.419598       -38.6292
  26   2.0000      -1.358771       -36.9740
  27   2.0000      -1.342214       -36.5235
  28   2.0000      -1.241063       -33.7710
  29   2.0000      -1.161341       -31.6017
  30   2.0000      -1.125855       -30.6361
  31   2.0000      -1.048821       -28.5399
  32   2.0000      -1.035761       -28.1845
  33   2.0000      -1.018703       -27.7203
  34   2.0000      -1.005570       -27.3629
  35   2.0000      -0.989933       -26.9374
  36   2.0000      -0.928128       -25.2557
  37   2.0000      -0.886518       -24.1234
  38   2.0000      -0.855409       -23.2769
  39   2.0000      -0.842442       -22.9240
  40   2.0000      -0.836924       -22.7739
  41   2.0000      -0.834255       -22.7012
  42   2.0000      -0.750856       -20.4318
  43   2.0000      -0.740657       -20.1543
  44   2.0000      -0.731202       -19.8970
  45   2.0000      -0.697922       -18.9914
  46   2.0000      -0.688539       -18.7361
  47   2.0000      -0.680469       -18.5165
  48   2.0000      -0.677418       -18.4335
  49   2.0000      -0.659577       -17.9480
  50   2.0000      -0.657274       -17.8853
  51   2.0000      -0.647934       -17.6312
  52   2.0000      -0.640300       -17.4235
  53   2.0000      -0.614741       -16.7279
  54   2.0000      -0.609150       -16.5758
  55   2.0000      -0.606874       -16.5139
  56   2.0000      -0.601612       -16.3707
  57   2.0000      -0.584710       -15.9108
  58   2.0000      -0.578315       -15.7368
  59   2.0000      -0.568743       -15.4763
  60   2.0000      -0.561207       -15.2712
  61   2.0000      -0.553644       -15.0654
  62   2.0000      -0.546744       -14.8776
  63   2.0000      -0.530141       -14.4259
  64   2.0000      -0.520381       -14.1603
  65   2.0000      -0.513690       -13.9782
  66   2.0000      -0.502609       -13.6767
  67   2.0000      -0.500330       -13.6147
  68   2.0000      -0.486268       -13.2320
  69   2.0000      -0.470827       -12.8119
  70   2.0000      -0.455712       -12.4005
  71   2.0000      -0.447678       -12.1819
  72   2.0000      -0.358395        -9.7524
  73   2.0000      -0.352516        -9.5925
  74   2.0000      -0.330649        -8.9974
  75   2.0000      -0.324579        -8.8323
  76   2.0000      -0.319466        -8.6931
  77   0.0000       0.078033         2.1234
  78   0.0000       0.103498         2.8163
  79   0.0000       0.114880         3.1260
  80   0.0000       0.128091         3.4855
  81   0.0000       0.134957         3.6724

MULLIKEN ATOMIC CHARGES
-----------------------
   0 C :   -0.272025
   1 C :    0.014094
   2 O :   -0.330288
   3 C :    0.414005
   4 O :   -0.384457
   5 C :   -0.208766
   6 C :    0.143834
   7 C :   -0.318998
   8 N :   -0.133338
   9 C :    0.200998
  10 S :   -0.438465
  11 N :   -0.207527
  12 C :    0.064808
  13 C :    0.009531
  14 C :   -0.183222
  15 C :   -0.130497
  16 C :   -0.275376
  17 C :    0.311556
  18 O :   -0.360179
  19 C :   -0.258302
  20 H :    0.105993
  21 H :    0.110276
  22 H :    0.092672
  23 H :    0.116741
  24 H :    0.093686
  25 H :    0.136822
  26 H :    0.130140
  27 H :    0.121288
  28 H :    0.197596
  29 H :    0.196953
  30 H :    0.162894
  31 H :    0.167123
  32 H :    0.163167
  33 H :    0.132075
  34 H :    0.241706
  35 H :    0.173484
Sum of atomic charges:   -0.0000000

LOEWDIN ATOMIC CHARGES
----------------------
   0 C :    0.108557
   1 C :   -0.022431
   2 O :    0.301986
   3 C :   -0.416327
   4 O :    0.123018
   5 C :   -0.087158
   6 C :   -0.092904
   7 C :    0.126944
   8 N :    0.402593
   9 C :   -0.457586
  10 S :   -0.035577
  11 N :    0.397547
  12 C :   -0.045168
  13 C :   -0.045340
  14 C :    0.021177
  15 C :    0.044316
  16 C :   -0.000349
  17 C :   -0.192845
  18 O :    0.395115
  19 C :    0.027343
  20 H :   -0.024351
  21 H :   -0.024526
  22 H :   -0.026641
  23 H :   -0.025945
  24 H :   -0.040483
  25 H :   -0.006569
  26 H :   -0.011790
  27 H :   -0.016436
  28 H :   -0.057323
  29 H :   -0.063297
  30 H :   -0.002777
  31 H :   -0.021931
  32 H :   -0.018627
  33 H :   -0.034643
  34 H :   -0.152913
  35 H :   -0.024658

  Mayer bond orders larger than 0.100000
B(  0-C ,  1-C ) :   0.9796 B(  0-C , 20-H ) :   0.9693 B(  0-C , 21-H ) :   0.9806
B(  0-C , 22-H ) :   0.9753 B(  1-C ,  2-O ) :   0.8951 B(  1-C , 23-H ) :   0.9809
B(  1-C , 24-H ) :   0.9633 B(  2-O ,  3-C ) :   1.1736 B(  3-C ,  4-O ) :   2.0871
B(  3-C ,  5-C ) :   0.9358 B(  5-C ,  6-C ) :   1.6803 B(  5-C , 12-C ) :   0.9580
B(  6-C ,  7-C ) :   0.9449 B(  6-C ,  8-N ) :   1.1236 B(  7-C , 25-H ) :   0.9753
B(  7-C , 26-H ) :   0.9772 B(  7-C , 27-H ) :   0.9639 B(  8-N ,  9-C ) :   1.1885
B(  8-N , 28-H ) :   0.9509 B(  9-C , 10-S ) :   1.6135 B(  9-C , 11-N ) :   1.2925
B( 11-N , 12-C ) :   0.9985 B( 11-N , 29-H ) :   0.9502 B( 12-C , 13-C ) :   0.9418
B( 12-C , 30-H ) :   0.9969 B( 13-C , 14-C ) :   1.3900 B( 13-C , 19-C ) :   1.3572
B( 14-C , 15-C ) :   1.3925 B( 14-C , 31-H ) :   0.9608 B( 15-C , 16-C ) :   1.3618
B( 15-C , 32-H ) :   0.9710 B( 16-C , 17-C ) :   1.3307 B( 16-C , 33-H ) :   0.9849
B( 17-C , 18-O ) :   1.1081 B( 17-C , 19-C ) :   1.3707 B( 18-O , 34-H ) :   0.9791
B( 19-C , 35-H ) :   0.9569

MP2 TOTAL ENERGY:    -1274.337082117 Eh
FINAL SINGLE POINT ENERGY     -1274.337082117211

DIPOLE MOMENT
-------------
                                X             Y             Z
Electronic contribution:      9.89739       8.05525       5.73748
Nuclear contribution   :    -11.41979      -8.93638      -6.10863
                        -----------------------------------------
Total Dipole Moment    :     -1.52240      -0.88113      -0.37115
                        -----------------------------------------
Magnitude (a.u.)       :      1.79773
Magnitude (Debye)      :      4.56947

Rotational constants in cm-1:     0.012193     0.009310     0.006835
Rotational constants in MHz :   365.522800   279.108084   204.917191

                             ****ORCA TERMINATED NORMALLY****
TOTAL RUN TIME: 0 days 1 hours 42 minutes 43 seconds 894 msec
