                         Program Version 5.0.0 -  RELEASE  -
|  1> ! ri-mp2 cc-pvtz cc-pvtz/c TightSCF NoKeepInts
|  2>
|  3> %scf
|  4>   MaxCore 4096
|  5> end
|  6> *xyz  0  1
|  7>     C       15.2219737   15.2177925   17.4201696
|  8>     C       15.5254602   15.3686696   15.9144534
|  9>     O       16.9392260   15.3784087   15.5920616
| 10>     C       17.9724688   15.5920600   16.4683490
| 11>     O       18.8556164   14.7603163   16.5720713
| 12>     C       17.9176774   16.7959261   17.3661548
| 13>     C       17.3775108   17.9924467   17.0190463
| 14>     C       16.7755903   18.4036299   15.6915767
| 15>     N       17.4503750   19.0713140   17.9048153
| 16>     C       18.1938097   19.0917130   19.0547743
| 17>     S       18.3226976   20.4535414   19.9837222
| 18>     N       18.8268594   17.9232752   19.3940898
| 19>     C       18.6325452   16.6280327   18.7143048
| 20>     C       17.9019215   15.6397156   19.6214607
| 21>     C       18.3274606   14.3003016   19.6945631
| 22>     C       17.6561032   13.3768965   20.5129710
| 23>     C       16.5479794   13.7945935   21.2688480
| 24>     C       16.1205007   15.1271635   21.2015064
| 25>     O       15.0449454   15.5321244   21.9224538
| 26>     C       16.7910807   16.0444256   20.3862918
| 27>     H       15.8287795   14.4214361   17.8704021
| 28>     H       14.1681015   14.9505809   17.5643928
| 29>     H       15.3921868   16.1533265   17.9629636
| 30>     H       15.0662483   14.5250774   15.3826199
| 31>     H       15.0412970   16.2762613   15.5376463
| 32>     H       17.0974515   17.7537580   14.8695801
| 33>     H       17.0905586   19.4173667   15.4127656
| 34>     H       15.6806123   18.3998129   15.7342577
| 35>     H       17.0047898   19.9431757   17.6660140
| 36>     H       19.3550113   17.9584527   20.2568427
| 37>     H       19.6319265   16.2163347   18.5094479
| 38>     H       19.1768292   13.9693053   19.1006039
| 39>     H       17.9938093   12.3426988   20.5540538
| 40>     H       16.0250299   13.0837185   21.9000072
| 41>     H       14.7541883   14.7786921   22.4581969
| 42>     H       16.4383782   17.0696557   20.3505216
| 43> *
| 44>
| 45>                          ****END OF INPUT****

CARTESIAN COORDINATES (ANGSTROEM)
---------------------------------
  C     15.221974   15.217792   17.420170
  C     15.525460   15.368670   15.914453
  O     16.939226   15.378409   15.592062
  C     17.972469   15.592060   16.468349
  O     18.855616   14.760316   16.572071
  C     17.917677   16.795926   17.366155
  C     17.377511   17.992447   17.019046
  C     16.775590   18.403630   15.691577
  N     17.450375   19.071314   17.904815
  C     18.193810   19.091713   19.054774
  S     18.322698   20.453541   19.983722
  N     18.826859   17.923275   19.394090
  C     18.632545   16.628033   18.714305
  C     17.901922   15.639716   19.621461
  C     18.327461   14.300302   19.694563
  C     17.656103   13.376897   20.512971
  C     16.547979   13.794593   21.268848
  C     16.120501   15.127163   21.201506
  O     15.044945   15.532124   21.922454
  C     16.791081   16.044426   20.386292
  H     15.828779   14.421436   17.870402
  H     14.168102   14.950581   17.564393
  H     15.392187   16.153326   17.962964
  H     15.066248   14.525077   15.382620
  H     15.041297   16.276261   15.537646
  H     17.097451   17.753758   14.869580
  H     17.090559   19.417367   15.412766
  H     15.680612   18.399813   15.734258
  H     17.004790   19.943176   17.666014
  H     19.355011   17.958453   20.256843
  H     19.631926   16.216335   18.509448
  H     19.176829   13.969305   19.100604
  H     17.993809   12.342699   20.554054
  H     16.025030   13.083718   21.900007
  H     14.754188   14.778692   22.458197
  H     16.438378   17.069656   20.350522

 Total Charge           Charge          ....    0
 Multiplicity           Mult            ....    1
 Number of Electrons    NEL             ....  154
 Basis Dimension        Dim             ....  828

ORBITAL ENERGIES
----------------

  NO   OCC          E(Eh)            E(eV)
   0   2.0000     -91.890958     -2500.4801
   1   2.0000     -20.596932      -560.4710
   2   2.0000     -20.592084      -560.3391
   3   2.0000     -20.549907      -559.1914
   4   2.0000     -15.630232      -425.3202
   5   2.0000     -15.610159      -424.7740
   6   2.0000     -11.398466      -310.1680
   7   2.0000     -11.386476      -309.8418
   8   2.0000     -11.337493      -308.5089
   9   2.0000     -11.313224      -307.8485
  10   2.0000     -11.310584      -307.7766
  11   2.0000     -11.310135      -307.7644
  12   2.0000     -11.266677      -306.5819
  13   2.0000     -11.266378      -306.5737
  14   2.0000     -11.259563      -306.3883
  15   2.0000     -11.253357      -306.2194
  16   2.0000     -11.243085      -305.9399
  17   2.0000     -11.238620      -305.8184
  18   2.0000     -11.234980      -305.7193
  19   2.0000     -11.232918      -305.6632
  20   2.0000      -8.896039      -242.0735
  21   2.0000      -6.577620      -178.9861
  22   2.0000      -6.575603      -178.9313
  23   2.0000      -6.575020      -178.9154
  24   2.0000      -1.444364       -39.3031
  25   2.0000      -1.416754       -38.5518
  26   2.0000      -1.356196       -36.9040
  27   2.0000      -1.342732       -36.5376
  28   2.0000      -1.240705       -33.7613
  29   2.0000      -1.157667       -31.5017
  30   2.0000      -1.123354       -30.5680
  31   2.0000      -1.045834       -28.4586
  32   2.0000      -1.037894       -28.2425
  33   2.0000      -1.015911       -27.6444
  34   2.0000      -1.005156       -27.3517
  35   2.0000      -0.989073       -26.9141
  36   2.0000      -0.927168       -25.2295
  37   2.0000      -0.899593       -24.4792
  38   2.0000      -0.854110       -23.2415
  39   2.0000      -0.840691       -22.8764
  40   2.0000      -0.833587       -22.6831
  41   2.0000      -0.825605       -22.4658
  42   2.0000      -0.744781       -20.2665
  43   2.0000      -0.732916       -19.9437
  44   2.0000      -0.729919       -19.8621
  45   2.0000      -0.694597       -18.9010
  46   2.0000      -0.686702       -18.6861
  47   2.0000      -0.680724       -18.5234
  48   2.0000      -0.674748       -18.3608
  49   2.0000      -0.662470       -18.0267
  50   2.0000      -0.655757       -17.8441
  51   2.0000      -0.651119       -17.7179
  52   2.0000      -0.640874       -17.4391
  53   2.0000      -0.624076       -16.9820
  54   2.0000      -0.608413       -16.5558
  55   2.0000      -0.604913       -16.4605
  56   2.0000      -0.601091       -16.3565
  57   2.0000      -0.585834       -15.9414
  58   2.0000      -0.575492       -15.6599
  59   2.0000      -0.564961       -15.3734
  60   2.0000      -0.561292       -15.2735
  61   2.0000      -0.550517       -14.9803
  62   2.0000      -0.542156       -14.7528
  63   2.0000      -0.535428       -14.5697
  64   2.0000      -0.521572       -14.1927
  65   2.0000      -0.512848       -13.9553
  66   2.0000      -0.500469       -13.6185
  67   2.0000      -0.491031       -13.3616
  68   2.0000      -0.485493       -13.2109
  69   2.0000      -0.471971       -12.8430
  70   2.0000      -0.457100       -12.4383
  71   2.0000      -0.448564       -12.2060
  72   2.0000      -0.357819        -9.7367
  73   2.0000      -0.347965        -9.4686
  74   2.0000      -0.330311        -8.9882
  75   2.0000      -0.321877        -8.7587
  76   2.0000      -0.318913        -8.6781
  77   0.0000       0.074183         2.0186
  78   0.0000       0.107657         2.9295
  79   0.0000       0.115923         3.1544
  80   0.0000       0.131307         3.5730
  81   0.0000       0.134440         3.6583

MULLIKEN ATOMIC CHARGES
-----------------------
   0 C :   -0.343963
   1 C :    0.034334
   2 O :   -0.351729
   3 C :    0.457373
   4 O :   -0.386650
   5 C :   -0.241279
   6 C :    0.174956
   7 C :   -0.342968
   8 N :   -0.131096
   9 C :    0.191582
  10 S :   -0.437525
  11 N :   -0.209798
  12 C :    0.062208
  13 C :    0.032168
  14 C :   -0.198454
  15 C :   -0.134317
  16 C :   -0.279295
  17 C :    0.319983
  18 O :   -0.358901
  19 C :   -0.277301
  20 H :    0.131383
  21 H :    0.120772
  22 H :    0.111002
  23 H :    0.127282
  24 H :    0.088865
  25 H :    0.146624
  26 H :    0.130182
  27 H :    0.121443
  28 H :    0.197923
  29 H :    0.197762
  30 H :    0.163307
  31 H :    0.171893
  32 H :    0.163367
  33 H :    0.131442
  34 H :    0.240935
  35 H :    0.176490
Sum of atomic charges:   -0.0000000

LOEWDIN ATOMIC CHARGES
----------------------
   0 C :    0.104856
   1 C :   -0.015613
   2 O :    0.287691
   3 C :   -0.418792
   4 O :    0.124830
   5 C :   -0.086005
   6 C :   -0.080936
   7 C :    0.125724
   8 N :    0.404121
   9 C :   -0.460480
  10 S :   -0.035214
  11 N :    0.397969
  12 C :   -0.044517
  13 C :   -0.042512
  14 C :    0.020172
  15 C :    0.041514
  16 C :   -0.001906
  17 C :   -0.193687
  18 O :    0.394568
  19 C :    0.029220
  20 H :   -0.018153
  21 H :   -0.021928
  22 H :   -0.034739
  23 H :   -0.020740
  24 H :   -0.037701
  25 H :   -0.007324
  26 H :   -0.012122
  27 H :   -0.018842
  28 H :   -0.057154
  29 H :   -0.063037
  30 H :   -0.002609
  31 H :   -0.022647
  32 H :   -0.019358
  33 H :   -0.035255
  34 H :   -0.153758
  35 H :   -0.025636

  Mayer bond orders larger than 0.100000
B(  0-C ,  1-C ) :   0.9606 B(  0-C , 20-H ) :   0.9658 B(  0-C , 21-H ) :   0.9758
B(  0-C , 22-H ) :   0.9711 B(  1-C ,  2-O ) :   0.8999 B(  1-C , 23-H ) :   0.9819
B(  1-C , 24-H ) :   0.9751 B(  2-O ,  3-C ) :   1.1488 B(  3-C ,  4-O ) :   2.0691
B(  3-C ,  5-C ) :   0.9556 B(  5-C ,  6-C ) :   1.6702 B(  5-C , 12-C ) :   0.9610
B(  6-C ,  7-C ) :   0.9414 B(  6-C ,  8-N ) :   1.1241 B(  7-C , 25-H ) :   0.9715
B(  7-C , 26-H ) :   0.9788 B(  7-C , 27-H ) :   0.9656 B(  8-N ,  9-C ) :   1.1861
B(  8-N , 28-H ) :   0.9510 B(  9-C , 10-S ) :   1.6136 B(  9-C , 11-N ) :   1.2955
B( 11-N , 12-C ) :   0.9882 B( 11-N , 29-H ) :   0.9507 B( 12-C , 13-C ) :   0.9477
B( 12-C , 30-H ) :   0.9978 B( 13-C , 14-C ) :   1.3887 B( 13-C , 19-C ) :   1.3415
B( 14-C , 15-C ) :   1.3973 B( 14-C , 31-H ) :   0.9584 B( 15-C , 16-C ) :   1.3604
B( 15-C , 32-H ) :   0.9705 B( 16-C , 17-C ) :   1.3308 B( 16-C , 33-H ) :   0.9849
B( 17-C , 18-O ) :   1.1102 B( 17-C , 19-C ) :   1.3697 B( 18-O , 34-H ) :   0.9799
B( 19-C , 35-H ) :   0.9574

MP2 TOTAL ENERGY:    -1274.331085942 Eh
FINAL SINGLE POINT ENERGY     -1274.331085941815

DIPOLE MOMENT
-------------
                                X             Y             Z
Electronic contribution:      9.49346       6.67021       6.14856
Nuclear contribution   :    -11.09183      -7.65791      -6.70169
                        -----------------------------------------
Total Dipole Moment    :     -1.59837      -0.98770      -0.55313
                        -----------------------------------------
Magnitude (a.u.)       :      1.95865
Magnitude (Debye)      :      4.97848

Rotational constants in cm-1:     0.011472     0.009799     0.006790
Rotational constants in MHz :   343.926406   293.763623   203.565083

                             ****ORCA TERMINATED NORMALLY****
TOTAL RUN TIME: 0 days 2 hours 19 minutes 36 seconds 659 msec
