                         Program Version 5.0.0 -  RELEASE  -
|  1> ! ri-mp2 cc-pvtz cc-pvtz/c TightSCF NoKeepInts
|  2>
|  3> %scf
|  4>   MaxCore 4096
|  5> end
|  6> *xyz  0  1
|  7>     C       14.4993030   14.6851331   16.0146079
|  8>     C       15.7204193   14.9703273   16.9039372
|  9>     O       16.8057807   15.3465379   16.0405539
| 10>     C       18.0160691   15.5376212   16.6346906
| 11>     O       18.7164057   14.5791966   16.9079532
| 12>     C       18.0750348   16.8051537   17.4319293
| 13>     C       17.5238253   17.9730400   17.0193512
| 14>     C       16.8065194   18.2338711   15.7116197
| 15>     N       17.6565663   19.1203077   17.8068142
| 16>     C       18.4308712   19.2073858   18.9344847
| 17>     S       18.6216284   20.6328256   19.7506855
| 18>     N       19.0372218   18.0492176   19.3541900
| 19>     C       18.8018953   16.7123141   18.7751799
| 20>     C       18.0128350   15.8346233   19.7431583
| 21>     C       18.4777457   14.5506991   20.0816992
| 22>     C       17.7423417   13.7285273   20.9516714
| 23>     C       16.5290676   14.1923657   21.4876866
| 24>     C       16.0598979   15.4686833   21.1497121
| 25>     O       14.8823239   15.9152386   21.6540902
| 26>     C       16.7937440   16.2845964   20.2830922
| 27>     H       14.7190671   13.8750479   15.3077814
| 28>     H       14.2181847   15.5775479   15.4422021
| 29>     H       13.6403642   14.3830763   16.6261389
| 30>     H       15.4878797   15.7742410   17.6149122
| 31>     H       15.9836507   14.0674388   17.4727540
| 32>     H       17.2873197   17.6974554   14.8837187
| 33>     H       16.8048814   19.2973009   15.4424766
| 34>     H       15.7635124   17.8989492   15.7657193
| 35>     H       17.2226432   19.9813646   17.5136227
| 36>     H       19.5807808   18.1364959   20.2034909
| 37>     H       19.7812556   16.2438532   18.5988519
| 38>     H       19.4052986   14.1807049   19.6507407
| 39>     H       18.1109482   12.7347391   21.2002633
| 40>     H       15.9567024   13.5588750   22.1573007
| 41>     H       14.5624610   15.2473540   22.2795485
| 42>     H       16.4125541   17.2698908   20.0373708
| 43> *
| 44>
| 45>                          ****END OF INPUT****

CARTESIAN COORDINATES (ANGSTROEM)
---------------------------------
  C     14.499303   14.685133   16.014608
  C     15.720419   14.970327   16.903937
  O     16.805781   15.346538   16.040554
  C     18.016069   15.537621   16.634691
  O     18.716406   14.579197   16.907953
  C     18.075035   16.805154   17.431929
  C     17.523825   17.973040   17.019351
  C     16.806519   18.233871   15.711620
  N     17.656566   19.120308   17.806814
  C     18.430871   19.207386   18.934485
  S     18.621628   20.632826   19.750685
  N     19.037222   18.049218   19.354190
  C     18.801895   16.712314   18.775180
  C     18.012835   15.834623   19.743158
  C     18.477746   14.550699   20.081699
  C     17.742342   13.728527   20.951671
  C     16.529068   14.192366   21.487687
  C     16.059898   15.468683   21.149712
  O     14.882324   15.915239   21.654090
  C     16.793744   16.284596   20.283092
  H     14.719067   13.875048   15.307781
  H     14.218185   15.577548   15.442202
  H     13.640364   14.383076   16.626139
  H     15.487880   15.774241   17.614912
  H     15.983651   14.067439   17.472754
  H     17.287320   17.697455   14.883719
  H     16.804881   19.297301   15.442477
  H     15.763512   17.898949   15.765719
  H     17.222643   19.981365   17.513623
  H     19.580781   18.136496   20.203491
  H     19.781256   16.243853   18.598852
  H     19.405299   14.180705   19.650741
  H     18.110948   12.734739   21.200263
  H     15.956702   13.558875   22.157301
  H     14.562461   15.247354   22.279549
  H     16.412554   17.269891   20.037371

 Total Charge           Charge          ....    0
 Multiplicity           Mult            ....    1
 Number of Electrons    NEL             ....  154
 Basis Dimension        Dim             ....  828

ORBITAL ENERGIES
----------------

  NO   OCC          E(Eh)            E(eV)
   0   2.0000     -91.890461     -2500.4666
   1   2.0000     -20.597540      -560.4875
   2   2.0000     -20.583029      -560.0927
   3   2.0000     -20.557084      -559.3867
   4   2.0000     -15.630281      -425.3216
   5   2.0000     -15.609839      -424.7653
   6   2.0000     -11.393397      -310.0301
   7   2.0000     -11.386052      -309.8302
   8   2.0000     -11.335141      -308.4449
   9   2.0000     -11.313627      -307.8594
  10   2.0000     -11.309983      -307.7603
  11   2.0000     -11.300297      -307.4967
  12   2.0000     -11.263431      -306.4935
  13   2.0000     -11.260534      -306.4147
  14   2.0000     -11.259149      -306.3770
  15   2.0000     -11.253552      -306.2247
  16   2.0000     -11.243301      -305.9458
  17   2.0000     -11.239262      -305.8359
  18   2.0000     -11.236161      -305.7515
  19   2.0000     -11.233003      -305.6655
  20   2.0000      -8.895529      -242.0596
  21   2.0000      -6.577104      -178.9721
  22   2.0000      -6.575096      -178.9175
  23   2.0000      -6.574509      -178.9015
  24   2.0000      -1.452849       -39.5340
  25   2.0000      -1.417336       -38.5677
  26   2.0000      -1.358231       -36.9594
  27   2.0000      -1.341302       -36.4987
  28   2.0000      -1.239433       -33.7267
  29   2.0000      -1.157881       -31.5075
  30   2.0000      -1.122899       -30.5556
  31   2.0000      -1.046058       -28.4647
  32   2.0000      -1.036263       -28.1981
  33   2.0000      -1.015372       -27.6297
  34   2.0000      -1.001523       -27.2528
  35   2.0000      -0.987177       -26.8625
  36   2.0000      -0.925092       -25.1730
  37   2.0000      -0.878361       -23.9014
  38   2.0000      -0.851565       -23.1723
  39   2.0000      -0.841550       -22.8997
  40   2.0000      -0.833867       -22.6907
  41   2.0000      -0.832097       -22.6425
  42   2.0000      -0.757479       -20.6121
  43   2.0000      -0.736485       -20.0408
  44   2.0000      -0.730004       -19.8644
  45   2.0000      -0.695512       -18.9258
  46   2.0000      -0.687855       -18.7175
  47   2.0000      -0.682298       -18.5663
  48   2.0000      -0.675450       -18.3799
  49   2.0000      -0.658439       -17.9170
  50   2.0000      -0.650328       -17.6963
  51   2.0000      -0.642596       -17.4859
  52   2.0000      -0.633670       -17.2430
  53   2.0000      -0.623230       -16.9590
  54   2.0000      -0.606075       -16.4921
  55   2.0000      -0.604849       -16.4588
  56   2.0000      -0.601113       -16.3571
  57   2.0000      -0.580745       -15.8029
  58   2.0000      -0.576912       -15.6986
  59   2.0000      -0.565305       -15.3827
  60   2.0000      -0.558354       -15.1936
  61   2.0000      -0.551215       -14.9993
  62   2.0000      -0.536931       -14.6106
  63   2.0000      -0.523578       -14.2473
  64   2.0000      -0.523113       -14.2346
  65   2.0000      -0.514247       -13.9934
  66   2.0000      -0.502962       -13.6863
  67   2.0000      -0.498296       -13.5593
  68   2.0000      -0.482904       -13.1405
  69   2.0000      -0.466037       -12.6815
  70   2.0000      -0.459860       -12.5134
  71   2.0000      -0.453890       -12.3510
  72   2.0000      -0.356481        -9.7003
  73   2.0000      -0.349283        -9.5045
  74   2.0000      -0.329710        -8.9719
  75   2.0000      -0.320929        -8.7329
  76   2.0000      -0.317714        -8.6454
  77   0.0000       0.069523         1.8918
  78   0.0000       0.103411         2.8140
  79   0.0000       0.117617         3.2005
  80   0.0000       0.131091         3.5672
  81   0.0000       0.134492         3.6597

MULLIKEN ATOMIC CHARGES
-----------------------
   0 C :   -0.259111
   1 C :    0.014153
   2 O :   -0.366227
   3 C :    0.476034
   4 O :   -0.386144
   5 C :   -0.244926
   6 C :    0.152514
   7 C :   -0.286115
   8 N :   -0.124599
   9 C :    0.199143
  10 S :   -0.437172
  11 N :   -0.201699
  12 C :    0.051983
  13 C :    0.055434
  14 C :   -0.167878
  15 C :   -0.133040
  16 C :   -0.279780
  17 C :    0.318734
  18 O :   -0.359345
  19 C :   -0.305952
  20 H :    0.106324
  21 H :    0.090707
  22 H :    0.092697
  23 H :    0.097415
  24 H :    0.118281
  25 H :    0.129882
  26 H :    0.110903
  27 H :    0.120328
  28 H :    0.197358
  29 H :    0.194469
  30 H :    0.157404
  31 H :    0.159947
  32 H :    0.161882
  33 H :    0.131241
  34 H :    0.241440
  35 H :    0.173712
Sum of atomic charges:    0.0000000

LOEWDIN ATOMIC CHARGES
----------------------
   0 C :    0.111433
   1 C :   -0.022283
   2 O :    0.289398
   3 C :   -0.420817
   4 O :    0.135942
   5 C :   -0.095312
   6 C :   -0.077288
   7 C :    0.127168
   8 N :    0.404257
   9 C :   -0.457784
  10 S :   -0.034534
  11 N :    0.397063
  12 C :   -0.045777
  13 C :   -0.041377
  14 C :    0.022130
  15 C :    0.042642
  16 C :   -0.001748
  17 C :   -0.195102
  18 O :    0.393384
  19 C :    0.028047
  20 H :   -0.022951
  21 H :   -0.030770
  22 H :   -0.023828
  23 H :   -0.037665
  24 H :   -0.024173
  25 H :   -0.006368
  26 H :   -0.018038
  27 H :   -0.011815
  28 H :   -0.058466
  29 H :   -0.063879
  30 H :   -0.003835
  31 H :   -0.023733
  32 H :   -0.019753
  33 H :   -0.035283
  34 H :   -0.153451
  35 H :   -0.025433

  Mayer bond orders larger than 0.100000
B(  0-C ,  1-C ) :   0.9781 B(  0-C , 20-H ) :   0.9789 B(  0-C , 21-H ) :   0.9784
B(  0-C , 22-H ) :   0.9762 B(  1-C ,  2-O ) :   0.8900 B(  1-C , 23-H ) :   0.9656
B(  1-C , 24-H ) :   0.9754 B(  2-O ,  3-C ) :   1.1084 B(  3-C ,  4-O ) :   2.0647
B(  3-C ,  5-C ) :   0.9872 B(  5-C ,  6-C ) :   1.6619 B(  5-C , 12-C ) :   0.9649
B(  6-C ,  7-C ) :   0.9523 B(  6-C ,  8-N ) :   1.1373 B(  7-C , 25-H ) :   0.9700
B(  7-C , 26-H ) :   0.9865 B(  7-C , 27-H ) :   0.9634 B(  8-N ,  9-C ) :   1.1829
B(  8-N , 28-H ) :   0.9496 B(  9-C , 10-S ) :   1.6142 B(  9-C , 11-N ) :   1.2982
B( 11-N , 12-C ) :   0.9941 B( 11-N , 29-H ) :   0.9519 B( 12-C , 13-C ) :   0.9452
B( 12-C , 30-H ) :   0.9989 B( 13-C , 14-C ) :   1.3821 B( 13-C , 19-C ) :   1.3483
B( 14-C , 15-C ) :   1.3949 B( 14-C , 31-H ) :   0.9620 B( 15-C , 16-C ) :   1.3645
B( 15-C , 32-H ) :   0.9705 B( 16-C , 17-C ) :   1.3304 B( 16-C , 33-H ) :   0.9847
B( 17-C , 18-O ) :   1.1108 B( 17-C , 19-C ) :   1.3697 B( 18-O , 34-H ) :   0.9797
B( 19-C , 35-H ) :   0.9585

MP2 TOTAL ENERGY:    -1274.325222046 Eh
FINAL SINGLE POINT ENERGY     -1274.325222046081

DIPOLE MOMENT
-------------
                                X             Y             Z
Electronic contribution:     11.25258       8.76673       7.54199
Nuclear contribution   :    -12.58124      -9.90584      -7.94342
                        -----------------------------------------
Total Dipole Moment    :     -1.32866      -1.13911      -0.40143
                        -----------------------------------------
Magnitude (a.u.)       :      1.79557
Magnitude (Debye)      :      4.56396

Rotational constants in cm-1:     0.011347     0.009310     0.006733
Rotational constants in MHz :   340.163096   279.094591   201.845023

                             ****ORCA TERMINATED NORMALLY****
TOTAL RUN TIME: 0 days 2 hours 13 minutes 3 seconds 363 msec
