                         Program Version 5.0.0 -  RELEASE  -
|  1> ! ri-mp2 cc-pvtz cc-pvtz/c TightSCF NoKeepInts
|  2>
|  3> %scf
|  4>   MaxCore 4096
|  5> end
|  6> *xyz  0  1
|  7>     C       14.2572430   14.8217483   16.4964589
|  8>     C       15.4334006   15.6394851   17.0535581
|  9>     O       16.6000502   15.2726553   16.2927709
| 10>     C       17.8359655   15.8521825   16.4397622
| 11>     O       18.8308341   15.2216876   16.1339257
| 12>     C       17.9237026   16.9797044   17.4147836
| 13>     C       17.3779303   18.1935168   17.1718228
| 14>     C       16.6370211   18.6263410   15.9242692
| 15>     N       17.5567389   19.2319676   18.0880024
| 16>     C       18.3515777   19.1588079   19.2027250
| 17>     S       18.5578391   20.4553871   20.2077092
| 18>     N       18.9661084   17.9543204   19.4456150
| 19>     C       18.7599163   16.7170000   18.6658549
| 20>     C       18.1246262   15.6174008   19.5115099
| 21>     C       18.5554498   14.2855447   19.3708204
| 22>     C       17.9599755   13.2567379   20.1191600
| 23>     C       16.9212951   13.5602739   21.0153821
| 24>     C       16.4841937   14.8842230   21.1542014
| 25>     O       15.4710533   15.1789921   22.0067793
| 26>     C       17.0778347   15.9067859   20.4072270
| 27>     H       13.3355348   15.0462196   17.0468859
| 28>     H       14.4587700   13.7469249   16.5884785
| 29>     H       14.0917500   15.0522224   15.4366611
| 30>     H       15.1957708   16.7032016   16.9578135
| 31>     H       15.5793229   15.4019581   18.1152895
| 32>     H       16.5577079   17.8228636   15.1816657
| 33>     H       17.1590731   19.4585547   15.4346793
| 34>     H       15.6196796   18.9607178   16.1623094
| 35>     H       17.1318268   20.1301613   17.9175823
| 36>     H       19.5326731   17.9256169   20.2840912
| 37>     H       19.7480802   16.3629261   18.3360563
| 38>     H       19.3463945   14.0445501   18.6632476
| 39>     H       18.3002817   12.2297784   19.9964733
| 40>     H       16.4567214   12.7675261   21.5925265
| 41>     H       15.2328852   14.3609582   22.4691177
| 42>     H       16.7177721   16.9230580   20.5287842
| 43> *
| 44>
| 45>                          ****END OF INPUT****

CARTESIAN COORDINATES (ANGSTROEM)
---------------------------------
  C     14.257243   14.821748   16.496459
  C     15.433401   15.639485   17.053558
  O     16.600050   15.272655   16.292771
  C     17.835966   15.852182   16.439762
  O     18.830834   15.221688   16.133926
  C     17.923703   16.979704   17.414784
  C     17.377930   18.193517   17.171823
  C     16.637021   18.626341   15.924269
  N     17.556739   19.231968   18.088002
  C     18.351578   19.158808   19.202725
  S     18.557839   20.455387   20.207709
  N     18.966108   17.954320   19.445615
  C     18.759916   16.717000   18.665855
  C     18.124626   15.617401   19.511510
  C     18.555450   14.285545   19.370820
  C     17.959975   13.256738   20.119160
  C     16.921295   13.560274   21.015382
  C     16.484194   14.884223   21.154201
  O     15.471053   15.178992   22.006779
  C     17.077835   15.906786   20.407227
  H     13.335535   15.046220   17.046886
  H     14.458770   13.746925   16.588479
  H     14.091750   15.052222   15.436661
  H     15.195771   16.703202   16.957814
  H     15.579323   15.401958   18.115289
  H     16.557708   17.822864   15.181666
  H     17.159073   19.458555   15.434679
  H     15.619680   18.960718   16.162309
  H     17.131827   20.130161   17.917582
  H     19.532673   17.925617   20.284091
  H     19.748080   16.362926   18.336056
  H     19.346394   14.044550   18.663248
  H     18.300282   12.229778   19.996473
  H     16.456721   12.767526   21.592527
  H     15.232885   14.360958   22.469118
  H     16.717772   16.923058   20.528784

 Total Charge           Charge          ....    0
 Multiplicity           Mult            ....    1
 Number of Electrons    NEL             ....  154
 Basis Dimension        Dim             ....  828

ORBITAL ENERGIES
----------------

  NO   OCC          E(Eh)            E(eV)
   0   2.0000     -91.890206     -2500.4596
   1   2.0000     -20.600646      -560.5721
   2   2.0000     -20.600158      -560.5588
   3   2.0000     -20.550872      -559.2176
   4   2.0000     -15.627003      -425.2324
   5   2.0000     -15.611899      -424.8214
   6   2.0000     -11.397763      -310.1489
   7   2.0000     -11.387055      -309.8575
   8   2.0000     -11.329481      -308.2908
   9   2.0000     -11.317140      -307.9550
  10   2.0000     -11.315471      -307.9096
  11   2.0000     -11.302243      -307.5497
  12   2.0000     -11.270348      -306.6818
  13   2.0000     -11.264959      -306.5351
  14   2.0000     -11.264091      -306.5115
  15   2.0000     -11.257304      -306.3268
  16   2.0000     -11.246463      -306.0318
  17   2.0000     -11.242358      -305.9201
  18   2.0000     -11.239523      -305.8430
  19   2.0000     -11.233012      -305.6658
  20   2.0000      -8.895322      -242.0540
  21   2.0000      -6.576910      -178.9668
  22   2.0000      -6.574884      -178.9117
  23   2.0000      -6.574309      -178.8960
  24   2.0000      -1.448719       -39.4217
  25   2.0000      -1.419993       -38.6400
  26   2.0000      -1.360024       -37.0081
  27   2.0000      -1.340410       -36.4744
  28   2.0000      -1.240224       -33.7482
  29   2.0000      -1.161788       -31.6139
  30   2.0000      -1.126044       -30.6412
  31   2.0000      -1.049550       -28.5597
  32   2.0000      -1.040337       -28.3090
  33   2.0000      -1.019440       -27.7404
  34   2.0000      -1.005629       -27.3646
  35   2.0000      -0.989692       -26.9309
  36   2.0000      -0.928315       -25.2607
  37   2.0000      -0.880361       -23.9558
  38   2.0000      -0.855964       -23.2920
  39   2.0000      -0.842425       -22.9235
  40   2.0000      -0.837676       -22.7943
  41   2.0000      -0.836788       -22.7702
  42   2.0000      -0.757318       -20.6077
  43   2.0000      -0.739961       -20.1354
  44   2.0000      -0.732320       -19.9274
  45   2.0000      -0.697690       -18.9851
  46   2.0000      -0.688526       -18.7357
  47   2.0000      -0.681511       -18.5448
  48   2.0000      -0.677490       -18.4354
  49   2.0000      -0.664904       -18.0930
  50   2.0000      -0.654826       -17.8187
  51   2.0000      -0.651201       -17.7201
  52   2.0000      -0.639954       -17.4140
  53   2.0000      -0.612394       -16.6641
  54   2.0000      -0.608123       -16.5479
  55   2.0000      -0.604063       -16.4374
  56   2.0000      -0.595753       -16.2113
  57   2.0000      -0.585991       -15.9456
  58   2.0000      -0.578319       -15.7368
  59   2.0000      -0.570476       -15.5234
  60   2.0000      -0.563917       -15.3450
  61   2.0000      -0.558183       -15.1889
  62   2.0000      -0.550873       -14.9900
  63   2.0000      -0.526739       -14.3333
  64   2.0000      -0.522052       -14.2058
  65   2.0000      -0.515668       -14.0320
  66   2.0000      -0.505023       -13.7424
  67   2.0000      -0.502768       -13.6810
  68   2.0000      -0.488958       -13.3052
  69   2.0000      -0.469514       -12.7761
  70   2.0000      -0.454534       -12.3685
  71   2.0000      -0.450502       -12.2588
  72   2.0000      -0.357664        -9.7325
  73   2.0000      -0.351958        -9.5773
  74   2.0000      -0.329889        -8.9767
  75   2.0000      -0.325123        -8.8471
  76   2.0000      -0.318807        -8.6752
  77   0.0000       0.085816         2.3352
  78   0.0000       0.104648         2.8476
  79   0.0000       0.112421         3.0591
  80   0.0000       0.128261         3.4901
  81   0.0000       0.130235         3.5439

MULLIKEN ATOMIC CHARGES
-----------------------
   0 C :   -0.260183
   1 C :    0.019324
   2 O :   -0.306917
   3 C :    0.392020
   4 O :   -0.381169
   5 C :   -0.176392
   6 C :    0.129189
   7 C :   -0.323327
   8 N :   -0.136660
   9 C :    0.203900
  10 S :   -0.440784
  11 N :   -0.217811
  12 C :    0.073540
  13 C :    0.019988
  14 C :   -0.196628
  15 C :   -0.133090
  16 C :   -0.274218
  17 C :    0.323450
  18 O :   -0.358669
  19 C :   -0.284103
  20 H :    0.089410
  21 H :    0.107282
  22 H :    0.098017
  23 H :    0.083806
  24 H :    0.118276
  25 H :    0.124380
  26 H :    0.143242
  27 H :    0.118053
  28 H :    0.195571
  29 H :    0.199496
  30 H :    0.165359
  31 H :    0.170026
  32 H :    0.164229
  33 H :    0.132861
  34 H :    0.241572
  35 H :    0.176959
Sum of atomic charges:   -0.0000000

LOEWDIN ATOMIC CHARGES
----------------------
   0 C :    0.111584
   1 C :   -0.024057
   2 O :    0.306831
   3 C :   -0.415882
   4 O :    0.124692
   5 C :   -0.081005
   6 C :   -0.103953
   7 C :    0.122913
   8 N :    0.401469
   9 C :   -0.455848
  10 S :   -0.037608
  11 N :    0.397343
  12 C :   -0.043783
  13 C :   -0.044099
  14 C :    0.022155
  15 C :    0.045839
  16 C :   -0.000347
  17 C :   -0.194755
  18 O :    0.394982
  19 C :    0.026322
  20 H :   -0.025024
  21 H :   -0.022916
  22 H :   -0.026921
  23 H :   -0.038692
  24 H :   -0.029276
  25 H :   -0.008493
  26 H :   -0.008839
  27 H :   -0.017705
  28 H :   -0.057670
  29 H :   -0.063699
  30 H :   -0.002157
  31 H :   -0.021555
  32 H :   -0.018168
  33 H :   -0.034504
  34 H :   -0.152849
  35 H :   -0.024324

  Mayer bond orders larger than 0.100000
B(  0-C ,  1-C ) :   0.9850 B(  0-C , 20-H ) :   0.9770 B(  0-C , 21-H ) :   0.9789
B(  0-C , 22-H ) :   0.9786 B(  1-C ,  2-O ) :   0.9095 B(  1-C , 23-H ) :   0.9685
B(  1-C , 24-H ) :   0.9644 B(  2-O ,  3-C ) :   1.1876 B(  3-C ,  4-O ) :   2.0953
B(  3-C ,  5-C ) :   0.9187 B(  5-C ,  6-C ) :   1.6905 B(  5-C , 12-C ) :   0.9602
B(  6-C ,  7-C ) :   0.9423 B(  6-C ,  8-N ) :   1.1161 B(  7-C , 25-H ) :   0.9812
B(  7-C , 26-H ) :   0.9668 B(  7-C , 27-H ) :   0.9678 B(  8-N ,  9-C ) :   1.1961
B(  8-N , 28-H ) :   0.9525 B(  9-C , 10-S ) :   1.6107 B(  9-C , 11-N ) :   1.2876
B( 11-N , 12-C ) :   0.9943 B( 11-N , 29-H ) :   0.9484 B( 12-C , 13-C ) :   0.9425
B( 12-C , 30-H ) :   0.9973 B( 13-C , 14-C ) :   1.3877 B( 13-C , 19-C ) :   1.3459
B( 14-C , 15-C ) :   1.3973 B( 14-C , 31-H ) :   0.9604 B( 15-C , 16-C ) :   1.3635
B( 15-C , 32-H ) :   0.9698 B( 16-C , 17-C ) :   1.3293 B( 16-C , 33-H ) :   0.9843
B( 17-C , 18-O ) :   1.1088 B( 17-C , 19-C ) :   1.3639 B( 18-O , 34-H ) :   0.9791
B( 19-C , 35-H ) :   0.9591

MP2 TOTAL ENERGY:    -1274.332996067 Eh
FINAL SINGLE POINT ENERGY     -1274.332996066582

DIPOLE MOMENT
-------------
                                X             Y             Z
Electronic contribution:     11.72740       7.17021       7.32818
Nuclear contribution   :    -13.30352      -8.16392      -7.65769
                        -----------------------------------------
Total Dipole Moment    :     -1.57612      -0.99371      -0.32950
                        -----------------------------------------
Magnitude (a.u.)       :      1.89213
Magnitude (Debye)      :      4.80942

Rotational constants in cm-1:     0.011630     0.009125     0.006707
Rotational constants in MHz :   348.652315   273.552828   201.075930

                             ****ORCA TERMINATED NORMALLY****
TOTAL RUN TIME: 0 days 2 hours 8 minutes 7 seconds 560 msec
