                         Program Version 5.0.0 -  RELEASE  -
|  1> ! ri-mp2 cc-pvtz cc-pvtz/c TightSCF NoKeepInts
|  2>
|  3> %scf
|  4>   MaxCore 4096
|  5> end
|  6> *xyz  0  1
|  7>     C       15.1322341   13.8897816   15.8803756
|  8>     C       15.9959180   14.5219395   16.9855484
|  9>     O       17.0857456   15.2171097   16.3523122
| 10>     C       16.9905224   16.5732381   16.2415252
| 11>     O       16.1953565   17.0608985   15.4588971
| 12>     C       17.5874247   17.3227712   17.4045573
| 13>     C       17.3813877   18.6523732   17.5943432
| 14>     C       16.5046611   19.5760347   16.7756217
| 15>     N       18.0598853   19.3269137   18.6144013
| 16>     C       19.0961931   18.8010499   19.3390690
| 17>     S       19.9719750   19.7119002   20.4062215
| 18>     N       19.3818810   17.4777108   19.1194957
| 19>     C       18.5312594   16.5544307   18.3475333
| 20>     C       17.7984158   15.6357462   19.3196036
| 21>     C       18.2537579   14.3197543   19.5257703
| 22>     C       17.5870946   13.4640208   20.4186928
| 23>     C       16.4604609   13.9297182   21.1175735
| 24>     C       16.0131339   15.2439689   20.9263738
| 25>     O       14.9276548   15.6981544   21.6012628
| 26>     C       16.6771135   16.0928837   20.0356089
| 27>     H       14.7055250   14.6656222   15.2318101
| 28>     H       14.3061032   13.3160865   16.3172383
| 29>     H       15.7322153   13.2130889   15.2594609
| 30>     H       15.3921865   15.1976582   17.6069339
| 31>     H       16.3880528   13.7209666   17.6243639
| 32>     H       15.4678393   19.2162754   16.7656706
| 33>     H       16.8481516   19.6107197   15.7337414
| 34>     H       16.4928015   20.6048279   17.1541520
| 35>     H       17.8710306   20.3033580   18.7761900
| 36>     H       20.1359653   17.1110418   19.6858784
| 37>     H       19.1921620   15.9370385   17.7225015
| 38>     H       19.1250008   13.9564013   18.9867695
| 39>     H       17.9454516   12.4468209   20.5692668
| 40>     H       15.9432496   13.2728448   21.8095513
| 41>     H       14.6491551   14.9993167   22.2125205
| 42>     H       16.3200346   17.1095339   19.9131638
| 43> *
| 44>
| 45>                          ****END OF INPUT****

CARTESIAN COORDINATES (ANGSTROEM)
---------------------------------
  C     15.132234   13.889782   15.880376
  C     15.995918   14.521940   16.985548
  O     17.085746   15.217110   16.352312
  C     16.990522   16.573238   16.241525
  O     16.195356   17.060899   15.458897
  C     17.587425   17.322771   17.404557
  C     17.381388   18.652373   17.594343
  C     16.504661   19.576035   16.775622
  N     18.059885   19.326914   18.614401
  C     19.096193   18.801050   19.339069
  S     19.971975   19.711900   20.406221
  N     19.381881   17.477711   19.119496
  C     18.531259   16.554431   18.347533
  C     17.798416   15.635746   19.319604
  C     18.253758   14.319754   19.525770
  C     17.587095   13.464021   20.418693
  C     16.460461   13.929718   21.117573
  C     16.013134   15.243969   20.926374
  O     14.927655   15.698154   21.601263
  C     16.677114   16.092884   20.035609
  H     14.705525   14.665622   15.231810
  H     14.306103   13.316087   16.317238
  H     15.732215   13.213089   15.259461
  H     15.392186   15.197658   17.606934
  H     16.388053   13.720967   17.624364
  H     15.467839   19.216275   16.765671
  H     16.848152   19.610720   15.733741
  H     16.492801   20.604828   17.154152
  H     17.871031   20.303358   18.776190
  H     20.135965   17.111042   19.685878
  H     19.192162   15.937038   17.722501
  H     19.125001   13.956401   18.986769
  H     17.945452   12.446821   20.569267
  H     15.943250   13.272845   21.809551
  H     14.649155   14.999317   22.212521
  H     16.320035   17.109534   19.913164

 Total Charge           Charge          ....    0
 Multiplicity           Mult            ....    1
 Number of Electrons    NEL             ....  154
 Basis Dimension        Dim             ....  828

ORBITAL ENERGIES
----------------

  NO   OCC          E(Eh)            E(eV)
   0   2.0000     -91.891242     -2500.4878
   1   2.0000     -20.602515      -560.6229
   2   2.0000     -20.580368      -560.0203
   3   2.0000     -20.548368      -559.1495
   4   2.0000     -15.632025      -425.3690
   5   2.0000     -15.610257      -424.7767
   6   2.0000     -11.393532      -310.0338
   7   2.0000     -11.385903      -309.8262
   8   2.0000     -11.338750      -308.5431
   9   2.0000     -11.320162      -308.0373
  10   2.0000     -11.312542      -307.8299
  11   2.0000     -11.294171      -307.3300
  12   2.0000     -11.264841      -306.5319
  13   2.0000     -11.261491      -306.4407
  14   2.0000     -11.260348      -306.4096
  15   2.0000     -11.254218      -306.2428
  16   2.0000     -11.249194      -306.1061
  17   2.0000     -11.243760      -305.9583
  18   2.0000     -11.243627      -305.9546
  19   2.0000     -11.216689      -305.2216
  20   2.0000      -8.896271      -242.0799
  21   2.0000      -6.577837      -178.9920
  22   2.0000      -6.575842      -178.9377
  23   2.0000      -6.575247      -178.9216
  24   2.0000      -1.448057       -39.4036
  25   2.0000      -1.422185       -38.6996
  26   2.0000      -1.352768       -36.8107
  27   2.0000      -1.343083       -36.5471
  28   2.0000      -1.241453       -33.7817
  29   2.0000      -1.162945       -31.6454
  30   2.0000      -1.122014       -30.5315
  31   2.0000      -1.046837       -28.4859
  32   2.0000      -1.029934       -28.0259
  33   2.0000      -1.021350       -27.7923
  34   2.0000      -0.998195       -27.1623
  35   2.0000      -0.986222       -26.8365
  36   2.0000      -0.926202       -25.2032
  37   2.0000      -0.879413       -23.9300
  38   2.0000      -0.850551       -23.1447
  39   2.0000      -0.843867       -22.9628
  40   2.0000      -0.839321       -22.8391
  41   2.0000      -0.829581       -22.5740
  42   2.0000      -0.757253       -20.6059
  43   2.0000      -0.736190       -20.0328
  44   2.0000      -0.721698       -19.6384
  45   2.0000      -0.701684       -19.0938
  46   2.0000      -0.692396       -18.8410
  47   2.0000      -0.678908       -18.4740
  48   2.0000      -0.670204       -18.2372
  49   2.0000      -0.660167       -17.9641
  50   2.0000      -0.649549       -17.6751
  51   2.0000      -0.648096       -17.6356
  52   2.0000      -0.638574       -17.3765
  53   2.0000      -0.613434       -16.6924
  54   2.0000      -0.606419       -16.5015
  55   2.0000      -0.602306       -16.3896
  56   2.0000      -0.588275       -16.0078
  57   2.0000      -0.583910       -15.8890
  58   2.0000      -0.577128       -15.7044
  59   2.0000      -0.572152       -15.5691
  60   2.0000      -0.565925       -15.3996
  61   2.0000      -0.540334       -14.7032
  62   2.0000      -0.536089       -14.5877
  63   2.0000      -0.530218       -14.4280
  64   2.0000      -0.517513       -14.0822
  65   2.0000      -0.509841       -13.8735
  66   2.0000      -0.505509       -13.7556
  67   2.0000      -0.497589       -13.5401
  68   2.0000      -0.487616       -13.2687
  69   2.0000      -0.464704       -12.6452
  70   2.0000      -0.452643       -12.3170
  71   2.0000      -0.442643       -12.0449
  72   2.0000      -0.358238        -9.7482
  73   2.0000      -0.355186        -9.6651
  74   2.0000      -0.331352        -9.0166
  75   2.0000      -0.327112        -8.9012
  76   2.0000      -0.318432        -8.6650
  77   0.0000       0.068549         1.8653
  78   0.0000       0.099622         2.7109
  79   0.0000       0.121272         3.3000
  80   0.0000       0.127696         3.4748
  81   0.0000       0.131475         3.5776

MULLIKEN ATOMIC CHARGES
-----------------------
   0 C :   -0.261375
   1 C :    0.020180
   2 O :   -0.387207
   3 C :    0.497727
   4 O :   -0.407875
   5 C :   -0.275342
   6 C :    0.159208
   7 C :   -0.269594
   8 N :   -0.123404
   9 C :    0.214734
  10 S :   -0.437098
  11 N :   -0.203794
  12 C :    0.052924
  13 C :    0.071114
  14 C :   -0.203442
  15 C :   -0.129464
  16 C :   -0.274006
  17 C :    0.317320
  18 O :   -0.356227
  19 C :   -0.268935
  20 H :    0.110840
  21 H :    0.084795
  22 H :    0.092652
  23 H :    0.096235
  24 H :    0.116456
  25 H :    0.129181
  26 H :    0.134559
  27 H :    0.095184
  28 H :    0.198384
  29 H :    0.193486
  30 H :    0.150547
  31 H :    0.149963
  32 H :    0.165513
  33 H :    0.133593
  34 H :    0.242309
  35 H :    0.170859
Sum of atomic charges:    0.0000000

LOEWDIN ATOMIC CHARGES
----------------------
   0 C :    0.105668
   1 C :   -0.020531
   2 O :    0.286568
   3 C :   -0.421624
   4 O :    0.120559
   5 C :   -0.099469
   6 C :   -0.057376
   7 C :    0.131067
   8 N :    0.407479
   9 C :   -0.455969
  10 S :   -0.032561
  11 N :    0.396109
  12 C :   -0.052955
  13 C :   -0.035953
  14 C :    0.013483
  15 C :    0.041594
  16 C :   -0.000991
  17 C :   -0.190293
  18 O :    0.396362
  19 C :    0.032030
  20 H :   -0.024668
  21 H :   -0.030744
  22 H :   -0.027686
  23 H :   -0.031367
  24 H :   -0.026243
  25 H :   -0.005395
  26 H :   -0.002953
  27 H :   -0.023130
  28 H :   -0.057214
  29 H :   -0.065486
  30 H :   -0.007104
  31 H :   -0.029522
  32 H :   -0.019725
  33 H :   -0.034198
  34 H :   -0.152292
  35 H :   -0.025468

  Mayer bond orders larger than 0.100000
B(  0-C ,  1-C ) :   0.9846 B(  0-C , 20-H ) :   0.9750 B(  0-C , 21-H ) :   0.9779
B(  0-C , 22-H ) :   0.9797 B(  1-C ,  2-O ) :   0.8674 B(  1-C , 23-H ) :   0.9683
B(  1-C , 24-H ) :   0.9739 B(  2-O ,  3-C ) :   1.0918 B(  3-C ,  4-O ) :   2.0055
B(  3-C ,  5-C ) :   1.0742 B(  5-C ,  6-C ) :   1.6452 B(  5-C , 12-C ) :   0.9698
B(  6-C ,  7-C ) :   0.9698 B(  6-C ,  8-N ) :   1.1601 B(  7-C , 25-H ) :   0.9617
B(  7-C , 26-H ) :   0.9577 B(  7-C , 27-H ) :   0.9896 B(  8-N ,  9-C ) :   1.1795
B(  8-N , 28-H ) :   0.9477 B(  9-C , 10-S ) :   1.6098 B(  9-C , 11-N ) :   1.3054
B( 11-N , 12-C ) :   0.9657 B( 11-N , 29-H ) :   0.9531 B( 12-C , 13-C ) :   0.9512
B( 12-C , 30-H ) :   1.0012 B( 13-C , 14-C ) :   1.3481 B( 13-C , 19-C ) :   1.3597
B( 14-C , 15-C ) :   1.3883 B( 14-C , 31-H ) :   0.9761 B( 15-C , 16-C ) :   1.3643
B( 15-C , 32-H ) :   0.9688 B( 16-C , 17-C ) :   1.3297 B( 16-C , 33-H ) :   0.9836
B( 17-C , 18-O ) :   1.1144 B( 17-C , 19-C ) :   1.3685 B( 18-O , 34-H ) :   0.9787
B( 19-C , 35-H ) :   0.9582

MP2 TOTAL ENERGY:    -1274.328860958 Eh
FINAL SINGLE POINT ENERGY     -1274.328860957680

DIPOLE MOMENT
-------------
                                X             Y             Z
Electronic contribution:     10.33058       9.70799       6.96974
Nuclear contribution   :    -11.29496     -11.16966      -6.70424
                        -----------------------------------------
Total Dipole Moment    :     -0.96438      -1.46167       0.26550
                        -----------------------------------------
Magnitude (a.u.)       :      1.77116
Magnitude (Debye)      :      4.50192

Rotational constants in cm-1:     0.012040     0.009024     0.006368
Rotational constants in MHz :   360.940347   270.520362   190.912141

                             ****ORCA TERMINATED NORMALLY****
TOTAL RUN TIME: 0 days 1 hours 54 minutes 22 seconds 881 msec
