                         Program Version 5.0.0 -  RELEASE  -
|  1> ! ri-mp2 cc-pvtz cc-pvtz/c TightSCF NoKeepInts
|  2>
|  3> %scf
|  4>   MaxCore 4096
|  5> end
|  6> *xyz  0  1
|  7>     C       14.9569263   14.2384205   15.9704026
|  8>     C       16.2080010   14.1327918   16.8669683
|  9>     O       17.2423544   15.0800586   16.5066890
| 10>     C       16.9902307   16.4172109   16.3571924
| 11>     O       16.2070289   16.8431996   15.5272216
| 12>     C       17.6397788   17.2618104   17.4214633
| 13>     C       17.4599429   18.6062535   17.4920579
| 14>     C       16.5972763   19.4676799   16.5943741
| 15>     N       18.1416014   19.3557121   18.4557147
| 16>     C       19.1165800   18.8656382   19.2825690
| 17>     S       19.9653370   19.8430450   20.3121522
| 18>     N       19.3608872   17.5185066   19.2067593
| 19>     C       18.5553843   16.5542680   18.4362250
| 20>     C       17.7838660   15.6607258   19.4019639
| 21>     C       18.2014557   14.3355997   19.6286447
| 22>     C       17.4924976   13.5038960   20.5116578
| 23>     C       16.3602558   14.0025834   21.1781648
| 24>     C       15.9481129   15.3248722   20.9633678
| 25>     O       14.8569726   15.8101518   21.6069692
| 26>     C       16.6541902   16.1496144   20.0822919
| 27>     H       14.3859101   15.1490759   16.1896939
| 28>     H       14.2933080   13.3821267   16.1398384
| 29>     H       15.2378063   14.2482702   14.9096196
| 30>     H       15.9037037   14.2888031   17.9097096
| 31>     H       16.6188703   13.1179665   16.7918291
| 32>     H       15.5509920   19.1386015   16.6335355
| 33>     H       16.9261300   19.3867329   15.5503676
| 34>     H       16.6198093   20.5294059   16.8664236
| 35>     H       17.9802535   20.3482372   18.5188987
| 36>     H       20.0642128   17.1816966   19.8515019
| 37>     H       19.2536866   15.9248643   17.8664644
| 38>     H       19.0761176   13.9471272   19.1133499
| 39>     H       17.8225983   12.4799940   20.6798423
| 40>     H       15.8106255   13.3647509   21.8628544
| 41>     H       14.5410841   15.1199362   22.2095255
| 42>     H       16.3232120   17.1723726   19.9376961
| 43> *
| 44>
| 45>                          ****END OF INPUT****

CARTESIAN COORDINATES (ANGSTROEM)
---------------------------------
  C     14.956926   14.238420   15.970403
  C     16.208001   14.132792   16.866968
  O     17.242354   15.080059   16.506689
  C     16.990231   16.417211   16.357192
  O     16.207029   16.843200   15.527222
  C     17.639779   17.261810   17.421463
  C     17.459943   18.606254   17.492058
  C     16.597276   19.467680   16.594374
  N     18.141601   19.355712   18.455715
  C     19.116580   18.865638   19.282569
  S     19.965337   19.843045   20.312152
  N     19.360887   17.518507   19.206759
  C     18.555384   16.554268   18.436225
  C     17.783866   15.660726   19.401964
  C     18.201456   14.335600   19.628645
  C     17.492498   13.503896   20.511658
  C     16.360256   14.002583   21.178165
  C     15.948113   15.324872   20.963368
  O     14.856973   15.810152   21.606969
  C     16.654190   16.149614   20.082292
  H     14.385910   15.149076   16.189694
  H     14.293308   13.382127   16.139838
  H     15.237806   14.248270   14.909620
  H     15.903704   14.288803   17.909710
  H     16.618870   13.117966   16.791829
  H     15.550992   19.138601   16.633536
  H     16.926130   19.386733   15.550368
  H     16.619809   20.529406   16.866424
  H     17.980253   20.348237   18.518899
  H     20.064213   17.181697   19.851502
  H     19.253687   15.924864   17.866464
  H     19.076118   13.947127   19.113350
  H     17.822598   12.479994   20.679842
  H     15.810626   13.364751   21.862854
  H     14.541084   15.119936   22.209525
  H     16.323212   17.172373   19.937696

 Total Charge           Charge          ....    0
 Multiplicity           Mult            ....    1
 Number of Electrons    NEL             ....  154
 Basis Dimension        Dim             ....  828

ORBITAL ENERGIES
----------------

  NO   OCC          E(Eh)            E(eV)
   0   2.0000     -91.889851     -2500.4500
   1   2.0000     -20.601335      -560.5908
   2   2.0000     -20.585560      -560.1616
   3   2.0000     -20.545042      -559.0590
   4   2.0000     -15.630213      -425.3197
   5   2.0000     -15.609142      -424.7463
   6   2.0000     -11.394585      -310.0624
   7   2.0000     -11.384741      -309.7946
   8   2.0000     -11.336886      -308.4923
   9   2.0000     -11.319211      -308.0114
  10   2.0000     -11.310419      -307.7721
  11   2.0000     -11.297679      -307.4255
  12   2.0000     -11.263657      -306.4997
  13   2.0000     -11.260342      -306.4095
  14   2.0000     -11.258497      -306.3593
  15   2.0000     -11.252917      -306.2074
  16   2.0000     -11.248004      -306.0738
  17   2.0000     -11.242800      -305.9321
  18   2.0000     -11.242308      -305.9188
  19   2.0000     -11.218166      -305.2618
  20   2.0000      -8.894905      -242.0427
  21   2.0000      -6.576477      -178.9550
  22   2.0000      -6.574475      -178.9006
  23   2.0000      -6.573886      -178.8845
  24   2.0000      -1.442906       -39.2635
  25   2.0000      -1.421010       -38.6676
  26   2.0000      -1.352569       -36.8053
  27   2.0000      -1.341340       -36.4997
  28   2.0000      -1.239912       -33.7397
  29   2.0000      -1.161797       -31.6141
  30   2.0000      -1.120951       -30.5026
  31   2.0000      -1.045569       -28.4514
  32   2.0000      -1.031095       -28.0575
  33   2.0000      -1.019985       -27.7552
  34   2.0000      -0.996793       -27.1241
  35   2.0000      -0.984958       -26.8021
  36   2.0000      -0.924665       -25.1614
  37   2.0000      -0.889369       -24.2010
  38   2.0000      -0.848965       -23.1015
  39   2.0000      -0.842006       -22.9121
  40   2.0000      -0.838183       -22.8081
  41   2.0000      -0.823394       -22.4057
  42   2.0000      -0.748586       -20.3701
  43   2.0000      -0.734378       -19.9834
  44   2.0000      -0.717643       -19.5281
  45   2.0000      -0.699880       -19.0447
  46   2.0000      -0.690054       -18.7773
  47   2.0000      -0.677838       -18.4449
  48   2.0000      -0.667901       -18.1745
  49   2.0000      -0.662183       -18.0189
  50   2.0000      -0.650964       -17.7136
  51   2.0000      -0.646905       -17.6032
  52   2.0000      -0.637857       -17.3570
  53   2.0000      -0.611702       -16.6453
  54   2.0000      -0.606784       -16.5114
  55   2.0000      -0.601073       -16.3560
  56   2.0000      -0.600199       -16.3322
  57   2.0000      -0.581129       -15.8133
  58   2.0000      -0.572345       -15.5743
  59   2.0000      -0.569901       -15.5078
  60   2.0000      -0.560947       -15.2642
  61   2.0000      -0.539843       -14.6899
  62   2.0000      -0.534590       -14.5469
  63   2.0000      -0.528277       -14.3751
  64   2.0000      -0.521957       -14.2032
  65   2.0000      -0.515003       -14.0139
  66   2.0000      -0.503746       -13.7076
  67   2.0000      -0.495552       -13.4847
  68   2.0000      -0.483361       -13.1529
  69   2.0000      -0.463308       -12.6072
  70   2.0000      -0.453038       -12.3278
  71   2.0000      -0.440859       -11.9964
  72   2.0000      -0.356006        -9.6874
  73   2.0000      -0.353797        -9.6273
  74   2.0000      -0.330067        -8.9816
  75   2.0000      -0.326187        -8.8760
  76   2.0000      -0.317282        -8.6337
  77   0.0000       0.071678         1.9504
  78   0.0000       0.101564         2.7637
  79   0.0000       0.123044         3.3482
  80   0.0000       0.129539         3.5249
  81   0.0000       0.133889         3.6433

MULLIKEN ATOMIC CHARGES
-----------------------
   0 C :   -0.275483
   1 C :    0.033033
   2 O :   -0.388638
   3 C :    0.490827
   4 O :   -0.412840
   5 C :   -0.265778
   6 C :    0.163377
   7 C :   -0.268914
   8 N :   -0.124353
   9 C :    0.214399
  10 S :   -0.439494
  11 N :   -0.206261
  12 C :    0.069197
  13 C :    0.018294
  14 C :   -0.165650
  15 C :   -0.132755
  16 C :   -0.277057
  17 C :    0.308412
  18 O :   -0.356219
  19 C :   -0.248141
  20 H :    0.101118
  21 H :    0.093496
  22 H :    0.108335
  23 H :    0.100368
  24 H :    0.103394
  25 H :    0.129422
  26 H :    0.133745
  27 H :    0.095118
  28 H :    0.197863
  29 H :    0.194450
  30 H :    0.150298
  31 H :    0.150971
  32 H :    0.162719
  33 H :    0.133147
  34 H :    0.241730
  35 H :    0.167869
Sum of atomic charges:   -0.0000000

LOEWDIN ATOMIC CHARGES
----------------------
   0 C :    0.103787
   1 C :   -0.016843
   2 O :    0.284600
   3 C :   -0.413796
   4 O :    0.117974
   5 C :   -0.098085
   6 C :   -0.058020
   7 C :    0.131169
   8 N :    0.406955
   9 C :   -0.456105
  10 S :   -0.034719
  11 N :    0.396339
  12 C :   -0.052842
  13 C :   -0.038249
  14 C :    0.014641
  15 C :    0.041194
  16 C :   -0.002154
  17 C :   -0.190683
  18 O :    0.396557
  19 C :    0.029267
  20 H :   -0.028917
  21 H :   -0.029278
  22 H :   -0.023284
  23 H :   -0.031322
  24 H :   -0.023847
  25 H :   -0.005443
  26 H :   -0.003248
  27 H :   -0.023368
  28 H :   -0.057431
  29 H :   -0.065046
  30 H :   -0.008967
  31 H :   -0.029298
  32 H :   -0.020055
  33 H :   -0.034600
  34 H :   -0.152768
  35 H :   -0.024115

  Mayer bond orders larger than 0.100000
B(  0-C ,  1-C ) :   0.9831 B(  0-C , 20-H ) :   0.9732 B(  0-C , 21-H ) :   0.9750
B(  0-C , 22-H ) :   0.9759 B(  1-C ,  2-O ) :   0.8904 B(  1-C , 23-H ) :   0.9673
B(  1-C , 24-H ) :   0.9810 B(  2-O ,  3-C ) :   1.0908 B(  3-C ,  4-O ) :   2.0065
B(  3-C ,  5-C ) :   1.0741 B(  5-C ,  6-C ) :   1.6486 B(  5-C , 12-C ) :   0.9711
B(  6-C ,  7-C ) :   0.9668 B(  6-C ,  8-N ) :   1.1597 B(  7-C , 25-H ) :   0.9613
B(  7-C , 26-H ) :   0.9585 B(  7-C , 27-H ) :   0.9905 B(  8-N ,  9-C ) :   1.1825
B(  8-N , 28-H ) :   0.9476 B(  9-C , 10-S ) :   1.6065 B(  9-C , 11-N ) :   1.3070
B( 11-N , 12-C ) :   0.9728 B( 11-N , 29-H ) :   0.9524 B( 12-C , 13-C ) :   0.9405
B( 12-C , 30-H ) :   1.0011 B( 13-C , 14-C ) :   1.3539 B( 13-C , 19-C ) :   1.3795
B( 14-C , 15-C ) :   1.3924 B( 14-C , 31-H ) :   0.9733 B( 15-C , 16-C ) :   1.3629
B( 15-C , 32-H ) :   0.9703 B( 16-C , 17-C ) :   1.3293 B( 16-C , 33-H ) :   0.9842
B( 17-C , 18-O ) :   1.1140 B( 17-C , 19-C ) :   1.3721 B( 18-O , 34-H ) :   0.9789
B( 19-C , 35-H ) :   0.9577

MP2 TOTAL ENERGY:    -1274.334674419 Eh
FINAL SINGLE POINT ENERGY     -1274.334674419368

DIPOLE MOMENT
-------------
                                X             Y             Z
Electronic contribution:     10.45831       9.49031       7.24565
Nuclear contribution   :    -11.47274     -11.12131      -7.14953
                        -----------------------------------------
Total Dipole Moment    :     -1.01443      -1.63100       0.09613
                        -----------------------------------------
Magnitude (a.u.)       :      1.92314
Magnitude (Debye)      :      4.88823

Rotational constants in cm-1:     0.012142     0.008894     0.006340
Rotational constants in MHz :   364.018744   266.648734   190.057204

                             ****ORCA TERMINATED NORMALLY****
TOTAL RUN TIME: 0 days 2 hours 24 minutes 35 seconds 546 msec
