                         Program Version 5.0.0 -  RELEASE  -
|  1> ! ri-mp2 cc-pvtz cc-pvtz/c TightSCF NoKeepInts
|  2>
|  3> %scf
|  4>   MaxCore 4096
|  5> end
|  6> *xyz  0  1
|  7>     C       15.4228022   13.6995703   15.4715461
|  8>     C       15.4557609   15.1749376   15.0153345
|  9>     O       16.1959235   16.0847431   15.8723942
| 10>     C       17.1382237   15.7662357   16.8156328
| 11>     O       17.6449502   14.6630721   16.9262429
| 12>     C       17.6158957   16.9326719   17.6399718
| 13>     C       17.2446426   18.2315701   17.4743060
| 14>     C       16.2790363   18.8172621   16.4635013
| 15>     N       17.8208832   19.2255037   18.2735046
| 16>     C       18.8640743   19.0319064   19.1393569
| 17>     S       19.5763450   20.2902263   19.9425405
| 18>     N       19.2849738   17.7378919   19.3055635
| 19>     C       18.5985531   16.5542038   18.7563348
| 20>     C       17.8957885   15.7804431   19.8693662
| 21>     C       18.1555455   14.4102899   20.0575778
| 22>     C       17.5105523   13.6917916   21.0781787
| 23>     C       16.5967439   14.3482053   21.9199574
| 24>     C       16.3322141   15.7118333   21.7340429
| 25>     O       15.4457379   16.3472466   22.5414186
| 26>     C       16.9753318   16.4241515   20.7169240
| 27>     H       16.3940653   13.2129729   15.3181433
| 28>     H       14.6817862   13.1399438   14.8883372
| 29>     H       15.1487250   13.6195181   16.5311070
| 30>     H       15.8918385   15.2076033   14.0085004
| 31>     H       14.4249610   15.5420631   14.9300922
| 32>     H       15.2764980   18.3910783   16.5933819
| 33>     H       16.6110651   18.6029508   15.4400545
| 34>     H       16.1811236   19.9061426   16.5502443
| 35>     H       17.5259137   20.1826897   18.1662761
| 36>     H       20.0344974   17.6152379   19.9741186
| 37>     H       19.3684331   15.9024152   18.3184372
| 38>     H       18.8487928   13.8961894   19.3961548
| 39>     H       17.7158349   12.6308121   21.2082988
| 40>     H       16.0948949   13.7967007   22.7078914
| 41>     H       15.1362970   15.7024437   23.1950158
| 42>     H       16.7582951   17.4794822   20.5942509
| 43> *
| 44>
| 45>                          ****END OF INPUT****

CARTESIAN COORDINATES (ANGSTROEM)
---------------------------------
  C     15.422802   13.699570   15.471546
  C     15.455761   15.174938   15.015334
  O     16.195923   16.084743   15.872394
  C     17.138224   15.766236   16.815633
  O     17.644950   14.663072   16.926243
  C     17.615896   16.932672   17.639972
  C     17.244643   18.231570   17.474306
  C     16.279036   18.817262   16.463501
  N     17.820883   19.225504   18.273505
  C     18.864074   19.031906   19.139357
  S     19.576345   20.290226   19.942540
  N     19.284974   17.737892   19.305563
  C     18.598553   16.554204   18.756335
  C     17.895788   15.780443   19.869366
  C     18.155545   14.410290   20.057578
  C     17.510552   13.691792   21.078179
  C     16.596744   14.348205   21.919957
  C     16.332214   15.711833   21.734043
  O     15.445738   16.347247   22.541419
  C     16.975332   16.424152   20.716924
  H     16.394065   13.212973   15.318143
  H     14.681786   13.139944   14.888337
  H     15.148725   13.619518   16.531107
  H     15.891838   15.207603   14.008500
  H     14.424961   15.542063   14.930092
  H     15.276498   18.391078   16.593382
  H     16.611065   18.602951   15.440055
  H     16.181124   19.906143   16.550244
  H     17.525914   20.182690   18.166276
  H     20.034497   17.615238   19.974119
  H     19.368433   15.902415   18.318437
  H     18.848793   13.896189   19.396155
  H     17.715835   12.630812   21.208299
  H     16.094895   13.796701   22.707891
  H     15.136297   15.702444   23.195016
  H     16.758295   17.479482   20.594251

 Total Charge           Charge          ....    0
 Multiplicity           Mult            ....    1
 Number of Electrons    NEL             ....  154
 Basis Dimension        Dim             ....  828

ORBITAL ENERGIES
----------------

  NO   OCC          E(Eh)            E(eV)
   0   2.0000     -91.887286     -2500.3802
   1   2.0000     -20.601557      -560.5969
   2   2.0000     -20.590581      -560.2982
   3   2.0000     -20.542522      -558.9904
   4   2.0000     -15.627577      -425.2480
   5   2.0000     -15.605682      -424.6522
   6   2.0000     -11.398806      -310.1773
   7   2.0000     -11.381799      -309.7145
   8   2.0000     -11.336129      -308.4718
   9   2.0000     -11.307356      -307.6888
  10   2.0000     -11.306275      -307.6594
  11   2.0000     -11.303760      -307.5909
  12   2.0000     -11.260077      -306.4023
  13   2.0000     -11.257907      -306.3432
  14   2.0000     -11.252120      -306.1858
  15   2.0000     -11.246394      -306.0299
  16   2.0000     -11.236066      -305.7489
  17   2.0000     -11.232183      -305.6432
  18   2.0000     -11.228989      -305.5563
  19   2.0000     -11.225455      -305.4602
  20   2.0000      -8.892352      -241.9732
  21   2.0000      -6.573931      -178.8858
  22   2.0000      -6.571925      -178.8312
  23   2.0000      -6.571340      -178.8152
  24   2.0000      -1.445823       -39.3428
  25   2.0000      -1.410317       -38.3767
  26   2.0000      -1.356240       -36.9052
  27   2.0000      -1.338623       -36.4258
  28   2.0000      -1.236073       -33.6353
  29   2.0000      -1.150686       -31.3118
  30   2.0000      -1.117544       -30.4099
  31   2.0000      -1.041418       -28.3384
  32   2.0000      -1.034410       -28.1477
  33   2.0000      -1.008224       -27.4352
  34   2.0000      -0.996216       -27.1084
  35   2.0000      -0.981486       -26.7076
  36   2.0000      -0.920513       -25.0484
  37   2.0000      -0.897597       -24.4249
  38   2.0000      -0.847390       -23.0586
  39   2.0000      -0.834895       -22.7186
  40   2.0000      -0.826618       -22.4934
  41   2.0000      -0.816565       -22.2199
  42   2.0000      -0.742908       -20.2155
  43   2.0000      -0.727356       -19.7924
  44   2.0000      -0.723379       -19.6841
  45   2.0000      -0.688903       -18.7460
  46   2.0000      -0.683651       -18.6031
  47   2.0000      -0.677803       -18.4440
  48   2.0000      -0.672826       -18.3085
  49   2.0000      -0.662579       -18.0297
  50   2.0000      -0.646990       -17.6055
  51   2.0000      -0.643015       -17.4973
  52   2.0000      -0.633063       -17.2265
  53   2.0000      -0.606720       -16.5097
  54   2.0000      -0.599703       -16.3188
  55   2.0000      -0.598134       -16.2760
  56   2.0000      -0.594134       -16.1672
  57   2.0000      -0.581030       -15.8106
  58   2.0000      -0.572319       -15.5736
  59   2.0000      -0.568156       -15.4603
  60   2.0000      -0.558037       -15.1850
  61   2.0000      -0.540512       -14.7081
  62   2.0000      -0.538215       -14.6456
  63   2.0000      -0.525336       -14.2951
  64   2.0000      -0.516079       -14.0432
  65   2.0000      -0.510646       -13.8954
  66   2.0000      -0.499428       -13.5901
  67   2.0000      -0.494240       -13.4490
  68   2.0000      -0.478730       -13.0269
  69   2.0000      -0.462933       -12.5971
  70   2.0000      -0.452393       -12.3102
  71   2.0000      -0.447268       -12.1708
  72   2.0000      -0.353250        -9.6124
  73   2.0000      -0.342853        -9.3295
  74   2.0000      -0.326416        -8.8822
  75   2.0000      -0.314767        -8.5653
  76   2.0000      -0.312348        -8.4994
  77   0.0000       0.076450         2.0803
  78   0.0000       0.114843         3.1250
  79   0.0000       0.121845         3.3156
  80   0.0000       0.136748         3.7211
  81   0.0000       0.139633         3.7996

MULLIKEN ATOMIC CHARGES
-----------------------
   0 C :   -0.293680
   1 C :    0.049647
   2 O :   -0.355414
   3 C :    0.456288
   4 O :   -0.433851
   5 C :   -0.170074
   6 C :    0.141286
   7 C :   -0.283406
   8 N :   -0.120040
   9 C :    0.200689
  10 S :   -0.440076
  11 N :   -0.196445
  12 C :    0.031724
  13 C :    0.060491
  14 C :   -0.161786
  15 C :   -0.134303
  16 C :   -0.279074
  17 C :    0.311585
  18 O :   -0.359340
  19 C :   -0.274213
  20 H :    0.121405
  21 H :    0.096347
  22 H :    0.104865
  23 H :    0.089064
  24 H :    0.094324
  25 H :    0.125807
  26 H :    0.127686
  27 H :    0.102189
  28 H :    0.196323
  29 H :    0.193352
  30 H :    0.154401
  31 H :    0.153487
  32 H :    0.158686
  33 H :    0.127646
  34 H :    0.239914
  35 H :    0.164496
Sum of atomic charges:    0.0000000

LOEWDIN ATOMIC CHARGES
----------------------
   0 C :    0.103359
   1 C :   -0.008076
   2 O :    0.294478
   3 C :   -0.413961
   4 O :    0.110949
   5 C :   -0.090393
   6 C :   -0.063540
   7 C :    0.124168
   8 N :    0.404797
   9 C :   -0.459726
  10 S :   -0.036684
  11 N :    0.398269
  12 C :   -0.047041
  13 C :   -0.038564
  14 C :    0.022109
  15 C :    0.040388
  16 C :   -0.002654
  17 C :   -0.192758
  18 O :    0.392828
  19 C :    0.028137
  20 H :   -0.024385
  21 H :   -0.027865
  22 H :   -0.024763
  23 H :   -0.029226
  24 H :   -0.026975
  25 H :   -0.009905
  26 H :   -0.008473
  27 H :   -0.021747
  28 H :   -0.059592
  29 H :   -0.063578
  30 H :   -0.005816
  31 H :   -0.025356
  32 H :   -0.021444
  33 H :   -0.036592
  34 H :   -0.155050
  35 H :   -0.025317

  Mayer bond orders larger than 0.100000
B(  0-C ,  1-C ) :   0.9764 B(  0-C , 20-H ) :   0.9720 B(  0-C , 21-H ) :   0.9741
B(  0-C , 22-H ) :   0.9750 B(  1-C ,  2-O ) :   0.8989 B(  1-C , 23-H ) :   0.9786
B(  1-C , 24-H ) :   0.9807 B(  2-O ,  3-C ) :   1.1579 B(  3-C ,  4-O ) :   1.9648
B(  3-C ,  5-C ) :   1.0650 B(  5-C ,  6-C ) :   1.6438 B(  5-C , 12-C ) :   0.9680
B(  6-C ,  7-C ) :   0.9562 B(  6-C ,  8-N ) :   1.1512 B(  7-C , 25-H ) :   0.9654
B(  7-C , 26-H ) :   0.9639 B(  7-C , 27-H ) :   0.9922 B(  8-N ,  9-C ) :   1.1771
B(  8-N , 28-H ) :   0.9486 B(  9-C , 10-S ) :   1.6101 B(  9-C , 11-N ) :   1.3059
B( 11-N , 12-C ) :   0.9919 B( 11-N , 29-H ) :   0.9521 B( 12-C , 13-C ) :   0.9454
B( 12-C , 30-H ) :   1.0013 B( 13-C , 14-C ) :   1.3745 B( 13-C , 19-C ) :   1.3694
B( 14-C , 15-C ) :   1.3946 B( 14-C , 31-H ) :   0.9649 B( 15-C , 16-C ) :   1.3619
B( 15-C , 32-H ) :   0.9716 B( 16-C , 17-C ) :   1.3319 B( 16-C , 33-H ) :   0.9861
B( 17-C , 18-O ) :   1.1078 B( 17-C , 19-C ) :   1.3794 B( 18-O , 34-H ) :   0.9807
B( 19-C , 35-H ) :   0.9583

MP2 TOTAL ENERGY:    -1274.338207521 Eh
FINAL SINGLE POINT ENERGY     -1274.338207521221

DIPOLE MOMENT
-------------
                                X             Y             Z
Electronic contribution:     10.02965      10.23504      10.79331
Nuclear contribution   :    -11.68263     -11.40994     -11.90248
                        -----------------------------------------
Total Dipole Moment    :     -1.65298      -1.17491      -1.10916
                        -----------------------------------------
Magnitude (a.u.)       :      2.31149
Magnitude (Debye)      :      5.87535

Rotational constants in cm-1:     0.010575     0.008906     0.005789
Rotational constants in MHz :   317.041321   266.990067   173.546053

                             ****ORCA TERMINATED NORMALLY****
TOTAL RUN TIME: 0 days 1 hours 56 minutes 21 seconds 699 msec
