                         Program Version 5.0.0 -  RELEASE  -
|  1> ! ri-mp2 cc-pvtz cc-pvtz/c TightSCF NoKeepInts
|  2>
|  3> %scf
|  4>   MaxCore 4096
|  5> end
|  6> *xyz  0  1
|  7>     C       14.2711160   14.8385280   16.4831113
|  8>     C       15.4344587   15.5992133   17.1392822
|  9>     O       16.6453448   15.1462246   16.5061471
| 10>     C       17.8061899   15.8732185   16.4254665
| 11>     O       18.8134154   15.3229214   16.0219215
| 12>     C       17.9202319   16.9890416   17.4085191
| 13>     C       17.4015819   18.2136752   17.1663673
| 14>     C       16.6516417   18.6524404   15.9267717
| 15>     N       17.6020541   19.2471487   18.0835002
| 16>     C       18.3902570   19.1530530   19.2015634
| 17>     S       18.6200975   20.4418157   20.2115415
| 18>     N       18.9764639   17.9342602   19.4445812
| 19>     C       18.7503874   16.7040639   18.6585986
| 20>     C       18.1051786   15.6064762   19.4992171
| 21>     C       18.5046295   14.2681208   19.3302372
| 22>     C       17.9015027   13.2407200   20.0743309
| 23>     C       16.8871039   13.5523990   20.9952178
| 24>     C       16.4814285   14.8830504   21.1625011
| 25>     O       15.4913412   15.1858718   22.0390116
| 26>     C       17.0824378   15.9043390   20.4196585
| 27>     H       13.3143090   15.1362143   16.9289718
| 28>     H       14.3927261   13.7568126   16.6223639
| 29>     H       14.2299742   15.0450948   15.4063826
| 30>     H       15.2667314   16.6695162   16.9863807
| 31>     H       15.4655752   15.3959764   18.2174341
| 32>     H       16.5448259   17.8454566   15.1915056
| 33>     H       17.1826971   19.4711511   15.4241815
| 34>     H       15.6445677   19.0077196   16.1781218
| 35>     H       17.1973889   20.1547664   17.9138578
| 36>     H       19.5387169   17.8910975   20.2853100
| 37>     H       19.7329187   16.3388001   18.3242648
| 38>     H       19.2759508   14.0215251   18.6032554
| 39>     H       18.2167825   12.2087531   19.9291449
| 40>     H       16.4165672   12.7608385   21.5691122
| 41>     H       15.2442828   14.3658308   22.4930242
| 42>     H       16.7461230   16.9258654   20.5631426
| 43> *
| 44>
| 45>                          ****END OF INPUT****

CARTESIAN COORDINATES (ANGSTROEM)
---------------------------------
  C     14.271116   14.838528   16.483111
  C     15.434459   15.599213   17.139282
  O     16.645345   15.146225   16.506147
  C     17.806190   15.873218   16.425466
  O     18.813415   15.322921   16.021922
  C     17.920232   16.989042   17.408519
  C     17.401582   18.213675   17.166367
  C     16.651642   18.652440   15.926772
  N     17.602054   19.247149   18.083500
  C     18.390257   19.153053   19.201563
  S     18.620097   20.441816   20.211541
  N     18.976464   17.934260   19.444581
  C     18.750387   16.704064   18.658599
  C     18.105179   15.606476   19.499217
  C     18.504630   14.268121   19.330237
  C     17.901503   13.240720   20.074331
  C     16.887104   13.552399   20.995218
  C     16.481428   14.883050   21.162501
  O     15.491341   15.185872   22.039012
  C     17.082438   15.904339   20.419659
  H     13.314309   15.136214   16.928972
  H     14.392726   13.756813   16.622364
  H     14.229974   15.045095   15.406383
  H     15.266731   16.669516   16.986381
  H     15.465575   15.395976   18.217434
  H     16.544826   17.845457   15.191506
  H     17.182697   19.471151   15.424181
  H     15.644568   19.007720   16.178122
  H     17.197389   20.154766   17.913858
  H     19.538717   17.891098   20.285310
  H     19.732919   16.338800   18.324265
  H     19.275951   14.021525   18.603255
  H     18.216782   12.208753   19.929145
  H     16.416567   12.760839   21.569112
  H     15.244283   14.365831   22.493024
  H     16.746123   16.925865   20.563143

 Total Charge           Charge          ....    0
 Multiplicity           Mult            ....    1
 Number of Electrons    NEL             ....  154
 Basis Dimension        Dim             ....  828

ORBITAL ENERGIES
----------------

  NO   OCC          E(Eh)            E(eV)
   0   2.0000     -91.889246     -2500.4335
   1   2.0000     -20.601931      -560.6070
   2   2.0000     -20.600037      -560.5555
   3   2.0000     -20.552513      -559.2623
   4   2.0000     -15.625083      -425.1801
   5   2.0000     -15.611715      -424.8164
   6   2.0000     -11.397777      -310.1493
   7   2.0000     -11.386292      -309.8368
   8   2.0000     -11.325894      -308.1932
   9   2.0000     -11.316914      -307.9489
  10   2.0000     -11.316668      -307.9422
  11   2.0000     -11.301908      -307.5406
  12   2.0000     -11.271035      -306.7005
  13   2.0000     -11.264995      -306.5361
  14   2.0000     -11.264159      -306.5133
  15   2.0000     -11.257175      -306.3233
  16   2.0000     -11.246317      -306.0278
  17   2.0000     -11.242195      -305.9157
  18   2.0000     -11.239584      -305.8446
  19   2.0000     -11.232987      -305.6651
  20   2.0000      -8.894375      -242.0283
  21   2.0000      -6.575968      -178.9412
  22   2.0000      -6.573937      -178.8859
  23   2.0000      -6.573367      -178.8704
  24   2.0000      -1.450660       -39.4745
  25   2.0000      -1.419882       -38.6370
  26   2.0000      -1.360814       -37.0296
  27   2.0000      -1.339096       -36.4387
  28   2.0000      -1.239446       -33.7270
  29   2.0000      -1.161569       -31.6079
  30   2.0000      -1.125754       -30.6333
  31   2.0000      -1.049518       -28.5588
  32   2.0000      -1.040632       -28.3170
  33   2.0000      -1.019332       -27.7374
  34   2.0000      -1.005393       -27.3581
  35   2.0000      -0.989132       -26.9156
  36   2.0000      -0.928154       -25.2564
  37   2.0000      -0.881871       -23.9969
  38   2.0000      -0.855227       -23.2719
  39   2.0000      -0.841710       -22.9041
  40   2.0000      -0.837510       -22.7898
  41   2.0000      -0.836800       -22.7705
  42   2.0000      -0.757451       -20.6113
  43   2.0000      -0.738807       -20.1039
  44   2.0000      -0.732326       -19.9276
  45   2.0000      -0.697538       -18.9810
  46   2.0000      -0.688484       -18.7346
  47   2.0000      -0.680569       -18.5192
  48   2.0000      -0.678128       -18.4528
  49   2.0000      -0.666592       -18.1389
  50   2.0000      -0.653647       -17.7866
  51   2.0000      -0.651384       -17.7251
  52   2.0000      -0.639460       -17.4006
  53   2.0000      -0.612612       -16.6700
  54   2.0000      -0.608184       -16.5495
  55   2.0000      -0.603944       -16.4341
  56   2.0000      -0.595182       -16.1957
  57   2.0000      -0.585542       -15.9334
  58   2.0000      -0.577911       -15.7258
  59   2.0000      -0.571870       -15.5614
  60   2.0000      -0.564335       -15.3563
  61   2.0000      -0.560805       -15.2603
  62   2.0000      -0.550118       -14.9695
  63   2.0000      -0.527204       -14.3459
  64   2.0000      -0.521735       -14.1971
  65   2.0000      -0.514816       -14.0089
  66   2.0000      -0.506667       -13.7871
  67   2.0000      -0.502560       -13.6753
  68   2.0000      -0.487611       -13.2686
  69   2.0000      -0.469432       -12.7739
  70   2.0000      -0.453273       -12.3342
  71   2.0000      -0.450916       -12.2700
  72   2.0000      -0.356769        -9.7082
  73   2.0000      -0.351743        -9.5714
  74   2.0000      -0.329057        -8.9541
  75   2.0000      -0.324705        -8.8357
  76   2.0000      -0.317805        -8.6479
  77   0.0000       0.090631         2.4662
  78   0.0000       0.103978         2.8294
  79   0.0000       0.110094         2.9958
  80   0.0000       0.127617         3.4726
  81   0.0000       0.129662         3.5283

MULLIKEN ATOMIC CHARGES
-----------------------
   0 C :   -0.256044
   1 C :    0.016963
   2 O :   -0.303236
   3 C :    0.380795
   4 O :   -0.377234
   5 C :   -0.153943
   6 C :    0.118805
   7 C :   -0.323076
   8 N :   -0.136667
   9 C :    0.206939
  10 S :   -0.442858
  11 N :   -0.220427
  12 C :    0.066249
  13 C :    0.021628
  14 C :   -0.190514
  15 C :   -0.133895
  16 C :   -0.273659
  17 C :    0.321374
  18 O :   -0.359009
  19 C :   -0.281775
  20 H :    0.088693
  21 H :    0.106347
  22 H :    0.096078
  23 H :    0.084115
  24 H :    0.120091
  25 H :    0.118529
  26 H :    0.143668
  27 H :    0.118766
  28 H :    0.194756
  29 H :    0.200232
  30 H :    0.166289
  31 H :    0.165813
  32 H :    0.163784
  33 H :    0.132864
  34 H :    0.241539
  35 H :    0.178018
Sum of atomic charges:   -0.0000000

LOEWDIN ATOMIC CHARGES
----------------------
   0 C :    0.109721
   1 C :   -0.023481
   2 O :    0.314525
   3 C :   -0.419087
   4 O :    0.127793
   5 C :   -0.078680
   6 C :   -0.111135
   7 C :    0.122145
   8 N :    0.400419
   9 C :   -0.455177
  10 S :   -0.039313
  11 N :    0.397505
  12 C :   -0.042856
  13 C :   -0.042861
  14 C :    0.023772
  15 C :    0.046083
  16 C :   -0.000576
  17 C :   -0.194967
  18 O :    0.394983
  19 C :    0.026507
  20 H :   -0.025789
  21 H :   -0.023611
  22 H :   -0.027120
  23 H :   -0.038104
  24 H :   -0.028864
  25 H :   -0.009960
  26 H :   -0.008627
  27 H :   -0.017198
  28 H :   -0.058423
  29 H :   -0.063778
  30 H :   -0.002044
  31 H :   -0.021790
  32 H :   -0.018234
  33 H :   -0.034561
  34 H :   -0.152883
  35 H :   -0.024335

  Mayer bond orders larger than 0.100000
B(  0-C ,  1-C ) :   0.9843 B(  0-C , 20-H ) :   0.9769 B(  0-C , 21-H ) :   0.9794
B(  0-C , 22-H ) :   0.9780 B(  1-C ,  2-O ) :   0.9121 B(  1-C , 23-H ) :   0.9699
B(  1-C , 24-H ) :   0.9636 B(  2-O ,  3-C ) :   1.1674 B(  3-C ,  4-O ) :   2.0967
B(  3-C ,  5-C ) :   0.9176 B(  5-C ,  6-C ) :   1.7037 B(  5-C , 12-C ) :   0.9637
B(  6-C ,  7-C ) :   0.9434 B(  6-C ,  8-N ) :   1.1102 B(  7-C , 25-H ) :   0.9829
B(  7-C , 26-H ) :   0.9669 B(  7-C , 27-H ) :   0.9682 B(  8-N ,  9-C ) :   1.2001
B(  8-N , 28-H ) :   0.9533 B(  9-C , 10-S ) :   1.6082 B(  9-C , 11-N ) :   1.2854
B( 11-N , 12-C ) :   0.9927 B( 11-N , 29-H ) :   0.9476 B( 12-C , 13-C ) :   0.9438
B( 12-C , 30-H ) :   0.9978 B( 13-C , 14-C ) :   1.3862 B( 13-C , 19-C ) :   1.3447
B( 14-C , 15-C ) :   1.3978 B( 14-C , 31-H ) :   0.9628 B( 15-C , 16-C ) :   1.3624
B( 15-C , 32-H ) :   0.9699 B( 16-C , 17-C ) :   1.3298 B( 16-C , 33-H ) :   0.9843
B( 17-C , 18-O ) :   1.1079 B( 17-C , 19-C ) :   1.3637 B( 18-O , 34-H ) :   0.9791
B( 19-C , 35-H ) :   0.9587

MP2 TOTAL ENERGY:    -1274.327720901 Eh
FINAL SINGLE POINT ENERGY     -1274.327720901315

DIPOLE MOMENT
-------------
                                X             Y             Z
Electronic contribution:     11.81670       7.02330       7.42064
Nuclear contribution   :    -13.46548      -8.05806      -7.79976
                        -----------------------------------------
Total Dipole Moment    :     -1.64878      -1.03476      -0.37913
                        -----------------------------------------
Magnitude (a.u.)       :      1.98317
Magnitude (Debye)      :      5.04081

Rotational constants in cm-1:     0.011784     0.009104     0.006693
Rotational constants in MHz :   353.265502   272.924043   200.656985

                             ****ORCA TERMINATED NORMALLY****
TOTAL RUN TIME: 0 days 2 hours 8 minutes 43 seconds 930 msec
