                         Program Version 5.0.0 -  RELEASE  -
|  1> ! ri-mp2 cc-pvtz cc-pvtz/c TightSCF NoKeepInts
|  2>
|  3> %scf
|  4>   MaxCore 4096
|  5> end
|  6> *xyz  0  1
|  7>     C       14.9689857   16.0502919   17.3031620
|  8>     C       15.5464075   14.9874612   16.3472026
|  9>     O       16.9887462   14.8121728   16.3154349
| 10>     C       18.0578222   15.6613080   16.4985723
| 11>     O       19.1736305   15.1990855   16.3486339
| 12>     C       17.8952833   16.8256684   17.4108706
| 13>     C       17.4509621   18.0143166   16.9462561
| 14>     C       17.0139805   18.3175189   15.5283513
| 15>     N       17.4525642   19.1348923   17.7790496
| 16>     C       17.9792585   19.1632341   19.0441037
| 17>     S       17.9715461   20.5422535   19.9566303
| 18>     N       18.5195774   17.9917201   19.5157172
| 19>     C       18.5110710   16.6947483   18.8079159
| 20>     C       17.8585357   15.5888856   19.6376231
| 21>     C       18.3023839   14.2604315   19.4980827
| 22>     C       17.7184144   13.2241356   20.2449262
| 23>     C       16.6806301   13.5157713   21.1455382
| 24>     C       16.2354919   14.8360519   21.2917841
| 25>     O       15.2280644   15.1203487   22.1548581
| 26>     C       16.8187474   15.8664222   20.5471973
| 27>     H       15.4487213   16.0136168   18.2839879
| 28>     H       13.9022940   15.8512417   17.4637153
| 29>     H       15.0344295   17.0601567   16.8922392
| 30>     H       15.1032277   14.0170523   16.6066828
| 31>     H       15.2010221   15.2249884   15.3327438
| 32>     H       16.7206719   17.4147446   14.9800153
| 33>     H       17.8338558   18.7864413   14.9691007
| 34>     H       16.1570849   19.0022358   15.5085406
| 35>     H       17.0901660   20.0125548   17.4412988
| 36>     H       18.8936263   18.0414145   20.4549923
| 37>     H       19.5618080   16.4020088   18.6633829
| 38>     H       19.1009535   14.0278725   18.7962900
| 39>     H       18.0702053   12.2013539   20.1206268
| 40>     H       16.2257139   12.7178860   21.7231059
| 41>     H       14.9850799   14.2944599   22.5999037
| 42>     H       16.4460364   16.8772535   20.6754639
| 43> *
| 44>
| 45>                          ****END OF INPUT****

CARTESIAN COORDINATES (ANGSTROEM)
---------------------------------
  C     14.968986   16.050292   17.303162
  C     15.546408   14.987461   16.347203
  O     16.988746   14.812173   16.315435
  C     18.057822   15.661308   16.498572
  O     19.173630   15.199086   16.348634
  C     17.895283   16.825668   17.410871
  C     17.450962   18.014317   16.946256
  C     17.013980   18.317519   15.528351
  N     17.452564   19.134892   17.779050
  C     17.979258   19.163234   19.044104
  S     17.971546   20.542254   19.956630
  N     18.519577   17.991720   19.515717
  C     18.511071   16.694748   18.807916
  C     17.858536   15.588886   19.637623
  C     18.302384   14.260431   19.498083
  C     17.718414   13.224136   20.244926
  C     16.680630   13.515771   21.145538
  C     16.235492   14.836052   21.291784
  O     15.228064   15.120349   22.154858
  C     16.818747   15.866422   20.547197
  H     15.448721   16.013617   18.283988
  H     13.902294   15.851242   17.463715
  H     15.034429   17.060157   16.892239
  H     15.103228   14.017052   16.606683
  H     15.201022   15.224988   15.332744
  H     16.720672   17.414745   14.980015
  H     17.833856   18.786441   14.969101
  H     16.157085   19.002236   15.508541
  H     17.090166   20.012555   17.441299
  H     18.893626   18.041414   20.454992
  H     19.561808   16.402009   18.663383
  H     19.100953   14.027872   18.796290
  H     18.070205   12.201354   20.120627
  H     16.225714   12.717886   21.723106
  H     14.985080   14.294460   22.599904
  H     16.446036   16.877253   20.675464

 Total Charge           Charge          ....    0
 Multiplicity           Mult            ....    1
 Number of Electrons    NEL             ....  154
 Basis Dimension        Dim             ....  828

ORBITAL ENERGIES
----------------

  NO   OCC          E(Eh)            E(eV)
   0   2.0000     -91.888907     -2500.4243
   1   2.0000     -20.598315      -560.5086
   2   2.0000     -20.598249      -560.5069
   3   2.0000     -20.550353      -559.2035
   4   2.0000     -15.624951      -425.1765
   5   2.0000     -15.611058      -424.7985
   6   2.0000     -11.400109      -310.2127
   7   2.0000     -11.385830      -309.8242
   8   2.0000     -11.324292      -308.1497
   9   2.0000     -11.315687      -307.9155
  10   2.0000     -11.315176      -307.9016
  11   2.0000     -11.312637      -307.8325
  12   2.0000     -11.270135      -306.6760
  13   2.0000     -11.263995      -306.5089
  14   2.0000     -11.262488      -306.4679
  15   2.0000     -11.255316      -306.2727
  16   2.0000     -11.244086      -305.9671
  17   2.0000     -11.240577      -305.8717
  18   2.0000     -11.236878      -305.7710
  19   2.0000     -11.234812      -305.7148
  20   2.0000      -8.894029      -242.0188
  21   2.0000      -6.575622      -178.9318
  22   2.0000      -6.573592      -178.8765
  23   2.0000      -6.573022      -178.8610
  24   2.0000      -1.444177       -39.2981
  25   2.0000      -1.418121       -38.5890
  26   2.0000      -1.354759       -36.8649
  27   2.0000      -1.338405       -36.4199
  28   2.0000      -1.238695       -33.7066
  29   2.0000      -1.159307       -31.5463
  30   2.0000      -1.124551       -30.6006
  31   2.0000      -1.047915       -28.5152
  32   2.0000      -1.042020       -28.3548
  33   2.0000      -1.018029       -27.7020
  34   2.0000      -1.004457       -27.3327
  35   2.0000      -0.989730       -26.9319
  36   2.0000      -0.927172       -25.2296
  37   2.0000      -0.902697       -24.5636
  38   2.0000      -0.852374       -23.1943
  39   2.0000      -0.839774       -22.8514
  40   2.0000      -0.834391       -22.7049
  41   2.0000      -0.828675       -22.5494
  42   2.0000      -0.745770       -20.2934
  43   2.0000      -0.734142       -19.9770
  44   2.0000      -0.730795       -19.8859
  45   2.0000      -0.695171       -18.9166
  46   2.0000      -0.685333       -18.6489
  47   2.0000      -0.676385       -18.4054
  48   2.0000      -0.674538       -18.3551
  49   2.0000      -0.664815       -18.0905
  50   2.0000      -0.656070       -17.8526
  51   2.0000      -0.652443       -17.7539
  52   2.0000      -0.638306       -17.3692
  53   2.0000      -0.612203       -16.6589
  54   2.0000      -0.607415       -16.5286
  55   2.0000      -0.602792       -16.4028
  56   2.0000      -0.599877       -16.3235
  57   2.0000      -0.595353       -16.2004
  58   2.0000      -0.585697       -15.9376
  59   2.0000      -0.575278       -15.6541
  60   2.0000      -0.565976       -15.4010
  61   2.0000      -0.558728       -15.2038
  62   2.0000      -0.543196       -14.7811
  63   2.0000      -0.529648       -14.4124
  64   2.0000      -0.514900       -14.0111
  65   2.0000      -0.512879       -13.9561
  66   2.0000      -0.501331       -13.6419
  67   2.0000      -0.500578       -13.6214
  68   2.0000      -0.485940       -13.2231
  69   2.0000      -0.465728       -12.6731
  70   2.0000      -0.453830       -12.3493
  71   2.0000      -0.449607       -12.2344
  72   2.0000      -0.354332        -9.6419
  73   2.0000      -0.348055        -9.4711
  74   2.0000      -0.328678        -8.9438
  75   2.0000      -0.322677        -8.7805
  76   2.0000      -0.317473        -8.6389
  77   0.0000       0.093621         2.5476
  78   0.0000       0.105993         2.8842
  79   0.0000       0.110431         3.0050
  80   0.0000       0.127616         3.4726
  81   0.0000       0.130871         3.5612

MULLIKEN ATOMIC CHARGES
-----------------------
   0 C :   -0.341522
   1 C :    0.037197
   2 O :   -0.331880
   3 C :    0.383279
   4 O :   -0.375744
   5 C :   -0.182980
   6 C :    0.146191
   7 C :   -0.313323
   8 N :   -0.142678
   9 C :    0.214634
  10 S :   -0.444908
  11 N :   -0.239131
  12 C :    0.112356
  13 C :    0.014465
  14 C :   -0.214807
  15 C :   -0.134577
  16 C :   -0.275374
  17 C :    0.326737
  18 O :   -0.357154
  19 C :   -0.286412
  20 H :    0.133345
  21 H :    0.123230
  22 H :    0.097282
  23 H :    0.123245
  24 H :    0.096903
  25 H :    0.112218
  26 H :    0.151735
  27 H :    0.108609
  28 H :    0.195034
  29 H :    0.205763
  30 H :    0.166884
  31 H :    0.171818
  32 H :    0.164130
  33 H :    0.131638
  34 H :    0.241036
  35 H :    0.182764
Sum of atomic charges:   -0.0000000

LOEWDIN ATOMIC CHARGES
----------------------
   0 C :    0.105346
   1 C :   -0.016168
   2 O :    0.298255
   3 C :   -0.419517
   4 O :    0.128075
   5 C :   -0.079427
   6 C :   -0.107746
   7 C :    0.123993
   8 N :    0.401847
   9 C :   -0.454319
  10 S :   -0.040108
  11 N :    0.398381
  12 C :   -0.041286
  13 C :   -0.041392
  14 C :    0.023395
  15 C :    0.045171
  16 C :   -0.001504
  17 C :   -0.193484
  18 O :    0.395150
  19 C :    0.024100
  20 H :   -0.027560
  21 H :   -0.020583
  22 H :   -0.034320
  23 H :   -0.016852
  24 H :   -0.032943
  25 H :   -0.012174
  26 H :   -0.006355
  27 H :   -0.017295
  28 H :   -0.059464
  29 H :   -0.064229
  30 H :   -0.002831
  31 H :   -0.021329
  32 H :   -0.018358
  33 H :   -0.035134
  34 H :   -0.153400
  35 H :   -0.025936

  Mayer bond orders larger than 0.100000
B(  0-C ,  1-C ) :   0.9536 B(  0-C , 20-H ) :   0.9651 B(  0-C , 21-H ) :   0.9797
B(  0-C , 22-H ) :   0.9753 B(  1-C ,  2-O ) :   0.9194 B(  1-C , 23-H ) :   0.9792
B(  1-C , 24-H ) :   0.9799 B(  2-O ,  3-C ) :   1.1344 B(  3-C ,  4-O ) :   2.0837
B(  3-C ,  5-C ) :   0.9269 B(  5-C ,  6-C ) :   1.7029 B(  5-C , 12-C ) :   0.9438
B(  6-C ,  7-C ) :   0.9428 B(  6-C ,  8-N ) :   1.1071 B(  7-C , 25-H ) :   0.9816
B(  7-C , 26-H ) :   0.9638 B(  7-C , 27-H ) :   0.9742 B(  8-N ,  9-C ) :   1.2038
B(  8-N , 28-H ) :   0.9519 B(  9-C , 10-S ) :   1.6017 B(  9-C , 11-N ) :   1.2881
B( 11-N , 12-C ) :   0.9835 B( 11-N , 29-H ) :   0.9444 B( 12-C , 13-C ) :   0.9603
B( 12-C , 30-H ) :   0.9937 B( 13-C , 14-C ) :   1.3891 B( 13-C , 19-C ) :   1.3354
B( 14-C , 15-C ) :   1.4051 B( 14-C , 31-H ) :   0.9602 B( 15-C , 16-C ) :   1.3556
B( 15-C , 32-H ) :   0.9696 B( 16-C , 17-C ) :   1.3348 B( 16-C , 33-H ) :   0.9848
B( 17-C , 18-O ) :   1.1070 B( 17-C , 19-C ) :   1.3637 B( 18-O , 34-H ) :   0.9796
B( 19-C , 35-H ) :   0.9575

MP2 TOTAL ENERGY:    -1274.314872075 Eh
FINAL SINGLE POINT ENERGY     -1274.314872075053

DIPOLE MOMENT
-------------
                                X             Y             Z
Electronic contribution:      9.16884       5.39758       7.00706
Nuclear contribution   :    -10.75004      -6.63089      -7.74184
                        -----------------------------------------
Total Dipole Moment    :     -1.58120      -1.23331      -0.73478
                        -----------------------------------------
Magnitude (a.u.)       :      2.13569
Magnitude (Debye)      :      5.42848

Rotational constants in cm-1:     0.012037     0.009321     0.006689
Rotational constants in MHz :   360.848054   279.448769   200.537356

                             ****ORCA TERMINATED NORMALLY****
TOTAL RUN TIME: 0 days 2 hours 10 minutes 56 seconds 176 msec
