                         Program Version 5.0.0 -  RELEASE  -
|  1> ! ri-mp2 cc-pvtz cc-pvtz/c TightSCF NoKeepInts
|  2>
|  3> %scf
|  4>   MaxCore 4096
|  5> end
|  6> *xyz  0  1
|  7>     C       15.0327698   14.1210941   15.9243578
|  8>     C       16.1153089   14.3886560   16.9873825
|  9>     O       17.2144914   15.0999539   16.3833420
| 10>     C       17.1086007   16.4508412   16.2168896
| 11>     O       16.4085624   16.9109709   15.3333393
| 12>     C       17.6298826   17.2499910   17.3832331
| 13>     C       17.3853379   18.5794611   17.5190901
| 14>     C       16.5179595   19.4520450   16.6370265
| 15>     N       18.0083813   19.3046107   18.5398996
| 16>     C       19.0317271   18.8302581   19.3169522
| 17>     S       19.8465727   19.7986093   20.3816676
| 18>     N       19.3560975   17.5074362   19.1542658
| 19>     C       18.5532722   16.5371617   18.3883206
| 20>     C       17.8023105   15.6395961   19.3660399
| 21>     C       18.2017225   14.3023152   19.5502083
| 22>     C       17.5133270   13.4675225   20.4464145
| 23>     C       16.4215202   13.9754983   21.1707289
| 24>     C       16.0295568   15.3102160   21.0005142
| 25>     O       14.9772426   15.8046543   21.6992472
| 26>     C       16.7145614   16.1379722   20.1057358
| 27>     H       14.5625740   15.0555882   15.5942173
| 28>     H       14.2469792   13.4738407   16.3318205
| 29>     H       15.4663318   13.6247611   15.0472363
| 30>     H       15.6847373   14.9534014   17.8240298
| 31>     H       16.4767127   13.4267651   17.3729696
| 32>     H       15.5024907   19.0418870   16.5661142
| 33>     H       16.9246335   19.4947654   15.6184074
| 34>     H       16.4316425   20.4816775   17.0033738
| 35>     H       17.7917199   20.2813714   18.6595296
| 36>     H       20.0992756   17.1792506   19.7575519
| 37>     H       19.2500711   15.9122419   17.8116960
| 38>     H       19.0456288   13.9061448   18.9911179
| 39>     H       17.8284718   12.4338256   20.5803341
| 40>     H       15.8879822   13.3349945   21.8656514
| 41>     H       14.6784789   15.1124030   22.3083467
| 42>     H       16.4000649   17.1702182   19.9969480
| 43> *
| 44>
| 45>                          ****END OF INPUT****

CARTESIAN COORDINATES (ANGSTROEM)
---------------------------------
  C     15.032770   14.121094   15.924358
  C     16.115309   14.388656   16.987382
  O     17.214491   15.099954   16.383342
  C     17.108601   16.450841   16.216890
  O     16.408562   16.910971   15.333339
  C     17.629883   17.249991   17.383233
  C     17.385338   18.579461   17.519090
  C     16.517959   19.452045   16.637027
  N     18.008381   19.304611   18.539900
  C     19.031727   18.830258   19.316952
  S     19.846573   19.798609   20.381668
  N     19.356098   17.507436   19.154266
  C     18.553272   16.537162   18.388321
  C     17.802311   15.639596   19.366040
  C     18.201722   14.302315   19.550208
  C     17.513327   13.467522   20.446414
  C     16.421520   13.975498   21.170729
  C     16.029557   15.310216   21.000514
  O     14.977243   15.804654   21.699247
  C     16.714561   16.137972   20.105736
  H     14.562574   15.055588   15.594217
  H     14.246979   13.473841   16.331820
  H     15.466332   13.624761   15.047236
  H     15.684737   14.953401   17.824030
  H     16.476713   13.426765   17.372970
  H     15.502491   19.041887   16.566114
  H     16.924633   19.494765   15.618407
  H     16.431642   20.481677   17.003374
  H     17.791720   20.281371   18.659530
  H     20.099276   17.179251   19.757552
  H     19.250071   15.912242   17.811696
  H     19.045629   13.906145   18.991118
  H     17.828472   12.433826   20.580334
  H     15.887982   13.334995   21.865651
  H     14.678479   15.112403   22.308347
  H     16.400065   17.170218   19.996948

 Total Charge           Charge          ....    0
 Multiplicity           Mult            ....    1
 Number of Electrons    NEL             ....  154
 Basis Dimension        Dim             ....  828

ORBITAL ENERGIES
----------------

  NO   OCC          E(Eh)            E(eV)
   0   2.0000     -91.891315     -2500.4898
   1   2.0000     -20.602153      -560.6131
   2   2.0000     -20.581307      -560.0458
   3   2.0000     -20.548600      -559.1558
   4   2.0000     -15.631941      -425.3667
   5   2.0000     -15.610210      -424.7754
   6   2.0000     -11.393820      -310.0416
   7   2.0000     -11.385914      -309.8265
   8   2.0000     -11.338521      -308.5368
   9   2.0000     -11.319994      -308.0327
  10   2.0000     -11.312492      -307.8286
  11   2.0000     -11.295809      -307.3746
  12   2.0000     -11.264537      -306.5236
  13   2.0000     -11.261284      -306.4351
  14   2.0000     -11.259984      -306.3998
  15   2.0000     -11.254163      -306.2413
  16   2.0000     -11.249140      -306.1047
  17   2.0000     -11.243522      -305.9518
  18   2.0000     -11.243461      -305.9501
  19   2.0000     -11.216413      -305.2141
  20   2.0000      -8.896342      -242.0818
  21   2.0000      -6.577906      -178.9939
  22   2.0000      -6.575912      -178.9397
  23   2.0000      -6.575316      -178.9234
  24   2.0000      -1.446555       -39.3628
  25   2.0000      -1.421852       -38.6905
  26   2.0000      -1.353447       -36.8292
  27   2.0000      -1.343011       -36.5452
  28   2.0000      -1.241317       -33.7779
  29   2.0000      -1.162733       -31.6396
  30   2.0000      -1.121877       -30.5278
  31   2.0000      -1.046747       -28.4834
  32   2.0000      -1.029553       -28.0156
  33   2.0000      -1.021115       -27.7859
  34   2.0000      -0.998155       -27.1612
  35   2.0000      -0.986299       -26.8386
  36   2.0000      -0.926061       -25.1994
  37   2.0000      -0.882784       -24.0218
  38   2.0000      -0.850310       -23.1381
  39   2.0000      -0.844018       -22.9669
  40   2.0000      -0.839425       -22.8419
  41   2.0000      -0.828600       -22.5474
  42   2.0000      -0.754226       -20.5235
  43   2.0000      -0.735710       -20.0197
  44   2.0000      -0.719329       -19.5739
  45   2.0000      -0.701228       -19.0814
  46   2.0000      -0.692226       -18.8364
  47   2.0000      -0.679993       -18.5035
  48   2.0000      -0.669051       -18.2058
  49   2.0000      -0.662392       -18.0246
  50   2.0000      -0.650202       -17.6929
  51   2.0000      -0.648744       -17.6532
  52   2.0000      -0.639224       -17.3942
  53   2.0000      -0.612719       -16.6729
  54   2.0000      -0.606490       -16.5034
  55   2.0000      -0.602039       -16.3823
  56   2.0000      -0.591441       -16.0939
  57   2.0000      -0.582273       -15.8445
  58   2.0000      -0.575130       -15.6501
  59   2.0000      -0.572523       -15.5791
  60   2.0000      -0.563866       -15.3436
  61   2.0000      -0.541599       -14.7377
  62   2.0000      -0.536086       -14.5877
  63   2.0000      -0.529461       -14.4074
  64   2.0000      -0.518050       -14.0969
  65   2.0000      -0.515363       -14.0237
  66   2.0000      -0.505444       -13.7538
  67   2.0000      -0.497900       -13.5485
  68   2.0000      -0.482573       -13.1315
  69   2.0000      -0.464306       -12.6344
  70   2.0000      -0.454959       -12.3801
  71   2.0000      -0.441994       -12.0273
  72   2.0000      -0.358175        -9.7464
  73   2.0000      -0.354598        -9.6491
  74   2.0000      -0.331229        -9.0132
  75   2.0000      -0.327236        -8.9045
  76   2.0000      -0.318361        -8.6630
  77   0.0000       0.068760         1.8711
  78   0.0000       0.099346         2.7033
  79   0.0000       0.121790         3.3141
  80   0.0000       0.128133         3.4867
  81   0.0000       0.132216         3.5978

MULLIKEN ATOMIC CHARGES
-----------------------
   0 C :   -0.265487
   1 C :    0.023305
   2 O :   -0.386742
   3 C :    0.506528
   4 O :   -0.405676
   5 C :   -0.277283
   6 C :    0.156749
   7 C :   -0.270606
   8 N :   -0.124635
   9 C :    0.211735
  10 S :   -0.435614
  11 N :   -0.199357
  12 C :    0.046627
  13 C :    0.049097
  14 C :   -0.186624
  15 C :   -0.127735
  16 C :   -0.274859
  17 C :    0.313845
  18 O :   -0.356113
  19 C :   -0.262020
  20 H :    0.106393
  21 H :    0.087788
  22 H :    0.097823
  23 H :    0.101517
  24 H :    0.108647
  25 H :    0.128391
  26 H :    0.135635
  27 H :    0.094895
  28 H :    0.198560
  29 H :    0.192826
  30 H :    0.151446
  31 H :    0.150005
  32 H :    0.165444
  33 H :    0.133743
  34 H :    0.241940
  35 H :    0.169810
Sum of atomic charges:   -0.0000000

LOEWDIN ATOMIC CHARGES
----------------------
   0 C :    0.105785
   1 C :   -0.021815
   2 O :    0.283871
   3 C :   -0.418585
   4 O :    0.123037
   5 C :   -0.099645
   6 C :   -0.057659
   7 C :    0.131004
   8 N :    0.407100
   9 C :   -0.456874
  10 S :   -0.031980
  11 N :    0.396361
  12 C :   -0.052880
  13 C :   -0.038286
  14 C :    0.016016
  15 C :    0.042135
  16 C :   -0.000875
  17 C :   -0.190966
  18 O :    0.396538
  19 C :    0.030247
  20 H :   -0.028076
  21 H :   -0.030609
  22 H :   -0.025580
  23 H :   -0.032458
  24 H :   -0.024198
  25 H :   -0.005610
  26 H :   -0.002856
  27 H :   -0.023141
  28 H :   -0.057289
  29 H :   -0.065156
  30 H :   -0.007032
  31 H :   -0.029090
  32 H :   -0.019851
  33 H :   -0.034226
  34 H :   -0.152499
  35 H :   -0.024858

  Mayer bond orders larger than 0.100000
B(  0-C ,  1-C ) :   0.9837 B(  0-C , 20-H ) :   0.9726 B(  0-C , 21-H ) :   0.9768
B(  0-C , 22-H ) :   0.9790 B(  1-C ,  2-O ) :   0.8753 B(  1-C , 23-H ) :   0.9655
B(  1-C , 24-H ) :   0.9794 B(  2-O ,  3-C ) :   1.0915 B(  3-C ,  4-O ) :   2.0130
B(  3-C ,  5-C ) :   1.0641 B(  5-C ,  6-C ) :   1.6510 B(  5-C , 12-C ) :   0.9689
B(  6-C ,  7-C ) :   0.9701 B(  6-C ,  8-N ) :   1.1576 B(  7-C , 25-H ) :   0.9629
B(  7-C , 26-H ) :   0.9570 B(  7-C , 27-H ) :   0.9893 B(  8-N ,  9-C ) :   1.1781
B(  8-N , 28-H ) :   0.9479 B(  9-C , 10-S ) :   1.6132 B(  9-C , 11-N ) :   1.3033
B( 11-N , 12-C ) :   0.9738 B( 11-N , 29-H ) :   0.9536 B( 12-C , 13-C ) :   0.9509
B( 12-C , 30-H ) :   1.0009 B( 13-C , 14-C ) :   1.3423 B( 13-C , 19-C ) :   1.3688
B( 14-C , 15-C ) :   1.3850 B( 14-C , 31-H ) :   0.9775 B( 15-C , 16-C ) :   1.3676
B( 15-C , 32-H ) :   0.9688 B( 16-C , 17-C ) :   1.3271 B( 16-C , 33-H ) :   0.9835
B( 17-C , 18-O ) :   1.1146 B( 17-C , 19-C ) :   1.3732 B( 18-O , 34-H ) :   0.9789
B( 19-C , 35-H ) :   0.9572

MP2 TOTAL ENERGY:    -1274.330640879 Eh
FINAL SINGLE POINT ENERGY     -1274.330640878618

DIPOLE MOMENT
-------------
                                X             Y             Z
Electronic contribution:     10.56272       9.41956       7.01742
Nuclear contribution   :    -11.58570     -10.92861      -6.73497
                        -----------------------------------------
Total Dipole Moment    :     -1.02297      -1.50905       0.28245
                        -----------------------------------------
Magnitude (a.u.)       :      1.84485
Magnitude (Debye)      :      4.68924

Rotational constants in cm-1:     0.011864     0.009200     0.006380
Rotational constants in MHz :   355.684495   275.801828   191.279642

                             ****ORCA TERMINATED NORMALLY****
TOTAL RUN TIME: 0 days 1 hours 55 minutes 55 seconds 837 msec
