                         Program Version 5.0.0 -  RELEASE  -
|  1> ! ri-mp2 cc-pvtz cc-pvtz/c TightSCF NoKeepInts
|  2>
|  3> %scf
|  4>   MaxCore 4096
|  5> end
|  6> *xyz  0  1
|  7>     C       15.0016682   15.4363660   17.5958345
|  8>     C       15.6654824   15.2617426   16.2178176
|  9>     O       17.0330983   14.8373401   16.3708673
| 10>     C       18.1295805   15.6574574   16.4702000
| 11>     O       19.2299804   15.1433405   16.3934110
| 12>     C       17.9513719   16.8425472   17.3605831
| 13>     C       17.4263780   18.0092087   16.9203375
| 14>     C       16.9541167   18.3282665   15.5185375
| 15>     N       17.3774757   19.1160095   17.7705275
| 16>     C       17.9620411   19.1738766   19.0085752
| 17>     S       17.9258697   20.5518260   19.9218512
| 18>     N       18.5832635   18.0320518   19.4507921
| 19>     C       18.5594342   16.7252640   18.7625143
| 20>     C       17.8679123   15.6528929   19.6037286
| 21>     C       18.3111171   14.3188462   19.5351215
| 22>     C       17.6875374   13.3137312   20.2925521
| 23>     C       16.6101482   13.6428989   21.1317181
| 24>     C       16.1647198   14.9691120   21.2059949
| 25>     O       15.1177766   15.2888458   22.0074186
| 26>     C       16.7868606   15.9681521   20.4503850
| 27>     H       15.2300046   14.5821175   18.2461310
| 28>     H       13.9120104   15.4995116   17.4897381
| 29>     H       15.3397996   16.3528474   18.0906458
| 30>     H       15.1269055   14.4616395   15.6933726
| 31>     H       15.5698461   16.1622505   15.6060071
| 32>     H       17.2397285   17.5538162   14.7962621
| 33>     H       17.4028256   19.2643803   15.1614856
| 34>     H       15.8641698   18.4472268   15.4850875
| 35>     H       16.9452921   19.9708379   17.4568508
| 36>     H       18.9972507   18.1000330   20.3719919
| 37>     H       19.6055222   16.4094908   18.6341867
| 38>     H       19.1380886   14.0570888   18.8780797
| 39>     H       18.0385354   12.2855955   20.2224557
| 40>     H       16.1242421   12.8689508   21.7165001
| 41>     H       14.8524090   14.4819104   22.4738596
| 42>     H       16.4145374   16.9845269   20.5225778
| 43> *
| 44>
| 45>                          ****END OF INPUT****

CARTESIAN COORDINATES (ANGSTROEM)
---------------------------------
  C     15.001668   15.436366   17.595834
  C     15.665482   15.261743   16.217818
  O     17.033098   14.837340   16.370867
  C     18.129580   15.657457   16.470200
  O     19.229980   15.143340   16.393411
  C     17.951372   16.842547   17.360583
  C     17.426378   18.009209   16.920337
  C     16.954117   18.328267   15.518537
  N     17.377476   19.116010   17.770528
  C     17.962041   19.173877   19.008575
  S     17.925870   20.551826   19.921851
  N     18.583264   18.032052   19.450792
  C     18.559434   16.725264   18.762514
  C     17.867912   15.652893   19.603729
  C     18.311117   14.318846   19.535121
  C     17.687537   13.313731   20.292552
  C     16.610148   13.642899   21.131718
  C     16.164720   14.969112   21.205995
  O     15.117777   15.288846   22.007419
  C     16.786861   15.968152   20.450385
  H     15.230005   14.582117   18.246131
  H     13.912010   15.499512   17.489738
  H     15.339800   16.352847   18.090646
  H     15.126905   14.461639   15.693373
  H     15.569846   16.162250   15.606007
  H     17.239728   17.553816   14.796262
  H     17.402826   19.264380   15.161486
  H     15.864170   18.447227   15.485087
  H     16.945292   19.970838   17.456851
  H     18.997251   18.100033   20.371992
  H     19.605522   16.409491   18.634187
  H     19.138089   14.057089   18.878080
  H     18.038535   12.285595   20.222456
  H     16.124242   12.868951   21.716500
  H     14.852409   14.481910   22.473860
  H     16.414537   16.984527   20.522578

 Total Charge           Charge          ....    0
 Multiplicity           Mult            ....    1
 Number of Electrons    NEL             ....  154
 Basis Dimension        Dim             ....  828

ORBITAL ENERGIES
----------------

  NO   OCC          E(Eh)            E(eV)
   0   2.0000     -91.889043     -2500.4280
   1   2.0000     -20.600810      -560.5765
   2   2.0000     -20.596622      -560.4626
   3   2.0000     -20.555590      -559.3460
   4   2.0000     -15.625202      -425.1834
   5   2.0000     -15.610962      -424.7959
   6   2.0000     -11.399493      -310.1960
   7   2.0000     -11.385765      -309.8224
   8   2.0000     -11.326449      -308.2084
   9   2.0000     -11.315900      -307.9213
  10   2.0000     -11.312946      -307.8409
  11   2.0000     -11.306756      -307.6725
  12   2.0000     -11.272376      -306.7369
  13   2.0000     -11.267350      -306.6002
  14   2.0000     -11.261332      -306.4364
  15   2.0000     -11.253549      -306.2246
  16   2.0000     -11.242854      -305.9336
  17   2.0000     -11.238493      -305.8149
  18   2.0000     -11.235561      -305.7352
  19   2.0000     -11.227719      -305.5218
  20   2.0000      -8.894169      -242.0226
  21   2.0000      -6.575765      -178.9357
  22   2.0000      -6.573730      -178.8803
  23   2.0000      -6.573162      -178.8648
  24   2.0000      -1.451852       -39.5069
  25   2.0000      -1.416457       -38.5438
  26   2.0000      -1.361459       -37.0472
  27   2.0000      -1.339428       -36.4477
  28   2.0000      -1.239284       -33.7226
  29   2.0000      -1.158030       -31.5116
  30   2.0000      -1.124618       -30.6024
  31   2.0000      -1.047506       -28.5041
  32   2.0000      -1.038815       -28.2676
  33   2.0000      -1.016349       -27.6563
  34   2.0000      -1.004976       -27.3468
  35   2.0000      -0.989122       -26.9154
  36   2.0000      -0.927208       -25.2306
  37   2.0000      -0.892891       -24.2968
  38   2.0000      -0.854063       -23.2402
  39   2.0000      -0.839775       -22.8514
  40   2.0000      -0.833448       -22.6793
  41   2.0000      -0.831159       -22.6170
  42   2.0000      -0.754272       -20.5248
  43   2.0000      -0.739122       -20.1125
  44   2.0000      -0.729934       -19.8625
  45   2.0000      -0.694747       -18.9050
  46   2.0000      -0.687802       -18.7161
  47   2.0000      -0.681554       -18.5460
  48   2.0000      -0.675745       -18.3880
  49   2.0000      -0.664433       -18.0801
  50   2.0000      -0.651949       -17.7404
  51   2.0000      -0.639913       -17.4129
  52   2.0000      -0.639574       -17.4037
  53   2.0000      -0.616936       -16.7877
  54   2.0000      -0.611359       -16.6359
  55   2.0000      -0.605530       -16.4773
  56   2.0000      -0.601178       -16.3589
  57   2.0000      -0.590620       -16.0716
  58   2.0000      -0.580727       -15.8024
  59   2.0000      -0.573067       -15.5939
  60   2.0000      -0.564871       -15.3709
  61   2.0000      -0.557877       -15.1806
  62   2.0000      -0.539603       -14.6833
  63   2.0000      -0.529011       -14.3951
  64   2.0000      -0.516748       -14.0614
  65   2.0000      -0.512084       -13.9345
  66   2.0000      -0.504422       -13.7260
  67   2.0000      -0.500620       -13.6226
  68   2.0000      -0.485205       -13.2031
  69   2.0000      -0.464257       -12.6331
  70   2.0000      -0.455684       -12.3998
  71   2.0000      -0.452010       -12.2998
  72   2.0000      -0.356685        -9.7059
  73   2.0000      -0.347182        -9.4473
  74   2.0000      -0.328821        -8.9477
  75   2.0000      -0.321564        -8.7502
  76   2.0000      -0.317606        -8.6425
  77   0.0000       0.089496         2.4353
  78   0.0000       0.102730         2.7954
  79   0.0000       0.111475         3.0334
  80   0.0000       0.128690         3.5018
  81   0.0000       0.131139         3.5685

MULLIKEN ATOMIC CHARGES
-----------------------
   0 C :   -0.304666
   1 C :   -0.000876
   2 O :   -0.312768
   3 C :    0.395329
   4 O :   -0.372231
   5 C :   -0.177235
   6 C :    0.132424
   7 C :   -0.332335
   8 N :   -0.136747
   9 C :    0.208913
  10 S :   -0.443393
  11 N :   -0.231562
  12 C :    0.090384
  13 C :    0.036433
  14 C :   -0.205968
  15 C :   -0.134275
  16 C :   -0.280525
  17 C :    0.321094
  18 O :   -0.359118
  19 C :   -0.282525
  20 H :    0.122153
  21 H :    0.111023
  22 H :    0.103181
  23 H :    0.129687
  24 H :    0.089841
  25 H :    0.119572
  26 H :    0.138758
  27 H :    0.122548
  28 H :    0.195219
  29 H :    0.203502
  30 H :    0.169263
  31 H :    0.169525
  32 H :    0.163127
  33 H :    0.131631
  34 H :    0.240949
  35 H :    0.179669
Sum of atomic charges:   -0.0000000

LOEWDIN ATOMIC CHARGES
----------------------
   0 C :    0.104339
   1 C :   -0.024660
   2 O :    0.313442
   3 C :   -0.418910
   4 O :    0.133523
   5 C :   -0.075218
   6 C :   -0.109550
   7 C :    0.120251
   8 N :    0.400599
   9 C :   -0.456995
  10 S :   -0.039849
  11 N :    0.398661
  12 C :   -0.040953
  13 C :   -0.040624
  14 C :    0.023370
  15 C :    0.043602
  16 C :   -0.002380
  17 C :   -0.193915
  18 O :    0.395242
  19 C :    0.028693
  20 H :   -0.018236
  21 H :   -0.026646
  22 H :   -0.035394
  23 H :   -0.020620
  24 H :   -0.039798
  25 H :   -0.011373
  26 H :   -0.009031
  27 H :   -0.017708
  28 H :   -0.058803
  29 H :   -0.063491
  30 H :   -0.001538
  31 H :   -0.022129
  32 H :   -0.018855
  33 H :   -0.035259
  34 H :   -0.153753
  35 H :   -0.026033

  Mayer bond orders larger than 0.100000
B(  0-C ,  1-C ) :   0.9591 B(  0-C , 20-H ) :   0.9701 B(  0-C , 21-H ) :   0.9767
B(  0-C , 22-H ) :   0.9718 B(  1-C ,  2-O ) :   0.9139 B(  1-C , 23-H ) :   0.9858
B(  1-C , 24-H ) :   0.9764 B(  2-O ,  3-C ) :   1.1306 B(  3-C ,  4-O ) :   2.0863
B(  3-C ,  5-C ) :   0.9196 B(  5-C ,  6-C ) :   1.7111 B(  5-C , 12-C ) :   0.9496
B(  6-C ,  7-C ) :   0.9402 B(  6-C ,  8-N ) :   1.1016 B(  7-C , 25-H ) :   0.9831
B(  7-C , 26-H ) :   0.9710 B(  7-C , 27-H ) :   0.9670 B(  8-N ,  9-C ) :   1.2004
B(  8-N , 28-H ) :   0.9538 B(  9-C , 10-S ) :   1.6051 B(  9-C , 11-N ) :   1.2861
B( 11-N , 12-C ) :   0.9844 B( 11-N , 29-H ) :   0.9466 B( 12-C , 13-C ) :   0.9533
B( 12-C , 30-H ) :   0.9955 B( 13-C , 14-C ) :   1.3863 B( 13-C , 19-C ) :   1.3344
B( 14-C , 15-C ) :   1.4041 B( 14-C , 31-H ) :   0.9610 B( 15-C , 16-C ) :   1.3554
B( 15-C , 32-H ) :   0.9702 B( 16-C , 17-C ) :   1.3330 B( 16-C , 33-H ) :   0.9852
B( 17-C , 18-O ) :   1.1077 B( 17-C , 19-C ) :   1.3667 B( 18-O , 34-H ) :   0.9797
B( 19-C , 35-H ) :   0.9566

MP2 TOTAL ENERGY:    -1274.320428416 Eh
FINAL SINGLE POINT ENERGY     -1274.320428416431

DIPOLE MOMENT
-------------
                                X             Y             Z
Electronic contribution:      9.17601       6.24577       6.30549
Nuclear contribution   :    -10.65917      -7.36586      -7.18776
                        -----------------------------------------
Total Dipole Moment    :     -1.48316      -1.12009      -0.88227
                        -----------------------------------------
Magnitude (a.u.)       :      2.05736
Magnitude (Debye)      :      5.22940

Rotational constants in cm-1:     0.012169     0.009496     0.006847
Rotational constants in MHz :   364.811097   284.684055   205.264717

                             ****ORCA TERMINATED NORMALLY****
TOTAL RUN TIME: 0 days 2 hours 6 minutes 45 seconds 907 msec
