                         Program Version 5.0.0 -  RELEASE  -
|  1> ! ri-mp2 cc-pvtz cc-pvtz/c TightSCF NoKeepInts
|  2>
|  3> %scf
|  4>   MaxCore 4096
|  5> end
|  6> *xyz  0  1
|  7>     C       16.0891961   13.2030322   17.3342210
|  8>     C       15.8412728   14.4358945   16.4481925
|  9>     O       17.0959730   15.0898306   16.1794997
| 10>     C       17.0728694   16.4472333   16.0325904
| 11>     O       16.3231425   16.9439450   15.2108149
| 12>     C       17.6389389   17.2148560   17.1972551
| 13>     C       17.5513434   18.5687276   17.2848269
| 14>     C       16.8493391   19.5134608   16.3322792
| 15>     N       18.2188648   19.2453740   18.3110658
| 16>     C       19.1796372   18.6815081   19.1081274
| 17>     S       20.1044671   19.5809284   20.1435869
| 18>     N       19.3553585   17.3275584   18.9765120
| 19>     C       18.4129826   16.4369906   18.2748195
| 20>     C       17.5237496   15.7650407   19.3190491
| 21>     C       18.0493495   14.7075066   20.0869108
| 22>     C       17.2717961   14.0805730   21.0750181
| 23>     C       15.9562655   14.5168051   21.3038255
| 24>     C       15.4325019   15.5777344   20.5534475
| 25>     O       14.1643098   16.0054577   20.7752053
| 26>     C       16.2086172   16.2022578   19.5721117
| 27>     H       16.8338478   12.5412491   16.8750964
| 28>     H       15.1601869   12.6344417   17.4615923
| 29>     H       16.4434135   13.4863682   18.3272573
| 30>     H       15.3677784   14.1400336   15.5026945
| 31>     H       15.1559629   15.1147482   16.9746392
| 32>     H       17.2605712   19.4166761   15.3193286
| 33>     H       16.9410269   20.5657156   16.6259510
| 34>     H       15.7788391   19.2786544   16.2744497
| 35>     H       18.1085414   20.2423704   18.4047127
| 36>     H       20.0596465   16.9354869   19.5872794
| 37>     H       18.9984183   15.6530795   17.7731996
| 38>     H       19.0672920   14.3683631   19.9145912
| 39>     H       17.6894764   13.2630826   21.6604664
| 40>     H       15.3516194   14.0361938   22.0660306
| 41>     H       13.8131253   15.4994670   21.5237227
| 42>     H       15.7772792   17.0313549   19.0236293
| 43> *
| 44>
| 45>                          ****END OF INPUT****

CARTESIAN COORDINATES (ANGSTROEM)
---------------------------------
  C     16.089196   13.203032   17.334221
  C     15.841273   14.435894   16.448193
  O     17.095973   15.089831   16.179500
  C     17.072869   16.447233   16.032590
  O     16.323142   16.943945   15.210815
  C     17.638939   17.214856   17.197255
  C     17.551343   18.568728   17.284827
  C     16.849339   19.513461   16.332279
  N     18.218865   19.245374   18.311066
  C     19.179637   18.681508   19.108127
  S     20.104467   19.580928   20.143587
  N     19.355359   17.327558   18.976512
  C     18.412983   16.436991   18.274819
  C     17.523750   15.765041   19.319049
  C     18.049350   14.707507   20.086911
  C     17.271796   14.080573   21.075018
  C     15.956266   14.516805   21.303825
  C     15.432502   15.577734   20.553447
  O     14.164310   16.005458   20.775205
  C     16.208617   16.202258   19.572112
  H     16.833848   12.541249   16.875096
  H     15.160187   12.634442   17.461592
  H     16.443413   13.486368   18.327257
  H     15.367778   14.140034   15.502694
  H     15.155963   15.114748   16.974639
  H     17.260571   19.416676   15.319329
  H     16.941027   20.565716   16.625951
  H     15.778839   19.278654   16.274450
  H     18.108541   20.242370   18.404713
  H     20.059646   16.935487   19.587279
  H     18.998418   15.653079   17.773200
  H     19.067292   14.368363   19.914591
  H     17.689476   13.263083   21.660466
  H     15.351619   14.036194   22.066031
  H     13.813125   15.499467   21.523723
  H     15.777279   17.031355   19.023629

 Total Charge           Charge          ....    0
 Multiplicity           Mult            ....    1
 Number of Electrons    NEL             ....  154
 Basis Dimension        Dim             ....  828

ORBITAL ENERGIES
----------------

  NO   OCC          E(Eh)            E(eV)
   0   2.0000     -91.890680     -2500.4725
   1   2.0000     -20.602904      -560.6335
   2   2.0000     -20.584717      -560.1386
   3   2.0000     -20.544883      -559.0547
   4   2.0000     -15.631968      -425.3675
   5   2.0000     -15.609304      -424.7507
   6   2.0000     -11.392366      -310.0020
   7   2.0000     -11.385168      -309.8062
   8   2.0000     -11.338955      -308.5487
   9   2.0000     -11.320095      -308.0355
  10   2.0000     -11.312155      -307.8194
  11   2.0000     -11.295168      -307.3572
  12   2.0000     -11.266384      -306.5739
  13   2.0000     -11.261593      -306.4435
  14   2.0000     -11.260209      -306.4059
  15   2.0000     -11.253820      -306.2320
  16   2.0000     -11.247843      -306.0694
  17   2.0000     -11.243444      -305.9497
  18   2.0000     -11.243270      -305.9449
  19   2.0000     -11.221660      -305.3569
  20   2.0000      -8.895696      -242.0642
  21   2.0000      -6.577263      -178.9764
  22   2.0000      -6.575268      -178.9221
  23   2.0000      -6.574674      -178.9060
  24   2.0000      -1.448520       -39.4162
  25   2.0000      -1.422499       -38.7082
  26   2.0000      -1.350569       -36.7509
  27   2.0000      -1.342856       -36.5410
  28   2.0000      -1.241012       -33.7697
  29   2.0000      -1.162408       -31.6307
  30   2.0000      -1.121687       -30.5227
  31   2.0000      -1.046008       -28.4633
  32   2.0000      -1.032938       -28.1077
  33   2.0000      -1.021322       -27.7916
  34   2.0000      -0.998862       -27.1804
  35   2.0000      -0.985665       -26.8213
  36   2.0000      -0.925772       -25.1915
  37   2.0000      -0.881850       -23.9964
  38   2.0000      -0.850352       -23.1393
  39   2.0000      -0.843982       -22.9659
  40   2.0000      -0.836796       -22.7704
  41   2.0000      -0.823674       -22.4133
  42   2.0000      -0.761931       -20.7332
  43   2.0000      -0.736711       -20.0469
  44   2.0000      -0.721681       -19.6379
  45   2.0000      -0.701302       -19.0834
  46   2.0000      -0.691040       -18.8042
  47   2.0000      -0.677357       -18.4318
  48   2.0000      -0.671043       -18.2600
  49   2.0000      -0.664082       -18.0706
  50   2.0000      -0.649644       -17.6777
  51   2.0000      -0.645408       -17.5625
  52   2.0000      -0.640546       -17.4301
  53   2.0000      -0.615048       -16.7363
  54   2.0000      -0.606689       -16.5088
  55   2.0000      -0.602174       -16.3860
  56   2.0000      -0.598782       -16.2937
  57   2.0000      -0.583357       -15.8739
  58   2.0000      -0.573367       -15.6021
  59   2.0000      -0.566979       -15.4283
  60   2.0000      -0.553457       -15.0603
  61   2.0000      -0.547764       -14.9054
  62   2.0000      -0.538809       -14.6617
  63   2.0000      -0.531956       -14.4752
  64   2.0000      -0.515846       -14.0369
  65   2.0000      -0.510541       -13.8925
  66   2.0000      -0.506394       -13.7797
  67   2.0000      -0.498803       -13.5731
  68   2.0000      -0.485520       -13.2117
  69   2.0000      -0.462473       -12.5845
  70   2.0000      -0.455712       -12.4006
  71   2.0000      -0.442467       -12.0401
  72   2.0000      -0.359508        -9.7827
  73   2.0000      -0.355584        -9.6759
  74   2.0000      -0.331515        -9.0210
  75   2.0000      -0.326226        -8.8771
  76   2.0000      -0.318050        -8.6546
  77   0.0000       0.070681         1.9233
  78   0.0000       0.103047         2.8040
  79   0.0000       0.119211         3.2439
  80   0.0000       0.124342         3.3835
  81   0.0000       0.130595         3.5537

MULLIKEN ATOMIC CHARGES
-----------------------
   0 C :   -0.276762
   1 C :    0.029806
   2 O :   -0.380062
   3 C :    0.496211
   4 O :   -0.413380
   5 C :   -0.286495
   6 C :    0.166152
   7 C :   -0.264879
   8 N :   -0.127527
   9 C :    0.225870
  10 S :   -0.441199
  11 N :   -0.207285
  12 C :    0.055390
  13 C :    0.074659
  14 C :   -0.229262
  15 C :   -0.124853
  16 C :   -0.276440
  17 C :    0.315209
  18 O :   -0.357581
  19 C :   -0.252951
  20 H :    0.097384
  21 H :    0.094553
  22 H :    0.108328
  23 H :    0.121434
  24 H :    0.090036
  25 H :    0.133597
  26 H :    0.095424
  27 H :    0.130464
  28 H :    0.198124
  29 H :    0.189974
  30 H :    0.150997
  31 H :    0.149037
  32 H :    0.160901
  33 H :    0.132395
  34 H :    0.243096
  35 H :    0.179635
Sum of atomic charges:   -0.0000000

LOEWDIN ATOMIC CHARGES
----------------------
   0 C :    0.110558
   1 C :   -0.017110
   2 O :    0.284917
   3 C :   -0.421149
   4 O :    0.114846
   5 C :   -0.097682
   6 C :   -0.053659
   7 C :    0.130983
   8 N :    0.409852
   9 C :   -0.452604
  10 S :   -0.034341
  11 N :    0.395577
  12 C :   -0.052499
  13 C :   -0.032093
  14 C :    0.009279
  15 C :    0.044862
  16 C :   -0.001466
  17 C :   -0.189393
  18 O :    0.396077
  19 C :    0.028440
  20 H :   -0.028151
  21 H :   -0.024772
  22 H :   -0.030146
  23 H :   -0.028540
  24 H :   -0.032206
  25 H :   -0.002802
  26 H :   -0.023067
  27 H :   -0.005681
  28 H :   -0.057118
  29 H :   -0.069073
  30 H :   -0.005891
  31 H :   -0.031478
  32 H :   -0.019028
  33 H :   -0.034453
  34 H :   -0.151876
  35 H :   -0.029114

  Mayer bond orders larger than 0.100000
B(  0-C ,  1-C ) :   0.9725 B(  0-C , 20-H ) :   0.9774 B(  0-C , 21-H ) :   0.9788
B(  0-C , 22-H ) :   0.9727 B(  1-C ,  2-O ) :   0.8798 B(  1-C , 23-H ) :   0.9854
B(  1-C , 24-H ) :   0.9695 B(  2-O ,  3-C ) :   1.1165 B(  3-C ,  4-O ) :   2.0027
B(  3-C ,  5-C ) :   1.0645 B(  5-C ,  6-C ) :   1.6370 B(  5-C , 12-C ) :   0.9780
B(  6-C ,  7-C ) :   0.9676 B(  6-C ,  8-N ) :   1.1625 B(  7-C , 25-H ) :   0.9579
B(  7-C , 26-H ) :   0.9900 B(  7-C , 27-H ) :   0.9608 B(  8-N ,  9-C ) :   1.1864
B(  8-N , 28-H ) :   0.9480 B(  9-C , 10-S ) :   1.5980 B(  9-C , 11-N ) :   1.3035
B( 11-N , 12-C ) :   0.9428 B( 11-N , 29-H ) :   0.9532 B( 12-C , 13-C ) :   0.9634
B( 12-C , 30-H ) :   0.9958 B( 13-C , 14-C ) :   1.3508 B( 13-C , 19-C ) :   1.3599
B( 14-C , 15-C ) :   1.4130 B( 14-C , 31-H ) :   0.9736 B( 15-C , 16-C ) :   1.3557
B( 15-C , 32-H ) :   0.9707 B( 16-C , 17-C ) :   1.3419 B( 16-C , 33-H ) :   0.9846
B( 17-C , 18-O ) :   1.1155 B( 17-C , 19-C ) :   1.3545 B( 18-O , 34-H ) :   0.9783
B( 19-C , 35-H ) :   0.9513

MP2 TOTAL ENERGY:    -1274.332580578 Eh
FINAL SINGLE POINT ENERGY     -1274.332580578447

DIPOLE MOMENT
-------------
                                X             Y             Z
Electronic contribution:      8.30130      10.41911       3.61294
Nuclear contribution   :     -9.38580     -11.73373      -3.21894
                        -----------------------------------------
Total Dipole Moment    :     -1.08450      -1.31462       0.39399
                        -----------------------------------------
Magnitude (a.u.)       :      1.74917
Magnitude (Debye)      :      4.44605

Rotational constants in cm-1:     0.012202     0.009041     0.006588
Rotational constants in MHz :   365.796635   271.048875   197.510785

                             ****ORCA TERMINATED NORMALLY****
TOTAL RUN TIME: 0 days 2 hours 0 minutes 24 seconds 30 msec
