                         Program Version 5.0.0 -  RELEASE  -
|  1> ! ri-mp2 cc-pvtz cc-pvtz/c TightSCF NoKeepInts
|  2>
|  3> %scf
|  4>   MaxCore 4096
|  5> end
|  6> *xyz  0  1
|  7>     C       15.0459481   15.4316691   17.5917397
|  8>     C       15.6390263   15.2977426   16.1767739
|  9>     O       17.0157349   14.8721325   16.2323477
| 10>     C       18.1291868   15.6412799   16.4760073
| 11>     O       19.2174880   15.0978275   16.4358612
| 12>     C       17.9413142   16.8281613   17.3632972
| 13>     C       17.4172413   17.9942085   16.9186698
| 14>     C       16.9624923   18.3169355   15.5118190
| 15>     N       17.3664658   19.1035072   17.7654994
| 16>     C       17.9535231   19.1677015   19.0018899
| 17>     S       17.9176060   20.5495000   19.9092772
| 18>     N       18.5784818   18.0291533   19.4467246
| 19>     C       18.5533579   16.7191931   18.7647779
| 20>     C       17.8641433   15.6514281   19.6138759
| 21>     C       18.3081451   14.3171916   19.5536699
| 22>     C       17.6859682   13.3166501   20.3182859
| 23>     C       16.6091364   13.6505092   21.1562852
| 24>     C       16.1631482   14.9769240   21.2227206
| 25>     O       15.1170551   15.3013138   22.0233542
| 26>     C       16.7839698   15.9714056   20.4600362
| 27>     H       15.3393268   14.5785778   18.2169519
| 28>     H       13.9505433   15.4536755   17.5442578
| 29>     H       15.3712184   16.3552862   18.0811653
| 30>     H       15.0735684   14.5126216   15.6580149
| 31>     H       15.5051116   16.2150530   15.5985053
| 32>     H       17.2247691   17.5275483   14.7968729
| 33>     H       17.4452874   19.2340870   15.1500274
| 34>     H       15.8776028   18.4737111   15.4712845
| 35>     H       16.9336451   19.9568244   17.4485349
| 36>     H       18.9952026   18.1018303   20.3663606
| 37>     H       19.5993356   16.4030172   18.6363267
| 38>     H       19.1358040   14.0514948   18.8991177
| 39>     H       18.0380288   12.2883893   20.2551292
| 40>     H       16.1244310   12.8800814   21.7467278
| 41>     H       14.8525604   14.4973477   22.4954172
| 42>     H       16.4111322   16.9880199   20.5263931
| 43> *
| 44>
| 45>                          ****END OF INPUT****

CARTESIAN COORDINATES (ANGSTROEM)
---------------------------------
  C     15.045948   15.431669   17.591740
  C     15.639026   15.297743   16.176774
  O     17.015735   14.872132   16.232348
  C     18.129187   15.641280   16.476007
  O     19.217488   15.097827   16.435861
  C     17.941314   16.828161   17.363297
  C     17.417241   17.994208   16.918670
  C     16.962492   18.316935   15.511819
  N     17.366466   19.103507   17.765499
  C     17.953523   19.167701   19.001890
  S     17.917606   20.549500   19.909277
  N     18.578482   18.029153   19.446725
  C     18.553358   16.719193   18.764778
  C     17.864143   15.651428   19.613876
  C     18.308145   14.317192   19.553670
  C     17.685968   13.316650   20.318286
  C     16.609136   13.650509   21.156285
  C     16.163148   14.976924   21.222721
  O     15.117055   15.301314   22.023354
  C     16.783970   15.971406   20.460036
  H     15.339327   14.578578   18.216952
  H     13.950543   15.453675   17.544258
  H     15.371218   16.355286   18.081165
  H     15.073568   14.512622   15.658015
  H     15.505112   16.215053   15.598505
  H     17.224769   17.527548   14.796873
  H     17.445287   19.234087   15.150027
  H     15.877603   18.473711   15.471284
  H     16.933645   19.956824   17.448535
  H     18.995203   18.101830   20.366361
  H     19.599336   16.403017   18.636327
  H     19.135804   14.051495   18.899118
  H     18.038029   12.288389   20.255129
  H     16.124431   12.880081   21.746728
  H     14.852560   14.497348   22.495417
  H     16.411132   16.988020   20.526393

 Total Charge           Charge          ....    0
 Multiplicity           Mult            ....    1
 Number of Electrons    NEL             ....  154
 Basis Dimension        Dim             ....  828

ORBITAL ENERGIES
----------------

  NO   OCC          E(Eh)            E(eV)
   0   2.0000     -91.889748     -2500.4472
   1   2.0000     -20.601007      -560.5819
   2   2.0000     -20.596949      -560.4715
   3   2.0000     -20.552484      -559.2615
   4   2.0000     -15.626435      -425.2169
   5   2.0000     -15.611276      -424.8044
   6   2.0000     -11.400256      -310.2167
   7   2.0000     -11.386392      -309.8395
   8   2.0000     -11.328564      -308.2659
   9   2.0000     -11.315628      -307.9139
  10   2.0000     -11.313392      -307.8531
  11   2.0000     -11.307352      -307.6887
  12   2.0000     -11.272616      -306.7435
  13   2.0000     -11.267773      -306.6117
  14   2.0000     -11.261681      -306.4459
  15   2.0000     -11.253976      -306.2363
  16   2.0000     -11.243251      -305.9444
  17   2.0000     -11.238815      -305.8237
  18   2.0000     -11.235758      -305.7405
  19   2.0000     -11.227759      -305.5229
  20   2.0000      -8.894866      -242.0416
  21   2.0000      -6.576459      -178.9546
  22   2.0000      -6.574427      -178.8993
  23   2.0000      -6.573855      -178.8837
  24   2.0000      -1.449132       -39.4329
  25   2.0000      -1.416781       -38.5526
  26   2.0000      -1.359739       -37.0004
  27   2.0000      -1.340397       -36.4740
  28   2.0000      -1.239972       -33.7413
  29   2.0000      -1.158448       -31.5230
  30   2.0000      -1.125138       -30.6166
  31   2.0000      -1.047809       -28.5123
  32   2.0000      -1.038694       -28.2643
  33   2.0000      -1.016819       -27.6690
  34   2.0000      -1.005539       -27.3621
  35   2.0000      -0.989744       -26.9323
  36   2.0000      -0.927692       -25.2438
  37   2.0000      -0.894267       -24.3342
  38   2.0000      -0.854799       -23.2603
  39   2.0000      -0.840296       -22.8656
  40   2.0000      -0.833810       -22.6891
  41   2.0000      -0.830812       -22.6075
  42   2.0000      -0.751886       -20.4599
  43   2.0000      -0.739928       -20.1345
  44   2.0000      -0.730201       -19.8698
  45   2.0000      -0.694991       -18.9117
  46   2.0000      -0.687569       -18.7097
  47   2.0000      -0.680595       -18.5199
  48   2.0000      -0.675501       -18.3813
  49   2.0000      -0.664154       -18.0725
  50   2.0000      -0.652233       -17.7482
  51   2.0000      -0.642517       -17.4838
  52   2.0000      -0.639841       -17.4110
  53   2.0000      -0.617300       -16.7976
  54   2.0000      -0.611409       -16.6373
  55   2.0000      -0.605772       -16.4839
  56   2.0000      -0.601478       -16.3671
  57   2.0000      -0.590919       -16.0797
  58   2.0000      -0.580118       -15.7858
  59   2.0000      -0.572747       -15.5853
  60   2.0000      -0.565347       -15.3839
  61   2.0000      -0.557467       -15.1694
  62   2.0000      -0.539232       -14.6732
  63   2.0000      -0.530360       -14.4318
  64   2.0000      -0.517221       -14.0743
  65   2.0000      -0.512351       -13.9418
  66   2.0000      -0.504810       -13.7366
  67   2.0000      -0.500960       -13.6318
  68   2.0000      -0.484121       -13.1736
  69   2.0000      -0.464196       -12.6314
  70   2.0000      -0.454741       -12.3741
  71   2.0000      -0.451837       -12.2951
  72   2.0000      -0.357332        -9.7235
  73   2.0000      -0.347582        -9.4582
  74   2.0000      -0.329465        -8.9652
  75   2.0000      -0.322255        -8.7690
  76   2.0000      -0.318330        -8.6622
  77   0.0000       0.087646         2.3850
  78   0.0000       0.105288         2.8650
  79   0.0000       0.111495         3.0339
  80   0.0000       0.129487         3.5235
  81   0.0000       0.131144         3.5686

MULLIKEN ATOMIC CHARGES
-----------------------
   0 C :   -0.311049
   1 C :    0.003919
   2 O :   -0.315065
   3 C :    0.404498
   4 O :   -0.378380
   5 C :   -0.192530
   6 C :    0.138889
   7 C :   -0.332448
   8 N :   -0.137286
   9 C :    0.207448
  10 S :   -0.442168
  11 N :   -0.230920
  12 C :    0.094096
  13 C :    0.026098
  14 C :   -0.207981
  15 C :   -0.135363
  16 C :   -0.279569
  17 C :    0.320738
  18 O :   -0.358779
  19 C :   -0.277026
  20 H :    0.124452
  21 H :    0.112231
  22 H :    0.104215
  23 H :    0.130935
  24 H :    0.090094
  25 H :    0.121480
  26 H :    0.140691
  27 H :    0.121871
  28 H :    0.195694
  29 H :    0.203467
  30 H :    0.169082
  31 H :    0.172679
  32 H :    0.163577
  33 H :    0.131764
  34 H :    0.240987
  35 H :    0.179660
Sum of atomic charges:   -0.0000000

LOEWDIN ATOMIC CHARGES
----------------------
   0 C :    0.103963
   1 C :   -0.022937
   2 O :    0.308878
   3 C :   -0.416740
   4 O :    0.128286
   5 C :   -0.075748
   6 C :   -0.106259
   7 C :    0.120689
   8 N :    0.401206
   9 C :   -0.457427
  10 S :   -0.038811
  11 N :    0.398632
  12 C :   -0.041306
  13 C :   -0.041086
  14 C :    0.022195
  15 C :    0.043527
  16 C :   -0.002163
  17 C :   -0.193756
  18 O :    0.395357
  19 C :    0.028542
  20 H :   -0.017959
  21 H :   -0.026159
  22 H :   -0.036014
  23 H :   -0.019346
  24 H :   -0.040180
  25 H :   -0.010372
  26 H :   -0.008538
  27 H :   -0.017838
  28 H :   -0.058294
  29 H :   -0.063395
  30 H :   -0.001427
  31 H :   -0.021981
  32 H :   -0.018690
  33 H :   -0.035137
  34 H :   -0.153667
  35 H :   -0.026044

  Mayer bond orders larger than 0.100000
B(  0-C ,  1-C ) :   0.9559 B(  0-C , 20-H ) :   0.9693 B(  0-C , 21-H ) :   0.9766
B(  0-C , 22-H ) :   0.9719 B(  1-C ,  2-O ) :   0.9122 B(  1-C , 23-H ) :   0.9853
B(  1-C , 24-H ) :   0.9754 B(  2-O ,  3-C ) :   1.1508 B(  3-C ,  4-O ) :   2.0814
B(  3-C ,  5-C ) :   0.9198 B(  5-C ,  6-C ) :   1.7040 B(  5-C , 12-C ) :   0.9479
B(  6-C ,  7-C ) :   0.9427 B(  6-C ,  8-N ) :   1.1028 B(  7-C , 25-H ) :   0.9825
B(  7-C , 26-H ) :   0.9698 B(  7-C , 27-H ) :   0.9670 B(  8-N ,  9-C ) :   1.1988
B(  8-N , 28-H ) :   0.9534 B(  9-C , 10-S ) :   1.6065 B(  9-C , 11-N ) :   1.2871
B( 11-N , 12-C ) :   0.9851 B( 11-N , 29-H ) :   0.9469 B( 12-C , 13-C ) :   0.9544
B( 12-C , 30-H ) :   0.9948 B( 13-C , 14-C ) :   1.3881 B( 13-C , 19-C ) :   1.3352
B( 14-C , 15-C ) :   1.4039 B( 14-C , 31-H ) :   0.9595 B( 15-C , 16-C ) :   1.3561
B( 15-C , 32-H ) :   0.9702 B( 16-C , 17-C ) :   1.3323 B( 16-C , 33-H ) :   0.9851
B( 17-C , 18-O ) :   1.1083 B( 17-C , 19-C ) :   1.3678 B( 18-O , 34-H ) :   0.9797
B( 19-C , 35-H ) :   0.9564

MP2 TOTAL ENERGY:    -1274.323792932 Eh
FINAL SINGLE POINT ENERGY     -1274.323792931717

DIPOLE MOMENT
-------------
                                X             Y             Z
Electronic contribution:      9.04027       6.24603       6.26914
Nuclear contribution   :    -10.52814      -7.30908      -7.08932
                        -----------------------------------------
Total Dipole Moment    :     -1.48787      -1.06304      -0.82018
                        -----------------------------------------
Magnitude (a.u.)       :      2.00412
Magnitude (Debye)      :      5.09407

Rotational constants in cm-1:     0.012065     0.009527     0.006824
Rotational constants in MHz :   361.693412   285.610686   204.582122

                             ****ORCA TERMINATED NORMALLY****
TOTAL RUN TIME: 0 days 1 hours 48 minutes 14 seconds 697 msec
