                         Program Version 5.0.0 -  RELEASE  -
|  1> ! ri-mp2 cc-pvtz cc-pvtz/c TightSCF NoKeepInts
|  2>
|  3> %scf
|  4>   MaxCore 4096
|  5> end
|  6> *xyz  0  1
|  7>     C       15.1500293   15.2826768   17.0226424
|  8>     C       16.2356894   14.2238764   16.7173175
|  9>     O       17.5632248   14.7626712   16.4860143
| 10>     C       17.7668314   16.0571397   16.1064673
| 11>     O       17.4485616   16.4020894   14.9826565
| 12>     C       17.8372334   17.0061694   17.2734521
| 13>     C       17.4308445   18.2988340   17.1922453
| 14>     C       16.7230238   18.9699402   16.0348720
| 15>     N       17.7074715   19.1833557   18.2392561
| 16>     C       18.5771981   18.9209526   19.2648944
| 17>     S       19.0096519   20.0774193   20.3650268
| 18>     N       19.0760217   17.6439739   19.3291660
| 19>     C       18.5742570   16.5084813   18.5318669
| 20>     C       17.7508882   15.5858897   19.4284455
| 21>     C       18.0900216   14.2244012   19.5465349
| 22>     C       17.3493626   13.3705029   20.3809151
| 23>     C       16.2649886   13.8827730   21.1128449
| 24>     C       15.9340503   15.2407333   21.0126247
| 25>     O       14.8886422   15.7393669   21.7188244
| 26>     C       16.6740484   16.0882012   20.1824284
| 27>     H       15.3945778   15.8860741   17.8997171
| 28>     H       14.1926166   14.7866332   17.2224787
| 29>     H       14.9997694   15.9514431   16.1661017
| 30>     H       16.2781701   13.4977629   17.5389766
| 31>     H       15.9255772   13.6756072   15.8181603
| 32>     H       17.3986054   19.0646989   15.1749552
| 33>     H       16.3534744   19.9717642   16.2828673
| 34>     H       15.8615216   18.3744825   15.7082625
| 35>     H       17.3628165   20.1291672   18.1953535
| 36>     H       19.6953992   17.4720646   20.1109143
| 37>     H       19.4513199   15.9419692   18.1884869
| 38>     H       18.9259255   13.8230115   18.9791859
| 39>     H       17.6176353   12.3181846   20.4594141
| 40>     H       15.6895612   13.2273107   21.7584691
| 41>     H       14.5442189   15.0250770   22.2758584
| 42>     H       16.4037707   17.1373010   20.1263029
| 43> *
| 44>
| 45>                          ****END OF INPUT****

CARTESIAN COORDINATES (ANGSTROEM)
---------------------------------
  C     15.150029   15.282677   17.022642
  C     16.235689   14.223876   16.717318
  O     17.563225   14.762671   16.486014
  C     17.766831   16.057140   16.106467
  O     17.448562   16.402089   14.982656
  C     17.837233   17.006169   17.273452
  C     17.430844   18.298834   17.192245
  C     16.723024   18.969940   16.034872
  N     17.707471   19.183356   18.239256
  C     18.577198   18.920953   19.264894
  S     19.009652   20.077419   20.365027
  N     19.076022   17.643974   19.329166
  C     18.574257   16.508481   18.531867
  C     17.750888   15.585890   19.428445
  C     18.090022   14.224401   19.546535
  C     17.349363   13.370503   20.380915
  C     16.264989   13.882773   21.112845
  C     15.934050   15.240733   21.012625
  O     14.888642   15.739367   21.718824
  C     16.674048   16.088201   20.182428
  H     15.394578   15.886074   17.899717
  H     14.192617   14.786633   17.222479
  H     14.999769   15.951443   16.166102
  H     16.278170   13.497763   17.538977
  H     15.925577   13.675607   15.818160
  H     17.398605   19.064699   15.174955
  H     16.353474   19.971764   16.282867
  H     15.861522   18.374482   15.708262
  H     17.362817   20.129167   18.195353
  H     19.695399   17.472065   20.110914
  H     19.451320   15.941969   18.188487
  H     18.925926   13.823011   18.979186
  H     17.617635   12.318185   20.459414
  H     15.689561   13.227311   21.758469
  H     14.544219   15.025077   22.275858
  H     16.403771   17.137301   20.126303

 Total Charge           Charge          ....    0
 Multiplicity           Mult            ....    1
 Number of Electrons    NEL             ....  154
 Basis Dimension        Dim             ....  828

ORBITAL ENERGIES
----------------

  NO   OCC          E(Eh)            E(eV)
   0   2.0000     -91.891323     -2500.4900
   1   2.0000     -20.600151      -560.5586
   2   2.0000     -20.576789      -559.9229
   3   2.0000     -20.552546      -559.2632
   4   2.0000     -15.630705      -425.3331
   5   2.0000     -15.610166      -424.7742
   6   2.0000     -11.394311      -310.0550
   7   2.0000     -11.385857      -309.8249
   8   2.0000     -11.335937      -308.4665
   9   2.0000     -11.317599      -307.9675
  10   2.0000     -11.313845      -307.8654
  11   2.0000     -11.300763      -307.5094
  12   2.0000     -11.263559      -306.4970
  13   2.0000     -11.260241      -306.4067
  14   2.0000     -11.258626      -306.3628
  15   2.0000     -11.254373      -306.2471
  16   2.0000     -11.247287      -306.0542
  17   2.0000     -11.242443      -305.9224
  18   2.0000     -11.241401      -305.8941
  19   2.0000     -11.226980      -305.5017
  20   2.0000      -8.896350      -242.0820
  21   2.0000      -6.577916      -178.9942
  22   2.0000      -6.575921      -178.9399
  23   2.0000      -6.575324      -178.9237
  24   2.0000      -1.445235       -39.3268
  25   2.0000      -1.419926       -38.6382
  26   2.0000      -1.350177       -36.7402
  27   2.0000      -1.342133       -36.5213
  28   2.0000      -1.240665       -33.7602
  29   2.0000      -1.160568       -31.5807
  30   2.0000      -1.121100       -30.5067
  31   2.0000      -1.045510       -28.4498
  32   2.0000      -1.031525       -28.0692
  33   2.0000      -1.019259       -27.7354
  34   2.0000      -1.000350       -27.2209
  35   2.0000      -0.987253       -26.8645
  36   2.0000      -0.925530       -25.1850
  37   2.0000      -0.897020       -24.4092
  38   2.0000      -0.848944       -23.1009
  39   2.0000      -0.843099       -22.9419
  40   2.0000      -0.838144       -22.8070
  41   2.0000      -0.819464       -22.2988
  42   2.0000      -0.746024       -20.3003
  43   2.0000      -0.734932       -19.9985
  44   2.0000      -0.722317       -19.6553
  45   2.0000      -0.699105       -19.0236
  46   2.0000      -0.691013       -18.8034
  47   2.0000      -0.673159       -18.3176
  48   2.0000      -0.671424       -18.2704
  49   2.0000      -0.661846       -18.0097
  50   2.0000      -0.653251       -17.7759
  51   2.0000      -0.645772       -17.5723
  52   2.0000      -0.638387       -17.3714
  53   2.0000      -0.625546       -17.0220
  54   2.0000      -0.610209       -16.6046
  55   2.0000      -0.602843       -16.4042
  56   2.0000      -0.601298       -16.3621
  57   2.0000      -0.580360       -15.7924
  58   2.0000      -0.573309       -15.6005
  59   2.0000      -0.565427       -15.3861
  60   2.0000      -0.549129       -14.9426
  61   2.0000      -0.544703       -14.8221
  62   2.0000      -0.539898       -14.6914
  63   2.0000      -0.530967       -14.4484
  64   2.0000      -0.527406       -14.3514
  65   2.0000      -0.515970       -14.0402
  66   2.0000      -0.504215       -13.7204
  67   2.0000      -0.495891       -13.4939
  68   2.0000      -0.480409       -13.0726
  69   2.0000      -0.466421       -12.6920
  70   2.0000      -0.453144       -12.3307
  71   2.0000      -0.444406       -12.0929
  72   2.0000      -0.357643        -9.7320
  73   2.0000      -0.350572        -9.5396
  74   2.0000      -0.330518        -8.9938
  75   2.0000      -0.325507        -8.8575
  76   2.0000      -0.318531        -8.6677
  77   0.0000       0.067266         1.8304
  78   0.0000       0.102052         2.7770
  79   0.0000       0.119331         3.2472
  80   0.0000       0.128279         3.4906
  81   0.0000       0.132610         3.6085

MULLIKEN ATOMIC CHARGES
-----------------------
   0 C :   -0.346335
   1 C :    0.042134
   2 O :   -0.393592
   3 C :    0.486690
   4 O :   -0.396244
   5 C :   -0.254278
   6 C :    0.159603
   7 C :   -0.275227
   8 N :   -0.121911
   9 C :    0.192905
  10 S :   -0.432724
  11 N :   -0.194200
  12 C :    0.050323
  13 C :    0.068818
  14 C :   -0.203691
  15 C :   -0.134684
  16 C :   -0.276192
  17 C :    0.319243
  18 O :   -0.356578
  19 C :   -0.284563
  20 H :    0.114127
  21 H :    0.118083
  22 H :    0.112617
  23 H :    0.115468
  24 H :    0.121073
  25 H :    0.139148
  26 H :    0.095090
  27 H :    0.125859
  28 H :    0.197972
  29 H :    0.191603
  30 H :    0.149094
  31 H :    0.154343
  32 H :    0.166421
  33 H :    0.133450
  34 H :    0.241001
  35 H :    0.175153
Sum of atomic charges:   -0.0000000

LOEWDIN ATOMIC CHARGES
----------------------
   0 C :    0.106564
   1 C :   -0.006676
   2 O :    0.274975
   3 C :   -0.423770
   4 O :    0.128928
   5 C :   -0.096251
   6 C :   -0.062918
   7 C :    0.130286
   8 N :    0.406587
   9 C :   -0.459380
  10 S :   -0.031705
  11 N :    0.396381
  12 C :   -0.051824
  13 C :   -0.039442
  14 C :    0.018983
  15 C :    0.039090
  16 C :   -0.002270
  17 C :   -0.191561
  18 O :    0.396348
  19 C :    0.032627
  20 H :   -0.036456
  21 H :   -0.021486
  22 H :   -0.029439
  23 H :   -0.026219
  24 H :   -0.027464
  25 H :   -0.003094
  26 H :   -0.022777
  27 H :   -0.008799
  28 H :   -0.057877
  29 H :   -0.064748
  30 H :   -0.006617
  31 H :   -0.027775
  32 H :   -0.020418
  33 H :   -0.034711
  34 H :   -0.153166
  35 H :   -0.023927

  Mayer bond orders larger than 0.100000
B(  0-C ,  1-C ) :   0.9594 B(  0-C , 20-H ) :   0.9682 B(  0-C , 21-H ) :   0.9768
B(  0-C , 22-H ) :   0.9729 B(  1-C ,  2-O ) :   0.8778 B(  1-C , 23-H ) :   0.9739
B(  1-C , 24-H ) :   0.9863 B(  2-O ,  3-C ) :   1.1052 B(  3-C ,  4-O ) :   2.0367
B(  3-C ,  5-C ) :   1.0253 B(  5-C ,  6-C ) :   1.6624 B(  5-C , 12-C ) :   0.9642
B(  6-C ,  7-C ) :   0.9659 B(  6-C ,  8-N ) :   1.1410 B(  7-C , 25-H ) :   0.9568
B(  7-C , 26-H ) :   0.9876 B(  7-C , 27-H ) :   0.9675 B(  8-N ,  9-C ) :   1.1802
B(  8-N , 28-H ) :   0.9488 B(  9-C , 10-S ) :   1.6208 B(  9-C , 11-N ) :   1.2949
B( 11-N , 12-C ) :   0.9911 B( 11-N , 29-H ) :   0.9531 B( 12-C , 13-C ) :   0.9409
B( 12-C , 30-H ) :   1.0059 B( 13-C , 14-C ) :   1.3530 B( 13-C , 19-C ) :   1.3575
B( 14-C , 15-C ) :   1.3896 B( 14-C , 31-H ) :   0.9713 B( 15-C , 16-C ) :   1.3604
B( 15-C , 32-H ) :   0.9697 B( 16-C , 17-C ) :   1.3299 B( 16-C , 33-H ) :   0.9838
B( 17-C , 18-O ) :   1.1138 B( 17-C , 19-C ) :   1.3720 B( 18-O , 34-H ) :   0.9796
B( 19-C , 35-H ) :   0.9579

MP2 TOTAL ENERGY:    -1274.318202606 Eh
FINAL SINGLE POINT ENERGY     -1274.318202606018

DIPOLE MOMENT
-------------
                                X             Y             Z
Electronic contribution:     10.01660       7.37796       5.88520
Nuclear contribution   :    -11.16443      -8.94732      -5.79502
                        -----------------------------------------
Total Dipole Moment    :     -1.14783      -1.56936       0.09018
                        -----------------------------------------
Magnitude (a.u.)       :      1.94642
Magnitude (Debye)      :      4.94741

Rotational constants in cm-1:     0.011888     0.009929     0.006669
Rotational constants in MHz :   356.386363   297.663323   199.925156

                             ****ORCA TERMINATED NORMALLY****
TOTAL RUN TIME: 0 days 2 hours 16 minutes 50 seconds 432 msec
