                         Program Version 5.0.0 -  RELEASE  -
|  1> ! ri-mp2 cc-pvtz cc-pvtz/c TightSCF NoKeepInts
|  2>
|  3> %scf
|  4>   MaxCore 4096
|  5> end
|  6> *xyz  0  1
|  7>     C       14.4267403   15.7664781   16.7620337
|  8>     C       15.7256305   14.9446324   16.8100403
|  9>     O       16.6783338   15.5061336   15.8857073
| 10>     C       17.9290772   15.8079539   16.3441456
| 11>     O       18.7761367   14.9334345   16.3741948
| 12>     C       17.9276955   16.9099841   17.3578173
| 13>     C       17.2964503   18.0908880   17.1485421
| 14>     C       16.5549252   18.5321077   15.9029479
| 15>     N       17.3933913   19.1085977   18.1009476
| 16>     C       18.2266305   19.0807038   19.1888535
| 17>     S       18.3733901   20.3763881   20.2056867
| 18>     N       18.9344314   17.9215408   19.3909760
| 19>     C       18.7459074   16.6704623   18.6302949
| 20>     C       18.0974069   15.5979428   19.5009844
| 21>     C       18.6133256   14.2891379   19.5155547
| 22>     C       18.0073073   13.2881766   20.2928497
| 23>     C       16.8729954   13.5965722   21.0626388
| 24>     C       16.3526598   14.8974946   21.0483096
| 25>     O       15.2494188   15.1957470   21.7792386
| 26>     C       16.9571975   15.8916356   20.2725963
| 27>     H       14.5599949   16.7338639   17.2584303
| 28>     H       13.6221363   15.2336410   17.2834745
| 29>     H       14.1093589   15.9369956   15.7256781
| 30>     H       16.1119407   14.9184517   17.8358391
| 31>     H       15.5130036   13.9095747   16.5122980
| 32>     H       16.8021969   17.9140600   15.0316419
| 33>     H       16.8131638   19.5637375   15.6326563
| 34>     H       15.4698975   18.4871934   16.0475893
| 35>     H       16.8906499   19.9712282   17.9630360
| 36>     H       19.5255091   17.9210246   20.2126068
| 37>     H       19.7404895   16.3111045   18.3277180
| 38>     H       19.4798091   14.0428246   18.9054766
| 39>     H       18.4148221   12.2785439   20.2909704
| 40>     H       16.4007552   12.8254655   21.6624428
| 41>     H       15.0197941   14.4075681   22.2945026
| 42>     H       16.5344271   16.8907111   20.2752795
| 43> *
| 44>
| 45>                          ****END OF INPUT****

CARTESIAN COORDINATES (ANGSTROEM)
---------------------------------
  C     14.426740   15.766478   16.762034
  C     15.725630   14.944632   16.810040
  O     16.678334   15.506134   15.885707
  C     17.929077   15.807954   16.344146
  O     18.776137   14.933435   16.374195
  C     17.927695   16.909984   17.357817
  C     17.296450   18.090888   17.148542
  C     16.554925   18.532108   15.902948
  N     17.393391   19.108598   18.100948
  C     18.226630   19.080704   19.188854
  S     18.373390   20.376388   20.205687
  N     18.934431   17.921541   19.390976
  C     18.745907   16.670462   18.630295
  C     18.097407   15.597943   19.500984
  C     18.613326   14.289138   19.515555
  C     18.007307   13.288177   20.292850
  C     16.872995   13.596572   21.062639
  C     16.352660   14.897495   21.048310
  O     15.249419   15.195747   21.779239
  C     16.957197   15.891636   20.272596
  H     14.559995   16.733864   17.258430
  H     13.622136   15.233641   17.283474
  H     14.109359   15.936996   15.725678
  H     16.111941   14.918452   17.835839
  H     15.513004   13.909575   16.512298
  H     16.802197   17.914060   15.031642
  H     16.813164   19.563737   15.632656
  H     15.469897   18.487193   16.047589
  H     16.890650   19.971228   17.963036
  H     19.525509   17.921025   20.212607
  H     19.740489   16.311104   18.327718
  H     19.479809   14.042825   18.905477
  H     18.414822   12.278544   20.290970
  H     16.400755   12.825465   21.662443
  H     15.019794   14.407568   22.294503
  H     16.534427   16.890711   20.275279

 Total Charge           Charge          ....    0
 Multiplicity           Mult            ....    1
 Number of Electrons    NEL             ....  154
 Basis Dimension        Dim             ....  828

ORBITAL ENERGIES
----------------

  NO   OCC          E(Eh)            E(eV)
   0   2.0000     -91.890666     -2500.4721
   1   2.0000     -20.599258      -560.5343
   2   2.0000     -20.579087      -559.9854
   3   2.0000     -20.558170      -559.4162
   4   2.0000     -15.629173      -425.2914
   5   2.0000     -15.610674      -424.7880
   6   2.0000     -11.394715      -310.0660
   7   2.0000     -11.386627      -309.8459
   8   2.0000     -11.333882      -308.4106
   9   2.0000     -11.316293      -307.9320
  10   2.0000     -11.312553      -307.8302
  11   2.0000     -11.298814      -307.4564
  12   2.0000     -11.263269      -306.4891
  13   2.0000     -11.262596      -306.4708
  14   2.0000     -11.261981      -306.4541
  15   2.0000     -11.256317      -306.3000
  16   2.0000     -11.245867      -306.0156
  17   2.0000     -11.241505      -305.8969
  18   2.0000     -11.238410      -305.8127
  19   2.0000     -11.232546      -305.6531
  20   2.0000      -8.895747      -242.0656
  21   2.0000      -6.577325      -178.9781
  22   2.0000      -6.575312      -178.9233
  23   2.0000      -6.574727      -178.9074
  24   2.0000      -1.449705       -39.4485
  25   2.0000      -1.419097       -38.6156
  26   2.0000      -1.355976       -36.8980
  27   2.0000      -1.341487       -36.5037
  28   2.0000      -1.240147       -33.7461
  29   2.0000      -1.160218       -31.5711
  30   2.0000      -1.123760       -30.5791
  31   2.0000      -1.047394       -28.5010
  32   2.0000      -1.035315       -28.1724
  33   2.0000      -1.017857       -27.6973
  34   2.0000      -1.002711       -27.2852
  35   2.0000      -0.988562       -26.9001
  36   2.0000      -0.926608       -25.2143
  37   2.0000      -0.883062       -24.0293
  38   2.0000      -0.851051       -23.1583
  39   2.0000      -0.842009       -22.9122
  40   2.0000      -0.836190       -22.7539
  41   2.0000      -0.831771       -22.6336
  42   2.0000      -0.756527       -20.5862
  43   2.0000      -0.735635       -20.0176
  44   2.0000      -0.730906       -19.8890
  45   2.0000      -0.697505       -18.9801
  46   2.0000      -0.687985       -18.7210
  47   2.0000      -0.681124       -18.5343
  48   2.0000      -0.675460       -18.3802
  49   2.0000      -0.659755       -17.9528
  50   2.0000      -0.654259       -17.8033
  51   2.0000      -0.643286       -17.5047
  52   2.0000      -0.634892       -17.2763
  53   2.0000      -0.613929       -16.7058
  54   2.0000      -0.608157       -16.5488
  55   2.0000      -0.606578       -16.5058
  56   2.0000      -0.602777       -16.4024
  57   2.0000      -0.581371       -15.8199
  58   2.0000      -0.575432       -15.6583
  59   2.0000      -0.572669       -15.5831
  60   2.0000      -0.563330       -15.3290
  61   2.0000      -0.553687       -15.0666
  62   2.0000      -0.543539       -14.7904
  63   2.0000      -0.525456       -14.2984
  64   2.0000      -0.518835       -14.1182
  65   2.0000      -0.514803       -14.0085
  66   2.0000      -0.502671       -13.6784
  67   2.0000      -0.497677       -13.5425
  68   2.0000      -0.482821       -13.1382
  69   2.0000      -0.468104       -12.7378
  70   2.0000      -0.456369       -12.4184
  71   2.0000      -0.450367       -12.2551
  72   2.0000      -0.358052        -9.7431
  73   2.0000      -0.351246        -9.5579
  74   2.0000      -0.330086        -8.9821
  75   2.0000      -0.323940        -8.8148
  76   2.0000      -0.318894        -8.6775
  77   0.0000       0.072583         1.9751
  78   0.0000       0.100906         2.7458
  79   0.0000       0.117636         3.2010
  80   0.0000       0.129164         3.5147
  81   0.0000       0.131281         3.5723

MULLIKEN ATOMIC CHARGES
-----------------------
   0 C :   -0.296755
   1 C :    0.030108
   2 O :   -0.372214
   3 C :    0.457764
   4 O :   -0.378019
   5 C :   -0.197502
   6 C :    0.115141
   7 C :   -0.308075
   8 N :   -0.126833
   9 C :    0.193406
  10 S :   -0.437532
  11 N :   -0.204390
  12 C :    0.060267
  13 C :    0.006809
  14 C :   -0.167863
  15 C :   -0.138849
  16 C :   -0.273712
  17 C :    0.308495
  18 O :   -0.357807
  19 C :   -0.256948
  20 H :    0.087765
  21 H :    0.113405
  22 H :    0.106296
  23 H :    0.103972
  24 H :    0.120395
  25 H :    0.131540
  26 H :    0.126592
  27 H :    0.122739
  28 H :    0.198138
  29 H :    0.195331
  30 H :    0.161373
  31 H :    0.166437
  32 H :    0.163218
  33 H :    0.133155
  34 H :    0.241406
  35 H :    0.172746
Sum of atomic charges:    0.0000000

LOEWDIN ATOMIC CHARGES
----------------------
   0 C :    0.106095
   1 C :   -0.010767
   2 O :    0.279520
   3 C :   -0.420482
   4 O :    0.138157
   5 C :   -0.090835
   6 C :   -0.082536
   7 C :    0.127116
   8 N :    0.403879
   9 C :   -0.458298
  10 S :   -0.035214
  11 N :    0.396822
  12 C :   -0.044346
  13 C :   -0.044844
  14 C :    0.020610
  15 C :    0.043810
  16 C :   -0.000842
  17 C :   -0.194883
  18 O :    0.395022
  19 C :    0.026656
  20 H :   -0.034498
  21 H :   -0.022222
  22 H :   -0.025780
  23 H :   -0.030037
  24 H :   -0.025426
  25 H :   -0.008611
  26 H :   -0.014375
  27 H :   -0.016190
  28 H :   -0.056963
  29 H :   -0.063863
  30 H :   -0.003053
  31 H :   -0.022715
  32 H :   -0.018886
  33 H :   -0.034634
  34 H :   -0.153216
  35 H :   -0.024171

  Mayer bond orders larger than 0.100000
B(  0-C ,  1-C ) :   0.9712 B(  0-C , 20-H ) :   0.9774 B(  0-C , 21-H ) :   0.9780
B(  0-C , 22-H ) :   0.9748 B(  1-C ,  2-O ) :   0.8891 B(  1-C , 23-H ) :   0.9622
B(  1-C , 24-H ) :   0.9871 B(  2-O ,  3-C ) :   1.1034 B(  3-C ,  4-O ) :   2.0685
B(  3-C ,  5-C ) :   0.9737 B(  5-C ,  6-C ) :   1.6689 B(  5-C , 12-C ) :   0.9575
B(  6-C ,  7-C ) :   0.9579 B(  6-C ,  8-N ) :   1.1225 B(  7-C , 25-H ) :   0.9723
B(  7-C , 26-H ) :   0.9787 B(  7-C , 27-H ) :   0.9623 B(  8-N ,  9-C ) :   1.1880
B(  8-N , 28-H ) :   0.9516 B(  9-C , 10-S ) :   1.6149 B(  9-C , 11-N ) :   1.2935
B( 11-N , 12-C ) :   0.9933 B( 11-N , 29-H ) :   0.9513 B( 12-C , 13-C ) :   0.9488
B( 12-C , 30-H ) :   0.9972 B( 13-C , 14-C ) :   1.3904 B( 13-C , 19-C ) :   1.3507
B( 14-C , 15-C ) :   1.3955 B( 14-C , 31-H ) :   0.9597 B( 15-C , 16-C ) :   1.3647
B( 15-C , 32-H ) :   0.9703 B( 16-C , 17-C ) :   1.3291 B( 16-C , 33-H ) :   0.9840
B( 17-C , 18-O ) :   1.1128 B( 17-C , 19-C ) :   1.3730 B( 18-O , 34-H ) :   0.9793
B( 19-C , 35-H ) :   0.9590

MP2 TOTAL ENERGY:    -1274.319847577 Eh
FINAL SINGLE POINT ENERGY     -1274.319847576920

DIPOLE MOMENT
-------------
                                X             Y             Z
Electronic contribution:     10.98177       6.27577       6.38545
Nuclear contribution   :    -12.23353      -7.44295      -6.75221
                        -----------------------------------------
Total Dipole Moment    :     -1.25177      -1.16718      -0.36676
                        -----------------------------------------
Magnitude (a.u.)       :      1.75036
Magnitude (Debye)      :      4.44905

Rotational constants in cm-1:     0.011622     0.009495     0.007014
Rotational constants in MHz :   348.416823   284.647096   210.266835

                             ****ORCA TERMINATED NORMALLY****
TOTAL RUN TIME: 0 days 2 hours 10 minutes 53 seconds 91 msec
