                         Program Version 5.0.0 -  RELEASE  -
|  1> ! ri-mp2 cc-pvtz cc-pvtz/c TightSCF NoKeepInts
|  2>
|  3> %scf
|  4>   MaxCore 4096
|  5> end
|  6> *xyz  0  1
|  7>     C       14.6968997   15.2069255   16.9981386
|  8>     C       15.7876839   14.7250748   16.0252570
|  9>     O       16.6674155   15.8337405   15.7649542
| 10>     C       17.8643538   15.8788316   16.4175667
| 11>     O       18.5580841   14.8820337   16.5317814
| 12>     C       17.9360529   17.0014116   17.4090485
| 13>     C       17.3426537   18.2090695   17.2325750
| 14>     C       16.5452480   18.6787199   16.0336431
| 15>     N       17.5095613   19.2118227   18.1927996
| 16>     C       18.3644051   19.1363135   19.2611694
| 17>     S       18.5974722   20.4160400   20.2825542
| 18>     N       19.0166024   17.9421106   19.4404622
| 19>     C       18.7451206   16.7093070   18.6765077
| 20>     C       18.0276395   15.6821755   19.5490983
| 21>     C       18.5221639   14.3693020   19.6569408
| 22>     C       17.8569628   13.4149480   20.4446343
| 23>     C       16.6849294   13.7748017   21.1311304
| 24>     C       16.1869253   15.0802489   21.0242538
| 25>     O       15.0492491   15.4283386   21.6764898
| 26>     C       16.8516844   16.0280791   20.2401045
| 27>     H       15.1379313   15.5154732   17.9537760
| 28>     H       13.9806177   14.4012642   17.1998252
| 29>     H       14.1470504   16.0573766   16.5771551
| 30>     H       16.3229309   13.8617875   16.4447583
| 31>     H       15.3149870   14.4081420   15.0867910
| 32>     H       15.5327505   18.2573488   16.0530564
| 33>     H       17.0219294   18.3631164   15.0971517
| 34>     H       16.4526916   19.7708332   15.9924776
| 35>     H       17.0403259   20.0959948   18.0776991
| 36>     H       19.6190604   17.9033867   20.2526060
| 37>     H       19.7126727   16.2865969   18.3691236
| 38>     H       19.4176961   14.0828987   19.1104664
| 39>     H       18.2474972   12.4012309   20.5142400
| 40>     H       16.1664050   13.0399497   21.7378974
| 41>     H       14.7728476   14.6646484   22.2051012
| 42>     H       16.4484986   17.0326573   20.1727652
| 43> *
| 44>
| 45>                          ****END OF INPUT****

CARTESIAN COORDINATES (ANGSTROEM)
---------------------------------
  C     14.696900   15.206925   16.998139
  C     15.787684   14.725075   16.025257
  O     16.667416   15.833740   15.764954
  C     17.864354   15.878832   16.417567
  O     18.558084   14.882034   16.531781
  C     17.936053   17.001412   17.409049
  C     17.342654   18.209069   17.232575
  C     16.545248   18.678720   16.033643
  N     17.509561   19.211823   18.192800
  C     18.364405   19.136313   19.261169
  S     18.597472   20.416040   20.282554
  N     19.016602   17.942111   19.440462
  C     18.745121   16.709307   18.676508
  C     18.027639   15.682175   19.549098
  C     18.522164   14.369302   19.656941
  C     17.856963   13.414948   20.444634
  C     16.684929   13.774802   21.131130
  C     16.186925   15.080249   21.024254
  O     15.049249   15.428339   21.676490
  C     16.851684   16.028079   20.240104
  H     15.137931   15.515473   17.953776
  H     13.980618   14.401264   17.199825
  H     14.147050   16.057377   16.577155
  H     16.322931   13.861788   16.444758
  H     15.314987   14.408142   15.086791
  H     15.532750   18.257349   16.053056
  H     17.021929   18.363116   15.097152
  H     16.452692   19.770833   15.992478
  H     17.040326   20.095995   18.077699
  H     19.619060   17.903387   20.252606
  H     19.712673   16.286597   18.369124
  H     19.417696   14.082899   19.110466
  H     18.247497   12.401231   20.514240
  H     16.166405   13.039950   21.737897
  H     14.772848   14.664648   22.205101
  H     16.448499   17.032657   20.172765

 Total Charge           Charge          ....    0
 Multiplicity           Mult            ....    1
 Number of Electrons    NEL             ....  154
 Basis Dimension        Dim             ....  828

ORBITAL ENERGIES
----------------

  NO   OCC          E(Eh)            E(eV)
   0   2.0000     -91.889161     -2500.4312
   1   2.0000     -20.595643      -560.4359
   2   2.0000     -20.589123      -560.2585
   3   2.0000     -20.552787      -559.2698
   4   2.0000     -15.628870      -425.2832
   5   2.0000     -15.608376      -424.7255
   6   2.0000     -11.395449      -310.0859
   7   2.0000     -11.384422      -309.7859
   8   2.0000     -11.334300      -308.4220
   9   2.0000     -11.311728      -307.8078
  10   2.0000     -11.308575      -307.7220
  11   2.0000     -11.298667      -307.4524
  12   2.0000     -11.260334      -306.4093
  13   2.0000     -11.259869      -306.3966
  14   2.0000     -11.257598      -306.3348
  15   2.0000     -11.251972      -306.1817
  16   2.0000     -11.241515      -305.8972
  17   2.0000     -11.237380      -305.7847
  18   2.0000     -11.234474      -305.7056
  19   2.0000     -11.227736      -305.5222
  20   2.0000      -8.894223      -242.0241
  21   2.0000      -6.575800      -178.9366
  22   2.0000      -6.573792      -178.8820
  23   2.0000      -6.573206      -178.8660
  24   2.0000      -1.452802       -39.5328
  25   2.0000      -1.415429       -38.5158
  26   2.0000      -1.356943       -36.9243
  27   2.0000      -1.339998       -36.4632
  28   2.0000      -1.238074       -33.6897
  29   2.0000      -1.155986       -31.4560
  30   2.0000      -1.121299       -30.5121
  31   2.0000      -1.044349       -28.4182
  32   2.0000      -1.034214       -28.1424
  33   2.0000      -1.013582       -27.5810
  34   2.0000      -0.999518       -27.1983
  35   2.0000      -0.985529       -26.8176
  36   2.0000      -0.923515       -25.1301
  37   2.0000      -0.889241       -24.1975
  38   2.0000      -0.848030       -23.0761
  39   2.0000      -0.838138       -22.8069
  40   2.0000      -0.832053       -22.6413
  41   2.0000      -0.818543       -22.2737
  42   2.0000      -0.757184       -20.6040
  43   2.0000      -0.736322       -20.0363
  44   2.0000      -0.727885       -19.8067
  45   2.0000      -0.694200       -18.8901
  46   2.0000      -0.685916       -18.6647
  47   2.0000      -0.677088       -18.4245
  48   2.0000      -0.676820       -18.4172
  49   2.0000      -0.660871       -17.9832
  50   2.0000      -0.652676       -17.7602
  51   2.0000      -0.645508       -17.5652
  52   2.0000      -0.636591       -17.3225
  53   2.0000      -0.605579       -16.4786
  54   2.0000      -0.602714       -16.4007
  55   2.0000      -0.599466       -16.3123
  56   2.0000      -0.590385       -16.0652
  57   2.0000      -0.584331       -15.9005
  58   2.0000      -0.575731       -15.6664
  59   2.0000      -0.566800       -15.4234
  60   2.0000      -0.561832       -15.2882
  61   2.0000      -0.552744       -15.0409
  62   2.0000      -0.543341       -14.7851
  63   2.0000      -0.521113       -14.1802
  64   2.0000      -0.519462       -14.1353
  65   2.0000      -0.512230       -13.9385
  66   2.0000      -0.500190       -13.6109
  67   2.0000      -0.497268       -13.5313
  68   2.0000      -0.482421       -13.1273
  69   2.0000      -0.463904       -12.6235
  70   2.0000      -0.458891       -12.4871
  71   2.0000      -0.451497       -12.2859
  72   2.0000      -0.354469        -9.6456
  73   2.0000      -0.347528        -9.4567
  74   2.0000      -0.328384        -8.9358
  75   2.0000      -0.319144        -8.6844
  76   2.0000      -0.316048        -8.6001
  77   0.0000       0.071647         1.9496
  78   0.0000       0.106556         2.8995
  79   0.0000       0.119928         3.2634
  80   0.0000       0.132496         3.6054
  81   0.0000       0.138587         3.7711

MULLIKEN ATOMIC CHARGES
-----------------------
   0 C :   -0.296450
   1 C :    0.037364
   2 O :   -0.371077
   3 C :    0.467962
   4 O :   -0.409573
   5 C :   -0.198949
   6 C :    0.143373
   7 C :   -0.283836
   8 N :   -0.123409
   9 C :    0.197695
  10 S :   -0.438342
  11 N :   -0.200355
  12 C :    0.049616
  13 C :    0.066370
  14 C :   -0.172853
  15 C :   -0.134095
  16 C :   -0.277532
  17 C :    0.331454
  18 O :   -0.361899
  19 C :   -0.321508
  20 H :    0.113024
  21 H :    0.105908
  22 H :    0.090042
  23 H :    0.111118
  24 H :    0.104591
  25 H :    0.125403
  26 H :    0.125410
  27 H :    0.105272
  28 H :    0.197332
  29 H :    0.194037
  30 H :    0.156408
  31 H :    0.159775
  32 H :    0.161467
  33 H :    0.130714
  34 H :    0.240571
  35 H :    0.174973
Sum of atomic charges:   -0.0000000

LOEWDIN ATOMIC CHARGES
----------------------
   0 C :    0.103986
   1 C :   -0.014225
   2 O :    0.295204
   3 C :   -0.415302
   4 O :    0.121005
   5 C :   -0.093797
   6 C :   -0.071888
   7 C :    0.126193
   8 N :    0.404723
   9 C :   -0.458400
  10 S :   -0.035586
  11 N :    0.397261
  12 C :   -0.045489
  13 C :   -0.041088
  14 C :    0.021567
  15 C :    0.041388
  16 C :   -0.002288
  17 C :   -0.194115
  18 O :    0.393953
  19 C :    0.028547
  20 H :   -0.027445
  21 H :   -0.024606
  22 H :   -0.032072
  23 H :   -0.025647
  24 H :   -0.026886
  25 H :   -0.011492
  26 H :   -0.007618
  27 H :   -0.019736
  28 H :   -0.058719
  29 H :   -0.064019
  30 H :   -0.004159
  31 H :   -0.024214
  32 H :   -0.020367
  33 H :   -0.035719
  34 H :   -0.154008
  35 H :   -0.024940

  Mayer bond orders larger than 0.100000
B(  0-C ,  1-C ) :   0.9656 B(  0-C , 20-H ) :   0.9705 B(  0-C , 21-H ) :   0.9792
B(  0-C , 22-H ) :   0.9796 B(  1-C ,  2-O ) :   0.8877 B(  1-C , 23-H ) :   0.9716
B(  1-C , 24-H ) :   0.9854 B(  2-O ,  3-C ) :   1.1085 B(  3-C ,  4-O ) :   2.0136
B(  3-C ,  5-C ) :   1.0270 B(  5-C ,  6-C ) :   1.6643 B(  5-C , 12-C ) :   0.9619
B(  6-C ,  7-C ) :   0.9552 B(  6-C ,  8-N ) :   1.1396 B(  7-C , 25-H ) :   0.9635
B(  7-C , 26-H ) :   0.9692 B(  7-C , 27-H ) :   0.9883 B(  8-N ,  9-C ) :   1.1829
B(  8-N , 28-H ) :   0.9495 B(  9-C , 10-S ) :   1.6131 B(  9-C , 11-N ) :   1.2993
B( 11-N , 12-C ) :   0.9916 B( 11-N , 29-H ) :   0.9518 B( 12-C , 13-C ) :   0.9461
B( 12-C , 30-H ) :   0.9987 B( 13-C , 14-C ) :   1.3802 B( 13-C , 19-C ) :   1.3478
B( 14-C , 15-C ) :   1.3950 B( 14-C , 31-H ) :   0.9619 B( 15-C , 16-C ) :   1.3632
B( 15-C , 32-H ) :   0.9707 B( 16-C , 17-C ) :   1.3319 B( 16-C , 33-H ) :   0.9846
B( 17-C , 18-O ) :   1.1061 B( 17-C , 19-C ) :   1.3650 B( 18-O , 34-H ) :   0.9804
B( 19-C , 35-H ) :   0.9585

MP2 TOTAL ENERGY:    -1274.331561791 Eh
FINAL SINGLE POINT ENERGY     -1274.331561791124

DIPOLE MOMENT
-------------
                                X             Y             Z
Electronic contribution:     10.62164       8.08029       6.70882
Nuclear contribution   :    -11.91542      -9.40374      -7.45872
                        -----------------------------------------
Total Dipole Moment    :     -1.29378      -1.32345      -0.74990
                        -----------------------------------------
Magnitude (a.u.)       :      1.99693
Magnitude (Debye)      :      5.07580

Rotational constants in cm-1:     0.011622     0.009454     0.006793
Rotational constants in MHz :   348.417945   283.414153   203.637741

                             ****ORCA TERMINATED NORMALLY****
TOTAL RUN TIME: 0 days 1 hours 46 minutes 13 seconds 157 msec
