                         Program Version 5.0.0 -  RELEASE  -
|  1> ! ri-mp2 cc-pvtz cc-pvtz/c TightSCF NoKeepInts
|  2>
|  3> %scf
|  4>   MaxCore 4096
|  5> end
|  6> *xyz  0  1
|  7>     C       15.2484522   13.8373357   16.5906705
|  8>     C       15.3079987   15.3752200   16.6628467
|  9>     O       16.4332518   15.8558363   15.9019983
| 10>     C       17.6682410   15.7987610   16.4777129
| 11>     O       18.2592264   14.7402897   16.6013052
| 12>     C       17.9446344   16.9679043   17.3732422
| 13>     C       17.5257605   18.2320987   17.1169364
| 14>     C       16.7666239   18.7190407   15.9004912
| 15>     N       17.8588397   19.2658922   17.9972064
| 16>     C       18.7036025   19.1383615   19.0688481
| 17>     S       19.1280490   20.4364243   20.0013801
| 18>     N       19.1765820   17.8766496   19.3310325
| 19>     C       18.7376056   16.6475935   18.6425057
| 20>     C       17.9084850   15.7700547   19.5768088
| 21>     C       18.2316291   14.4120768   19.7527102
| 22>     C       17.4552981   13.5930810   20.5894248
| 23>     C       16.3438622   14.1353248   21.2565672
| 24>     C       16.0159337   15.4863245   21.0812648
| 25>     O       14.9360697   16.0105775   21.7134747
| 26>     C       16.7900763   16.2989418   20.2471740
| 27>     H       16.0839715   13.3847340   17.1393438
| 28>     H       15.2925913   13.4952964   15.5492031
| 29>     H       14.3165374   13.4683452   17.0352999
| 30>     H       14.3856470   15.7812777   16.2282841
| 31>     H       15.3658082   15.7067950   17.7085901
| 32>     H       17.1375379   18.2377688   14.9866245
| 33>     H       16.8657048   19.8013594   15.7520376
| 34>     H       15.6980225   18.4889364   15.9905673
| 35>     H       17.5244711   20.1999668   17.8205696
| 36>     H       19.7756328   17.8064161   20.1437330
| 37>     H       19.6371747   16.0882059   18.3467347
| 38>     H       19.0778762   13.9846163   19.2198019
| 39>     H       17.7130076   12.5424020   20.7111388
| 40>     H       15.7399419   13.5052078   21.9011005
| 41>     H       14.5743104   15.3207097   22.2902281
| 42>     H       16.5185431   17.3421738   20.1271422
| 43> *
| 44>
| 45>                          ****END OF INPUT****

CARTESIAN COORDINATES (ANGSTROEM)
---------------------------------
  C     15.248452   13.837336   16.590671
  C     15.307999   15.375220   16.662847
  O     16.433252   15.855836   15.901998
  C     17.668241   15.798761   16.477713
  O     18.259226   14.740290   16.601305
  C     17.944634   16.967904   17.373242
  C     17.525761   18.232099   17.116936
  C     16.766624   18.719041   15.900491
  N     17.858840   19.265892   17.997206
  C     18.703602   19.138361   19.068848
  S     19.128049   20.436424   20.001380
  N     19.176582   17.876650   19.331032
  C     18.737606   16.647593   18.642506
  C     17.908485   15.770055   19.576809
  C     18.231629   14.412077   19.752710
  C     17.455298   13.593081   20.589425
  C     16.343862   14.135325   21.256567
  C     16.015934   15.486325   21.081265
  O     14.936070   16.010578   21.713475
  C     16.790076   16.298942   20.247174
  H     16.083972   13.384734   17.139344
  H     15.292591   13.495296   15.549203
  H     14.316537   13.468345   17.035300
  H     14.385647   15.781278   16.228284
  H     15.365808   15.706795   17.708590
  H     17.137538   18.237769   14.986624
  H     16.865705   19.801359   15.752038
  H     15.698022   18.488936   15.990567
  H     17.524471   20.199967   17.820570
  H     19.775633   17.806416   20.143733
  H     19.637175   16.088206   18.346735
  H     19.077876   13.984616   19.219802
  H     17.713008   12.542402   20.711139
  H     15.739942   13.505208   21.901100
  H     14.574310   15.320710   22.290228
  H     16.518543   17.342174   20.127142

 Total Charge           Charge          ....    0
 Multiplicity           Mult            ....    1
 Number of Electrons    NEL             ....  154
 Basis Dimension        Dim             ....  828

ORBITAL ENERGIES
----------------

  NO   OCC          E(Eh)            E(eV)
   0   2.0000     -91.890204     -2500.4596
   1   2.0000     -20.597586      -560.4888
   2   2.0000     -20.582413      -560.0759
   3   2.0000     -20.556819      -559.3795
   4   2.0000     -15.629993      -425.3137
   5   2.0000     -15.609616      -424.7593
   6   2.0000     -11.395128      -310.0772
   7   2.0000     -11.385728      -309.8214
   8   2.0000     -11.335486      -308.4543
   9   2.0000     -11.313972      -307.8688
  10   2.0000     -11.309548      -307.7485
  11   2.0000     -11.301734      -307.5358
  12   2.0000     -11.261747      -306.4477
  13   2.0000     -11.259965      -306.3992
  14   2.0000     -11.259510      -306.3869
  15   2.0000     -11.253916      -306.2346
  16   2.0000     -11.243526      -305.9519
  17   2.0000     -11.239565      -305.8441
  18   2.0000     -11.236484      -305.7603
  19   2.0000     -11.219500      -305.2981
  20   2.0000      -8.895273      -242.0527
  21   2.0000      -6.576849      -178.9651
  22   2.0000      -6.574841      -178.9105
  23   2.0000      -6.574254      -178.8945
  24   2.0000      -1.450592       -39.4726
  25   2.0000      -1.417405       -38.5696
  26   2.0000      -1.358297       -36.9611
  27   2.0000      -1.341030       -36.4913
  28   2.0000      -1.239219       -33.7209
  29   2.0000      -1.158103       -31.5136
  30   2.0000      -1.122503       -30.5449
  31   2.0000      -1.045570       -28.4514
  32   2.0000      -1.029875       -28.0243
  33   2.0000      -1.015622       -27.6365
  34   2.0000      -1.000709       -27.2307
  35   2.0000      -0.986131       -26.8340
  36   2.0000      -0.924924       -25.1685
  37   2.0000      -0.883582       -24.0435
  38   2.0000      -0.851280       -23.1645
  39   2.0000      -0.840802       -22.8794
  40   2.0000      -0.834091       -22.6968
  41   2.0000      -0.829090       -22.5607
  42   2.0000      -0.748949       -20.3799
  43   2.0000      -0.731696       -19.9105
  44   2.0000      -0.729835       -19.8598
  45   2.0000      -0.695926       -18.9371
  46   2.0000      -0.687032       -18.6951
  47   2.0000      -0.680885       -18.5278
  48   2.0000      -0.673748       -18.3336
  49   2.0000      -0.666753       -18.1433
  50   2.0000      -0.648314       -17.6415
  51   2.0000      -0.647857       -17.6291
  52   2.0000      -0.638060       -17.3625
  53   2.0000      -0.606709       -16.5094
  54   2.0000      -0.605744       -16.4831
  55   2.0000      -0.601590       -16.3701
  56   2.0000      -0.595447       -16.2029
  57   2.0000      -0.579165       -15.7599
  58   2.0000      -0.574812       -15.6414
  59   2.0000      -0.573700       -15.6112
  60   2.0000      -0.561787       -15.2870
  61   2.0000      -0.552076       -15.0228
  62   2.0000      -0.536075       -14.5873
  63   2.0000      -0.523558       -14.2467
  64   2.0000      -0.517922       -14.0934
  65   2.0000      -0.512900       -13.9567
  66   2.0000      -0.501559       -13.6481
  67   2.0000      -0.495841       -13.4925
  68   2.0000      -0.481582       -13.1045
  69   2.0000      -0.467394       -12.7184
  70   2.0000      -0.455292       -12.3891
  71   2.0000      -0.449861       -12.2413
  72   2.0000      -0.356128        -9.6907
  73   2.0000      -0.349537        -9.5114
  74   2.0000      -0.329481        -8.9656
  75   2.0000      -0.321169        -8.7394
  76   2.0000      -0.317475        -8.6389
  77   0.0000       0.070112         1.9078
  78   0.0000       0.103701         2.8219
  79   0.0000       0.119326         3.2470
  80   0.0000       0.130646         3.5550
  81   0.0000       0.135338         3.6827

MULLIKEN ATOMIC CHARGES
-----------------------
   0 C :   -0.264856
   1 C :    0.020957
   2 O :   -0.377817
   3 C :    0.472363
   4 O :   -0.393197
   5 C :   -0.224985
   6 C :    0.148500
   7 C :   -0.283378
   8 N :   -0.123951
   9 C :    0.200342
  10 S :   -0.437448
  11 N :   -0.202773
  12 C :    0.059552
  13 C :    0.051490
  14 C :   -0.173689
  15 C :   -0.132858
  16 C :   -0.278161
  17 C :    0.324080
  18 O :   -0.360078
  19 C :   -0.306170
  20 H :    0.112863
  21 H :    0.099302
  22 H :    0.087939
  23 H :    0.108208
  24 H :    0.096835
  25 H :    0.128818
  26 H :    0.107207
  27 H :    0.122498
  28 H :    0.197342
  29 H :    0.194666
  30 H :    0.156465
  31 H :    0.161109
  32 H :    0.162964
  33 H :    0.131612
  34 H :    0.241229
  35 H :    0.173022
Sum of atomic charges:    0.0000000

LOEWDIN ATOMIC CHARGES
----------------------
   0 C :    0.108207
   1 C :   -0.019310
   2 O :    0.285318
   3 C :   -0.417128
   4 O :    0.135333
   5 C :   -0.095969
   6 C :   -0.073821
   7 C :    0.126824
   8 N :    0.404475
   9 C :   -0.457816
  10 S :   -0.034718
  11 N :    0.397042
  12 C :   -0.045877
  13 C :   -0.042007
  14 C :    0.021839
  15 C :    0.042882
  16 C :   -0.001473
  17 C :   -0.194915
  18 O :    0.393742
  19 C :    0.027337
  20 H :   -0.026373
  21 H :   -0.025037
  22 H :   -0.029543
  23 H :   -0.025628
  24 H :   -0.033308
  25 H :   -0.006500
  26 H :   -0.018916
  27 H :   -0.010598
  28 H :   -0.058397
  29 H :   -0.063951
  30 H :   -0.004348
  31 H :   -0.024010
  32 H :   -0.019848
  33 H :   -0.035220
  34 H :   -0.153515
  35 H :   -0.024770

  Mayer bond orders larger than 0.100000
B(  0-C ,  1-C ) :   0.9869 B(  0-C , 20-H ) :   0.9702 B(  0-C , 21-H ) :   0.9765
B(  0-C , 22-H ) :   0.9752 B(  1-C ,  2-O ) :   0.8927 B(  1-C , 23-H ) :   0.9807
B(  1-C , 24-H ) :   0.9648 B(  2-O ,  3-C ) :   1.0890 B(  3-C ,  4-O ) :   2.0410
B(  3-C ,  5-C ) :   1.0063 B(  5-C ,  6-C ) :   1.6658 B(  5-C , 12-C ) :   0.9602
B(  6-C ,  7-C ) :   0.9529 B(  6-C ,  8-N ) :   1.1414 B(  7-C , 25-H ) :   0.9690
B(  7-C , 26-H ) :   0.9873 B(  7-C , 27-H ) :   0.9646 B(  8-N ,  9-C ) :   1.1829
B(  8-N , 28-H ) :   0.9494 B(  9-C , 10-S ) :   1.6136 B(  9-C , 11-N ) :   1.2989
B( 11-N , 12-C ) :   0.9941 B( 11-N , 29-H ) :   0.9516 B( 12-C , 13-C ) :   0.9435
B( 12-C , 30-H ) :   0.9989 B( 13-C , 14-C ) :   1.3793 B( 13-C , 19-C ) :   1.3526
B( 14-C , 15-C ) :   1.3940 B( 14-C , 31-H ) :   0.9619 B( 15-C , 16-C ) :   1.3640
B( 15-C , 32-H ) :   0.9700 B( 16-C , 17-C ) :   1.3314 B( 16-C , 33-H ) :   0.9844
B( 17-C , 18-O ) :   1.1096 B( 17-C , 19-C ) :   1.3647 B( 18-O , 34-H ) :   0.9796
B( 19-C , 35-H ) :   0.9591

MP2 TOTAL ENERGY:    -1274.326983251 Eh
FINAL SINGLE POINT ENERGY     -1274.326983251315

DIPOLE MOMENT
-------------
                                X             Y             Z
Electronic contribution:     10.39833       9.97619       6.58814
Nuclear contribution   :    -11.84655     -10.99910      -7.01865
                        -----------------------------------------
Total Dipole Moment    :     -1.44822      -1.02291      -0.43051
                        -----------------------------------------
Magnitude (a.u.)       :      1.82456
Magnitude (Debye)      :      4.63767

Rotational constants in cm-1:     0.012273     0.009157     0.006595
Rotational constants in MHz :   367.944988   274.507103   197.699752

                             ****ORCA TERMINATED NORMALLY****
TOTAL RUN TIME: 0 days 1 hours 37 minutes 42 seconds 519 msec
