                         Program Version 5.0.0 -  RELEASE  -
|  1> ! ri-mp2 cc-pvtz cc-pvtz/c TightSCF NoKeepInts
|  2>
|  3> %scf
|  4>   MaxCore 4096
|  5> end
|  6> *xyz  0  1
|  7>     C       16.0681488   13.1581138   15.7862237
|  8>     C       15.4819711   14.4921515   16.2775095
|  9>     O       16.5872862   15.3348376   16.6436656
| 10>     C       16.4371376   16.6932072   16.6251475
| 11>     O       15.5241855   17.2407174   16.0304256
| 12>     C       17.4108892   17.3949808   17.5313674
| 13>     C       17.4632849   18.7471841   17.6358818
| 14>     C       16.6027829   19.7567085   16.9066117
| 15>     N       18.4160128   19.3501432   18.4626429
| 16>     C       19.4117983   18.6843093   19.1261418
| 17>     S       20.5613401   19.4826796   20.0076427
| 18>     N       19.4099036   17.3168814   19.0199980
| 19>     C       18.3581425   16.5169357   18.3659394
| 20>     C       17.6037932   15.7018566   19.4129471
| 21>     C       17.6962284   14.2972940   19.4260500
| 22>     C       16.9985331   13.5435436   20.3847575
| 23>     C       16.2044256   14.1993486   21.3409221
| 24>     C       16.1137548   15.5980730   21.3337297
| 25>     O       15.3484277   16.2341058   22.2560870
| 26>     C       16.8084722   16.3454049   20.3777065
| 27>     H       16.6492921   12.6756496   16.5817477
| 28>     H       16.7260624   13.3193724   14.9231515
| 29>     H       15.2658409   12.4743247   15.4835042
| 30>     H       14.8985921   14.9377346   15.4600185
| 31>     H       14.8179855   14.3363439   17.1379815
| 32>     H       15.5465875   19.6269021   17.1755509
| 33>     H       16.6826824   19.6201601   15.8206644
| 34>     H       16.8764555   20.7945939   17.1295544
| 35>     H       18.4334588   20.3535759   18.5514232
| 36>     H       20.1341069   16.8514688   19.5517501
| 37>     H       18.8587250   15.8205901   17.6784937
| 38>     H       18.3048191   13.7877887   18.6838121
| 39>     H       17.0745237   12.4576328   20.3849941
| 40>     H       15.6641679   13.6218645   22.0838221
| 41>     H       14.9771843   15.5583917   22.8428999
| 42>     H       16.7299976   17.4271296   20.3932339
| 43> *
| 44>
| 45>                          ****END OF INPUT****

CARTESIAN COORDINATES (ANGSTROEM)
---------------------------------
  C     16.068149   13.158114   15.786224
  C     15.481971   14.492151   16.277510
  O     16.587286   15.334838   16.643666
  C     16.437138   16.693207   16.625148
  O     15.524185   17.240717   16.030426
  C     17.410889   17.394981   17.531367
  C     17.463285   18.747184   17.635882
  C     16.602783   19.756708   16.906612
  N     18.416013   19.350143   18.462643
  C     19.411798   18.684309   19.126142
  S     20.561340   19.482680   20.007643
  N     19.409904   17.316881   19.019998
  C     18.358142   16.516936   18.365939
  C     17.603793   15.701857   19.412947
  C     17.696228   14.297294   19.426050
  C     16.998533   13.543544   20.384757
  C     16.204426   14.199349   21.340922
  C     16.113755   15.598073   21.333730
  O     15.348428   16.234106   22.256087
  C     16.808472   16.345405   20.377706
  H     16.649292   12.675650   16.581748
  H     16.726062   13.319372   14.923151
  H     15.265841   12.474325   15.483504
  H     14.898592   14.937735   15.460018
  H     14.817985   14.336344   17.137981
  H     15.546587   19.626902   17.175551
  H     16.682682   19.620160   15.820664
  H     16.876455   20.794594   17.129554
  H     18.433459   20.353576   18.551423
  H     20.134107   16.851469   19.551750
  H     18.858725   15.820590   17.678494
  H     18.304819   13.787789   18.683812
  H     17.074524   12.457633   20.384994
  H     15.664168   13.621864   22.083822
  H     14.977184   15.558392   22.842900
  H     16.729998   17.427130   20.393234

 Total Charge           Charge          ....    0
 Multiplicity           Mult            ....    1
 Number of Electrons    NEL             ....  154
 Basis Dimension        Dim             ....  828

ORBITAL ENERGIES
----------------

  NO   OCC          E(Eh)            E(eV)
   0   2.0000     -91.888910     -2500.4244
   1   2.0000     -20.600575      -560.5701
   2   2.0000     -20.596359      -560.4554
   3   2.0000     -20.541821      -558.9714
   4   2.0000     -15.629050      -425.2881
   5   2.0000     -15.608288      -424.7231
   6   2.0000     -11.394496      -310.0600
   7   2.0000     -11.384017      -309.7749
   8   2.0000     -11.335811      -308.4631
   9   2.0000     -11.313582      -307.8582
  10   2.0000     -11.309098      -307.7362
  11   2.0000     -11.295102      -307.3553
  12   2.0000     -11.259536      -306.3875
  13   2.0000     -11.258723      -306.3654
  14   2.0000     -11.255122      -306.2674
  15   2.0000     -11.251909      -306.1800
  16   2.0000     -11.242912      -305.9352
  17   2.0000     -11.238356      -305.8112
  18   2.0000     -11.238100      -305.8043
  19   2.0000     -11.230685      -305.6025
  20   2.0000      -8.893969      -242.0172
  21   2.0000      -6.575543      -178.9296
  22   2.0000      -6.573539      -178.8751
  23   2.0000      -6.572952      -178.8591
  24   2.0000      -1.451640       -39.5011
  25   2.0000      -1.416016       -38.5318
  26   2.0000      -1.354786       -36.8656
  27   2.0000      -1.340010       -36.4635
  28   2.0000      -1.238486       -33.7009
  29   2.0000      -1.157489       -31.4969
  30   2.0000      -1.120334       -30.4858
  31   2.0000      -1.043317       -28.3901
  32   2.0000      -1.039845       -28.2956
  33   2.0000      -1.015018       -27.6200
  34   2.0000      -0.995719       -27.0949
  35   2.0000      -0.984356       -26.7857
  36   2.0000      -0.922471       -25.1017
  37   2.0000      -0.888229       -24.1699
  38   2.0000      -0.846706       -23.0400
  39   2.0000      -0.837399       -22.7868
  40   2.0000      -0.833883       -22.6911
  41   2.0000      -0.818197       -22.2643
  42   2.0000      -0.764943       -20.8151
  43   2.0000      -0.732392       -19.9294
  44   2.0000      -0.721824       -19.6418
  45   2.0000      -0.695456       -18.9243
  46   2.0000      -0.686510       -18.6809
  47   2.0000      -0.679226       -18.4827
  48   2.0000      -0.676548       -18.4098
  49   2.0000      -0.660753       -17.9800
  50   2.0000      -0.646307       -17.5869
  51   2.0000      -0.644646       -17.5417
  52   2.0000      -0.635471       -17.2921
  53   2.0000      -0.606742       -16.5103
  54   2.0000      -0.602487       -16.3945
  55   2.0000      -0.599289       -16.3075
  56   2.0000      -0.597330       -16.2542
  57   2.0000      -0.577718       -15.7205
  58   2.0000      -0.570673       -15.5288
  59   2.0000      -0.566993       -15.4287
  60   2.0000      -0.561792       -15.2871
  61   2.0000      -0.545900       -14.8547
  62   2.0000      -0.540084       -14.6964
  63   2.0000      -0.525083       -14.2882
  64   2.0000      -0.524442       -14.2708
  65   2.0000      -0.513420       -13.9709
  66   2.0000      -0.502546       -13.6750
  67   2.0000      -0.498159       -13.5556
  68   2.0000      -0.485540       -13.2122
  69   2.0000      -0.465753       -12.6738
  70   2.0000      -0.458370       -12.4729
  71   2.0000      -0.446556       -12.1514
  72   2.0000      -0.354257        -9.6398
  73   2.0000      -0.349285        -9.5045
  74   2.0000      -0.328239        -8.9318
  75   2.0000      -0.321182        -8.7398
  76   2.0000      -0.316027        -8.5995
  77   0.0000       0.075759         2.0615
  78   0.0000       0.106047         2.8857
  79   0.0000       0.124847         3.3973
  80   0.0000       0.131855         3.5879
  81   0.0000       0.136227         3.7069

MULLIKEN ATOMIC CHARGES
-----------------------
   0 C :   -0.265160
   1 C :    0.020520
   2 O :   -0.350892
   3 C :    0.463349
   4 O :   -0.430475
   5 C :   -0.224672
   6 C :    0.151426
   7 C :   -0.273273
   8 N :   -0.121590
   9 C :    0.210643
  10 S :   -0.439575
  11 N :   -0.203675
  12 C :    0.053166
  13 C :    0.064924
  14 C :   -0.187586
  15 C :   -0.131170
  16 C :   -0.278706
  17 C :    0.315879
  18 O :   -0.356366
  19 C :   -0.269536
  20 H :    0.090224
  21 H :    0.097282
  22 H :    0.093385
  23 H :    0.124322
  24 H :    0.099310
  25 H :    0.132741
  26 H :    0.130296
  27 H :    0.094983
  28 H :    0.197508
  29 H :    0.194531
  30 H :    0.150480
  31 H :    0.151719
  32 H :    0.160236
  33 H :    0.130071
  34 H :    0.240631
  35 H :    0.165049
Sum of atomic charges:    0.0000000

LOEWDIN ATOMIC CHARGES
----------------------
   0 C :    0.106270
   1 C :   -0.014445
   2 O :    0.308794
   3 C :   -0.414041
   4 O :    0.097324
   5 C :   -0.095068
   6 C :   -0.058961
   7 C :    0.131570
   8 N :    0.406545
   9 C :   -0.456582
  10 S :   -0.035267
  11 N :    0.396454
  12 C :   -0.052453
  13 C :   -0.038574
  14 C :    0.014197
  15 C :    0.038333
  16 C :   -0.001944
  17 C :   -0.189535
  18 O :    0.395268
  19 C :    0.031588
  20 H :   -0.031165
  21 H :   -0.026079
  22 H :   -0.024681
  23 H :   -0.027247
  24 H :   -0.029568
  25 H :   -0.004378
  26 H :   -0.004059
  27 H :   -0.023415
  28 H :   -0.057560
  29 H :   -0.064571
  30 H :   -0.010802
  31 H :   -0.031210
  32 H :   -0.021577
  33 H :   -0.035623
  34 H :   -0.153950
  35 H :   -0.023588

  Mayer bond orders larger than 0.100000
B(  0-C ,  1-C ) :   0.9726 B(  0-C , 20-H ) :   0.9793 B(  0-C , 21-H ) :   0.9772
B(  0-C , 22-H ) :   0.9772 B(  1-C ,  2-O ) :   0.8870 B(  1-C , 23-H ) :   0.9785
B(  1-C , 24-H ) :   0.9736 B(  2-O ,  3-C ) :   1.1693 B(  3-C ,  4-O ) :   1.9821
B(  3-C ,  5-C ) :   1.0541 B(  5-C ,  6-C ) :   1.6574 B(  5-C , 12-C ) :   0.9726
B(  6-C ,  7-C ) :   0.9673 B(  6-C ,  8-N ) :   1.1632 B(  7-C , 25-H ) :   0.9598
B(  7-C , 26-H ) :   0.9609 B(  7-C , 27-H ) :   0.9904 B(  8-N ,  9-C ) :   1.1830
B(  8-N , 28-H ) :   0.9479 B(  9-C , 10-S ) :   1.6080 B(  9-C , 11-N ) :   1.3045
B( 11-N , 12-C ) :   0.9884 B( 11-N , 29-H ) :   0.9517 B( 12-C , 13-C ) :   0.9348
B( 12-C , 30-H ) :   1.0032 B( 13-C , 14-C ) :   1.3581 B( 13-C , 19-C ) :   1.3826
B( 14-C , 15-C ) :   1.3895 B( 14-C , 31-H ) :   0.9707 B( 15-C , 16-C ) :   1.3641
B( 15-C , 32-H ) :   0.9704 B( 16-C , 17-C ) :   1.3321 B( 16-C , 33-H ) :   0.9850
B( 17-C , 18-O ) :   1.1105 B( 17-C , 19-C ) :   1.3725 B( 18-O , 34-H ) :   0.9799
B( 19-C , 35-H ) :   0.9581

MP2 TOTAL ENERGY:    -1274.349371742 Eh
FINAL SINGLE POINT ENERGY     -1274.349371742165

DIPOLE MOMENT
-------------
                                X             Y             Z
Electronic contribution:      8.92418      11.01853       8.41494
Nuclear contribution   :    -10.12161     -12.60323      -8.78217
                        -----------------------------------------
Total Dipole Moment    :     -1.19743      -1.58471      -0.36723
                        -----------------------------------------
Magnitude (a.u.)       :      2.01990
Magnitude (Debye)      :      5.13418

Rotational constants in cm-1:     0.011658     0.008484     0.006166
Rotational constants in MHz :   349.483965   254.332046   184.863592

                             ****ORCA TERMINATED NORMALLY****
TOTAL RUN TIME: 0 days 1 hours 47 minutes 8 seconds 419 msec
