                         Program Version 5.0.0 -  RELEASE  -
|  1> ! ri-mp2 cc-pvtz cc-pvtz/c TightSCF NoKeepInts
|  2>
|  3> %scf
|  4>   MaxCore 4096
|  5> end
|  6> *xyz  0  1
|  7>     C       15.4675225   14.0211788   17.3105718
|  8>     C       16.4121344   14.1145127   16.1000020
|  9>     O       17.4919658   15.0247458   16.3960523
| 10>     C       17.3217085   16.3551066   16.1296577
| 11>     O       16.6594650   16.7269826   15.1759677
| 12>     C       17.6723231   17.2375518   17.2973523
| 13>     C       17.3504030   18.5567848   17.3374889
| 14>     C       16.5491157   19.3421140   16.3210101
| 15>     N       17.8187305   19.3588845   18.3831128
| 16>     C       18.7672600   18.9737736   19.2930595
| 17>     S       19.4101078   20.0311032   20.3907171
| 18>     N       19.1703176   17.6639831   19.2339535
| 19>     C       18.5067009   16.6195508   18.4328663
| 20>     C       17.6960290   15.7271790   19.3667183
| 21>     C       18.1874045   14.4604247   19.7352228
| 22>     C       17.4702305   13.6469439   20.6289602
| 23>     C       16.2518809   14.1039346   21.1598973
| 24>     C       15.7634625   15.3678049   20.8011405
| 25>     O       14.5890173   15.8131667   21.3139454
| 26>     C       16.4814066   16.1770551   19.9152773
| 27>     H       15.9884796   13.6017368   18.1775838
| 28>     H       14.6165744   13.3688270   17.0810356
| 29>     H       15.0749673   15.0097595   17.5788105
| 30>     H       16.8276871   13.1174587   15.9060532
| 31>     H       15.8585065   14.4218737   15.2022569
| 32>     H       15.5600334   18.8891023   16.1762780
| 33>     H       17.0550950   19.3411321   15.3471021
| 34>     H       16.3928007   20.3873215   16.6123768
| 35>     H       17.5421640   20.3265350   18.4301636
| 36>     H       19.8502744   17.4009473   19.9354470
| 37>     H       19.2931189   16.0066576   17.9702124
| 38>     H       19.1301974   14.1052783   19.3278741
| 39>     H       17.8588473   12.6688683   20.9074805
| 40>     H       15.6939022   13.4792822   21.8496951
| 41>     H       14.2735051   15.1458909   21.9418423
| 42>     H       16.0936606   17.1585476   19.6668142
| 43> *
| 44>
| 45>                          ****END OF INPUT****

CARTESIAN COORDINATES (ANGSTROEM)
---------------------------------
  C     15.467522   14.021179   17.310572
  C     16.412134   14.114513   16.100002
  O     17.491966   15.024746   16.396052
  C     17.321708   16.355107   16.129658
  O     16.659465   16.726983   15.175968
  C     17.672323   17.237552   17.297352
  C     17.350403   18.556785   17.337489
  C     16.549116   19.342114   16.321010
  N     17.818731   19.358884   18.383113
  C     18.767260   18.973774   19.293059
  S     19.410108   20.031103   20.390717
  N     19.170318   17.663983   19.233953
  C     18.506701   16.619551   18.432866
  C     17.696029   15.727179   19.366718
  C     18.187404   14.460425   19.735223
  C     17.470230   13.646944   20.628960
  C     16.251881   14.103935   21.159897
  C     15.763462   15.367805   20.801140
  O     14.589017   15.813167   21.313945
  C     16.481407   16.177055   19.915277
  H     15.988480   13.601737   18.177584
  H     14.616574   13.368827   17.081036
  H     15.074967   15.009759   17.578810
  H     16.827687   13.117459   15.906053
  H     15.858507   14.421874   15.202257
  H     15.560033   18.889102   16.176278
  H     17.055095   19.341132   15.347102
  H     16.392801   20.387321   16.612377
  H     17.542164   20.326535   18.430164
  H     19.850274   17.400947   19.935447
  H     19.293119   16.006658   17.970212
  H     19.130197   14.105278   19.327874
  H     17.858847   12.668868   20.907480
  H     15.693902   13.479282   21.849695
  H     14.273505   15.145891   21.941842
  H     16.093661   17.158548   19.666814

 Total Charge           Charge          ....    0
 Multiplicity           Mult            ....    1
 Number of Electrons    NEL             ....  154
 Basis Dimension        Dim             ....  828

ORBITAL ENERGIES
----------------

  NO   OCC          E(Eh)            E(eV)
   0   2.0000     -91.889693     -2500.4457
   1   2.0000     -20.599007      -560.5275
   2   2.0000     -20.592752      -560.3573
   3   2.0000     -20.544232      -559.0370
   4   2.0000     -15.630350      -425.3234
   5   2.0000     -15.608451      -424.7275
   6   2.0000     -11.394619      -310.0634
   7   2.0000     -11.384335      -309.7835
   8   2.0000     -11.337142      -308.4993
   9   2.0000     -11.316002      -307.9241
  10   2.0000     -11.310207      -307.7664
  11   2.0000     -11.293693      -307.3170
  12   2.0000     -11.261357      -306.4371
  13   2.0000     -11.260043      -306.4013
  14   2.0000     -11.257533      -306.3331
  15   2.0000     -11.252834      -306.2052
  16   2.0000     -11.245076      -305.9941
  17   2.0000     -11.239859      -305.8521
  18   2.0000     -11.239420      -305.8402
  19   2.0000     -11.220075      -305.3138
  20   2.0000      -8.894724      -242.0377
  21   2.0000      -6.576292      -178.9500
  22   2.0000      -6.574296      -178.8957
  23   2.0000      -6.573703      -178.8796
  24   2.0000      -1.449082       -39.4315
  25   2.0000      -1.418632       -38.6029
  26   2.0000      -1.352507       -36.8036
  27   2.0000      -1.341336       -36.4996
  28   2.0000      -1.239558       -33.7301
  29   2.0000      -1.159107       -31.5409
  30   2.0000      -1.120691       -30.4955
  31   2.0000      -1.043672       -28.3998
  32   2.0000      -1.033153       -28.1135
  33   2.0000      -1.017209       -27.6797
  34   2.0000      -0.997016       -27.1302
  35   2.0000      -0.984881       -26.8000
  36   2.0000      -0.923804       -25.1380
  37   2.0000      -0.890877       -24.2420
  38   2.0000      -0.847726       -23.0678
  39   2.0000      -0.840244       -22.8642
  40   2.0000      -0.835437       -22.7334
  41   2.0000      -0.814662       -22.1681
  42   2.0000      -0.756900       -20.5963
  43   2.0000      -0.733765       -19.9668
  44   2.0000      -0.722133       -19.6502
  45   2.0000      -0.698190       -18.9987
  46   2.0000      -0.689785       -18.7700
  47   2.0000      -0.678256       -18.4563
  48   2.0000      -0.668390       -18.1878
  49   2.0000      -0.666799       -18.1445
  50   2.0000      -0.648541       -17.6477
  51   2.0000      -0.644456       -17.5365
  52   2.0000      -0.636652       -17.3242
  53   2.0000      -0.609852       -16.5949
  54   2.0000      -0.603031       -16.4093
  55   2.0000      -0.599916       -16.3246
  56   2.0000      -0.596353       -16.2276
  57   2.0000      -0.579550       -15.7704
  58   2.0000      -0.571294       -15.5457
  59   2.0000      -0.565875       -15.3982
  60   2.0000      -0.558588       -15.1999
  61   2.0000      -0.548027       -14.9126
  62   2.0000      -0.537126       -14.6160
  63   2.0000      -0.527296       -14.3485
  64   2.0000      -0.525222       -14.2920
  65   2.0000      -0.513844       -13.9824
  66   2.0000      -0.503534       -13.7018
  67   2.0000      -0.499020       -13.5790
  68   2.0000      -0.478156       -13.0113
  69   2.0000      -0.463444       -12.6110
  70   2.0000      -0.451803       -12.2942
  71   2.0000      -0.445457       -12.1215
  72   2.0000      -0.356692        -9.7061
  73   2.0000      -0.351311        -9.5597
  74   2.0000      -0.329195        -8.9579
  75   2.0000      -0.323944        -8.8150
  76   2.0000      -0.316713        -8.6182
  77   0.0000       0.072028         1.9600
  78   0.0000       0.104506         2.8438
  79   0.0000       0.122162         3.3242
  80   0.0000       0.131170         3.5693
  81   0.0000       0.135434         3.6854

MULLIKEN ATOMIC CHARGES
-----------------------
   0 C :   -0.315053
   1 C :    0.032702
   2 O :   -0.374005
   3 C :    0.468543
   4 O :   -0.423818
   5 C :   -0.233608
   6 C :    0.150833
   7 C :   -0.269516
   8 N :   -0.123613
   9 C :    0.214205
  10 S :   -0.438462
  11 N :   -0.202754
  12 C :    0.043329
  13 C :    0.093326
  14 C :   -0.192851
  15 C :   -0.133806
  16 C :   -0.279623
  17 C :    0.324981
  18 O :   -0.359357
  19 C :   -0.281006
  20 H :    0.107176
  21 H :    0.112875
  22 H :    0.105303
  23 H :    0.105156
  24 H :    0.117839
  25 H :    0.129073
  26 H :    0.134217
  27 H :    0.094618
  28 H :    0.198434
  29 H :    0.193216
  30 H :    0.149675
  31 H :    0.147255
  32 H :    0.162538
  33 H :    0.131530
  34 H :    0.241704
  35 H :    0.168946
Sum of atomic charges:    0.0000000

LOEWDIN ATOMIC CHARGES
----------------------
   0 C :    0.104085
   1 C :   -0.014659
   2 O :    0.292928
   3 C :   -0.415467
   4 O :    0.105504
   5 C :   -0.096534
   6 C :   -0.058183
   7 C :    0.130759
   8 N :    0.407243
   9 C :   -0.455756
  10 S :   -0.033833
  11 N :    0.396512
  12 C :   -0.052998
  13 C :   -0.035404
  14 C :    0.011340
  15 C :    0.040509
  16 C :   -0.002036
  17 C :   -0.188694
  18 O :    0.396158
  19 C :    0.033668
  20 H :   -0.026401
  21 H :   -0.026567
  22 H :   -0.028579
  23 H :   -0.026134
  24 H :   -0.028938
  25 H :   -0.005578
  26 H :   -0.003302
  27 H :   -0.023358
  28 H :   -0.057574
  29 H :   -0.065544
  30 H :   -0.007654
  31 H :   -0.030204
  32 H :   -0.020722
  33 H :   -0.035280
  34 H :   -0.153170
  35 H :   -0.026135

  Mayer bond orders larger than 0.100000
B(  0-C ,  1-C ) :   0.9625 B(  0-C , 20-H ) :   0.9730 B(  0-C , 21-H ) :   0.9778
B(  0-C , 22-H ) :   0.9741 B(  1-C ,  2-O ) :   0.8845 B(  1-C , 23-H ) :   0.9860
B(  1-C , 24-H ) :   0.9776 B(  2-O ,  3-C ) :   1.1273 B(  3-C ,  4-O ) :   1.9863
B(  3-C ,  5-C ) :   1.0660 B(  5-C ,  6-C ) :   1.6521 B(  5-C , 12-C ) :   0.9752
B(  6-C ,  7-C ) :   0.9703 B(  6-C ,  8-N ) :   1.1573 B(  7-C , 25-H ) :   0.9625
B(  7-C , 26-H ) :   0.9579 B(  7-C , 27-H ) :   0.9896 B(  8-N ,  9-C ) :   1.1799
B(  8-N , 28-H ) :   0.9480 B(  9-C , 10-S ) :   1.6087 B(  9-C , 11-N ) :   1.3054
B( 11-N , 12-C ) :   0.9690 B( 11-N , 29-H ) :   0.9534 B( 12-C , 13-C ) :   0.9444
B( 12-C , 30-H ) :   1.0036 B( 13-C , 14-C ) :   1.3519 B( 13-C , 19-C ) :   1.3613
B( 14-C , 15-C ) :   1.3886 B( 14-C , 31-H ) :   0.9742 B( 15-C , 16-C ) :   1.3619
B( 15-C , 32-H ) :   0.9710 B( 16-C , 17-C ) :   1.3318 B( 16-C , 33-H ) :   0.9849
B( 17-C , 18-O ) :   1.1110 B( 17-C , 19-C ) :   1.3661 B( 18-O , 34-H ) :   0.9793
B( 19-C , 35-H ) :   0.9582

MP2 TOTAL ENERGY:    -1274.341427435 Eh
FINAL SINGLE POINT ENERGY     -1274.341427435034

DIPOLE MOMENT
-------------
                                X             Y             Z
Electronic contribution:      8.93659      10.15198       5.35646
Nuclear contribution   :     -9.86171     -11.83061      -5.46046
                        -----------------------------------------
Total Dipole Moment    :     -0.92512      -1.67863      -0.10400
                        -----------------------------------------
Magnitude (a.u.)       :      1.91950
Magnitude (Debye)      :      4.87897

Rotational constants in cm-1:     0.012126     0.009277     0.006533
Rotational constants in MHz :   363.520805   278.121151   195.840081

                             ****ORCA TERMINATED NORMALLY****
TOTAL RUN TIME: 0 days 1 hours 38 minutes 16 seconds 735 msec
