                         Program Version 5.0.0 -  RELEASE  -
|  1> ! ri-mp2 cc-pvtz cc-pvtz/c TightSCF NoKeepInts
|  2>
|  3> %scf
|  4>   MaxCore 4096
|  5> end
|  6> *xyz  0  1
|  7>     C       15.1448045   15.4488598   17.0839765
|  8>     C       16.1429464   14.3088610   16.7763196
|  9>     O       17.5049381   14.7279534   16.4951750
| 10>     C       17.8418624   15.9982190   16.1247021
| 11>     O       17.6625647   16.3343961   14.9683900
| 12>     C       17.8448023   16.9776071   17.2678828
| 13>     C       17.4343587   18.2643602   17.1321880
| 14>     C       16.7767901   18.8984925   15.9251003
| 15>     N       17.6560105   19.1795433   18.1653056
| 16>     C       18.4759021   18.9530054   19.2389255
| 17>     S       18.8359935   20.1402347   20.3322253
| 18>     N       18.9887439   17.6857824   19.3585420
| 19>     C       18.5540148   16.5236617   18.5597374
| 20>     C       17.7535538   15.5684477   19.4437005
| 21>     C       18.1070443   14.2072681   19.5158262
| 22>     C       17.3924981   13.3227987   20.3410321
| 23>     C       16.3204116   13.8035701   21.1112818
| 24>     C       15.9761687   15.1608102   21.0583648
| 25>     O       14.9430471   15.6292739   21.8022329
| 26>     C       16.6905094   16.0388316   20.2374191
| 27>     H       15.4276317   16.0305374   17.9631527
| 28>     H       14.1513197   15.0276430   17.2796831
| 29>     H       15.0489073   16.1257113   16.2266929
| 30>     H       16.1497004   13.5980089   17.6123140
| 31>     H       15.7672526   13.7660739   15.8991465
| 32>     H       17.5043051   19.0162231   15.1116091
| 33>     H       16.3510917   19.8854082   16.1407938
| 34>     H       15.9642450   18.2684613   15.5442450
| 35>     H       17.3038279   20.1198022   18.0806484
| 36>     H       19.5713599   17.5422039   20.1736870
| 37>     H       19.4651055   15.9926254   18.2498386
| 38>     H       18.9333651   13.8295730   18.9188187
| 39>     H       17.6713813   12.2710964   20.3825044
| 40>     H       15.7650690   13.1243332   21.7499121
| 41>     H       14.6157628   14.8955751   22.3441961
| 42>     H       16.4097101   17.0867468   20.2184304
| 43> *
| 44>
| 45>                          ****END OF INPUT****

CARTESIAN COORDINATES (ANGSTROEM)
---------------------------------
  C     15.144804   15.448860   17.083976
  C     16.142946   14.308861   16.776320
  O     17.504938   14.727953   16.495175
  C     17.841862   15.998219   16.124702
  O     17.662565   16.334396   14.968390
  C     17.844802   16.977607   17.267883
  C     17.434359   18.264360   17.132188
  C     16.776790   18.898492   15.925100
  N     17.656011   19.179543   18.165306
  C     18.475902   18.953005   19.238926
  S     18.835993   20.140235   20.332225
  N     18.988744   17.685782   19.358542
  C     18.554015   16.523662   18.559737
  C     17.753554   15.568448   19.443700
  C     18.107044   14.207268   19.515826
  C     17.392498   13.322799   20.341032
  C     16.320412   13.803570   21.111282
  C     15.976169   15.160810   21.058365
  O     14.943047   15.629274   21.802233
  C     16.690509   16.038832   20.237419
  H     15.427632   16.030537   17.963153
  H     14.151320   15.027643   17.279683
  H     15.048907   16.125711   16.226693
  H     16.149700   13.598009   17.612314
  H     15.767253   13.766074   15.899147
  H     17.504305   19.016223   15.111609
  H     16.351092   19.885408   16.140794
  H     15.964245   18.268461   15.544245
  H     17.303828   20.119802   18.080648
  H     19.571360   17.542204   20.173687
  H     19.465105   15.992625   18.249839
  H     18.933365   13.829573   18.918819
  H     17.671381   12.271096   20.382504
  H     15.765069   13.124333   21.749912
  H     14.615763   14.895575   22.344196
  H     16.409710   17.086747   20.218430

 Total Charge           Charge          ....    0
 Multiplicity           Mult            ....    1
 Number of Electrons    NEL             ....  154
 Basis Dimension        Dim             ....  828

ORBITAL ENERGIES
----------------

  NO   OCC          E(Eh)            E(eV)
   0   2.0000     -91.891385     -2500.4917
   1   2.0000     -20.600443      -560.5666
   2   2.0000     -20.575592      -559.8903
   3   2.0000     -20.554219      -559.3087
   4   2.0000     -15.630225      -425.3200
   5   2.0000     -15.610568      -424.7851
   6   2.0000     -11.394625      -310.0635
   7   2.0000     -11.386016      -309.8292
   8   2.0000     -11.335156      -308.4453
   9   2.0000     -11.317954      -307.9772
  10   2.0000     -11.314962      -307.8958
  11   2.0000     -11.301787      -307.5372
  12   2.0000     -11.264248      -306.5158
  13   2.0000     -11.260565      -306.4155
  14   2.0000     -11.258780      -306.3670
  15   2.0000     -11.254736      -306.2569
  16   2.0000     -11.247756      -306.0670
  17   2.0000     -11.243148      -305.9416
  18   2.0000     -11.241807      -305.9051
  19   2.0000     -11.228665      -305.5475
  20   2.0000      -8.896424      -242.0840
  21   2.0000      -6.577994      -178.9963
  22   2.0000      -6.575994      -178.9419
  23   2.0000      -6.575400      -178.9257
  24   2.0000      -1.444485       -39.3064
  25   2.0000      -1.420247       -38.6469
  26   2.0000      -1.349869       -36.7318
  27   2.0000      -1.342023       -36.5183
  28   2.0000      -1.240915       -33.7670
  29   2.0000      -1.160929       -31.5905
  30   2.0000      -1.121193       -30.5092
  31   2.0000      -1.045964       -28.4621
  32   2.0000      -1.032414       -28.0934
  33   2.0000      -1.019697       -27.7474
  34   2.0000      -1.001269       -27.2459
  35   2.0000      -0.987619       -26.8745
  36   2.0000      -0.926009       -25.1980
  37   2.0000      -0.897339       -24.4178
  38   2.0000      -0.849408       -23.1136
  39   2.0000      -0.843201       -22.9447
  40   2.0000      -0.838634       -22.8204
  41   2.0000      -0.820700       -22.3324
  42   2.0000      -0.746407       -20.3108
  43   2.0000      -0.735297       -20.0085
  44   2.0000      -0.722551       -19.6616
  45   2.0000      -0.699255       -19.0277
  46   2.0000      -0.690595       -18.7920
  47   2.0000      -0.673109       -18.3162
  48   2.0000      -0.672190       -18.2912
  49   2.0000      -0.661635       -18.0040
  50   2.0000      -0.653785       -17.7904
  51   2.0000      -0.646304       -17.5868
  52   2.0000      -0.639222       -17.3941
  53   2.0000      -0.624931       -17.0052
  54   2.0000      -0.610392       -16.6096
  55   2.0000      -0.603155       -16.4127
  56   2.0000      -0.601705       -16.3732
  57   2.0000      -0.580423       -15.7941
  58   2.0000      -0.574156       -15.6236
  59   2.0000      -0.565779       -15.3956
  60   2.0000      -0.550866       -14.9898
  61   2.0000      -0.548362       -14.9217
  62   2.0000      -0.541894       -14.7457
  63   2.0000      -0.529714       -14.4143
  64   2.0000      -0.526820       -14.3355
  65   2.0000      -0.515885       -14.0379
  66   2.0000      -0.504301       -13.7227
  67   2.0000      -0.494939       -13.4680
  68   2.0000      -0.479349       -13.0438
  69   2.0000      -0.468688       -12.7537
  70   2.0000      -0.451884       -12.2964
  71   2.0000      -0.445150       -12.1131
  72   2.0000      -0.357985        -9.7413
  73   2.0000      -0.349990        -9.5237
  74   2.0000      -0.330615        -8.9965
  75   2.0000      -0.325741        -8.8639
  76   2.0000      -0.318964        -8.6795
  77   0.0000       0.068374         1.8606
  78   0.0000       0.101486         2.7616
  79   0.0000       0.117852         3.2069
  80   0.0000       0.127766         3.4767
  81   0.0000       0.132095         3.5945

MULLIKEN ATOMIC CHARGES
-----------------------
   0 C :   -0.347500
   1 C :    0.042348
   2 O :   -0.388826
   3 C :    0.466958
   4 O :   -0.384439
   5 C :   -0.254552
   6 C :    0.165225
   7 C :   -0.278219
   8 N :   -0.122434
   9 C :    0.191617
  10 S :   -0.433153
  11 N :   -0.198278
  12 C :    0.057385
  13 C :    0.060597
  14 C :   -0.203654
  15 C :   -0.137869
  16 C :   -0.275639
  17 C :    0.318990
  18 O :   -0.355718
  19 C :   -0.276845
  20 H :    0.115955
  21 H :    0.121971
  22 H :    0.108006
  23 H :    0.115332
  24 H :    0.122108
  25 H :    0.140718
  26 H :    0.094668
  27 H :    0.125596
  28 H :    0.197876
  29 H :    0.192968
  30 H :    0.149306
  31 H :    0.152031
  32 H :    0.166294
  33 H :    0.133682
  34 H :    0.241014
  35 H :    0.176478
Sum of atomic charges:    0.0000000

LOEWDIN ATOMIC CHARGES
----------------------
   0 C :    0.106292
   1 C :   -0.006579
   2 O :    0.273709
   3 C :   -0.424134
   4 O :    0.133750
   5 C :   -0.095009
   6 C :   -0.064802
   7 C :    0.130011
   8 N :    0.406495
   9 C :   -0.459635
  10 S :   -0.032324
  11 N :    0.396411
  12 C :   -0.051763
  13 C :   -0.040160
  14 C :    0.019646
  15 C :    0.039126
  16 C :   -0.002171
  17 C :   -0.192123
  18 O :    0.396420
  19 C :    0.032290
  20 H :   -0.037171
  21 H :   -0.020746
  22 H :   -0.030239
  23 H :   -0.025779
  24 H :   -0.026672
  25 H :   -0.003066
  26 H :   -0.022533
  27 H :   -0.010627
  28 H :   -0.057881
  29 H :   -0.064479
  30 H :   -0.007246
  31 H :   -0.027696
  32 H :   -0.020204
  33 H :   -0.034580
  34 H :   -0.153122
  35 H :   -0.023410

  Mayer bond orders larger than 0.100000
B(  0-C ,  1-C ) :   0.9614 B(  0-C , 20-H ) :   0.9679 B(  0-C , 21-H ) :   0.9765
B(  0-C , 22-H ) :   0.9733 B(  1-C ,  2-O ) :   0.8786 B(  1-C , 23-H ) :   0.9733
B(  1-C , 24-H ) :   0.9855 B(  2-O ,  3-C ) :   1.1127 B(  3-C ,  4-O ) :   2.0546
B(  3-C ,  5-C ) :   1.0068 B(  5-C ,  6-C ) :   1.6686 B(  5-C , 12-C ) :   0.9619
B(  6-C ,  7-C ) :   0.9639 B(  6-C ,  8-N ) :   1.1396 B(  7-C , 25-H ) :   0.9567
B(  7-C , 26-H ) :   0.9870 B(  7-C , 27-H ) :   0.9684 B(  8-N ,  9-C ) :   1.1825
B(  8-N , 28-H ) :   0.9491 B(  9-C , 10-S ) :   1.6199 B(  9-C , 11-N ) :   1.2919
B( 11-N , 12-C ) :   0.9913 B( 11-N , 29-H ) :   0.9521 B( 12-C , 13-C ) :   0.9403
B( 12-C , 30-H ) :   1.0077 B( 13-C , 14-C ) :   1.3557 B( 13-C , 19-C ) :   1.3537
B( 14-C , 15-C ) :   1.3937 B( 14-C , 31-H ) :   0.9721 B( 15-C , 16-C ) :   1.3579
B( 15-C , 32-H ) :   0.9699 B( 16-C , 17-C ) :   1.3306 B( 16-C , 33-H ) :   0.9839
B( 17-C , 18-O ) :   1.1139 B( 17-C , 19-C ) :   1.3699 B( 18-O , 34-H ) :   0.9795
B( 19-C , 35-H ) :   0.9579

MP2 TOTAL ENERGY:    -1274.313391416 Eh
FINAL SINGLE POINT ENERGY     -1274.313391416042

DIPOLE MOMENT
-------------
                                X             Y             Z
Electronic contribution:      9.83894       6.97075       5.88649
Nuclear contribution   :    -10.99920      -8.52973      -5.78560
                        -----------------------------------------
Total Dipole Moment    :     -1.16026      -1.55898       0.10088
                        -----------------------------------------
Magnitude (a.u.)       :      1.94597
Magnitude (Debye)      :      4.94626

Rotational constants in cm-1:     0.011931     0.009921     0.006633
Rotational constants in MHz :   357.684543   297.437505   198.845545

                             ****ORCA TERMINATED NORMALLY****
TOTAL RUN TIME: 0 days 2 hours 21 minutes 38 seconds 240 msec
