                         Program Version 5.0.0 -  RELEASE  -
|  1> ! ri-mp2 cc-pvtz cc-pvtz/c TightSCF NoKeepInts
|  2>
|  3> %scf
|  4>   MaxCore 4096
|  5> end
|  6> *xyz  0  1
|  7>     C       14.9317662   14.3053780   14.7328368
|  8>     C       15.2934731   14.6423192   16.1890737
|  9>     O       16.2823868   15.6880296   16.1541816
| 10>     C       17.4434815   15.5494648   16.8586926
| 11>     O       17.9192041   14.4552016   17.1133930
| 12>     C       17.8424399   16.7845458   17.6136497
| 13>     C       17.4809821   18.0494716   17.2741365
| 14>     C       16.6461609   18.4931548   16.0902305
| 15>     N       17.9595911   19.1320513   18.0194554
| 16>     C       18.9080279   19.0471048   19.0043586
| 17>     S       19.5134616   20.3936096   19.7499746
| 18>     N       19.3299799   17.7854932   19.3392732
| 19>     C       18.7292477   16.5347806   18.8387188
| 20>     C       17.9460839   15.8376064   19.9482576
| 21>     C       18.2287055   14.5018521   20.2887883
| 22>     C       17.5085478   13.8538459   21.3063260
| 23>     C       16.4956135   14.5467235   21.9907932
| 24>     C       16.2081067   15.8759330   21.6522694
| 25>     O       15.2260732   16.5456784   22.3067864
| 26>     C       16.9261938   16.5180207   20.6385857
| 27>     H       14.5460925   15.1912938   14.2133971
| 28>     H       14.1632204   13.5236882   14.6982906
| 29>     H       15.8146108   13.9420198   14.1918351
| 30>     H       14.4028399   14.9885320   16.7291238
| 31>     H       15.6646581   13.7369785   16.6885717
| 32>     H       16.9820175   18.0009204   15.1689173
| 33>     H       16.7033722   19.5741871   15.9142292
| 34>     H       15.5903741   18.2372176   16.2435131
| 35>     H       17.6626078   20.0665250   17.7879743
| 36>     H       20.0070274   17.7481095   20.0903769
| 37>     H       19.5505070   15.8725383   18.5285313
| 38>     H       18.9999489   13.9581757   19.7484979
| 39>     H       17.7334571   12.8184440   21.5557490
| 40>     H       15.9359081   14.0495121   22.7759336
| 41>     H       14.8810709   15.9553700   22.9933198
| 42>     H       16.6897601   17.5482230   20.3959577
| 43> *
| 44>
| 45>                          ****END OF INPUT****

CARTESIAN COORDINATES (ANGSTROEM)
---------------------------------
  C     14.931766   14.305378   14.732837
  C     15.293473   14.642319   16.189074
  O     16.282387   15.688030   16.154182
  C     17.443482   15.549465   16.858693
  O     17.919204   14.455202   17.113393
  C     17.842440   16.784546   17.613650
  C     17.480982   18.049472   17.274136
  C     16.646161   18.493155   16.090231
  N     17.959591   19.132051   18.019455
  C     18.908028   19.047105   19.004359
  S     19.513462   20.393610   19.749975
  N     19.329980   17.785493   19.339273
  C     18.729248   16.534781   18.838719
  C     17.946084   15.837606   19.948258
  C     18.228706   14.501852   20.288788
  C     17.508548   13.853846   21.306326
  C     16.495614   14.546724   21.990793
  C     16.208107   15.875933   21.652269
  O     15.226073   16.545678   22.306786
  C     16.926194   16.518021   20.638586
  H     14.546093   15.191294   14.213397
  H     14.163220   13.523688   14.698291
  H     15.814611   13.942020   14.191835
  H     14.402840   14.988532   16.729124
  H     15.664658   13.736978   16.688572
  H     16.982018   18.000920   15.168917
  H     16.703372   19.574187   15.914229
  H     15.590374   18.237218   16.243513
  H     17.662608   20.066525   17.787974
  H     20.007027   17.748110   20.090377
  H     19.550507   15.872538   18.528531
  H     18.999949   13.958176   19.748498
  H     17.733457   12.818444   21.555749
  H     15.935908   14.049512   22.775934
  H     14.881071   15.955370   22.993320
  H     16.689760   17.548223   20.395958

 Total Charge           Charge          ....    0
 Multiplicity           Mult            ....    1
 Number of Electrons    NEL             ....  154
 Basis Dimension        Dim             ....  828

ORBITAL ENERGIES
----------------

  NO   OCC          E(Eh)            E(eV)
   0   2.0000     -91.888116     -2500.4028
   1   2.0000     -20.597553      -560.4879
   2   2.0000     -20.592442      -560.3488
   3   2.0000     -20.548681      -559.1580
   4   2.0000     -15.628278      -425.2671
   5   2.0000     -15.606925      -424.6860
   6   2.0000     -11.396246      -310.1076
   7   2.0000     -11.383141      -309.7510
   8   2.0000     -11.335326      -308.4499
   9   2.0000     -11.308320      -307.7150
  10   2.0000     -11.306200      -307.6573
  11   2.0000     -11.298910      -307.4590
  12   2.0000     -11.260266      -306.4074
  13   2.0000     -11.259238      -306.3794
  14   2.0000     -11.254207      -306.2425
  15   2.0000     -11.248483      -306.0868
  16   2.0000     -11.238095      -305.8041
  17   2.0000     -11.234176      -305.6975
  18   2.0000     -11.231248      -305.6178
  19   2.0000     -11.229953      -305.5825
  20   2.0000      -8.893182      -241.9958
  21   2.0000      -6.574760      -178.9083
  22   2.0000      -6.572752      -178.8537
  23   2.0000      -6.572167      -178.8378
  24   2.0000      -1.453166       -39.5427
  25   2.0000      -1.412178       -38.4273
  26   2.0000      -1.357451       -36.9381
  27   2.0000      -1.339253       -36.4429
  28   2.0000      -1.237017       -33.6610
  29   2.0000      -1.152803       -31.3694
  30   2.0000      -1.119819       -30.4718
  31   2.0000      -1.043663       -28.3995
  32   2.0000      -1.036090       -28.1934
  33   2.0000      -1.010206       -27.4891
  34   2.0000      -0.997725       -27.1495
  35   2.0000      -0.983164       -26.7533
  36   2.0000      -0.921452       -25.0740
  37   2.0000      -0.887144       -24.1404
  38   2.0000      -0.847478       -23.0610
  39   2.0000      -0.835883       -22.7455
  40   2.0000      -0.828646       -22.5486
  41   2.0000      -0.820491       -22.3267
  42   2.0000      -0.759482       -20.6666
  43   2.0000      -0.735770       -20.0213
  44   2.0000      -0.725564       -19.7436
  45   2.0000      -0.691004       -18.8032
  46   2.0000      -0.685169       -18.6444
  47   2.0000      -0.680270       -18.5111
  48   2.0000      -0.672933       -18.3114
  49   2.0000      -0.655293       -17.8314
  50   2.0000      -0.647602       -17.6222
  51   2.0000      -0.641570       -17.4580
  52   2.0000      -0.628837       -17.1115
  53   2.0000      -0.617943       -16.8151
  54   2.0000      -0.601048       -16.3553
  55   2.0000      -0.600613       -16.3435
  56   2.0000      -0.595749       -16.2111
  57   2.0000      -0.580781       -15.8039
  58   2.0000      -0.573870       -15.6158
  59   2.0000      -0.562977       -15.3194
  60   2.0000      -0.561646       -15.2832
  61   2.0000      -0.546288       -14.8652
  62   2.0000      -0.533878       -14.5276
  63   2.0000      -0.528359       -14.3774
  64   2.0000      -0.517915       -14.0932
  65   2.0000      -0.509999       -13.8778
  66   2.0000      -0.500315       -13.6143
  67   2.0000      -0.495721       -13.4893
  68   2.0000      -0.481074       -13.0907
  69   2.0000      -0.463028       -12.5996
  70   2.0000      -0.460046       -12.5185
  71   2.0000      -0.452928       -12.3248
  72   2.0000      -0.353994        -9.6327
  73   2.0000      -0.344639        -9.3781
  74   2.0000      -0.327281        -8.9058
  75   2.0000      -0.315905        -8.5962
  76   2.0000      -0.314463        -8.5570
  77   0.0000       0.074629         2.0308
  78   0.0000       0.111159         3.0248
  79   0.0000       0.120463         3.2780
  80   0.0000       0.135241         3.6801
  81   0.0000       0.138861         3.7786

MULLIKEN ATOMIC CHARGES
-----------------------
   0 C :   -0.263765
   1 C :    0.029366
   2 O :   -0.358983
   3 C :    0.453206
   4 O :   -0.418972
   5 C :   -0.183640
   6 C :    0.143715
   7 C :   -0.284415
   8 N :   -0.123658
   9 C :    0.201701
  10 S :   -0.439630
  11 N :   -0.198113
  12 C :    0.040277
  13 C :    0.054429
  14 C :   -0.162707
  15 C :   -0.133918
  16 C :   -0.279303
  17 C :    0.311143
  18 O :   -0.359014
  19 C :   -0.272407
  20 H :    0.090021
  21 H :    0.090541
  22 H :    0.101003
  23 H :    0.098475
  24 H :    0.117145
  25 H :    0.126199
  26 H :    0.103155
  27 H :    0.126083
  28 H :    0.196958
  29 H :    0.193851
  30 H :    0.154045
  31 H :    0.154133
  32 H :    0.159461
  33 H :    0.128343
  34 H :    0.240175
  35 H :    0.165100
Sum of atomic charges:   -0.0000000

LOEWDIN ATOMIC CHARGES
----------------------
   0 C :    0.104766
   1 C :   -0.011671
   2 O :    0.302571
   3 C :   -0.414158
   4 O :    0.109825
   5 C :   -0.091928
   6 C :   -0.068275
   7 C :    0.125088
   8 N :    0.404597
   9 C :   -0.458558
  10 S :   -0.036257
  11 N :    0.397594
  12 C :   -0.046120
  13 C :   -0.039108
  14 C :    0.021673
  15 C :    0.040784
  16 C :   -0.002353
  17 C :   -0.192804
  18 O :    0.393006
  19 C :    0.028340
  20 H :   -0.029966
  21 H :   -0.026295
  22 H :   -0.024293
  23 H :   -0.031035
  24 H :   -0.026455
  25 H :   -0.008369
  26 H :   -0.020560
  27 H :   -0.009964
  28 H :   -0.059028
  29 H :   -0.063797
  30 H :   -0.004885
  31 H :   -0.025211
  32 H :   -0.021131
  33 H :   -0.036323
  34 H :   -0.154788
  35 H :   -0.024912

  Mayer bond orders larger than 0.100000
B(  0-C ,  1-C ) :   0.9743 B(  0-C , 20-H ) :   0.9796 B(  0-C , 21-H ) :   0.9761
B(  0-C , 22-H ) :   0.9780 B(  1-C ,  2-O ) :   0.8845 B(  1-C , 23-H ) :   0.9785
B(  1-C , 24-H ) :   0.9725 B(  2-O ,  3-C ) :   1.1245 B(  3-C ,  4-O ) :   1.9999
B(  3-C ,  5-C ) :   1.0457 B(  5-C ,  6-C ) :   1.6565 B(  5-C , 12-C ) :   0.9645
B(  6-C ,  7-C ) :   0.9531 B(  6-C ,  8-N ) :   1.1430 B(  7-C , 25-H ) :   0.9677
B(  7-C , 26-H ) :   0.9904 B(  7-C , 27-H ) :   0.9637 B(  8-N ,  9-C ) :   1.1808
B(  8-N , 28-H ) :   0.9491 B(  9-C , 10-S ) :   1.6105 B(  9-C , 11-N ) :   1.3030
B( 11-N , 12-C ) :   0.9911 B( 11-N , 29-H ) :   0.9519 B( 12-C , 13-C ) :   0.9474
B( 12-C , 30-H ) :   0.9991 B( 13-C , 14-C ) :   1.3764 B( 13-C , 19-C ) :   1.3691
B( 14-C , 15-C ) :   1.3945 B( 14-C , 31-H ) :   0.9646 B( 15-C , 16-C ) :   1.3629
B( 15-C , 32-H ) :   0.9713 B( 16-C , 17-C ) :   1.3314 B( 16-C , 33-H ) :   0.9859
B( 17-C , 18-O ) :   1.1082 B( 17-C , 19-C ) :   1.3784 B( 18-O , 34-H ) :   0.9805
B( 19-C , 35-H ) :   0.9584

MP2 TOTAL ENERGY:    -1274.339099295 Eh
FINAL SINGLE POINT ENERGY     -1274.339099295039

DIPOLE MOMENT
-------------
                                X             Y             Z
Electronic contribution:     11.21326       9.62596      11.10320
Nuclear contribution   :    -12.81214     -10.86097     -11.86604
                        -----------------------------------------
Total Dipole Moment    :     -1.59888      -1.23501      -0.76284
                        -----------------------------------------
Magnitude (a.u.)       :      2.15954
Magnitude (Debye)      :      5.48911

Rotational constants in cm-1:     0.010531     0.008930     0.005882
Rotational constants in MHz :   315.710352   267.722901   176.325269

                             ****ORCA TERMINATED NORMALLY****
TOTAL RUN TIME: 0 days 1 hours 26 minutes 47 seconds 600 msec
