                         Program Version 5.0.0 -  RELEASE  -
|  1> ! ri-mp2 cc-pvtz cc-pvtz/c TightSCF NoKeepInts
|  2>
|  3> %scf
|  4>   MaxCore 4096
|  5> end
|  6> *xyz  0  1
|  7>     C       15.4710402   13.9061280   17.2641128
|  8>     C       16.4258052   14.0988199   16.0727353
|  9>     O       17.4299073   15.0708635   16.4269233
| 10>     C       17.1808081   16.3966349   16.2013296
| 11>     O       16.4389501   16.7644847   15.3063283
| 12>     C       17.6439234   17.2806951   17.3275820
| 13>     C       17.3723852   18.6109257   17.3677723
| 14>     C       16.5571895   19.4146122   16.3770114
| 15>     N       17.9069816   19.4041887   18.3876911
| 16>     C       18.8468208   18.9846113   19.2908961
| 17>     S       19.5460853   20.0213186   20.3736877
| 18>     N       19.1905192   17.6578949   19.2409817
| 19>     C       18.4958682   16.6374083   18.4355281
| 20>     C       17.6889514   15.7373475   19.3658950
| 21>     C       18.1877654   14.4729272   19.7320751
| 22>     C       17.4692026   13.6482286   20.6142640
| 23>     C       16.2413587   14.0911809   21.1350274
| 24>     C       15.7449100   15.3523227   20.7777447
| 25>     O       14.5611695   15.7840172   21.2808212
| 26>     C       16.4643317   16.1728928   19.9035982
| 27>     H       16.0102536   13.5158378   18.1340844
| 28>     H       14.6789965   13.1923453   17.0081320
| 29>     H       14.9970389   14.8554783   17.5430934
| 30>     H       16.9141804   13.1396894   15.8584004
| 31>     H       15.8694376   14.3970788   15.1736224
| 32>     H       15.5348096   19.0210864   16.3103535
| 33>     H       16.9977826   19.3519811   15.3738204
| 34>     H       16.4855690   20.4762535   16.6408211
| 35>     H       17.6719989   20.3828963   18.4315962
| 36>     H       19.8628644   17.3710381   19.9404478
| 37>     H       19.2650372   16.0232073   17.9463624
| 38>     H       19.1370798   14.1281154   19.3311003
| 39>     H       17.8637267   12.6721077   20.8912835
| 40>     H       15.6821172   13.4577743   21.8157450
| 41>     H       14.2429796   15.1081064   21.8980022
| 42>     H       16.0691547   17.1515013   19.6551293
| 43> *
| 44>
| 45>                          ****END OF INPUT****

CARTESIAN COORDINATES (ANGSTROEM)
---------------------------------
  C     15.471040   13.906128   17.264113
  C     16.425805   14.098820   16.072735
  O     17.429907   15.070863   16.426923
  C     17.180808   16.396635   16.201330
  O     16.438950   16.764485   15.306328
  C     17.643923   17.280695   17.327582
  C     17.372385   18.610926   17.367772
  C     16.557189   19.414612   16.377011
  N     17.906982   19.404189   18.387691
  C     18.846821   18.984611   19.290896
  S     19.546085   20.021319   20.373688
  N     19.190519   17.657895   19.240982
  C     18.495868   16.637408   18.435528
  C     17.688951   15.737348   19.365895
  C     18.187765   14.472927   19.732075
  C     17.469203   13.648229   20.614264
  C     16.241359   14.091181   21.135027
  C     15.744910   15.352323   20.777745
  O     14.561170   15.784017   21.280821
  C     16.464332   16.172893   19.903598
  H     16.010254   13.515838   18.134084
  H     14.678997   13.192345   17.008132
  H     14.997039   14.855478   17.543093
  H     16.914180   13.139689   15.858400
  H     15.869438   14.397079   15.173622
  H     15.534810   19.021086   16.310354
  H     16.997783   19.351981   15.373820
  H     16.485569   20.476253   16.640821
  H     17.671999   20.382896   18.431596
  H     19.862864   17.371038   19.940448
  H     19.265037   16.023207   17.946362
  H     19.137080   14.128115   19.331100
  H     17.863727   12.672108   20.891284
  H     15.682117   13.457774   21.815745
  H     14.242980   15.108106   21.898002
  H     16.069155   17.151501   19.655129

 Total Charge           Charge          ....    0
 Multiplicity           Mult            ....    1
 Number of Electrons    NEL             ....  154
 Basis Dimension        Dim             ....  828

ORBITAL ENERGIES
----------------

  NO   OCC          E(Eh)            E(eV)
   0   2.0000     -91.889365     -2500.4368
   1   2.0000     -20.598905      -560.5247
   2   2.0000     -20.595417      -560.4298
   3   2.0000     -20.542791      -558.9978
   4   2.0000     -15.629975      -425.3133
   5   2.0000     -15.608448      -424.7275
   6   2.0000     -11.394675      -310.0649
   7   2.0000     -11.384215      -309.7802
   8   2.0000     -11.336994      -308.4953
   9   2.0000     -11.315931      -307.9221
  10   2.0000     -11.309878      -307.7574
  11   2.0000     -11.293409      -307.3093
  12   2.0000     -11.261460      -306.4399
  13   2.0000     -11.259729      -306.3928
  14   2.0000     -11.257462      -306.3311
  15   2.0000     -11.252606      -306.1990
  16   2.0000     -11.244844      -305.9878
  17   2.0000     -11.239737      -305.8488
  18   2.0000     -11.239365      -305.8387
  19   2.0000     -11.220204      -305.3173
  20   2.0000      -8.894409      -242.0292
  21   2.0000      -6.575980      -178.9415
  22   2.0000      -6.573980      -178.8871
  23   2.0000      -6.573390      -178.8710
  24   2.0000      -1.449333       -39.4384
  25   2.0000      -1.418522       -38.5999
  26   2.0000      -1.352930       -36.8151
  27   2.0000      -1.340984       -36.4900
  28   2.0000      -1.239360       -33.7247
  29   2.0000      -1.159115       -31.5411
  30   2.0000      -1.120743       -30.4970
  31   2.0000      -1.043624       -28.3984
  32   2.0000      -1.033587       -28.1253
  33   2.0000      -1.017104       -27.6768
  34   2.0000      -0.996540       -27.1172
  35   2.0000      -0.984680       -26.7945
  36   2.0000      -0.923605       -25.1326
  37   2.0000      -0.891215       -24.2512
  38   2.0000      -0.847678       -23.0665
  39   2.0000      -0.839766       -22.8512
  40   2.0000      -0.835265       -22.7287
  41   2.0000      -0.814337       -22.1592
  42   2.0000      -0.757321       -20.6077
  43   2.0000      -0.733705       -19.9651
  44   2.0000      -0.722452       -19.6589
  45   2.0000      -0.697937       -18.9918
  46   2.0000      -0.689407       -18.7597
  47   2.0000      -0.678295       -18.4573
  48   2.0000      -0.668856       -18.2005
  49   2.0000      -0.665975       -18.1221
  50   2.0000      -0.648469       -17.6457
  51   2.0000      -0.643679       -17.5154
  52   2.0000      -0.635622       -17.2961
  53   2.0000      -0.609806       -16.5937
  54   2.0000      -0.602834       -16.4039
  55   2.0000      -0.599892       -16.3239
  56   2.0000      -0.597880       -16.2691
  57   2.0000      -0.579431       -15.7671
  58   2.0000      -0.571081       -15.5399
  59   2.0000      -0.566342       -15.4110
  60   2.0000      -0.558040       -15.1850
  61   2.0000      -0.547216       -14.8905
  62   2.0000      -0.536273       -14.5927
  63   2.0000      -0.527265       -14.3476
  64   2.0000      -0.526934       -14.3386
  65   2.0000      -0.513479       -13.9725
  66   2.0000      -0.503212       -13.6931
  67   2.0000      -0.498471       -13.5641
  68   2.0000      -0.478903       -13.0316
  69   2.0000      -0.463690       -12.6176
  70   2.0000      -0.452207       -12.3052
  71   2.0000      -0.445758       -12.1297
  72   2.0000      -0.355855        -9.6833
  73   2.0000      -0.351416        -9.5625
  74   2.0000      -0.328969        -8.9517
  75   2.0000      -0.323708        -8.8085
  76   2.0000      -0.316697        -8.6178
  77   0.0000       0.073865         2.0100
  78   0.0000       0.104473         2.8429
  79   0.0000       0.122873         3.3436
  80   0.0000       0.131505         3.5784
  81   0.0000       0.135528         3.6879

MULLIKEN ATOMIC CHARGES
-----------------------
   0 C :   -0.312301
   1 C :    0.028422
   2 O :   -0.368346
   3 C :    0.462969
   4 O :   -0.427391
   5 C :   -0.237924
   6 C :    0.154625
   7 C :   -0.269322
   8 N :   -0.123349
   9 C :    0.215898
  10 S :   -0.440041
  11 N :   -0.206671
  12 C :    0.054853
  13 C :    0.088271
  14 C :   -0.195734
  15 C :   -0.135033
  16 C :   -0.278855
  17 C :    0.322938
  18 O :   -0.359093
  19 C :   -0.273832
  20 H :    0.105739
  21 H :    0.111168
  22 H :    0.106485
  23 H :    0.105571
  24 H :    0.119401
  25 H :    0.130224
  26 H :    0.132997
  27 H :    0.094947
  28 H :    0.198032
  29 H :    0.194199
  30 H :    0.149713
  31 H :    0.147482
  32 H :    0.162556
  33 H :    0.131487
  34 H :    0.241645
  35 H :    0.168266
Sum of atomic charges:   -0.0000000

LOEWDIN ATOMIC CHARGES
----------------------
   0 C :    0.104061
   1 C :   -0.015034
   2 O :    0.297857
   3 C :   -0.415373
   4 O :    0.101335
   5 C :   -0.095869
   6 C :   -0.058047
   7 C :    0.131109
   8 N :    0.407275
   9 C :   -0.455301
  10 S :   -0.034809
  11 N :    0.396437
  12 C :   -0.052683
  13 C :   -0.035279
  14 C :    0.011009
  15 C :    0.040637
  16 C :   -0.002121
  17 C :   -0.188477
  18 O :    0.396158
  19 C :    0.033010
  20 H :   -0.026600
  21 H :   -0.026921
  22 H :   -0.027770
  23 H :   -0.026561
  24 H :   -0.028915
  25 H :   -0.005211
  26 H :   -0.003447
  27 H :   -0.023373
  28 H :   -0.057491
  29 H :   -0.065418
  30 H :   -0.008659
  31 H :   -0.030377
  32 H :   -0.020756
  33 H :   -0.035357
  34 H :   -0.153200
  35 H :   -0.025840

  Mayer bond orders larger than 0.100000
B(  0-C ,  1-C ) :   0.9628 B(  0-C , 20-H ) :   0.9728 B(  0-C , 21-H ) :   0.9779
B(  0-C , 22-H ) :   0.9745 B(  1-C ,  2-O ) :   0.8849 B(  1-C , 23-H ) :   0.9857
B(  1-C , 24-H ) :   0.9774 B(  2-O ,  3-C ) :   1.1429 B(  3-C ,  4-O ) :   1.9826
B(  3-C ,  5-C ) :   1.0617 B(  5-C ,  6-C ) :   1.6516 B(  5-C , 12-C ) :   0.9752
B(  6-C ,  7-C ) :   0.9686 B(  6-C ,  8-N ) :   1.1610 B(  7-C , 25-H ) :   0.9612
B(  7-C , 26-H ) :   0.9589 B(  7-C , 27-H ) :   0.9902 B(  8-N ,  9-C ) :   1.1818
B(  8-N , 28-H ) :   0.9478 B(  9-C , 10-S ) :   1.6052 B(  9-C , 11-N ) :   1.3074
B( 11-N , 12-C ) :   0.9682 B( 11-N , 29-H ) :   0.9526 B( 12-C , 13-C ) :   0.9430
B( 12-C , 30-H ) :   1.0029 B( 13-C , 14-C ) :   1.3512 B( 13-C , 19-C ) :   1.3653
B( 14-C , 15-C ) :   1.3899 B( 14-C , 31-H ) :   0.9741 B( 15-C , 16-C ) :   1.3608
B( 15-C , 32-H ) :   0.9710 B( 16-C , 17-C ) :   1.3321 B( 16-C , 33-H ) :   0.9849
B( 17-C , 18-O ) :   1.1105 B( 17-C , 19-C ) :   1.3668 B( 18-O , 34-H ) :   0.9793
B( 19-C , 35-H ) :   0.9585

MP2 TOTAL ENERGY:    -1274.345818313 Eh
FINAL SINGLE POINT ENERGY     -1274.345818312913

DIPOLE MOMENT
-------------
                                X             Y             Z
Electronic contribution:      8.81869      10.41436       5.53693
Nuclear contribution   :     -9.69679     -12.11226      -5.70712
                        -----------------------------------------
Total Dipole Moment    :     -0.87810      -1.69790      -0.17019
                        -----------------------------------------
Magnitude (a.u.)       :      1.91909
Magnitude (Debye)      :      4.87793

Rotational constants in cm-1:     0.012342     0.009035     0.006487
Rotational constants in MHz :   370.014260   270.871670   194.475430

                             ****ORCA TERMINATED NORMALLY****
TOTAL RUN TIME: 0 days 1 hours 53 minutes 42 seconds 777 msec
