                         Program Version 5.0.0 -  RELEASE  -
|  1> ! ri-mp2 cc-pvtz cc-pvtz/c TightSCF NoKeepInts
|  2>
|  3> %scf
|  4>   MaxCore 4096
|  5> end
|  6> *xyz  0  1
|  7>     C       15.3165629   14.1540162   14.6187284
|  8>     C       15.1322060   14.7592208   16.0213928
|  9>     O       16.0864348   15.8260047   16.1707770
| 10>     C       17.2334815   15.6084589   16.8789493
| 11>     O       17.6644240   14.4856614   17.0863950
| 12>     C       17.7278065   16.8077711   17.6363134
| 13>     C       17.4121387   18.0971074   17.3448519
| 14>     C       16.5367524   18.6127477   16.2208635
| 15>     N       17.9837254   19.1363191   18.0866717
| 16>     C       18.9795864   18.9816263   19.0145252
| 17>     S       19.6926848   20.2786230   19.7527023
| 18>     N       19.3547761   17.6932283   19.2986311
| 19>     C       18.6629368   16.4865810   18.8079379
| 20>     C       17.9042982   15.8069032   19.9450882
| 21>     C       18.1313889   14.4503057   20.2420877
| 22>     C       17.4342087   13.8185278   21.2855046
| 23>     C       16.5005827   14.5488634   22.0401850
| 24>     C       16.2684161   15.8991558   21.7454394
| 25>     O       15.3629182   16.6055157   22.4682870
| 26>     C       16.9634439   16.5250532   20.7058781
| 27>     H       15.1940542   14.9214112   13.8445003
| 28>     H       14.5777899   13.3632587   14.4408000
| 29>     H       16.3174663   13.7151626   14.5180737
| 30>     H       14.1166907   15.1678945   16.1002434
| 31>     H       15.2498045   13.9911751   16.7986774
| 32>     H       16.8182798   18.1535171   15.2649806
| 33>     H       16.6131538   19.6988441   16.0889540
| 34>     H       15.4825678   18.3762705   16.4118060
| 35>     H       17.7220122   20.0895494   17.8921879
| 36>     H       20.0691991   17.6044282   20.0097156
| 37>     H       19.4309025   15.7896699   18.4421695
| 38>     H       18.8403762   13.8785690   19.6481552
| 39>     H       17.6151087   12.7669710   21.5007267
| 40>     H       15.9587295   14.0644104   22.8455464
| 41>     H       15.0212027   16.0173373   23.1582440
| 42>     H       16.7708891   17.5718403   20.4980100
| 43> *
| 44>
| 45>                          ****END OF INPUT****

CARTESIAN COORDINATES (ANGSTROEM)
---------------------------------
  C     15.316563   14.154016   14.618728
  C     15.132206   14.759221   16.021393
  O     16.086435   15.826005   16.170777
  C     17.233481   15.608459   16.878949
  O     17.664424   14.485661   17.086395
  C     17.727806   16.807771   17.636313
  C     17.412139   18.097107   17.344852
  C     16.536752   18.612748   16.220864
  N     17.983725   19.136319   18.086672
  C     18.979586   18.981626   19.014525
  S     19.692685   20.278623   19.752702
  N     19.354776   17.693228   19.298631
  C     18.662937   16.486581   18.807938
  C     17.904298   15.806903   19.945088
  C     18.131389   14.450306   20.242088
  C     17.434209   13.818528   21.285505
  C     16.500583   14.548863   22.040185
  C     16.268416   15.899156   21.745439
  O     15.362918   16.605516   22.468287
  C     16.963444   16.525053   20.705878
  H     15.194054   14.921411   13.844500
  H     14.577790   13.363259   14.440800
  H     16.317466   13.715163   14.518074
  H     14.116691   15.167894   16.100243
  H     15.249804   13.991175   16.798677
  H     16.818280   18.153517   15.264981
  H     16.613154   19.698844   16.088954
  H     15.482568   18.376270   16.411806
  H     17.722012   20.089549   17.892188
  H     20.069199   17.604428   20.009716
  H     19.430902   15.789670   18.442169
  H     18.840376   13.878569   19.648155
  H     17.615109   12.766971   21.500727
  H     15.958730   14.064410   22.845546
  H     15.021203   16.017337   23.158244
  H     16.770889   17.571840   20.498010

 Total Charge           Charge          ....    0
 Multiplicity           Mult            ....    1
 Number of Electrons    NEL             ....  154
 Basis Dimension        Dim             ....  828

ORBITAL ENERGIES
----------------

  NO   OCC          E(Eh)            E(eV)
   0   2.0000     -91.888096     -2500.4022
   1   2.0000     -20.600501      -560.5681
   2   2.0000     -20.591873      -560.3334
   3   2.0000     -20.547709      -559.1316
   4   2.0000     -15.628374      -425.2697
   5   2.0000     -15.606828      -424.6834
   6   2.0000     -11.396641      -310.1184
   7   2.0000     -11.383053      -309.7486
   8   2.0000     -11.335934      -308.4665
   9   2.0000     -11.307751      -307.6995
  10   2.0000     -11.305920      -307.6497
  11   2.0000     -11.299799      -307.4832
  12   2.0000     -11.260562      -306.4155
  13   2.0000     -11.259025      -306.3736
  14   2.0000     -11.253709      -306.2290
  15   2.0000     -11.247936      -306.0719
  16   2.0000     -11.237555      -305.7894
  17   2.0000     -11.233650      -305.6832
  18   2.0000     -11.230700      -305.6029
  19   2.0000     -11.226810      -305.4970
  20   2.0000      -8.893161      -241.9952
  21   2.0000      -6.574738      -178.9077
  22   2.0000      -6.572731      -178.8531
  23   2.0000      -6.572146      -178.8372
  24   2.0000      -1.454227       -39.5715
  25   2.0000      -1.411608       -38.4118
  26   2.0000      -1.357635       -36.9431
  27   2.0000      -1.339333       -36.4451
  28   2.0000      -1.237005       -33.6606
  29   2.0000      -1.152364       -31.3574
  30   2.0000      -1.119714       -30.4690
  31   2.0000      -1.042772       -28.3753
  32   2.0000      -1.035043       -28.1649
  33   2.0000      -1.009709       -27.4756
  34   2.0000      -0.997410       -27.1409
  35   2.0000      -0.982836       -26.7443
  36   2.0000      -0.921325       -25.0705
  37   2.0000      -0.889767       -24.2118
  38   2.0000      -0.847625       -23.0650
  39   2.0000      -0.835616       -22.7383
  40   2.0000      -0.828127       -22.5345
  41   2.0000      -0.819230       -22.2924
  42   2.0000      -0.757226       -20.6052
  43   2.0000      -0.735357       -20.0101
  44   2.0000      -0.725192       -19.7335
  45   2.0000      -0.690793       -18.7974
  46   2.0000      -0.685354       -18.6494
  47   2.0000      -0.680219       -18.5097
  48   2.0000      -0.671821       -18.2812
  49   2.0000      -0.657558       -17.8931
  50   2.0000      -0.646498       -17.5921
  51   2.0000      -0.641496       -17.4560
  52   2.0000      -0.628743       -17.1090
  53   2.0000      -0.614357       -16.7175
  54   2.0000      -0.600380       -16.3372
  55   2.0000      -0.599974       -16.3261
  56   2.0000      -0.595121       -16.1941
  57   2.0000      -0.584318       -15.9001
  58   2.0000      -0.573331       -15.6011
  59   2.0000      -0.565222       -15.3805
  60   2.0000      -0.561014       -15.2660
  61   2.0000      -0.546163       -14.8619
  62   2.0000      -0.533923       -14.5288
  63   2.0000      -0.526300       -14.3213
  64   2.0000      -0.517360       -14.0781
  65   2.0000      -0.510091       -13.8803
  66   2.0000      -0.500943       -13.6314
  67   2.0000      -0.495595       -13.4858
  68   2.0000      -0.480434       -13.0733
  69   2.0000      -0.462403       -12.5826
  70   2.0000      -0.457305       -12.4439
  71   2.0000      -0.455386       -12.3917
  72   2.0000      -0.354128        -9.6363
  73   2.0000      -0.344203        -9.3662
  74   2.0000      -0.327236        -8.9045
  75   2.0000      -0.315716        -8.5911
  76   2.0000      -0.314037        -8.5454
  77   0.0000       0.075423         2.0524
  78   0.0000       0.112509         3.0615
  79   0.0000       0.121465         3.3052
  80   0.0000       0.135713         3.6929
  81   0.0000       0.140334         3.8187

MULLIKEN ATOMIC CHARGES
-----------------------
   0 C :   -0.277790
   1 C :    0.036432
   2 O :   -0.350521
   3 C :    0.438568
   4 O :   -0.427631
   5 C :   -0.166278
   6 C :    0.144460
   7 C :   -0.284162
   8 N :   -0.122674
   9 C :    0.201429
  10 S :   -0.439368
  11 N :   -0.197331
  12 C :    0.037572
  13 C :    0.055486
  14 C :   -0.162425
  15 C :   -0.134194
  16 C :   -0.279128
  17 C :    0.311430
  18 O :   -0.358983
  19 C :   -0.271822
  20 H :    0.090658
  21 H :    0.092662
  22 H :    0.108756
  23 H :    0.101173
  24 H :    0.107680
  25 H :    0.126160
  26 H :    0.102118
  27 H :    0.127462
  28 H :    0.196861
  29 H :    0.193685
  30 H :    0.153655
  31 H :    0.153845
  32 H :    0.159272
  33 H :    0.128166
  34 H :    0.240059
  35 H :    0.164716
Sum of atomic charges:   -0.0000000

LOEWDIN ATOMIC CHARGES
----------------------
   0 C :    0.104186
   1 C :   -0.014832
   2 O :    0.304979
   3 C :   -0.414239
   4 O :    0.105746
   5 C :   -0.091126
   6 C :   -0.066759
   7 C :    0.125129
   8 N :    0.404741
   9 C :   -0.458776
  10 S :   -0.036057
  11 N :    0.397734
  12 C :   -0.046196
  13 C :   -0.039016
  14 C :    0.021703
  15 C :    0.040615
  16 C :   -0.002356
  17 C :   -0.192610
  18 O :    0.393053
  19 C :    0.028570
  20 H :   -0.029785
  21 H :   -0.027343
  22 H :   -0.023714
  23 H :   -0.028278
  24 H :   -0.025945
  25 H :   -0.008592
  26 H :   -0.020809
  27 H :   -0.009525
  28 H :   -0.059072
  29 H :   -0.063717
  30 H :   -0.004967
  31 H :   -0.025298
  32 H :   -0.021223
  33 H :   -0.036379
  34 H :   -0.154873
  35 H :   -0.024970

  Mayer bond orders larger than 0.100000
B(  0-C ,  1-C ) :   0.9694 B(  0-C , 20-H ) :   0.9781 B(  0-C , 21-H ) :   0.9762
B(  0-C , 22-H ) :   0.9765 B(  1-C ,  2-O ) :   0.8923 B(  1-C , 23-H ) :   0.9837
B(  1-C , 24-H ) :   0.9734 B(  2-O ,  3-C ) :   1.1382 B(  3-C ,  4-O ) :   1.9735
B(  3-C ,  5-C ) :   1.0568 B(  5-C ,  6-C ) :   1.6515 B(  5-C , 12-C ) :   0.9648
B(  6-C ,  7-C ) :   0.9543 B(  6-C ,  8-N ) :   1.1445 B(  7-C , 25-H ) :   0.9668
B(  7-C , 26-H ) :   0.9909 B(  7-C , 27-H ) :   0.9634 B(  8-N ,  9-C ) :   1.1796
B(  8-N , 28-H ) :   0.9489 B(  9-C , 10-S ) :   1.6107 B(  9-C , 11-N ) :   1.3035
B( 11-N , 12-C ) :   0.9921 B( 11-N , 29-H ) :   0.9519 B( 12-C , 13-C ) :   0.9472
B( 12-C , 30-H ) :   0.9996 B( 13-C , 14-C ) :   1.3755 B( 13-C , 19-C ) :   1.3698
B( 14-C , 15-C ) :   1.3944 B( 14-C , 31-H ) :   0.9648 B( 15-C , 16-C ) :   1.3626
B( 15-C , 32-H ) :   0.9714 B( 16-C , 17-C ) :   1.3314 B( 16-C , 33-H ) :   0.9860
B( 17-C , 18-O ) :   1.1081 B( 17-C , 19-C ) :   1.3787 B( 18-O , 34-H ) :   0.9806
B( 19-C , 35-H ) :   0.9585

MP2 TOTAL ENERGY:    -1274.343477425 Eh
FINAL SINGLE POINT ENERGY     -1274.343477424636

DIPOLE MOMENT
-------------
                                X             Y             Z
Electronic contribution:     10.57818       9.67789      11.49430
Nuclear contribution   :    -12.23908     -10.83627     -12.29349
                        -----------------------------------------
Total Dipole Moment    :     -1.66090      -1.15839      -0.79919
                        -----------------------------------------
Magnitude (a.u.)       :      2.17696
Magnitude (Debye)      :      5.53339

Rotational constants in cm-1:     0.010576     0.008865     0.005806
Rotational constants in MHz :   317.057083   265.755004   174.072513

                             ****ORCA TERMINATED NORMALLY****
TOTAL RUN TIME: 0 days 1 hours 51 minutes 51 seconds 910 msec
