                         Program Version 5.0.0 -  RELEASE  -
|  1> ! ri-mp2 cc-pvtz cc-pvtz/c TightSCF NoKeepInts
|  2>
|  3> %scf
|  4>   MaxCore 4096
|  5> end
|  6> *xyz  0  1
|  7>     C       14.9073585   14.4068795   16.5147127
|  8>     C       16.3859930   14.0085089   16.7160893
|  9>     O       17.3432424   15.0778243   16.4980839
| 10>     C       17.0108307   16.4001889   16.3709416
| 11>     O       16.2278790   16.7981028   15.5263155
| 12>     C       17.6723378   17.2758743   17.4007942
| 13>     C       17.5029416   18.6229531   17.4252776
| 14>     C       16.6631841   19.4606367   16.4844865
| 15>     N       18.1658896   19.3970286   18.3820536
| 16>     C       19.0812719   18.9192718   19.2806800
| 17>     S       19.8855222   19.9173237   20.3262025
| 18>     N       19.3029966   17.5663517   19.2673603
| 19>     C       18.5550634   16.5884767   18.4572049
| 20>     C       17.7628380   15.6686707   19.3817141
| 21>     C       18.2757702   14.4036899   19.7255297
| 22>     C       17.5520785   13.5434632   20.5683936
| 23>     C       16.3067515   13.9525048   21.0749067
| 24>     C       15.7979676   15.2157134   20.7436402
| 25>     O       14.5971809   15.6147144   21.2328059
| 26>     C       16.5206790   16.0702391   19.9056142
| 27>     H       14.6230068   15.2313451   17.1807243
| 28>     H       14.2531162   13.5560501   16.7392209
| 29>     H       14.7176405   14.7070044   15.4763891
| 30>     H       16.4986015   13.6392582   17.7429476
| 31>     H       16.6268835   13.1732586   16.0461313
| 32>     H       15.6099795   19.1556432   16.5325303
| 33>     H       16.9951176   19.3253456   15.4471115
| 34>     H       16.7075726   20.5329869   16.7078081
| 35>     H       18.0183184   20.3934132   18.4041413
| 36>     H       19.9563887   17.2406285   19.9678223
| 37>     H       19.2931565   15.9782974   17.9174489
| 38>     H       19.2375475   14.0840500   19.3328868
| 39>     H       17.9569100   12.5665657   20.8279428
| 40>     H       15.7442107   13.2920227   21.7267927
| 41>     H       14.2791177   14.9206582   21.8297675
| 42>     H       16.1116560   17.0470558   19.6715274
| 43> *
| 44>
| 45>                          ****END OF INPUT****

CARTESIAN COORDINATES (ANGSTROEM)
---------------------------------
  C     14.907358   14.406880   16.514713
  C     16.385993   14.008509   16.716089
  O     17.343242   15.077824   16.498084
  C     17.010831   16.400189   16.370942
  O     16.227879   16.798103   15.526316
  C     17.672338   17.275874   17.400794
  C     17.502942   18.622953   17.425278
  C     16.663184   19.460637   16.484486
  N     18.165890   19.397029   18.382054
  C     19.081272   18.919272   19.280680
  S     19.885522   19.917324   20.326203
  N     19.302997   17.566352   19.267360
  C     18.555063   16.588477   18.457205
  C     17.762838   15.668671   19.381714
  C     18.275770   14.403690   19.725530
  C     17.552079   13.543463   20.568394
  C     16.306752   13.952505   21.074907
  C     15.797968   15.215713   20.743640
  O     14.597181   15.614714   21.232806
  C     16.520679   16.070239   19.905614
  H     14.623007   15.231345   17.180724
  H     14.253116   13.556050   16.739221
  H     14.717640   14.707004   15.476389
  H     16.498601   13.639258   17.742948
  H     16.626884   13.173259   16.046131
  H     15.609979   19.155643   16.532530
  H     16.995118   19.325346   15.447112
  H     16.707573   20.532987   16.707808
  H     18.018318   20.393413   18.404141
  H     19.956389   17.240628   19.967822
  H     19.293156   15.978297   17.917449
  H     19.237548   14.084050   19.332887
  H     17.956910   12.566566   20.827943
  H     15.744211   13.292023   21.726793
  H     14.279118   14.920658   21.829767
  H     16.111656   17.047056   19.671527

 Total Charge           Charge          ....    0
 Multiplicity           Mult            ....    1
 Number of Electrons    NEL             ....  154
 Basis Dimension        Dim             ....  828

ORBITAL ENERGIES
----------------

  NO   OCC          E(Eh)            E(eV)
   0   2.0000     -91.889287     -2500.4346
   1   2.0000     -20.601853      -560.6049
   2   2.0000     -20.586621      -560.1904
   3   2.0000     -20.542376      -558.9865
   4   2.0000     -15.629459      -425.2992
   5   2.0000     -15.608902      -424.7398
   6   2.0000     -11.394077      -310.0486
   7   2.0000     -11.384416      -309.7857
   8   2.0000     -11.336370      -308.4783
   9   2.0000     -11.319517      -308.0197
  10   2.0000     -11.310008      -307.7610
  11   2.0000     -11.297869      -307.4306
  12   2.0000     -11.264604      -306.5255
  13   2.0000     -11.260842      -306.4231
  14   2.0000     -11.257993      -306.3456
  15   2.0000     -11.252433      -306.1943
  16   2.0000     -11.248057      -306.0752
  17   2.0000     -11.242809      -305.9324
  18   2.0000     -11.242720      -305.9300
  19   2.0000     -11.222495      -305.3796
  20   2.0000      -8.894353      -242.0276
  21   2.0000      -6.575929      -178.9401
  22   2.0000      -6.573922      -178.8855
  23   2.0000      -6.573337      -178.8696
  24   2.0000      -1.440671       -39.2027
  25   2.0000      -1.421476       -38.6803
  26   2.0000      -1.350482       -36.7485
  27   2.0000      -1.340666       -36.4814
  28   2.0000      -1.239506       -33.7287
  29   2.0000      -1.162084       -31.6219
  30   2.0000      -1.120834       -30.4995
  31   2.0000      -1.045621       -28.4528
  32   2.0000      -1.031835       -28.0777
  33   2.0000      -1.020361       -27.7654
  34   2.0000      -0.997031       -27.1306
  35   2.0000      -0.984932       -26.8014
  36   2.0000      -0.924452       -25.1556
  37   2.0000      -0.894534       -24.3415
  38   2.0000      -0.848847       -23.0983
  39   2.0000      -0.841697       -22.9037
  40   2.0000      -0.838101       -22.8059
  41   2.0000      -0.820095       -22.3159
  42   2.0000      -0.744545       -20.2601
  43   2.0000      -0.734231       -19.9794
  44   2.0000      -0.717604       -19.5270
  45   2.0000      -0.700085       -19.0503
  46   2.0000      -0.689095       -18.7512
  47   2.0000      -0.674164       -18.3449
  48   2.0000      -0.669106       -18.2073
  49   2.0000      -0.661588       -18.0027
  50   2.0000      -0.652803       -17.7637
  51   2.0000      -0.645412       -17.5626
  52   2.0000      -0.638105       -17.3637
  53   2.0000      -0.615516       -16.7490
  54   2.0000      -0.612357       -16.6631
  55   2.0000      -0.603859       -16.4318
  56   2.0000      -0.600940       -16.3524
  57   2.0000      -0.581400       -15.8207
  58   2.0000      -0.571594       -15.5539
  59   2.0000      -0.567709       -15.4482
  60   2.0000      -0.552571       -15.0362
  61   2.0000      -0.539737       -14.6870
  62   2.0000      -0.534496       -14.5444
  63   2.0000      -0.529538       -14.4095
  64   2.0000      -0.522174       -14.2091
  65   2.0000      -0.514561       -14.0019
  66   2.0000      -0.503702       -13.7064
  67   2.0000      -0.492563       -13.4033
  68   2.0000      -0.489258       -13.3134
  69   2.0000      -0.463028       -12.5996
  70   2.0000      -0.452540       -12.3142
  71   2.0000      -0.440641       -11.9905
  72   2.0000      -0.355292        -9.6680
  73   2.0000      -0.353552        -9.6206
  74   2.0000      -0.330026        -8.9805
  75   2.0000      -0.326056        -8.8724
  76   2.0000      -0.317274        -8.6335
  77   0.0000       0.074320         2.0223
  78   0.0000       0.100879         2.7451
  79   0.0000       0.122182         3.3247
  80   0.0000       0.130028         3.5382
  81   0.0000       0.132498         3.6055

MULLIKEN ATOMIC CHARGES
-----------------------
   0 C :   -0.302934
   1 C :    0.034633
   2 O :   -0.385183
   3 C :    0.468873
   4 O :   -0.412346
   5 C :   -0.265231
   6 C :    0.169288
   7 C :   -0.268895
   8 N :   -0.124607
   9 C :    0.217622
  10 S :   -0.442104
  11 N :   -0.213184
  12 C :    0.084777
  13 C :    0.040539
  14 C :   -0.196722
  15 C :   -0.131200
  16 C :   -0.275310
  17 C :    0.310548
  18 O :   -0.356647
  19 C :   -0.253160
  20 H :    0.100284
  21 H :    0.100785
  22 H :    0.123367
  23 H :    0.104377
  24 H :    0.111408
  25 H :    0.129652
  26 H :    0.133289
  27 H :    0.095312
  28 H :    0.197021
  29 H :    0.195923
  30 H :    0.149045
  31 H :    0.150773
  32 H :    0.163306
  33 H :    0.133152
  34 H :    0.242046
  35 H :    0.171502
Sum of atomic charges:    0.0000000

LOEWDIN ATOMIC CHARGES
----------------------
   0 C :    0.104082
   1 C :   -0.010611
   2 O :    0.287365
   3 C :   -0.417403
   4 O :    0.112743
   5 C :   -0.097894
   6 C :   -0.058541
   7 C :    0.131365
   8 N :    0.407102
   9 C :   -0.454775
  10 S :   -0.036256
  11 N :    0.395909
  12 C :   -0.052275
  13 C :   -0.035590
  14 C :    0.012359
  15 C :    0.040957
  16 C :   -0.002622
  17 C :   -0.189470
  18 O :    0.396503
  19 C :    0.030539
  20 H :   -0.029099
  21 H :   -0.025797
  22 H :   -0.024298
  23 H :   -0.030600
  24 H :   -0.026995
  25 H :   -0.005378
  26 H :   -0.003276
  27 H :   -0.023440
  28 H :   -0.057490
  29 H :   -0.065397
  30 H :   -0.010062
  31 H :   -0.029516
  32 H :   -0.019912
  33 H :   -0.034705
  34 H :   -0.152595
  35 H :   -0.024928

  Mayer bond orders larger than 0.100000
B(  0-C ,  1-C ) :   0.9739 B(  0-C , 20-H ) :   0.9738 B(  0-C , 21-H ) :   0.9739
B(  0-C , 22-H ) :   0.9719 B(  1-C ,  2-O ) :   0.8913 B(  1-C , 23-H ) :   0.9701
B(  1-C , 24-H ) :   0.9830 B(  2-O ,  3-C ) :   1.1180 B(  3-C ,  4-O ) :   2.0091
B(  3-C ,  5-C ) :   1.0514 B(  5-C ,  6-C ) :   1.6449 B(  5-C , 12-C ) :   0.9726
B(  6-C ,  7-C ) :   0.9653 B(  6-C ,  8-N ) :   1.1627 B(  7-C , 25-H ) :   0.9609
B(  7-C , 26-H ) :   0.9593 B(  7-C , 27-H ) :   0.9905 B(  8-N ,  9-C ) :   1.1854
B(  8-N , 28-H ) :   0.9477 B(  9-C , 10-S ) :   1.6006 B(  9-C , 11-N ) :   1.3096
B( 11-N , 12-C ) :   0.9694 B( 11-N , 29-H ) :   0.9511 B( 12-C , 13-C ) :   0.9433
B( 12-C , 30-H ) :   1.0007 B( 13-C , 14-C ) :   1.3514 B( 13-C , 19-C ) :   1.3705
B( 14-C , 15-C ) :   1.3953 B( 14-C , 31-H ) :   0.9741 B( 15-C , 16-C ) :   1.3598
B( 15-C , 32-H ) :   0.9703 B( 16-C , 17-C ) :   1.3316 B( 16-C , 33-H ) :   0.9842
B( 17-C , 18-O ) :   1.1113 B( 17-C , 19-C ) :   1.3683 B( 18-O , 34-H ) :   0.9790
B( 19-C , 35-H ) :   0.9573

MP2 TOTAL ENERGY:    -1274.336391178 Eh
FINAL SINGLE POINT ENERGY     -1274.336391177953

DIPOLE MOMENT
-------------
                                X             Y             Z
Electronic contribution:     10.04898       9.36538       6.35203
Nuclear contribution   :    -11.02632     -11.06682      -6.30792
                        -----------------------------------------
Total Dipole Moment    :     -0.97734      -1.70144       0.04411
                        -----------------------------------------
Magnitude (a.u.)       :      1.96266
Magnitude (Debye)      :      4.98869

Rotational constants in cm-1:     0.012690     0.008734     0.006435
Rotational constants in MHz :   380.450173   261.832448   192.901707

                             ****ORCA TERMINATED NORMALLY****
TOTAL RUN TIME: 0 days 2 hours 6 minutes 34 seconds 624 msec
