                         Program Version 5.0.0 -  RELEASE  -
|  1> ! ri-mp2 cc-pvtz cc-pvtz/c TightSCF NoKeepInts
|  2>
|  3> %scf
|  4>   MaxCore 4096
|  5> end
|  6> *xyz  0  1
|  7>     C       15.3067271   13.6672780   15.8005982
|  8>     C       15.8441101   14.5407103   16.9464811
|  9>     O       16.9596519   15.2916304   16.4329013
| 10>     C       16.8221124   16.6459099   16.3479864
| 11>     O       15.9238908   17.1276413   15.6806913
| 12>     C       17.5354542   17.3882123   17.4470873
| 13>     C       17.3833053   18.7245175   17.6380291
| 14>     C       16.4905648   19.6696226   16.8621327
| 15>     N       18.1357414   19.3828630   18.6155419
| 16>     C       19.1683801   18.8197643   19.3165393
| 17>     S       20.1091520   19.7020749   20.3519945
| 18>     N       19.3924454   17.4836742   19.1039920
| 19>     C       18.5034462   16.5908836   18.3394076
| 20>     C       17.7887807   15.6545864   19.3086258
| 21>     C       18.2523773   14.3375241   19.4876662
| 22>     C       17.6018329   13.4649931   20.3762486
| 23>     C       16.4820610   13.9143047   21.0966021
| 24>     C       16.0251637   15.2287222   20.9303291
| 25>     O       14.9460557   15.6666950   21.6259594
| 26>     C       16.6734523   16.0945801   20.0443175
| 27>     H       14.9593873   14.2954863   14.9702898
| 28>     H       14.4637809   13.0558885   16.1443551
| 29>     H       16.0891947   12.9969946   15.4240391
| 30>     H       15.0518910   15.2020169   17.3247667
| 31>     H       16.1721834   13.8921413   17.7678559
| 32>     H       15.4380478   19.3749397   16.9620527
| 33>     H       16.7368046   19.6434761   15.7929134
| 34>     H       16.5755778   20.7109742   17.1941393
| 35>     H       17.9901621   20.3668246   18.7762436
| 36>     H       20.1427725   17.0903143   19.6572352
| 37>     H       19.1353808   15.9819900   17.6772432
| 38>     H       19.1174471   13.9867278   18.9308451
| 39>     H       17.9668318   12.4473563   20.5061387
| 40>     H       15.9771572   13.2444380   21.7851448
| 41>     H       14.6766633   14.9554820   22.2268294
| 42>     H       16.3090121   17.1107617   19.9407765
| 43> *
| 44>
| 45>                          ****END OF INPUT****

CARTESIAN COORDINATES (ANGSTROEM)
---------------------------------
  C     15.306727   13.667278   15.800598
  C     15.844110   14.540710   16.946481
  O     16.959652   15.291630   16.432901
  C     16.822112   16.645910   16.347986
  O     15.923891   17.127641   15.680691
  C     17.535454   17.388212   17.447087
  C     17.383305   18.724518   17.638029
  C     16.490565   19.669623   16.862133
  N     18.135741   19.382863   18.615542
  C     19.168380   18.819764   19.316539
  S     20.109152   19.702075   20.351994
  N     19.392445   17.483674   19.103992
  C     18.503446   16.590884   18.339408
  C     17.788781   15.654586   19.308626
  C     18.252377   14.337524   19.487666
  C     17.601833   13.464993   20.376249
  C     16.482061   13.914305   21.096602
  C     16.025164   15.228722   20.930329
  O     14.946056   15.666695   21.625959
  C     16.673452   16.094580   20.044317
  H     14.959387   14.295486   14.970290
  H     14.463781   13.055889   16.144355
  H     16.089195   12.996995   15.424039
  H     15.051891   15.202017   17.324767
  H     16.172183   13.892141   17.767856
  H     15.438048   19.374940   16.962053
  H     16.736805   19.643476   15.792913
  H     16.575578   20.710974   17.194139
  H     17.990162   20.366825   18.776244
  H     20.142772   17.090314   19.657235
  H     19.135381   15.981990   17.677243
  H     19.117447   13.986728   18.930845
  H     17.966832   12.447356   20.506139
  H     15.977157   13.244438   21.785145
  H     14.676663   14.955482   22.226829
  H     16.309012   17.110762   19.940776

 Total Charge           Charge          ....    0
 Multiplicity           Mult            ....    1
 Number of Electrons    NEL             ....  154
 Basis Dimension        Dim             ....  828

ORBITAL ENERGIES
----------------

  NO   OCC          E(Eh)            E(eV)
   0   2.0000     -91.890555     -2500.4691
   1   2.0000     -20.601823      -560.6041
   2   2.0000     -20.583099      -560.0946
   3   2.0000     -20.546985      -559.1119
   4   2.0000     -15.631192      -425.3464
   5   2.0000     -15.609833      -424.7652
   6   2.0000     -11.393540      -310.0340
   7   2.0000     -11.385426      -309.8132
   8   2.0000     -11.337892      -308.5197
   9   2.0000     -11.319520      -308.0198
  10   2.0000     -11.311721      -307.8076
  11   2.0000     -11.293152      -307.3023
  12   2.0000     -11.264317      -306.5176
  13   2.0000     -11.260880      -306.4241
  14   2.0000     -11.259982      -306.3997
  15   2.0000     -11.253752      -306.2302
  16   2.0000     -11.248260      -306.0807
  17   2.0000     -11.242913      -305.9352
  18   2.0000     -11.242856      -305.9337
  19   2.0000     -11.218770      -305.2783
  20   2.0000      -8.895599      -242.0616
  21   2.0000      -6.577169      -178.9739
  22   2.0000      -6.575169      -178.9194
  23   2.0000      -6.574577      -178.9033
  24   2.0000      -1.448883       -39.4261
  25   2.0000      -1.421466       -38.6801
  26   2.0000      -1.352365       -36.7997
  27   2.0000      -1.342252       -36.5245
  28   2.0000      -1.240788       -33.7635
  29   2.0000      -1.162236       -31.6260
  30   2.0000      -1.121717       -30.5235
  31   2.0000      -1.046136       -28.4668
  32   2.0000      -1.031633       -28.0722
  33   2.0000      -1.020479       -27.7687
  34   2.0000      -0.997503       -27.1434
  35   2.0000      -0.985585       -26.8191
  36   2.0000      -0.925507       -25.1843
  37   2.0000      -0.879917       -23.9438
  38   2.0000      -0.849764       -23.1233
  39   2.0000      -0.842427       -22.9236
  40   2.0000      -0.838364       -22.8130
  41   2.0000      -0.827287       -22.5116
  42   2.0000      -0.758988       -20.6531
  43   2.0000      -0.735885       -20.0244
  44   2.0000      -0.723584       -19.6897
  45   2.0000      -0.700801       -19.0698
  46   2.0000      -0.691272       -18.8105
  47   2.0000      -0.678356       -18.4590
  48   2.0000      -0.671140       -18.2626
  49   2.0000      -0.657002       -17.8779
  50   2.0000      -0.648846       -17.6560
  51   2.0000      -0.645936       -17.5768
  52   2.0000      -0.634548       -17.2669
  53   2.0000      -0.612849       -16.6765
  54   2.0000      -0.607434       -16.5291
  55   2.0000      -0.602147       -16.3853
  56   2.0000      -0.599298       -16.3077
  57   2.0000      -0.582454       -15.8494
  58   2.0000      -0.573627       -15.6092
  59   2.0000      -0.568606       -15.4726
  60   2.0000      -0.566236       -15.4081
  61   2.0000      -0.539400       -14.6778
  62   2.0000      -0.534731       -14.5508
  63   2.0000      -0.529716       -14.4143
  64   2.0000      -0.516571       -14.0566
  65   2.0000      -0.509866       -13.8742
  66   2.0000      -0.504602       -13.7309
  67   2.0000      -0.496626       -13.5139
  68   2.0000      -0.489581       -13.3222
  69   2.0000      -0.464369       -12.6361
  70   2.0000      -0.452188       -12.3047
  71   2.0000      -0.444897       -12.1063
  72   2.0000      -0.356877        -9.7111
  73   2.0000      -0.354667        -9.6510
  74   2.0000      -0.330753        -9.0002
  75   2.0000      -0.326478        -8.8839
  76   2.0000      -0.317990        -8.6530
  77   0.0000       0.069630         1.8947
  78   0.0000       0.101300         2.7565
  79   0.0000       0.122076         3.3219
  80   0.0000       0.128446         3.4952
  81   0.0000       0.132243         3.5985

MULLIKEN ATOMIC CHARGES
-----------------------
   0 C :   -0.262011
   1 C :    0.025654
   2 O :   -0.386247
   3 C :    0.488629
   4 O :   -0.413094
   5 C :   -0.272045
   6 C :    0.162045
   7 C :   -0.268551
   8 N :   -0.123759
   9 C :    0.216067
  10 S :   -0.439028
  11 N :   -0.207789
  12 C :    0.064712
  13 C :    0.033249
  14 C :   -0.183901
  15 C :   -0.136964
  16 C :   -0.272644
  17 C :    0.301605
  18 O :   -0.355722
  19 C :   -0.229806
  20 H :    0.109032
  21 H :    0.085409
  22 H :    0.091195
  23 H :    0.095686
  24 H :    0.119718
  25 H :    0.130527
  26 H :    0.132569
  27 H :    0.095435
  28 H :    0.197961
  29 H :    0.194387
  30 H :    0.149716
  31 H :    0.150161
  32 H :    0.163711
  33 H :    0.133506
  34 H :    0.242078
  35 H :    0.168508
Sum of atomic charges:    0.0000000

LOEWDIN ATOMIC CHARGES
----------------------
   0 C :    0.105694
   1 C :   -0.017502
   2 O :    0.291323
   3 C :   -0.421016
   4 O :    0.114531
   5 C :   -0.098395
   6 C :   -0.057740
   7 C :    0.131284
   8 N :    0.407392
   9 C :   -0.455508
  10 S :   -0.033942
  11 N :    0.396026
  12 C :   -0.052850
  13 C :   -0.035896
  14 C :    0.012108
  15 C :    0.040987
  16 C :   -0.001985
  17 C :   -0.189644
  18 O :    0.396412
  19 C :    0.032044
  20 H :   -0.023489
  21 H :   -0.029713
  22 H :   -0.028581
  23 H :   -0.029698
  24 H :   -0.028089
  25 H :   -0.005158
  26 H :   -0.003346
  27 H :   -0.023139
  28 H :   -0.057264
  29 H :   -0.065407
  30 H :   -0.008061
  31 H :   -0.029615
  32 H :   -0.019784
  33 H :   -0.034495
  34 H :   -0.152496
  35 H :   -0.024989

  Mayer bond orders larger than 0.100000
B(  0-C ,  1-C ) :   0.9862 B(  0-C , 20-H ) :   0.9779 B(  0-C , 21-H ) :   0.9779
B(  0-C , 22-H ) :   0.9792 B(  1-C ,  2-O ) :   0.8674 B(  1-C , 23-H ) :   0.9700
B(  1-C , 24-H ) :   0.9706 B(  2-O ,  3-C ) :   1.0970 B(  3-C ,  4-O ) :   1.9971
B(  3-C ,  5-C ) :   1.0779 B(  5-C ,  6-C ) :   1.6445 B(  5-C , 12-C ) :   0.9701
B(  6-C ,  7-C ) :   0.9676 B(  6-C ,  8-N ) :   1.1608 B(  7-C , 25-H ) :   0.9607
B(  7-C , 26-H ) :   0.9592 B(  7-C , 27-H ) :   0.9901 B(  8-N ,  9-C ) :   1.1817
B(  8-N , 28-H ) :   0.9476 B(  9-C , 10-S ) :   1.6059 B(  9-C , 11-N ) :   1.3073
B( 11-N , 12-C ) :   0.9657 B( 11-N , 29-H ) :   0.9524 B( 12-C , 13-C ) :   0.9480
B( 12-C , 30-H ) :   1.0019 B( 13-C , 14-C ) :   1.3506 B( 13-C , 19-C ) :   1.3688
B( 14-C , 15-C ) :   1.3948 B( 14-C , 31-H ) :   0.9741 B( 15-C , 16-C ) :   1.3616
B( 15-C , 32-H ) :   0.9700 B( 16-C , 17-C ) :   1.3303 B( 16-C , 33-H ) :   0.9838
B( 17-C , 18-O ) :   1.1144 B( 17-C , 19-C ) :   1.3750 B( 18-O , 34-H ) :   0.9787
B( 19-C , 35-H ) :   0.9585

MP2 TOTAL ENERGY:    -1274.331466014 Eh
FINAL SINGLE POINT ENERGY     -1274.331466014045

DIPOLE MOMENT
-------------
                                X             Y             Z
Electronic contribution:      9.99623      10.19432       7.27169
Nuclear contribution   :    -10.94438     -11.67619      -7.14131
                        -----------------------------------------
Total Dipole Moment    :     -0.94815      -1.48186       0.13038
                        -----------------------------------------
Magnitude (a.u.)       :      1.76406
Magnitude (Debye)      :      4.48388

Rotational constants in cm-1:     0.012252     0.008752     0.006309
Rotational constants in MHz :   367.292442   262.381775   189.147837

                             ****ORCA TERMINATED NORMALLY****
TOTAL RUN TIME: 0 days 1 hours 53 minutes 7 seconds 470 msec
