                         Program Version 5.0.0 -  RELEASE  -
|  1> ! ri-mp2 cc-pvtz cc-pvtz/c TightSCF NoKeepInts
|  2>
|  3> %scf
|  4>   MaxCore 4096
|  5> end
|  6> *xyz  0  1
|  7>     C       14.7324453   14.4780845   17.2902856
|  8>     C       15.5803856   15.6094387   16.6871236
|  9>     O       16.8721816   15.0443713   16.3894511
| 10>     C       18.0806786   15.6844361   16.5171020
| 11>     O       19.1015465   15.0327628   16.3987875
| 12>     C       18.0782408   16.9035611   17.3772706
| 13>     C       17.5813689   18.0875109   16.9535657
| 14>     C       16.9790468   18.3834841   15.5971868
| 15>     N       17.6470891   19.2064910   17.7862091
| 16>     C       18.2739111   19.2331882   19.0055581
| 17>     S       18.3518840   20.6153518   19.9096367
| 18>     N       18.8269761   18.0537108   19.4429508
| 19>     C       18.7199247   16.7516782   18.7537250
| 20>     C       17.9426507   15.7376927   19.5872432
| 21>     C       18.3970026   14.4100270   19.6861598
| 22>     C       17.6733355   13.4584351   20.4238235
| 23>     C       16.4813974   13.8353934   21.0654492
| 24>     C       16.0203178   15.1545159   20.9616528
| 25>     O       14.8602400   15.5176512   21.5639601
| 26>     C       16.7425418   16.1001013   20.2269276
| 27>     H       15.2109039   14.0784114   18.1934596
| 28>     H       14.6153543   13.6573405   16.5716783
| 29>     H       13.7352457   14.8439043   17.5630962
| 30>     H       15.1109955   16.0043791   15.7770491
| 31>     H       15.6339639   16.4067751   17.4372267
| 32>     H       17.1424020   17.5678257   14.8819644
| 33>     H       17.4306741   19.2818501   15.1569585
| 34>     H       15.8980705   18.5529865   15.6739120
| 35>     H       17.2594677   20.0850351   17.4792939
| 36>     H       19.2632529   18.0991867   20.3552754
| 37>     H       19.7393321   16.3654025   18.6056292
| 38>     H       19.3073470   14.1101508   19.1712244
| 39>     H       18.0336012   12.4330238   20.4874590
| 40>     H       15.9175095   13.1018010   21.6320903
| 41>     H       14.5420698   14.7518639   22.0658600
| 42>     H       16.3636449   17.1141774   20.1577542
| 43> *
| 44>
| 45>                          ****END OF INPUT****

CARTESIAN COORDINATES (ANGSTROEM)
---------------------------------
  C     14.732445   14.478084   17.290286
  C     15.580386   15.609439   16.687124
  O     16.872182   15.044371   16.389451
  C     18.080679   15.684436   16.517102
  O     19.101547   15.032763   16.398788
  C     18.078241   16.903561   17.377271
  C     17.581369   18.087511   16.953566
  C     16.979047   18.383484   15.597187
  N     17.647089   19.206491   17.786209
  C     18.273911   19.233188   19.005558
  S     18.351884   20.615352   19.909637
  N     18.826976   18.053711   19.442951
  C     18.719925   16.751678   18.753725
  C     17.942651   15.737693   19.587243
  C     18.397003   14.410027   19.686160
  C     17.673336   13.458435   20.423824
  C     16.481397   13.835393   21.065449
  C     16.020318   15.154516   20.961653
  O     14.860240   15.517651   21.563960
  C     16.742542   16.100101   20.226928
  H     15.210904   14.078411   18.193460
  H     14.615354   13.657340   16.571678
  H     13.735246   14.843904   17.563096
  H     15.110995   16.004379   15.777049
  H     15.633964   16.406775   17.437227
  H     17.142402   17.567826   14.881964
  H     17.430674   19.281850   15.156958
  H     15.898070   18.552986   15.673912
  H     17.259468   20.085035   17.479294
  H     19.263253   18.099187   20.355275
  H     19.739332   16.365402   18.605629
  H     19.307347   14.110151   19.171224
  H     18.033601   12.433024   20.487459
  H     15.917509   13.101801   21.632090
  H     14.542070   14.751864   22.065860
  H     16.363645   17.114177   20.157754

 Total Charge           Charge          ....    0
 Multiplicity           Mult            ....    1
 Number of Electrons    NEL             ....  154
 Basis Dimension        Dim             ....  828

ORBITAL ENERGIES
----------------

  NO   OCC          E(Eh)            E(eV)
   0   2.0000     -91.889896     -2500.4512
   1   2.0000     -20.602788      -560.6304
   2   2.0000     -20.600315      -560.5631
   3   2.0000     -20.549998      -559.1939
   4   2.0000     -15.626551      -425.2201
   5   2.0000     -15.611926      -424.8221
   6   2.0000     -11.397385      -310.1386
   7   2.0000     -11.386864      -309.8523
   8   2.0000     -11.327439      -308.2353
   9   2.0000     -11.317050      -307.9526
  10   2.0000     -11.315672      -307.9151
  11   2.0000     -11.303504      -307.5840
  12   2.0000     -11.270704      -306.6915
  13   2.0000     -11.264486      -306.5223
  14   2.0000     -11.263988      -306.5087
  15   2.0000     -11.257079      -306.3207
  16   2.0000     -11.246188      -306.0243
  17   2.0000     -11.242622      -305.9273
  18   2.0000     -11.239576      -305.8444
  19   2.0000     -11.228597      -305.5457
  20   2.0000      -8.895016      -242.0457
  21   2.0000      -6.576605      -178.9585
  22   2.0000      -6.574578      -178.9034
  23   2.0000      -6.574004      -178.8878
  24   2.0000      -1.449044       -39.4305
  25   2.0000      -1.420103       -38.6430
  26   2.0000      -1.359372       -36.9904
  27   2.0000      -1.339983       -36.4628
  28   2.0000      -1.239926       -33.7401
  29   2.0000      -1.161780       -31.6137
  30   2.0000      -1.126120       -30.6433
  31   2.0000      -1.049612       -28.5614
  32   2.0000      -1.039166       -28.2771
  33   2.0000      -1.019146       -27.7324
  34   2.0000      -1.005562       -27.3627
  35   2.0000      -0.989579       -26.9278
  36   2.0000      -0.928295       -25.2602
  37   2.0000      -0.881721       -23.9928
  38   2.0000      -0.855173       -23.2705
  39   2.0000      -0.841886       -22.9089
  40   2.0000      -0.837315       -22.7845
  41   2.0000      -0.836519       -22.7628
  42   2.0000      -0.756945       -20.5975
  43   2.0000      -0.740063       -20.1381
  44   2.0000      -0.731660       -19.9095
  45   2.0000      -0.698587       -19.0095
  46   2.0000      -0.689249       -18.7554
  47   2.0000      -0.682282       -18.5658
  48   2.0000      -0.677189       -18.4272
  49   2.0000      -0.660845       -17.9825
  50   2.0000      -0.656776       -17.8718
  51   2.0000      -0.647719       -17.6253
  52   2.0000      -0.640158       -17.4196
  53   2.0000      -0.612465       -16.6660
  54   2.0000      -0.608706       -16.5637
  55   2.0000      -0.605835       -16.4856
  56   2.0000      -0.600318       -16.3355
  57   2.0000      -0.585230       -15.9249
  58   2.0000      -0.578621       -15.7451
  59   2.0000      -0.569130       -15.4868
  60   2.0000      -0.560303       -15.2466
  61   2.0000      -0.557057       -15.1583
  62   2.0000      -0.548306       -14.9202
  63   2.0000      -0.529648       -14.4125
  64   2.0000      -0.519545       -14.1375
  65   2.0000      -0.514799       -14.0084
  66   2.0000      -0.502741       -13.6803
  67   2.0000      -0.502422       -13.6716
  68   2.0000      -0.488660       -13.2971
  69   2.0000      -0.471049       -12.8179
  70   2.0000      -0.452385       -12.3100
  71   2.0000      -0.450883       -12.2692
  72   2.0000      -0.356604        -9.7037
  73   2.0000      -0.352505        -9.5922
  74   2.0000      -0.329624        -8.9695
  75   2.0000      -0.324795        -8.8381
  76   2.0000      -0.318149        -8.6573
  77   0.0000       0.086855         2.3634
  78   0.0000       0.103899         2.8272
  79   0.0000       0.110302         3.0015
  80   0.0000       0.127088         3.4583
  81   0.0000       0.132984         3.6187

MULLIKEN ATOMIC CHARGES
-----------------------
   0 C :   -0.262861
   1 C :    0.005140
   2 O :   -0.306601
   3 C :    0.388562
   4 O :   -0.380648
   5 C :   -0.164783
   6 C :    0.120150
   7 C :   -0.323460
   8 N :   -0.136033
   9 C :    0.204275
  10 S :   -0.441330
  11 N :   -0.213506
  12 C :    0.065531
  13 C :    0.034147
  14 C :   -0.192494
  15 C :   -0.125867
  16 C :   -0.281431
  17 C :    0.307355
  18 O :   -0.360943
  19 C :   -0.274369
  20 H :    0.110963
  21 H :    0.105913
  22 H :    0.089170
  23 H :    0.107434
  24 H :    0.098191
  25 H :    0.124156
  26 H :    0.137502
  27 H :    0.123394
  28 H :    0.196044
  29 H :    0.198280
  30 H :    0.165011
  31 H :    0.165994
  32 H :    0.163723
  33 H :    0.132988
  34 H :    0.241997
  35 H :    0.178411
Sum of atomic charges:   -0.0000000

LOEWDIN ATOMIC CHARGES
----------------------
   0 C :    0.111512
   1 C :   -0.024721
   2 O :    0.315606
   3 C :   -0.419383
   4 O :    0.125067
   5 C :   -0.082109
   6 C :   -0.106957
   7 C :    0.125062
   8 N :    0.400591
   9 C :   -0.455574
  10 S :   -0.038183
  11 N :    0.397359
  12 C :   -0.043672
  13 C :   -0.041879
  14 C :    0.024190
  15 C :    0.046058
  16 C :   -0.000738
  17 C :   -0.193888
  18 O :    0.395088
  19 C :    0.027201
  20 H :   -0.022022
  21 H :   -0.026334
  22 H :   -0.025585
  23 H :   -0.036097
  24 H :   -0.039090
  25 H :   -0.008594
  26 H :   -0.009831
  27 H :   -0.016288
  28 H :   -0.058343
  29 H :   -0.063632
  30 H :   -0.002126
  31 H :   -0.021815
  32 H :   -0.018349
  33 H :   -0.034798
  34 H :   -0.152807
  35 H :   -0.024915

  Mayer bond orders larger than 0.100000
B(  0-C ,  1-C ) :   0.9808 B(  0-C , 20-H ) :   0.9719 B(  0-C , 21-H ) :   0.9812
B(  0-C , 22-H ) :   0.9759 B(  1-C ,  2-O ) :   0.9149 B(  1-C , 23-H ) :   0.9754
B(  1-C , 24-H ) :   0.9604 B(  2-O ,  3-C ) :   1.1728 B(  3-C ,  4-O ) :   2.0922
B(  3-C ,  5-C ) :   0.9228 B(  5-C ,  6-C ) :   1.6922 B(  5-C , 12-C ) :   0.9630
B(  6-C ,  7-C ) :   0.9436 B(  6-C ,  8-N ) :   1.1116 B(  7-C , 25-H ) :   0.9816
B(  7-C , 26-H ) :   0.9718 B(  7-C , 27-H ) :   0.9652 B(  8-N ,  9-C ) :   1.1962
B(  8-N , 28-H ) :   0.9526 B(  9-C , 10-S ) :   1.6110 B(  9-C , 11-N ) :   1.2865
B( 11-N , 12-C ) :   0.9983 B( 11-N , 29-H ) :   0.9490 B( 12-C , 13-C ) :   0.9447
B( 12-C , 30-H ) :   0.9967 B( 13-C , 14-C ) :   1.3872 B( 13-C , 19-C ) :   1.3431
B( 14-C , 15-C ) :   1.3967 B( 14-C , 31-H ) :   0.9620 B( 15-C , 16-C ) :   1.3604
B( 15-C , 32-H ) :   0.9703 B( 16-C , 17-C ) :   1.3299 B( 16-C , 33-H ) :   0.9851
B( 17-C , 18-O ) :   1.1056 B( 17-C , 19-C ) :   1.3717 B( 18-O , 34-H ) :   0.9790
B( 19-C , 35-H ) :   0.9559

MP2 TOTAL ENERGY:    -1274.331045743 Eh
FINAL SINGLE POINT ENERGY     -1274.331045742737

DIPOLE MOMENT
-------------
                                X             Y             Z
Electronic contribution:     10.40906       8.06762       6.05299
Nuclear contribution   :    -11.95506      -9.05242      -6.54717
                        -----------------------------------------
Total Dipole Moment    :     -1.54601      -0.98479      -0.49418
                        -----------------------------------------
Magnitude (a.u.)       :      1.89846
Magnitude (Debye)      :      4.82551

Rotational constants in cm-1:     0.012570     0.009056     0.006929
Rotational constants in MHz :   376.845116   271.479341   207.714813

                             ****ORCA TERMINATED NORMALLY****
TOTAL RUN TIME: 0 days 1 hours 56 minutes 48 seconds 512 msec
