                         Program Version 5.0.0 -  RELEASE  -
|  1> ! ri-mp2 cc-pvtz cc-pvtz/c TightSCF NoKeepInts
|  2>
|  3> %scf
|  4>   MaxCore 4096
|  5> end
|  6> *xyz  0  1
|  7>     C       14.2115560   15.1390048   16.3186075
|  8>     C       15.6829621   14.6988112   16.3930510
|  9>     O       16.4894026   15.8188796   15.9948276
| 10>     C       17.7596884   15.8774827   16.4841286
| 11>     O       18.4447375   14.8711596   16.5631827
| 12>     C       17.9305971   17.0141064   17.4449042
| 13>     C       17.3472388   18.2284643   17.2865821
| 14>     C       16.4772354   18.6862683   16.1345970
| 15>     N       17.5891199   19.2424898   18.2181964
| 16>     C       18.4899160   19.1598646   19.2476319
| 17>     S       18.7939474   20.4446966   20.2437158
| 18>     N       19.1272776   17.9551143   19.4101633
| 19>     C       18.8134857   16.7231275   18.6614305
| 20>     C       18.1461025   15.6971775   19.5733121
| 21>     C       18.6927028   14.4088944   19.7187263
| 22>     C       18.0711449   13.4560211   20.5430994
| 23>     C       16.8911197   13.7927213   21.2278637
| 24>     C       16.3410193   15.0733924   21.0822874
| 25>     O       15.1963926   15.3987693   21.7342092
| 26>     C       16.9618130   16.0195318   20.2609597
| 27>     H       14.0260016   15.9832873   16.9941273
| 28>     H       13.5494577   14.3147628   16.6105505
| 29>     H       13.9503939   15.4448430   15.2979000
| 30>     H       15.9155383   14.4048014   17.4267364
| 31>     H       15.8702506   13.8392600   15.7358418
| 32>     H       16.8710128   18.3244817   15.1765360
| 33>     H       16.4166627   19.7790847   16.0634642
| 34>     H       15.4563992   18.2994224   16.2437784
| 35>     H       17.1314628   20.1342854   18.1157376
| 36>     H       19.7632735   17.9127508   20.1961193
| 37>     H       19.7608781   16.3005194   18.2966469
| 38>     H       19.5943160   14.1397781   19.1737898
| 39>     H       18.5013785   12.4610181   20.6425827
| 40>     H       16.4067746   13.0589251   21.8635055
| 41>     H       14.9550641   14.6432122   22.2909646
| 42>     H       16.5206763   17.0055899   20.1642426
| 43> *
| 44>
| 45>                          ****END OF INPUT****

CARTESIAN COORDINATES (ANGSTROEM)
---------------------------------
  C     14.211556   15.139005   16.318607
  C     15.682962   14.698811   16.393051
  O     16.489403   15.818880   15.994828
  C     17.759688   15.877483   16.484129
  O     18.444737   14.871160   16.563183
  C     17.930597   17.014106   17.444904
  C     17.347239   18.228464   17.286582
  C     16.477235   18.686268   16.134597
  N     17.589120   19.242490   18.218196
  C     18.489916   19.159865   19.247632
  S     18.793947   20.444697   20.243716
  N     19.127278   17.955114   19.410163
  C     18.813486   16.723128   18.661430
  C     18.146103   15.697178   19.573312
  C     18.692703   14.408894   19.718726
  C     18.071145   13.456021   20.543099
  C     16.891120   13.792721   21.227864
  C     16.341019   15.073392   21.082287
  O     15.196393   15.398769   21.734209
  C     16.961813   16.019532   20.260960
  H     14.026002   15.983287   16.994127
  H     13.549458   14.314763   16.610550
  H     13.950394   15.444843   15.297900
  H     15.915538   14.404801   17.426736
  H     15.870251   13.839260   15.735842
  H     16.871013   18.324482   15.176536
  H     16.416663   19.779085   16.063464
  H     15.456399   18.299422   16.243778
  H     17.131463   20.134285   18.115738
  H     19.763274   17.912751   20.196119
  H     19.760878   16.300519   18.296647
  H     19.594316   14.139778   19.173790
  H     18.501379   12.461018   20.642583
  H     16.406775   13.058925   21.863505
  H     14.955064   14.643212   22.290965
  H     16.520676   17.005590   20.164243

 Total Charge           Charge          ....    0
 Multiplicity           Mult            ....    1
 Number of Electrons    NEL             ....  154
 Basis Dimension        Dim             ....  828

ORBITAL ENERGIES
----------------

  NO   OCC          E(Eh)            E(eV)
   0   2.0000     -91.888531     -2500.4141
   1   2.0000     -20.595847      -560.4415
   2   2.0000     -20.588581      -560.2438
   3   2.0000     -20.553522      -559.2898
   4   2.0000     -15.628033      -425.2604
   5   2.0000     -15.608147      -424.7193
   6   2.0000     -11.393883      -310.0433
   7   2.0000     -11.384050      -309.7757
   8   2.0000     -11.332725      -308.3791
   9   2.0000     -11.312025      -307.8159
  10   2.0000     -11.308530      -307.7207
  11   2.0000     -11.298089      -307.4366
  12   2.0000     -11.259815      -306.3951
  13   2.0000     -11.259636      -306.3903
  14   2.0000     -11.257417      -306.3299
  15   2.0000     -11.252056      -306.1840
  16   2.0000     -11.241747      -305.9035
  17   2.0000     -11.237630      -305.7915
  18   2.0000     -11.234822      -305.7151
  19   2.0000     -11.232800      -305.6600
  20   2.0000      -8.893611      -242.0074
  21   2.0000      -6.575190      -178.9200
  22   2.0000      -6.573179      -178.8653
  23   2.0000      -6.572596      -178.8494
  24   2.0000      -1.454261       -39.5724
  25   2.0000      -1.415623       -38.5211
  26   2.0000      -1.356690       -36.9174
  27   2.0000      -1.339243       -36.4427
  28   2.0000      -1.237607       -33.6770
  29   2.0000      -1.156122       -31.4597
  30   2.0000      -1.121225       -30.5101
  31   2.0000      -1.044953       -28.4346
  32   2.0000      -1.036200       -28.1964
  33   2.0000      -1.013518       -27.5792
  34   2.0000      -0.999128       -27.1876
  35   2.0000      -0.984807       -26.7980
  36   2.0000      -0.923112       -25.1192
  37   2.0000      -0.884263       -24.0620
  38   2.0000      -0.847573       -23.0636
  39   2.0000      -0.837959       -22.8020
  40   2.0000      -0.832066       -22.6417
  41   2.0000      -0.822865       -22.3913
  42   2.0000      -0.758318       -20.6349
  43   2.0000      -0.736014       -20.0280
  44   2.0000      -0.727959       -19.8088
  45   2.0000      -0.693954       -18.8834
  46   2.0000      -0.684704       -18.6318
  47   2.0000      -0.681618       -18.5478
  48   2.0000      -0.676444       -18.4070
  49   2.0000      -0.657142       -17.8817
  50   2.0000      -0.652955       -17.7678
  51   2.0000      -0.644153       -17.5283
  52   2.0000      -0.636125       -17.3098
  53   2.0000      -0.605521       -16.4771
  54   2.0000      -0.604136       -16.4394
  55   2.0000      -0.602162       -16.3857
  56   2.0000      -0.599301       -16.3078
  57   2.0000      -0.576840       -15.6966
  58   2.0000      -0.575178       -15.6514
  59   2.0000      -0.566019       -15.4022
  60   2.0000      -0.558453       -15.1963
  61   2.0000      -0.551653       -15.0112
  62   2.0000      -0.544369       -14.8130
  63   2.0000      -0.521369       -14.1872
  64   2.0000      -0.513970       -13.9858
  65   2.0000      -0.510136       -13.8815
  66   2.0000      -0.507186       -13.8012
  67   2.0000      -0.498054       -13.5527
  68   2.0000      -0.482688       -13.1346
  69   2.0000      -0.464971       -12.6525
  70   2.0000      -0.457940       -12.4612
  71   2.0000      -0.454166       -12.3585
  72   2.0000      -0.353833        -9.6283
  73   2.0000      -0.347850        -9.4655
  74   2.0000      -0.327883        -8.9221
  75   2.0000      -0.319105        -8.6833
  76   2.0000      -0.315377        -8.5818
  77   0.0000       0.072466         1.9719
  78   0.0000       0.105367         2.8672
  79   0.0000       0.118710         3.2303
  80   0.0000       0.132379         3.6022
  81   0.0000       0.137555         3.7431

MULLIKEN ATOMIC CHARGES
-----------------------
   0 C :   -0.283091
   1 C :    0.053927
   2 O :   -0.363593
   3 C :    0.432272
   4 O :   -0.400890
   5 C :   -0.181487
   6 C :    0.137180
   7 C :   -0.283194
   8 N :   -0.125478
   9 C :    0.204450
  10 S :   -0.440363
  11 N :   -0.201188
  12 C :    0.057424
  13 C :    0.039514
  14 C :   -0.155714
  15 C :   -0.133738
  16 C :   -0.281053
  17 C :    0.312348
  18 O :   -0.358988
  19 C :   -0.279254
  20 H :    0.093943
  21 H :    0.102850
  22 H :    0.097995
  23 H :    0.095458
  24 H :    0.104620
  25 H :    0.123749
  26 H :    0.105394
  27 H :    0.125382
  28 H :    0.197164
  29 H :    0.194292
  30 H :    0.154591
  31 H :    0.155230
  32 H :    0.160781
  33 H :    0.130655
  34 H :    0.240866
  35 H :    0.167946
Sum of atomic charges:   -0.0000000

LOEWDIN ATOMIC CHARGES
----------------------
   0 C :    0.107392
   1 C :   -0.016684
   2 O :    0.294762
   3 C :   -0.417545
   4 O :    0.124254
   5 C :   -0.093284
   6 C :   -0.074711
   7 C :    0.126283
   8 N :    0.403954
   9 C :   -0.457222
  10 S :   -0.036752
  11 N :    0.397088
  12 C :   -0.045264
  13 C :   -0.040748
  14 C :    0.021732
  15 C :    0.041708
  16 C :   -0.002373
  17 C :   -0.194257
  18 O :    0.393438
  19 C :    0.027618
  20 H :   -0.028799
  21 H :   -0.022927
  22 H :   -0.027518
  23 H :   -0.026033
  24 H :   -0.028738
  25 H :   -0.008109
  26 H :   -0.019575
  27 H :   -0.010611
  28 H :   -0.058815
  29 H :   -0.064082
  30 H :   -0.004752
  31 H :   -0.024712
  32 H :   -0.020338
  33 H :   -0.035673
  34 H :   -0.154162
  35 H :   -0.024548

  Mayer bond orders larger than 0.100000
B(  0-C ,  1-C ) :   0.9708 B(  0-C , 20-H ) :   0.9775 B(  0-C , 21-H ) :   0.9783
B(  0-C , 22-H ) :   0.9768 B(  1-C ,  2-O ) :   0.8994 B(  1-C , 23-H ) :   0.9684
B(  1-C , 24-H ) :   0.9835 B(  2-O ,  3-C ) :   1.1001 B(  3-C ,  4-O ) :   2.0218
B(  3-C ,  5-C ) :   1.0292 B(  5-C ,  6-C ) :   1.6677 B(  5-C , 12-C ) :   0.9647
B(  6-C ,  7-C ) :   0.9523 B(  6-C ,  8-N ) :   1.1378 B(  7-C , 25-H ) :   0.9704
B(  7-C , 26-H ) :   0.9885 B(  7-C , 27-H ) :   0.9628 B(  8-N ,  9-C ) :   1.1850
B(  8-N , 28-H ) :   0.9499 B(  9-C , 10-S ) :   1.6099 B(  9-C , 11-N ) :   1.3001
B( 11-N , 12-C ) :   0.9927 B( 11-N , 29-H ) :   0.9516 B( 12-C , 13-C ) :   0.9438
B( 12-C , 30-H ) :   0.9983 B( 13-C , 14-C ) :   1.3774 B( 13-C , 19-C ) :   1.3696
B( 14-C , 15-C ) :   1.3944 B( 14-C , 31-H ) :   0.9643 B( 15-C , 16-C ) :   1.3636
B( 15-C , 32-H ) :   0.9711 B( 16-C , 17-C ) :   1.3301 B( 16-C , 33-H ) :   0.9851
B( 17-C , 18-O ) :   1.1097 B( 17-C , 19-C ) :   1.3749 B( 18-O , 34-H ) :   0.9799
B( 19-C , 35-H ) :   0.9580

MP2 TOTAL ENERGY:    -1274.329177405 Eh
FINAL SINGLE POINT ENERGY     -1274.329177405441

DIPOLE MOMENT
-------------
                                X             Y             Z
Electronic contribution:     11.76466       8.25232       7.63804
Nuclear contribution   :    -13.08694      -9.57326      -8.30861
                        -----------------------------------------
Total Dipole Moment    :     -1.32229      -1.32093      -0.67057
                        -----------------------------------------
Magnitude (a.u.)       :      1.98569
Magnitude (Debye)      :      5.04722

Rotational constants in cm-1:     0.011333     0.009171     0.006631
Rotational constants in MHz :   339.741215   274.936975   198.805226

                             ****ORCA TERMINATED NORMALLY****
TOTAL RUN TIME: 0 days 1 hours 44 minutes 23 seconds 421 msec
