                         Program Version 5.0.0 -  RELEASE  -
|  1> ! ri-mp2 cc-pvtz cc-pvtz/c TightSCF NoKeepInts
|  2>
|  3> %scf
|  4>   MaxCore 4096
|  5> end
|  6> *xyz  0  1
|  7>     C       14.3169414   14.7907431   16.4502991
|  8>     C       15.4650084   15.6020218   17.0717786
|  9>     O       16.6697975   15.2276144   16.3777633
| 10>     C       17.8552966   15.9173973   16.4357978
| 11>     O       18.8792546   15.3618122   16.0845652
| 12>     C       17.9110649   17.0255926   17.4335893
| 13>     C       17.3465349   18.2325944   17.2030881
| 14>     C       16.6048855   18.6659361   15.9563929
| 15>     N       17.4948753   19.2591809   18.1377774
| 16>     C       18.2746899   19.1807395   19.2628244
| 17>     S       18.4424866   20.4630656   20.2929639
| 18>     N       18.9072817   17.9832588   19.4945946
| 19>     C       18.7375637   16.7564414   18.6895730
| 20>     C       18.1209786   15.6249954   19.5065818
| 21>     C       18.5731390   14.3046379   19.3290713
| 22>     C       17.9964436   13.2463709   20.0505208
| 23>     C       16.9553568   13.5085599   20.9569225
| 24>     C       16.4971067   14.8209470   21.1324517
| 25>     O       15.4814816   15.0758465   21.9948719
| 26>     C       17.0719782   15.8729750   20.4121603
| 27>     H       13.3663658   15.0250636   16.9446624
| 28>     H       14.5041814   13.7149096   16.5590454
| 29>     H       14.2157214   15.0169137   15.3815158
| 30>     H       15.2353359   16.6650426   16.9531842
| 31>     H       15.5522984   15.3747767   18.1420470
| 32>     H       15.5831849   18.9871874   16.1940438
| 33>     H       16.5359373   17.8665592   15.2083327
| 34>     H       17.1193777   19.5073180   15.4744754
| 35>     H       17.0562167   20.1524059   17.9763511
| 36>     H       19.4623307   17.9504324   20.3405818
| 37>     H       19.7371520   16.4319625   18.3637824
| 38>     H       19.3659281   14.0958745   18.6133613
| 39>     H       18.3529868   12.2287990   19.8991813
| 40>     H       16.5052278   12.6929998   21.5133390
| 41>     H       15.2574789   14.2416446   22.4348445
| 42>     H       16.6951106   16.8793797   20.5616641
| 43> *
| 44>
| 45>                          ****END OF INPUT****

CARTESIAN COORDINATES (ANGSTROEM)
---------------------------------
  C     14.316941   14.790743   16.450299
  C     15.465008   15.602022   17.071779
  O     16.669798   15.227614   16.377763
  C     17.855297   15.917397   16.435798
  O     18.879255   15.361812   16.084565
  C     17.911065   17.025593   17.433589
  C     17.346535   18.232594   17.203088
  C     16.604886   18.665936   15.956393
  N     17.494875   19.259181   18.137777
  C     18.274690   19.180740   19.262824
  S     18.442487   20.463066   20.292964
  N     18.907282   17.983259   19.494595
  C     18.737564   16.756441   18.689573
  C     18.120979   15.624995   19.506582
  C     18.573139   14.304638   19.329071
  C     17.996444   13.246371   20.050521
  C     16.955357   13.508560   20.956923
  C     16.497107   14.820947   21.132452
  O     15.481482   15.075847   21.994872
  C     17.071978   15.872975   20.412160
  H     13.366366   15.025064   16.944662
  H     14.504181   13.714910   16.559045
  H     14.215721   15.016914   15.381516
  H     15.235336   16.665043   16.953184
  H     15.552298   15.374777   18.142047
  H     15.583185   18.987187   16.194044
  H     16.535937   17.866559   15.208333
  H     17.119378   19.507318   15.474475
  H     17.056217   20.152406   17.976351
  H     19.462331   17.950432   20.340582
  H     19.737152   16.431963   18.363782
  H     19.365928   14.095874   18.613361
  H     18.352987   12.228799   19.899181
  H     16.505228   12.693000   21.513339
  H     15.257479   14.241645   22.434845
  H     16.695111   16.879380   20.561664

 Total Charge           Charge          ....    0
 Multiplicity           Mult            ....    1
 Number of Electrons    NEL             ....  154
 Basis Dimension        Dim             ....  828

ORBITAL ENERGIES
----------------

  NO   OCC          E(Eh)            E(eV)
   0   2.0000     -91.889781     -2500.4481
   1   2.0000     -20.601421      -560.5932
   2   2.0000     -20.600131      -560.5581
   3   2.0000     -20.551432      -559.2329
   4   2.0000     -15.626093      -425.2076
   5   2.0000     -15.611865      -424.8205
   6   2.0000     -11.397886      -310.1522
   7   2.0000     -11.386742      -309.8490
   8   2.0000     -11.327722      -308.2430
   9   2.0000     -11.317086      -307.9536
  10   2.0000     -11.316134      -307.9277
  11   2.0000     -11.302012      -307.5434
  12   2.0000     -11.270879      -306.6962
  13   2.0000     -11.264986      -306.5359
  14   2.0000     -11.264227      -306.5152
  15   2.0000     -11.257302      -306.3268
  16   2.0000     -11.246421      -306.0307
  17   2.0000     -11.242311      -305.9188
  18   2.0000     -11.239569      -305.8442
  19   2.0000     -11.233023      -305.6661
  20   2.0000      -8.894904      -242.0426
  21   2.0000      -6.576494      -178.9555
  22   2.0000      -6.574465      -178.9003
  23   2.0000      -6.573893      -178.8847
  24   2.0000      -1.449459       -39.4418
  25   2.0000      -1.419969       -38.6393
  26   2.0000      -1.360282       -37.0151
  27   2.0000      -1.339793       -36.4576
  28   2.0000      -1.239883       -33.7389
  29   2.0000      -1.161745       -31.6127
  30   2.0000      -1.125986       -30.6396
  31   2.0000      -1.049616       -28.5615
  32   2.0000      -1.040542       -28.3146
  33   2.0000      -1.019457       -27.7408
  34   2.0000      -1.005572       -27.3630
  35   2.0000      -0.989496       -26.9256
  36   2.0000      -0.928298       -25.2603
  37   2.0000      -0.881066       -23.9750
  38   2.0000      -0.855662       -23.2838
  39   2.0000      -0.842099       -22.9147
  40   2.0000      -0.837631       -22.7931
  41   2.0000      -0.836828       -22.7712
  42   2.0000      -0.757417       -20.6104
  43   2.0000      -0.739520       -20.1234
  44   2.0000      -0.732348       -19.9282
  45   2.0000      -0.697638       -18.9837
  46   2.0000      -0.688510       -18.7353
  47   2.0000      -0.681016       -18.5314
  48   2.0000      -0.677775       -18.4432
  49   2.0000      -0.665704       -18.1147
  50   2.0000      -0.654359       -17.8060
  51   2.0000      -0.651330       -17.7236
  52   2.0000      -0.639684       -17.4067
  53   2.0000      -0.612581       -16.6692
  54   2.0000      -0.608163       -16.5490
  55   2.0000      -0.604029       -16.4365
  56   2.0000      -0.595404       -16.2018
  57   2.0000      -0.585542       -15.9334
  58   2.0000      -0.578164       -15.7326
  59   2.0000      -0.571356       -15.5474
  60   2.0000      -0.564241       -15.3538
  61   2.0000      -0.559341       -15.2204
  62   2.0000      -0.550712       -14.9856
  63   2.0000      -0.527021       -14.3410
  64   2.0000      -0.522080       -14.2065
  65   2.0000      -0.515286       -14.0216
  66   2.0000      -0.506012       -13.7693
  67   2.0000      -0.502715       -13.6796
  68   2.0000      -0.488195       -13.2845
  69   2.0000      -0.469463       -12.7747
  70   2.0000      -0.453685       -12.3454
  71   2.0000      -0.450597       -12.2614
  72   2.0000      -0.357262        -9.7216
  73   2.0000      -0.351885        -9.5753
  74   2.0000      -0.329526        -8.9669
  75   2.0000      -0.325010        -8.8440
  76   2.0000      -0.318371        -8.6633
  77   0.0000       0.088290         2.4025
  78   0.0000       0.104568         2.8454
  79   0.0000       0.111253         3.0274
  80   0.0000       0.127916         3.4808
  81   0.0000       0.129883         3.5343

MULLIKEN ATOMIC CHARGES
-----------------------
   0 C :   -0.258611
   1 C :    0.018856
   2 O :   -0.304540
   3 C :    0.385831
   4 O :   -0.379917
   5 C :   -0.165168
   6 C :    0.124494
   7 C :   -0.323065
   8 N :   -0.136941
   9 C :    0.205546
  10 S :   -0.441767
  11 N :   -0.219736
  12 C :    0.071237
  13 C :    0.020136
  14 C :   -0.194628
  15 C :   -0.133470
  16 C :   -0.273825
  17 C :    0.322561
  18 O :   -0.358767
  19 C :   -0.282959
  20 H :    0.089027
  21 H :    0.106863
  22 H :    0.097276
  23 H :    0.083713
  24 H :    0.119038
  25 H :    0.118268
  26 H :    0.120992
  27 H :    0.143931
  28 H :    0.195169
  29 H :    0.200040
  30 H :    0.165881
  31 H :    0.168349
  32 H :    0.164092
  33 H :    0.132872
  34 H :    0.241557
  35 H :    0.177663
Sum of atomic charges:    0.0000000

LOEWDIN ATOMIC CHARGES
----------------------
   0 C :    0.110815
   1 C :   -0.023745
   2 O :    0.310538
   3 C :   -0.417203
   4 O :    0.125693
   5 C :   -0.079674
   6 C :   -0.107717
   7 C :    0.122481
   8 N :    0.400940
   9 C :   -0.455467
  10 S :   -0.038419
  11 N :    0.397430
  12 C :   -0.043341
  13 C :   -0.043470
  14 C :    0.022896
  15 C :    0.046053
  16 C :   -0.000429
  17 C :   -0.194806
  18 O :    0.395022
  19 C :    0.026310
  20 H :   -0.025343
  21 H :   -0.023320
  22 H :   -0.026930
  23 H :   -0.038502
  24 H :   -0.029275
  25 H :   -0.017413
  26 H :   -0.009167
  27 H :   -0.008608
  28 H :   -0.058056
  29 H :   -0.063749
  30 H :   -0.002054
  31 H :   -0.021601
  32 H :   -0.018152
  33 H :   -0.034520
  34 H :   -0.152854
  35 H :   -0.024361

  Mayer bond orders larger than 0.100000
B(  0-C ,  1-C ) :   0.9847 B(  0-C , 20-H ) :   0.9770 B(  0-C , 21-H ) :   0.9792
B(  0-C , 22-H ) :   0.9783 B(  1-C ,  2-O ) :   0.9112 B(  1-C , 23-H ) :   0.9692
B(  1-C , 24-H ) :   0.9636 B(  2-O ,  3-C ) :   1.1797 B(  3-C ,  4-O ) :   2.0954
B(  3-C ,  5-C ) :   0.9170 B(  5-C ,  6-C ) :   1.6971 B(  5-C , 12-C ) :   0.9619
B(  6-C ,  7-C ) :   0.9428 B(  6-C ,  8-N ) :   1.1130 B(  7-C , 25-H ) :   0.9682
B(  7-C , 26-H ) :   0.9823 B(  7-C , 27-H ) :   0.9665 B(  8-N ,  9-C ) :   1.1982
B(  8-N , 28-H ) :   0.9528 B(  9-C , 10-S ) :   1.6095 B(  9-C , 11-N ) :   1.2864
B( 11-N , 12-C ) :   0.9933 B( 11-N , 29-H ) :   0.9480 B( 12-C , 13-C ) :   0.9434
B( 12-C , 30-H ) :   0.9974 B( 13-C , 14-C ) :   1.3871 B( 13-C , 19-C ) :   1.3450
B( 14-C , 15-C ) :   1.3978 B( 14-C , 31-H ) :   0.9615 B( 15-C , 16-C ) :   1.3629
B( 15-C , 32-H ) :   0.9698 B( 16-C , 17-C ) :   1.3295 B( 16-C , 33-H ) :   0.9843
B( 17-C , 18-O ) :   1.1084 B( 17-C , 19-C ) :   1.3638 B( 18-O , 34-H ) :   0.9791
B( 19-C , 35-H ) :   0.9589

MP2 TOTAL ENERGY:    -1274.330592112 Eh
FINAL SINGLE POINT ENERGY     -1274.330592111705

DIPOLE MOMENT
-------------
                                X             Y             Z
Electronic contribution:     11.49485       7.28783       7.60102
Nuclear contribution   :    -13.07276      -8.33537      -7.98968
                        -----------------------------------------
Total Dipole Moment    :     -1.57791      -1.04754      -0.38866
                        -----------------------------------------
Magnitude (a.u.)       :      1.93344
Magnitude (Debye)      :      4.91441

Rotational constants in cm-1:     0.011708     0.009110     0.006702
Rotational constants in MHz :   351.004739   273.122007   200.918628

                             ****ORCA TERMINATED NORMALLY****
TOTAL RUN TIME: 0 days 2 hours 9 minutes 7 seconds 235 msec
