                         Program Version 5.0.0 -  RELEASE  -
|  1> ! ri-mp2 cc-pvtz cc-pvtz/c TightSCF NoKeepInts
|  2>
|  3> %scf
|  4>   MaxCore 4096
|  5> end
|  6> *xyz  0  1
|  7>     C       15.6190991   13.6128770   15.3535555
|  8>     C       15.6346368   14.3947220   16.6778011
|  9>     O       16.7524846   15.2991613   16.6358816
| 10>     C       16.5203744   16.6451393   16.6215592
| 11>     O       15.5421141   17.1234539   16.0731360
| 12>     C       17.4222097   17.3995821   17.5596216
| 13>     C       17.3576861   18.7478870   17.7019369
| 14>     C       16.4226745   19.7009949   16.9885705
| 15>     N       18.2457885   19.4061303   18.5578276
| 16>     C       19.2875561   18.8092531   19.2161456
| 17>     S       20.3534891   19.6770803   20.1362034
| 18>     N       19.4059845   17.4507233   19.0701400
| 19>     C       18.4360470   16.5824760   18.3782826
| 20>     C       17.7521079   15.6691371   19.3919381
| 21>     C       18.0312603   14.2895476   19.4091329
| 22>     C       17.3981435   13.4433697   20.3349909
| 23>     C       16.4811610   13.9812337   21.2540860
| 24>     C       16.2058019   15.3555523   21.2441585
| 25>     O       15.3222889   15.8781061   22.1313651
| 26>     C       16.8364747   16.1949076   20.3206905
| 27>     H       15.4766945   14.2962681   14.5067421
| 28>     H       14.8001615   12.8835207   15.3466009
| 29>     H       16.5634029   13.0734985   15.2097686
| 30>     H       14.6822692   14.9242574   16.8192492
| 31>     H       15.7609514   13.6948264   17.5139961
| 32>     H       15.3795253   19.4874245   17.2549394
| 33>     H       16.5114955   19.5883090   15.9005551
| 34>     H       16.6177682   20.7529731   17.2275450
| 35>     H       18.1751874   20.4042652   18.6755190
| 36>     H       20.1623248   17.0345054   19.5979322
| 37>     H       19.0018764   15.9562516   17.6740995
| 38>     H       18.7365285   13.8705993   18.6961976
| 39>     H       17.6198288   12.3774798   20.3395663
| 40>     H       15.9906593   13.3322235   21.9721679
| 41>     H       15.0262716   15.1576667   22.7077774
| 42>     H       16.6146721   17.2565964   20.3343199
| 43> *
| 44>
| 45>                          ****END OF INPUT****

CARTESIAN COORDINATES (ANGSTROEM)
---------------------------------
  C     15.619099   13.612877   15.353556
  C     15.634637   14.394722   16.677801
  O     16.752485   15.299161   16.635882
  C     16.520374   16.645139   16.621559
  O     15.542114   17.123454   16.073136
  C     17.422210   17.399582   17.559622
  C     17.357686   18.747887   17.701937
  C     16.422674   19.700995   16.988570
  N     18.245788   19.406130   18.557828
  C     19.287556   18.809253   19.216146
  S     20.353489   19.677080   20.136203
  N     19.405984   17.450723   19.070140
  C     18.436047   16.582476   18.378283
  C     17.752108   15.669137   19.391938
  C     18.031260   14.289548   19.409133
  C     17.398143   13.443370   20.334991
  C     16.481161   13.981234   21.254086
  C     16.205802   15.355552   21.244159
  O     15.322289   15.878106   22.131365
  C     16.836475   16.194908   20.320690
  H     15.476694   14.296268   14.506742
  H     14.800161   12.883521   15.346601
  H     16.563403   13.073498   15.209769
  H     14.682269   14.924257   16.819249
  H     15.760951   13.694826   17.513996
  H     15.379525   19.487424   17.254939
  H     16.511495   19.588309   15.900555
  H     16.617768   20.752973   17.227545
  H     18.175187   20.404265   18.675519
  H     20.162325   17.034505   19.597932
  H     19.001876   15.956252   17.674099
  H     18.736528   13.870599   18.696198
  H     17.619829   12.377480   20.339566
  H     15.990659   13.332223   21.972168
  H     15.026272   15.157667   22.707777
  H     16.614672   17.256596   20.334320

 Total Charge           Charge          ....    0
 Multiplicity           Mult            ....    1
 Number of Electrons    NEL             ....  154
 Basis Dimension        Dim             ....  828

ORBITAL ENERGIES
----------------

  NO   OCC          E(Eh)            E(eV)
   0   2.0000     -91.889385     -2500.4373
   1   2.0000     -20.598129      -560.5036
   2   2.0000     -20.594695      -560.4101
   3   2.0000     -20.543726      -559.0232
   4   2.0000     -15.629626      -425.3037
   5   2.0000     -15.608816      -424.7375
   6   2.0000     -11.394710      -310.0658
   7   2.0000     -11.384517      -309.7885
   8   2.0000     -11.336284      -308.4760
   9   2.0000     -11.315606      -307.9133
  10   2.0000     -11.309892      -307.7578
  11   2.0000     -11.294244      -307.3320
  12   2.0000     -11.261270      -306.4347
  13   2.0000     -11.258995      -306.3728
  14   2.0000     -11.257067      -306.3204
  15   2.0000     -11.252610      -306.1991
  16   2.0000     -11.244694      -305.9837
  17   2.0000     -11.239931      -305.8541
  18   2.0000     -11.239669      -305.8470
  19   2.0000     -11.223611      -305.4100
  20   2.0000      -8.894444      -242.0301
  21   2.0000      -6.576017      -178.9425
  22   2.0000      -6.574014      -178.8880
  23   2.0000      -6.573425      -178.8720
  24   2.0000      -1.450492       -39.4699
  25   2.0000      -1.417772       -38.5795
  26   2.0000      -1.354176       -36.8490
  27   2.0000      -1.340596       -36.4795
  28   2.0000      -1.239153       -33.7191
  29   2.0000      -1.159077       -31.5401
  30   2.0000      -1.120879       -30.5007
  31   2.0000      -1.043804       -28.4033
  32   2.0000      -1.036138       -28.1948
  33   2.0000      -1.016814       -27.6689
  34   2.0000      -0.995961       -27.1015
  35   2.0000      -0.984537       -26.7906
  36   2.0000      -0.923419       -25.1275
  37   2.0000      -0.886665       -24.1274
  38   2.0000      -0.847719       -23.0676
  39   2.0000      -0.839115       -22.8335
  40   2.0000      -0.835546       -22.7364
  41   2.0000      -0.821119       -22.3438
  42   2.0000      -0.761194       -20.7131
  43   2.0000      -0.733584       -19.9618
  44   2.0000      -0.723828       -19.6964
  45   2.0000      -0.697076       -18.9684
  46   2.0000      -0.688856       -18.7447
  47   2.0000      -0.679488       -18.4898
  48   2.0000      -0.672007       -18.2862
  49   2.0000      -0.654124       -17.7996
  50   2.0000      -0.647158       -17.6101
  51   2.0000      -0.643522       -17.5111
  52   2.0000      -0.627631       -17.0787
  53   2.0000      -0.616411       -16.7734
  54   2.0000      -0.608585       -16.5604
  55   2.0000      -0.600841       -16.3497
  56   2.0000      -0.599597       -16.3159
  57   2.0000      -0.579658       -15.7733
  58   2.0000      -0.571988       -15.5646
  59   2.0000      -0.568026       -15.4568
  60   2.0000      -0.564667       -15.3654
  61   2.0000      -0.539596       -14.6832
  62   2.0000      -0.533795       -14.5253
  63   2.0000      -0.526458       -14.3257
  64   2.0000      -0.522201       -14.2098
  65   2.0000      -0.514299       -13.9948
  66   2.0000      -0.502188       -13.6652
  67   2.0000      -0.496532       -13.5113
  68   2.0000      -0.487852       -13.2751
  69   2.0000      -0.464325       -12.6349
  70   2.0000      -0.453958       -12.3528
  71   2.0000      -0.448413       -12.2019
  72   2.0000      -0.354634        -9.6501
  73   2.0000      -0.350950        -9.5498
  74   2.0000      -0.328880        -8.9493
  75   2.0000      -0.323169        -8.7939
  76   2.0000      -0.316719        -8.6184
  77   0.0000       0.073969         2.0128
  78   0.0000       0.104516         2.8440
  79   0.0000       0.124578         3.3899
  80   0.0000       0.131547         3.5796
  81   0.0000       0.136329         3.7097

MULLIKEN ATOMIC CHARGES
-----------------------
   0 C :   -0.266792
   1 C :    0.033291
   2 O :   -0.367565
   3 C :    0.460969
   4 O :   -0.425031
   5 C :   -0.235233
   6 C :    0.158108
   7 C :   -0.271192
   8 N :   -0.122780
   9 C :    0.212406
  10 S :   -0.439547
  11 N :   -0.206102
  12 C :    0.065989
  13 C :    0.066480
  14 C :   -0.204132
  15 C :   -0.127428
  16 C :   -0.280510
  17 C :    0.315705
  18 O :   -0.355862
  19 C :   -0.265978
  20 H :    0.104790
  21 H :    0.089131
  22 H :    0.090392
  23 H :    0.103483
  24 H :    0.112508
  25 H :    0.132334
  26 H :    0.130409
  27 H :    0.095361
  28 H :    0.197664
  29 H :    0.195041
  30 H :    0.150133
  31 H :    0.152536
  32 H :    0.163342
  33 H :    0.131310
  34 H :    0.240970
  35 H :    0.165798
Sum of atomic charges:    0.0000000

LOEWDIN ATOMIC CHARGES
----------------------
   0 C :    0.104795
   1 C :   -0.014786
   2 O :    0.305506
   3 C :   -0.416419
   4 O :    0.100870
   5 C :   -0.096227
   6 C :   -0.058882
   7 C :    0.131654
   8 N :    0.406701
   9 C :   -0.456117
  10 S :   -0.035030
  11 N :    0.396269
  12 C :   -0.052299
  13 C :   -0.037796
  14 C :    0.014288
  15 C :    0.038528
  16 C :   -0.002477
  17 C :   -0.189262
  18 O :    0.395667
  19 C :    0.031277
  20 H :   -0.023912
  21 H :   -0.028008
  22 H :   -0.029427
  23 H :   -0.028146
  24 H :   -0.029265
  25 H :   -0.004586
  26 H :   -0.003935
  27 H :   -0.023251
  28 H :   -0.057470
  29 H :   -0.064668
  30 H :   -0.010210
  31 H :   -0.029793
  32 H :   -0.021085
  33 H :   -0.035354
  34 H :   -0.153567
  35 H :   -0.023582

  Mayer bond orders larger than 0.100000
B(  0-C ,  1-C ) :   0.9794 B(  0-C , 20-H ) :   0.9782 B(  0-C , 21-H ) :   0.9766
B(  0-C , 22-H ) :   0.9787 B(  1-C ,  2-O ) :   0.8752 B(  1-C , 23-H ) :   0.9726
B(  1-C , 24-H ) :   0.9732 B(  2-O ,  3-C ) :   1.1410 B(  3-C ,  4-O ) :   1.9828
B(  3-C ,  5-C ) :   1.0651 B(  5-C ,  6-C ) :   1.6513 B(  5-C , 12-C ) :   0.9710
B(  6-C ,  7-C ) :   0.9667 B(  6-C ,  8-N ) :   1.1616 B(  7-C , 25-H ) :   0.9594
B(  7-C , 26-H ) :   0.9610 B(  7-C , 27-H ) :   0.9905 B(  8-N ,  9-C ) :   1.1831
B(  8-N , 28-H ) :   0.9477 B(  9-C , 10-S ) :   1.6071 B(  9-C , 11-N ) :   1.3059
B( 11-N , 12-C ) :   0.9826 B( 11-N , 29-H ) :   0.9517 B( 12-C , 13-C ) :   0.9365
B( 12-C , 30-H ) :   1.0021 B( 13-C , 14-C ) :   1.3485 B( 13-C , 19-C ) :   1.3825
B( 14-C , 15-C ) :   1.3881 B( 14-C , 31-H ) :   0.9727 B( 15-C , 16-C ) :   1.3618
B( 15-C , 32-H ) :   0.9701 B( 16-C , 17-C ) :   1.3308 B( 16-C , 33-H ) :   0.9847
B( 17-C , 18-O ) :   1.1114 B( 17-C , 19-C ) :   1.3710 B( 18-O , 34-H ) :   0.9795
B( 19-C , 35-H ) :   0.9581

MP2 TOTAL ENERGY:    -1274.343479519 Eh
FINAL SINGLE POINT ENERGY     -1274.343479518763

DIPOLE MOMENT
-------------
                                X             Y             Z
Electronic contribution:      9.63692      10.49122       8.87352
Nuclear contribution   :    -10.69765     -12.08843      -9.07437
                        -----------------------------------------
Total Dipole Moment    :     -1.06073      -1.59722      -0.20085
                        -----------------------------------------
Magnitude (a.u.)       :      1.92784
Magnitude (Debye)      :      4.90019

Rotational constants in cm-1:     0.011829     0.008553     0.006142
Rotational constants in MHz :   354.636857   256.407340   184.120017

                             ****ORCA TERMINATED NORMALLY****
TOTAL RUN TIME: 0 days 2 hours 5 minutes 8 seconds 44 msec
