                         Program Version 5.0.0 -  RELEASE  -
|  1> ! ri-mp2 cc-pvtz cc-pvtz/c TightSCF NoKeepInts
|  2>
|  3> %scf
|  4>   MaxCore 4096
|  5> end
|  6> *xyz  0  1
|  7>     C       15.1893065   14.1222589   16.6372256
|  8>     C       15.5582120   14.9915710   15.4121623
|  9>     O       16.4571884   16.0686403   15.7591514
| 10>     C       17.5292614   15.8853721   16.5854585
| 11>     O       18.1221576   14.8218881   16.6624635
| 12>     C       17.8196382   17.0384296   17.5025624
| 13>     C       17.3663774   18.3083635   17.3337168
| 14>     C       16.5156274   18.8547060   16.2054952
| 15>     N       17.7409060   19.3050260   18.2410984
| 16>     C       18.6553391   19.1466148   19.2486478
| 17>     S       19.1252226   20.4109851   20.2058460
| 18>     N       19.1600222   17.8832576   19.4231093
| 19>     C       18.6870112   16.6798118   18.7139170
| 20>     C       17.9291482   15.7586916   19.6666419
| 21>     C       18.3121086   14.4125535   19.8122917
| 22>     C       17.6087680   13.5568822   20.6765306
| 23>     C       16.5114420   14.0503709   21.4024067
| 24>     C       16.1242173   15.3894159   21.2574457
| 25>     O       15.0601273   15.8669795   21.9509088
| 26>     C       16.8259657   16.2385560   20.3961245
| 27>     H       16.0230564   13.4817468   16.9495016
| 28>     H       14.3469303   13.4641016   16.3929482
| 29>     H       14.8939627   14.7493084   17.4879321
| 30>     H       16.0292345   14.3509446   14.6547602
| 31>     H       14.6454506   15.4141174   14.9730973
| 32>     H       15.4935702   18.4605341   16.2657151
| 33>     H       16.9315892   18.5699320   15.2309488
| 34>     H       16.4483895   19.9493078   16.2175080
| 35>     H       17.3817982   20.2397439   18.1303390
| 36>     H       19.8087305   17.7859205   20.1935751
| 37>     H       19.5724353   16.1421279   18.3447990
| 38>     H       19.1483629   14.0234539   19.2364247
| 39>     H       17.9116406   12.5160063   20.7749446
| 40>     H       15.9641017   13.3923697   22.0690239
| 41>     H       14.7392190   15.1502367   22.5184842
| 42>     H       16.5104815   17.2717744   20.3007942
| 43> *
| 44>
| 45>                          ****END OF INPUT****

CARTESIAN COORDINATES (ANGSTROEM)
---------------------------------
  C     15.189307   14.122259   16.637226
  C     15.558212   14.991571   15.412162
  O     16.457188   16.068640   15.759151
  C     17.529261   15.885372   16.585459
  O     18.122158   14.821888   16.662464
  C     17.819638   17.038430   17.502562
  C     17.366377   18.308363   17.333717
  C     16.515627   18.854706   16.205495
  N     17.740906   19.305026   18.241098
  C     18.655339   19.146615   19.248648
  S     19.125223   20.410985   20.205846
  N     19.160022   17.883258   19.423109
  C     18.687011   16.679812   18.713917
  C     17.929148   15.758692   19.666642
  C     18.312109   14.412553   19.812292
  C     17.608768   13.556882   20.676531
  C     16.511442   14.050371   21.402407
  C     16.124217   15.389416   21.257446
  O     15.060127   15.866979   21.950909
  C     16.825966   16.238556   20.396124
  H     16.023056   13.481747   16.949502
  H     14.346930   13.464102   16.392948
  H     14.893963   14.749308   17.487932
  H     16.029235   14.350945   14.654760
  H     14.645451   15.414117   14.973097
  H     15.493570   18.460534   16.265715
  H     16.931589   18.569932   15.230949
  H     16.448390   19.949308   16.217508
  H     17.381798   20.239744   18.130339
  H     19.808730   17.785920   20.193575
  H     19.572435   16.142128   18.344799
  H     19.148363   14.023454   19.236425
  H     17.911641   12.516006   20.774945
  H     15.964102   13.392370   22.069024
  H     14.739219   15.150237   22.518484
  H     16.510482   17.271774   20.300794

 Total Charge           Charge          ....    0
 Multiplicity           Mult            ....    1
 Number of Electrons    NEL             ....  154
 Basis Dimension        Dim             ....  828

ORBITAL ENERGIES
----------------

  NO   OCC          E(Eh)            E(eV)
   0   2.0000     -91.888210     -2500.4053
   1   2.0000     -20.597056      -560.4744
   2   2.0000     -20.593121      -560.3673
   3   2.0000     -20.546283      -559.0928
   4   2.0000     -15.628366      -425.2694
   5   2.0000     -15.607086      -424.6904
   6   2.0000     -11.396142      -310.1048
   7   2.0000     -11.383204      -309.7527
   8   2.0000     -11.335999      -308.4682
   9   2.0000     -11.309050      -307.7349
  10   2.0000     -11.305920      -307.6497
  11   2.0000     -11.303612      -307.5869
  12   2.0000     -11.260109      -306.4031
  13   2.0000     -11.258579      -306.3615
  14   2.0000     -11.254647      -306.2545
  15   2.0000     -11.249141      -306.1047
  16   2.0000     -11.238816      -305.8237
  17   2.0000     -11.234872      -305.7164
  18   2.0000     -11.231776      -305.6322
  19   2.0000     -11.225316      -305.4564
  20   2.0000      -8.893274      -241.9983
  21   2.0000      -6.574852      -178.9108
  22   2.0000      -6.572845      -178.8562
  23   2.0000      -6.572260      -178.8403
  24   2.0000      -1.449752       -39.4498
  25   2.0000      -1.412889       -38.4467
  26   2.0000      -1.355816       -36.8936
  27   2.0000      -1.339350       -36.4456
  28   2.0000      -1.237160       -33.6648
  29   2.0000      -1.153479       -31.3878
  30   2.0000      -1.119728       -30.4693
  31   2.0000      -1.042203       -28.3598
  32   2.0000      -1.032844       -28.1051
  33   2.0000      -1.010827       -27.5060
  34   2.0000      -0.997941       -27.1554
  35   2.0000      -0.983403       -26.7598
  36   2.0000      -0.922089       -25.0913
  37   2.0000      -0.896513       -24.3954
  38   2.0000      -0.847976       -23.0746
  39   2.0000      -0.836190       -22.7539
  40   2.0000      -0.829296       -22.5663
  41   2.0000      -0.816318       -22.2131
  42   2.0000      -0.746377       -20.3100
  43   2.0000      -0.733394       -19.9567
  44   2.0000      -0.725680       -19.7467
  45   2.0000      -0.691376       -18.8133
  46   2.0000      -0.685347       -18.6492
  47   2.0000      -0.677543       -18.4369
  48   2.0000      -0.671641       -18.2763
  49   2.0000      -0.657863       -17.9014
  50   2.0000      -0.652693       -17.7607
  51   2.0000      -0.644618       -17.5410
  52   2.0000      -0.632568       -17.2131
  53   2.0000      -0.617912       -16.8142
  54   2.0000      -0.601428       -16.3657
  55   2.0000      -0.600570       -16.3423
  56   2.0000      -0.596587       -16.2340
  57   2.0000      -0.578322       -15.7370
  58   2.0000      -0.574493       -15.6328
  59   2.0000      -0.564038       -15.3483
  60   2.0000      -0.555523       -15.1166
  61   2.0000      -0.544591       -14.8191
  62   2.0000      -0.536911       -14.6101
  63   2.0000      -0.526425       -14.3247
  64   2.0000      -0.517643       -14.0858
  65   2.0000      -0.509737       -13.8707
  66   2.0000      -0.500454       -13.6180
  67   2.0000      -0.495745       -13.4899
  68   2.0000      -0.479680       -13.0528
  69   2.0000      -0.463522       -12.6131
  70   2.0000      -0.457927       -12.4608
  71   2.0000      -0.450089       -12.2475
  72   2.0000      -0.353932        -9.6310
  73   2.0000      -0.345294        -9.3959
  74   2.0000      -0.327397        -8.9089
  75   2.0000      -0.316405        -8.6098
  76   2.0000      -0.314717        -8.5639
  77   0.0000       0.075107         2.0438
  78   0.0000       0.110675         3.0116
  79   0.0000       0.121117         3.2958
  80   0.0000       0.134503         3.6600
  81   0.0000       0.141683         3.8554

MULLIKEN ATOMIC CHARGES
-----------------------
   0 C :   -0.317834
   1 C :    0.048038
   2 O :   -0.361915
   3 C :    0.453703
   4 O :   -0.427232
   5 C :   -0.180397
   6 C :    0.144658
   7 C :   -0.282162
   8 N :   -0.122155
   9 C :    0.202884
  10 S :   -0.439538
  11 N :   -0.200029
  12 C :    0.045599
  13 C :    0.053768
  14 C :   -0.165763
  15 C :   -0.133730
  16 C :   -0.279526
  17 C :    0.313017
  18 O :   -0.359265
  19 C :   -0.276898
  20 H :    0.129418
  21 H :    0.099958
  22 H :    0.100019
  23 H :    0.100996
  24 H :    0.104012
  25 H :    0.124538
  26 H :    0.128093
  27 H :    0.101974
  28 H :    0.196820
  29 H :    0.194212
  30 H :    0.153963
  31 H :    0.155589
  32 H :    0.160093
  33 H :    0.128933
  34 H :    0.240309
  35 H :    0.165853
Sum of atomic charges:   -0.0000000

LOEWDIN ATOMIC CHARGES
----------------------
   0 C :    0.105729
   1 C :   -0.012848
   2 O :    0.296002
   3 C :   -0.415170
   4 O :    0.109449
   5 C :   -0.091882
   6 C :   -0.066547
   7 C :    0.125282
   8 N :    0.404757
   9 C :   -0.458462
  10 S :   -0.036157
  11 N :    0.397832
  12 C :   -0.046276
  13 C :   -0.039510
  14 C :    0.022294
  15 C :    0.040688
  16 C :   -0.002324
  17 C :   -0.193241
  18 O :    0.393178
  19 C :    0.028171
  20 H :   -0.024151
  21 H :   -0.026512
  22 H :   -0.027601
  23 H :   -0.028573
  24 H :   -0.025492
  25 H :   -0.010155
  26 H :   -0.007635
  27 H :   -0.021091
  28 H :   -0.059095
  29 H :   -0.063721
  30 H :   -0.005155
  31 H :   -0.025064
  32 H :   -0.021040
  33 H :   -0.036186
  34 H :   -0.154665
  35 H :   -0.024831

  Mayer bond orders larger than 0.100000
B(  0-C ,  1-C ) :   0.9586 B(  0-C , 20-H ) :   0.9714 B(  0-C , 21-H ) :   0.9764
B(  0-C , 22-H ) :   0.9726 B(  1-C ,  2-O ) :   0.8996 B(  1-C , 23-H ) :   0.9837
B(  1-C , 24-H ) :   0.9836 B(  2-O ,  3-C ) :   1.1339 B(  3-C ,  4-O ) :   1.9897
B(  3-C ,  5-C ) :   1.0461 B(  5-C ,  6-C ) :   1.6509 B(  5-C , 12-C ) :   0.9637
B(  6-C ,  7-C ) :   0.9545 B(  6-C ,  8-N ) :   1.1491 B(  7-C , 25-H ) :   0.9641
B(  7-C , 26-H ) :   0.9657 B(  7-C , 27-H ) :   0.9909 B(  8-N ,  9-C ) :   1.1799
B(  8-N , 28-H ) :   0.9488 B(  9-C , 10-S ) :   1.6103 B(  9-C , 11-N ) :   1.3039
B( 11-N , 12-C ) :   0.9919 B( 11-N , 29-H ) :   0.9517 B( 12-C , 13-C ) :   0.9455
B( 12-C , 30-H ) :   0.9999 B( 13-C , 14-C ) :   1.3768 B( 13-C , 19-C ) :   1.3677
B( 14-C , 15-C ) :   1.3937 B( 14-C , 31-H ) :   0.9639 B( 15-C , 16-C ) :   1.3623
B( 15-C , 32-H ) :   0.9710 B( 16-C , 17-C ) :   1.3319 B( 16-C , 33-H ) :   0.9856
B( 17-C , 18-O ) :   1.1085 B( 17-C , 19-C ) :   1.3759 B( 18-O , 34-H ) :   0.9804
B( 19-C , 35-H ) :   0.9584

MP2 TOTAL ENERGY:    -1274.342314325 Eh
FINAL SINGLE POINT ENERGY     -1274.342314325385

DIPOLE MOMENT
-------------
                                X             Y             Z
Electronic contribution:     10.08946      10.03033       8.15754
Nuclear contribution   :    -11.61872     -11.29495      -9.11710
                        -----------------------------------------
Total Dipole Moment    :     -1.52927      -1.26462      -0.95955
                        -----------------------------------------
Magnitude (a.u.)       :      2.20423
Magnitude (Debye)      :      5.60272

Rotational constants in cm-1:     0.011292     0.009249     0.006270
Rotational constants in MHz :   338.520934   277.270594   187.969432

                             ****ORCA TERMINATED NORMALLY****
TOTAL RUN TIME: 0 days 1 hours 58 minutes 35 seconds 990 msec
