                         Program Version 5.0.0 -  RELEASE  -
|  1> ! ri-mp2 cc-pvtz cc-pvtz/c TightSCF NoKeepInts
|  2>
|  3> %scf
|  4>   MaxCore 4096
|  5> end
|  6> *xyz  0  1
|  7>     C       14.6514212   14.3243907   16.1000667
|  8>     C       15.7597519   14.8661012   15.1790147
|  9>     O       16.3736476   15.9892381   15.8372417
| 10>     C       17.4325675   15.7903673   16.6766443
| 11>     O       17.9907650   14.7099510   16.7808526
| 12>     C       17.7693098   16.9596030   17.5592142
| 13>     C       17.3110369   18.2290301   17.3937828
| 14>     C       16.3895294   18.7606943   16.3148868
| 15>     N       17.7489438   19.2421360   18.2537379
| 16>     C       18.7393688   19.1038236   19.1897747
| 17>     S       19.2886795   20.3886841   20.0746949
| 18>     N       19.2514916   17.8423246   19.3542391
| 19>     C       18.7080819   16.6246594   18.7243734
| 20>     C       18.0034656   15.7550726   19.7627160
| 21>     C       18.3726902   14.4078509   19.9324736
| 22>     C       17.7244973   13.6012468   20.8828095
| 23>     C       16.6969491   14.1454377   21.6718303
| 24>     C       16.3234060   15.4856642   21.5036067
| 25>     O       15.3271835   16.0124129   22.2595711
| 26>     C       16.9701603   16.2858832   20.5566078
| 27>     H       15.0786576   13.9483409   17.0386938
| 28>     H       14.1173894   13.4988139   15.6142992
| 29>     H       13.9253458   15.1109695   16.3398756
| 30>     H       16.4903088   14.0819506   14.9367026
| 31>     H       15.3029357   15.2039851   14.2400630
| 32>     H       16.7687282   18.5041488   15.3178951
| 33>     H       16.2826605   19.8516911   16.3473756
| 34>     H       15.3855782   18.3299156   16.4170275
| 35>     H       17.3849589   20.1756337   18.1490623
| 36>     H       19.9580378   17.7594827   20.0738314
| 37>     H       19.5567081   16.0555103   18.3180190
| 38>     H       19.1549012   13.9795405   19.3104293
| 39>     H       18.0155385   12.5588925   20.9992692
| 40>     H       16.1923317   13.5255203   22.4052691
| 41>     H       15.0328528   15.3218245   22.8720865
| 42>     H       16.6671201   17.3212081   20.4459621
| 43> *
| 44>
| 45>                          ****END OF INPUT****

CARTESIAN COORDINATES (ANGSTROEM)
---------------------------------
  C     14.651421   14.324391   16.100067
  C     15.759752   14.866101   15.179015
  O     16.373648   15.989238   15.837242
  C     17.432568   15.790367   16.676644
  O     17.990765   14.709951   16.780853
  C     17.769310   16.959603   17.559214
  C     17.311037   18.229030   17.393783
  C     16.389529   18.760694   16.314887
  N     17.748944   19.242136   18.253738
  C     18.739369   19.103824   19.189775
  S     19.288679   20.388684   20.074695
  N     19.251492   17.842325   19.354239
  C     18.708082   16.624659   18.724373
  C     18.003466   15.755073   19.762716
  C     18.372690   14.407851   19.932474
  C     17.724497   13.601247   20.882810
  C     16.696949   14.145438   21.671830
  C     16.323406   15.485664   21.503607
  O     15.327183   16.012413   22.259571
  C     16.970160   16.285883   20.556608
  H     15.078658   13.948341   17.038694
  H     14.117389   13.498814   15.614299
  H     13.925346   15.110969   16.339876
  H     16.490309   14.081951   14.936703
  H     15.302936   15.203985   14.240063
  H     16.768728   18.504149   15.317895
  H     16.282660   19.851691   16.347376
  H     15.385578   18.329916   16.417027
  H     17.384959   20.175634   18.149062
  H     19.958038   17.759483   20.073831
  H     19.556708   16.055510   18.318019
  H     19.154901   13.979540   19.310429
  H     18.015539   12.558892   20.999269
  H     16.192332   13.525520   22.405269
  H     15.032853   15.321824   22.872087
  H     16.667120   17.321208   20.445962

 Total Charge           Charge          ....    0
 Multiplicity           Mult            ....    1
 Number of Electrons    NEL             ....  154
 Basis Dimension        Dim             ....  828

ORBITAL ENERGIES
----------------

  NO   OCC          E(Eh)            E(eV)
   0   2.0000     -91.888160     -2500.4039
   1   2.0000     -20.604188      -560.6685
   2   2.0000     -20.591428      -560.3212
   3   2.0000     -20.545085      -559.0602
   4   2.0000     -15.628640      -425.2769
   5   2.0000     -15.606706      -424.6801
   6   2.0000     -11.396561      -310.1162
   7   2.0000     -11.382971      -309.7464
   8   2.0000     -11.337041      -308.4966
   9   2.0000     -11.307260      -307.6862
  10   2.0000     -11.305299      -307.6328
  11   2.0000     -11.299121      -307.4647
  12   2.0000     -11.260807      -306.4221
  13   2.0000     -11.258884      -306.3698
  14   2.0000     -11.253170      -306.2143
  15   2.0000     -11.247398      -306.0573
  16   2.0000     -11.237072      -305.7763
  17   2.0000     -11.233198      -305.6709
  18   2.0000     -11.230114      -305.5869
  19   2.0000     -11.228453      -305.5417
  20   2.0000      -8.893220      -241.9968
  21   2.0000      -6.574796      -178.9093
  22   2.0000      -6.572790      -178.8547
  23   2.0000      -6.572204      -178.8388
  24   2.0000      -1.454262       -39.5725
  25   2.0000      -1.411169       -38.3999
  26   2.0000      -1.357284       -36.9336
  27   2.0000      -1.339521       -36.4502
  28   2.0000      -1.237044       -33.6617
  29   2.0000      -1.151964       -31.3465
  30   2.0000      -1.119472       -30.4624
  31   2.0000      -1.042534       -28.3688
  32   2.0000      -1.035064       -28.1655
  33   2.0000      -1.009275       -27.4638
  34   2.0000      -0.997518       -27.1438
  35   2.0000      -0.983000       -26.7488
  36   2.0000      -0.921208       -25.0673
  37   2.0000      -0.893294       -24.3078
  38   2.0000      -0.847557       -23.0632
  39   2.0000      -0.834950       -22.7202
  40   2.0000      -0.827604       -22.5203
  41   2.0000      -0.815171       -22.1819
  42   2.0000      -0.757121       -20.6023
  43   2.0000      -0.736218       -20.0335
  44   2.0000      -0.724640       -19.7185
  45   2.0000      -0.690806       -18.7978
  46   2.0000      -0.685582       -18.6556
  47   2.0000      -0.679479       -18.4896
  48   2.0000      -0.671025       -18.2595
  49   2.0000      -0.655435       -17.8353
  50   2.0000      -0.650004       -17.6875
  51   2.0000      -0.644365       -17.5341
  52   2.0000      -0.631477       -17.1834
  53   2.0000      -0.609955       -16.5977
  54   2.0000      -0.600098       -16.3295
  55   2.0000      -0.599043       -16.3008
  56   2.0000      -0.594692       -16.1824
  57   2.0000      -0.582241       -15.8436
  58   2.0000      -0.573787       -15.6135
  59   2.0000      -0.563160       -15.3244
  60   2.0000      -0.558626       -15.2010
  61   2.0000      -0.549614       -14.9557
  62   2.0000      -0.534221       -14.5369
  63   2.0000      -0.532020       -14.4770
  64   2.0000      -0.516788       -14.0625
  65   2.0000      -0.509185       -13.8556
  66   2.0000      -0.497941       -13.5497
  67   2.0000      -0.495126       -13.4731
  68   2.0000      -0.481836       -13.1114
  69   2.0000      -0.463348       -12.6083
  70   2.0000      -0.458998       -12.4900
  71   2.0000      -0.452809       -12.3216
  72   2.0000      -0.354440        -9.6448
  73   2.0000      -0.343855        -9.3568
  74   2.0000      -0.327255        -8.9050
  75   2.0000      -0.315676        -8.5900
  76   2.0000      -0.313548        -8.5321
  77   0.0000       0.075893         2.0652
  78   0.0000       0.113515         3.0889
  79   0.0000       0.120538         3.2800
  80   0.0000       0.136178         3.7056
  81   0.0000       0.141230         3.8431

MULLIKEN ATOMIC CHARGES
-----------------------
   0 C :   -0.282629
   1 C :    0.021542
   2 O :   -0.347534
   3 C :    0.452283
   4 O :   -0.433517
   5 C :   -0.175548
   6 C :    0.142062
   7 C :   -0.283795
   8 N :   -0.121117
   9 C :    0.201360
  10 S :   -0.438894
  11 N :   -0.197314
  12 C :    0.034816
  13 C :    0.058131
  14 C :   -0.161360
  15 C :   -0.134308
  16 C :   -0.279247
  17 C :    0.311865
  18 O :   -0.359116
  19 C :   -0.273164
  20 H :    0.112418
  21 H :    0.094720
  22 H :    0.092086
  23 H :    0.116578
  24 H :    0.104827
  25 H :    0.126969
  26 H :    0.101519
  27 H :    0.127389
  28 H :    0.196774
  29 H :    0.193621
  30 H :    0.153526
  31 H :    0.153488
  32 H :    0.159100
  33 H :    0.128098
  34 H :    0.240028
  35 H :    0.164344
Sum of atomic charges:    0.0000000

LOEWDIN ATOMIC CHARGES
----------------------
   0 C :    0.105313
   1 C :   -0.017147
   2 O :    0.307798
   3 C :   -0.414705
   4 O :    0.101145
   5 C :   -0.090931
   6 C :   -0.064638
   7 C :    0.125084
   8 N :    0.404969
   9 C :   -0.458987
  10 S :   -0.035689
  11 N :    0.397999
  12 C :   -0.046621
  13 C :   -0.038944
  14 C :    0.022146
  15 C :    0.040569
  16 C :   -0.002413
  17 C :   -0.192651
  18 O :    0.393002
  19 C :    0.028404
  20 H :   -0.022837
  21 H :   -0.026167
  22 H :   -0.029321
  23 H :   -0.027377
  24 H :   -0.027623
  25 H :   -0.008305
  26 H :   -0.021217
  27 H :   -0.009943
  28 H :   -0.059192
  29 H :   -0.063600
  30 H :   -0.005111
  31 H :   -0.025268
  32 H :   -0.021248
  33 H :   -0.036405
  34 H :   -0.154934
  35 H :   -0.025158

  Mayer bond orders larger than 0.100000
B(  0-C ,  1-C ) :   0.9657 B(  0-C , 20-H ) :   0.9761 B(  0-C , 21-H ) :   0.9756
B(  0-C , 22-H ) :   0.9780 B(  1-C ,  2-O ) :   0.8886 B(  1-C , 23-H ) :   0.9752
B(  1-C , 24-H ) :   0.9843 B(  2-O ,  3-C ) :   1.1620 B(  3-C ,  4-O ) :   1.9725
B(  3-C ,  5-C ) :   1.0577 B(  5-C ,  6-C ) :   1.6437 B(  5-C , 12-C ) :   0.9672
B(  6-C ,  7-C ) :   0.9562 B(  6-C ,  8-N ) :   1.1508 B(  7-C , 25-H ) :   0.9652
B(  7-C , 26-H ) :   0.9912 B(  7-C , 27-H ) :   0.9637 B(  8-N ,  9-C ) :   1.1775
B(  8-N , 28-H ) :   0.9487 B(  9-C , 10-S ) :   1.6111 B(  9-C , 11-N ) :   1.3048
B( 11-N , 12-C ) :   0.9922 B( 11-N , 29-H ) :   0.9520 B( 12-C , 13-C ) :   0.9470
B( 12-C , 30-H ) :   1.0004 B( 13-C , 14-C ) :   1.3752 B( 13-C , 19-C ) :   1.3693
B( 14-C , 15-C ) :   1.3947 B( 14-C , 31-H ) :   0.9648 B( 15-C , 16-C ) :   1.3622
B( 15-C , 32-H ) :   0.9714 B( 16-C , 17-C ) :   1.3315 B( 16-C , 33-H ) :   0.9860
B( 17-C , 18-O ) :   1.1080 B( 17-C , 19-C ) :   1.3791 B( 18-O , 34-H ) :   0.9806
B( 19-C , 35-H ) :   0.9585

MP2 TOTAL ENERGY:    -1274.349443879 Eh
FINAL SINGLE POINT ENERGY     -1274.349443879171

DIPOLE MOMENT
-------------
                                X             Y             Z
Electronic contribution:     11.13575       9.61697       9.36039
Nuclear contribution   :    -12.61616     -10.85268     -10.44491
                        -----------------------------------------
Total Dipole Moment    :     -1.48040      -1.23572      -1.08452
                        -----------------------------------------
Magnitude (a.u.)       :      2.21241
Magnitude (Debye)      :      5.62350

Rotational constants in cm-1:     0.010656     0.009148     0.006045
Rotational constants in MHz :   319.465327   274.261045   181.221039

                             ****ORCA TERMINATED NORMALLY****
TOTAL RUN TIME: 0 days 2 hours 24 minutes 37 seconds 554 msec
