                         Program Version 5.0.0 -  RELEASE  -
|  1> ! ri-mp2 cc-pvtz cc-pvtz/c TightSCF NoKeepInts
|  2>
|  3> %scf
|  4>   MaxCore 4096
|  5> end
|  6> *xyz  0  1
|  7>     C       15.6991765   13.8501993   14.9972396
|  8>     C       15.5295631   14.3063235   16.4568833
|  9>     O       16.6011834   15.2155620   16.7627390
| 10>     C       16.3686669   16.5629983   16.7633569
| 11>     O       15.4033238   17.0583886   16.2066101
| 12>     C       17.3472583   17.3205253   17.6178049
| 13>     C       17.3285905   18.6737696   17.7204853
| 14>     C       16.3752269   19.6315843   17.0384931
| 15>     N       18.2876464   19.3313195   18.4967614
| 16>     C       19.3525027   18.7240947   19.1070726
| 17>     S       20.4996099   19.5878472   19.9280278
| 18>     N       19.4220533   17.3584903   19.0002825
| 19>     C       18.3845046   16.4991390   18.4011901
| 20>     C       17.7327043   15.6456992   19.4856948
| 21>     C       17.9114686   14.2495017   19.4984708
| 22>     C       17.3099397   13.4606107   20.4934542
| 23>     C       16.5254742   14.0726220   21.4859373
| 24>     C       16.3489526   15.4631136   21.4788360
| 25>     O       15.5930364   16.0570379   22.4363547
| 26>     C       16.9483723   16.2454668   20.4870078
| 27>     H       15.6083614   14.7047505   14.3146354
| 28>     H       14.9280017   13.1172361   14.7312347
| 29>     H       16.6821662   13.3874068   14.8460168
| 30>     H       14.5437952   14.7661920   16.6125173
| 31>     H       15.6015839   13.4302307   17.1141899
| 32>     H       15.3430954   19.4398414   17.3588761
| 33>     H       16.4089785   19.5005955   15.9494352
| 34>     H       16.5982898   20.6835934   17.2513601
| 35>     H       18.2532913   20.3343701   18.5849131
| 36>     H       20.1981336   16.9358359   19.4931347
| 37>     H       18.8872017   15.8305890   17.6881716
| 38>     H       18.5134538   13.7734747   18.7290383
| 39>     H       17.4529362   12.3814410   20.4939036
| 40>     H       16.0594486   13.4679069   22.2569335
| 41>     H       15.2938354   15.3637134   23.0434430
| 42>     H       16.8051728   17.3205289   20.5034945
| 43> *
| 44>
| 45>                          ****END OF INPUT****

CARTESIAN COORDINATES (ANGSTROEM)
---------------------------------
  C     15.699176   13.850199   14.997240
  C     15.529563   14.306323   16.456883
  O     16.601183   15.215562   16.762739
  C     16.368667   16.562998   16.763357
  O     15.403324   17.058389   16.206610
  C     17.347258   17.320525   17.617805
  C     17.328591   18.673770   17.720485
  C     16.375227   19.631584   17.038493
  N     18.287646   19.331319   18.496761
  C     19.352503   18.724095   19.107073
  S     20.499610   19.587847   19.928028
  N     19.422053   17.358490   19.000283
  C     18.384505   16.499139   18.401190
  C     17.732704   15.645699   19.485695
  C     17.911469   14.249502   19.498471
  C     17.309940   13.460611   20.493454
  C     16.525474   14.072622   21.485937
  C     16.348953   15.463114   21.478836
  O     15.593036   16.057038   22.436355
  C     16.948372   16.245467   20.487008
  H     15.608361   14.704750   14.314635
  H     14.928002   13.117236   14.731235
  H     16.682166   13.387407   14.846017
  H     14.543795   14.766192   16.612517
  H     15.601584   13.430231   17.114190
  H     15.343095   19.439841   17.358876
  H     16.408978   19.500595   15.949435
  H     16.598290   20.683593   17.251360
  H     18.253291   20.334370   18.584913
  H     20.198134   16.935836   19.493135
  H     18.887202   15.830589   17.688172
  H     18.513454   13.773475   18.729038
  H     17.452936   12.381441   20.493904
  H     16.059449   13.467907   22.256933
  H     15.293835   15.363713   23.043443
  H     16.805173   17.320529   20.503494

 Total Charge           Charge          ....    0
 Multiplicity           Mult            ....    1
 Number of Electrons    NEL             ....  154
 Basis Dimension        Dim             ....  828

ORBITAL ENERGIES
----------------

  NO   OCC          E(Eh)            E(eV)
   0   2.0000     -91.888926     -2500.4248
   1   2.0000     -20.600184      -560.5595
   2   2.0000     -20.596192      -560.4509
   3   2.0000     -20.542521      -558.9904
   4   2.0000     -15.629163      -425.2911
   5   2.0000     -15.608244      -424.7219
   6   2.0000     -11.395459      -310.0862
   7   2.0000     -11.384031      -309.7752
   8   2.0000     -11.336043      -308.4694
   9   2.0000     -11.313353      -307.8520
  10   2.0000     -11.308972      -307.7328
  11   2.0000     -11.296018      -307.3803
  12   2.0000     -11.259340      -306.3822
  13   2.0000     -11.258913      -306.3706
  14   2.0000     -11.254893      -306.2612
  15   2.0000     -11.252162      -306.1869
  16   2.0000     -11.242652      -305.9281
  17   2.0000     -11.238091      -305.8040
  18   2.0000     -11.237874      -305.7981
  19   2.0000     -11.224910      -305.4453
  20   2.0000      -8.893985      -242.0176
  21   2.0000      -6.575559      -178.9301
  22   2.0000      -6.573555      -178.8755
  23   2.0000      -6.572967      -178.8595
  24   2.0000      -1.451583       -39.4996
  25   2.0000      -1.415840       -38.5270
  26   2.0000      -1.354982       -36.8709
  27   2.0000      -1.340086       -36.4656
  28   2.0000      -1.238504       -33.7014
  29   2.0000      -1.157297       -31.4917
  30   2.0000      -1.120389       -30.4873
  31   2.0000      -1.042708       -28.3735
  32   2.0000      -1.037270       -28.2255
  33   2.0000      -1.014708       -27.6116
  34   2.0000      -0.995378       -27.0856
  35   2.0000      -0.984037       -26.7770
  36   2.0000      -0.922442       -25.1009
  37   2.0000      -0.890773       -24.2392
  38   2.0000      -0.847016       -23.0485
  39   2.0000      -0.837515       -22.7899
  40   2.0000      -0.833707       -22.6863
  41   2.0000      -0.818720       -22.2785
  42   2.0000      -0.760748       -20.7010
  43   2.0000      -0.732153       -19.9229
  44   2.0000      -0.723195       -19.6791
  45   2.0000      -0.695308       -18.9203
  46   2.0000      -0.688074       -18.7234
  47   2.0000      -0.680319       -18.5124
  48   2.0000      -0.671647       -18.2765
  49   2.0000      -0.653771       -17.7900
  50   2.0000      -0.646189       -17.5837
  51   2.0000      -0.644590       -17.5402
  52   2.0000      -0.629060       -17.1176
  53   2.0000      -0.614144       -16.7117
  54   2.0000      -0.606424       -16.5016
  55   2.0000      -0.599282       -16.3073
  56   2.0000      -0.598524       -16.2867
  57   2.0000      -0.578828       -15.7507
  58   2.0000      -0.571416       -15.5490
  59   2.0000      -0.569515       -15.4973
  60   2.0000      -0.563671       -15.3383
  61   2.0000      -0.539504       -14.6807
  62   2.0000      -0.534362       -14.5407
  63   2.0000      -0.528332       -14.3766
  64   2.0000      -0.524694       -14.2777
  65   2.0000      -0.513436       -13.9713
  66   2.0000      -0.501102       -13.6357
  67   2.0000      -0.496963       -13.5231
  68   2.0000      -0.486448       -13.2369
  69   2.0000      -0.464115       -12.6292
  70   2.0000      -0.454027       -12.3547
  71   2.0000      -0.449007       -12.2181
  72   2.0000      -0.354344        -9.6422
  73   2.0000      -0.349071        -9.4987
  74   2.0000      -0.328245        -8.9320
  75   2.0000      -0.321050        -8.7362
  76   2.0000      -0.316030        -8.5996
  77   0.0000       0.075864         2.0644
  78   0.0000       0.106652         2.9022
  79   0.0000       0.124987         3.4011
  80   0.0000       0.132570         3.6074
  81   0.0000       0.136906         3.7254

MULLIKEN ATOMIC CHARGES
-----------------------
   0 C :   -0.274596
   1 C :    0.034915
   2 O :   -0.355930
   3 C :    0.462897
   4 O :   -0.434764
   5 C :   -0.218048
   6 C :    0.152005
   7 C :   -0.273830
   8 N :   -0.120900
   9 C :    0.210739
  10 S :   -0.439606
  11 N :   -0.203868
  12 C :    0.053145
  13 C :    0.066796
  14 C :   -0.185941
  15 C :   -0.131627
  16 C :   -0.279072
  17 C :    0.315954
  18 O :   -0.356617
  19 C :   -0.269102
  20 H :    0.106870
  21 H :    0.091545
  22 H :    0.091146
  23 H :    0.104165
  24 H :    0.107099
  25 H :    0.132354
  26 H :    0.130400
  27 H :    0.095221
  28 H :    0.197412
  29 H :    0.194565
  30 H :    0.150781
  31 H :    0.149974
  32 H :    0.160782
  33 H :    0.129765
  34 H :    0.240641
  35 H :    0.164731
Sum of atomic charges:   -0.0000000

LOEWDIN ATOMIC CHARGES
----------------------
   0 C :    0.104536
   1 C :   -0.015142
   2 O :    0.309494
   3 C :   -0.414357
   4 O :    0.095767
   5 C :   -0.094616
   6 C :   -0.058782
   7 C :    0.131579
   8 N :    0.406585
   9 C :   -0.456538
  10 S :   -0.035235
  11 N :    0.396499
  12 C :   -0.052474
  13 C :   -0.038556
  14 C :    0.014493
  15 C :    0.038390
  16 C :   -0.001867
  17 C :   -0.189452
  18 O :    0.395170
  19 C :    0.031416
  20 H :   -0.024282
  21 H :   -0.027437
  22 H :   -0.029486
  23 H :   -0.027648
  24 H :   -0.028131
  25 H :   -0.004498
  26 H :   -0.004054
  27 H :   -0.023360
  28 H :   -0.057553
  29 H :   -0.064558
  30 H :   -0.010822
  31 H :   -0.030165
  32 H :   -0.021539
  33 H :   -0.035671
  34 H :   -0.153956
  35 H :   -0.023749

  Mayer bond orders larger than 0.100000
B(  0-C ,  1-C ) :   0.9722 B(  0-C , 20-H ) :   0.9775 B(  0-C , 21-H ) :   0.9762
B(  0-C , 22-H ) :   0.9781 B(  1-C ,  2-O ) :   0.8853 B(  1-C , 23-H ) :   0.9741
B(  1-C , 24-H ) :   0.9799 B(  2-O ,  3-C ) :   1.1608 B(  3-C ,  4-O ) :   1.9597
B(  3-C ,  5-C ) :   1.0661 B(  5-C ,  6-C ) :   1.6553 B(  5-C , 12-C ) :   0.9729
B(  6-C ,  7-C ) :   0.9672 B(  6-C ,  8-N ) :   1.1639 B(  7-C , 25-H ) :   0.9600
B(  7-C , 26-H ) :   0.9606 B(  7-C , 27-H ) :   0.9906 B(  8-N ,  9-C ) :   1.1826
B(  8-N , 28-H ) :   0.9478 B(  9-C , 10-S ) :   1.6079 B(  9-C , 11-N ) :   1.3049
B( 11-N , 12-C ) :   0.9875 B( 11-N , 29-H ) :   0.9516 B( 12-C , 13-C ) :   0.9364
B( 12-C , 30-H ) :   1.0027 B( 13-C , 14-C ) :   1.3542 B( 13-C , 19-C ) :   1.3824
B( 14-C , 15-C ) :   1.3903 B( 14-C , 31-H ) :   0.9718 B( 15-C , 16-C ) :   1.3638
B( 15-C , 32-H ) :   0.9706 B( 16-C , 17-C ) :   1.3315 B( 16-C , 33-H ) :   0.9851
B( 17-C , 18-O ) :   1.1100 B( 17-C , 19-C ) :   1.3727 B( 18-O , 34-H ) :   0.9799
B( 19-C , 35-H ) :   0.9583

MP2 TOTAL ENERGY:    -1274.348837364 Eh
FINAL SINGLE POINT ENERGY     -1274.348837363902

DIPOLE MOMENT
-------------
                                X             Y             Z
Electronic contribution:      9.62301       9.84308       9.86260
Nuclear contribution   :    -10.76708     -11.46137     -10.16039
                        -----------------------------------------
Total Dipole Moment    :     -1.14406      -1.61829      -0.29778
                        -----------------------------------------
Magnitude (a.u.)       :      2.00410
Magnitude (Debye)      :      5.09402

Rotational constants in cm-1:     0.011167     0.008696     0.006049
Rotational constants in MHz :   334.778412   260.695771   181.340696

                             ****ORCA TERMINATED NORMALLY****
TOTAL RUN TIME: 0 days 1 hours 36 minutes 39 seconds 478 msec
