                         Program Version 5.0.0 -  RELEASE  -
|  1> ! ri-mp2 cc-pvtz cc-pvtz/c TightSCF NoKeepInts
|  2>
|  3> %scf
|  4>   MaxCore 4096
|  5> end
|  6> *xyz  0  1
|  7>     C       15.2500747   15.0225237   17.3591364
|  8>     C       16.1921596   14.3449497   16.3458349
|  9>     O       17.5782659   14.7447613   16.4671168
| 10>     C       17.9470646   16.0151186   16.1285169
| 11>     O       17.7957624   16.3653143   14.9717985
| 12>     C       17.8549578   16.9892566   17.2690617
| 13>     C       17.3663292   18.2473634   17.1256983
| 14>     C       16.6701170   18.8307453   15.9151351
| 15>     N       17.5357063   19.1801773   18.1533532
| 16>     C       18.3933764   19.0153664   19.2095727
| 17>     S       18.7114317   20.2355089   20.2794872
| 18>     N       18.9767457   17.7785465   19.3330758
| 19>     C       18.5656713   16.5827792   18.5713057
| 20>     C       17.7590368   15.6504221   19.4716829
| 21>     C       18.0888865   14.2837904   19.5499484
| 22>     C       17.3778076   13.4217382   20.4016089
| 23>     C       16.3318370   13.9300425   21.1902425
| 24>     C       16.0037991   15.2908233   21.1224262
| 25>     O       14.9914468   15.7837526   21.8790235
| 26>     C       16.7104676   16.1460039   20.2707572
| 27>     H       15.4501788   14.6614169   18.3715077
| 28>     H       14.2096323   14.7656256   17.1266560
| 29>     H       15.3303011   16.1141757   17.3384139
| 30>     H       16.1240751   13.2579742   16.4816469
| 31>     H       15.8424824   14.5663456   15.3281394
| 32>     H       17.3937785   19.0211027   15.1120257
| 33>     H       16.1532719   19.7722923   16.1344727
| 34>     H       15.9225952   18.1310443   15.5210555
| 35>     H       17.1287121   20.0976489   18.0647385
| 36>     H       19.5848910   17.6766410   20.1356653
| 37>     H       19.4845183   16.0511148   18.2864175
| 38>     H       18.8967429   13.8855703   18.9413554
| 39>     H       17.6399251   12.3661470   20.4498188
| 40>     H       15.7808265   13.2682018   21.8503955
| 41>     H       14.6648002   15.0619368   22.4369315
| 42>     H       16.4393247   17.1957775   20.2399767
| 43> *
| 44>
| 45>                          ****END OF INPUT****

CARTESIAN COORDINATES (ANGSTROEM)
---------------------------------
  C     15.250075   15.022524   17.359136
  C     16.192160   14.344950   16.345835
  O     17.578266   14.744761   16.467117
  C     17.947065   16.015119   16.128517
  O     17.795762   16.365314   14.971798
  C     17.854958   16.989257   17.269062
  C     17.366329   18.247363   17.125698
  C     16.670117   18.830745   15.915135
  N     17.535706   19.180177   18.153353
  C     18.393376   19.015366   19.209573
  S     18.711432   20.235509   20.279487
  N     18.976746   17.778547   19.333076
  C     18.565671   16.582779   18.571306
  C     17.759037   15.650422   19.471683
  C     18.088887   14.283790   19.549948
  C     17.377808   13.421738   20.401609
  C     16.331837   13.930043   21.190243
  C     16.003799   15.290823   21.122426
  O     14.991447   15.783753   21.879023
  C     16.710468   16.146004   20.270757
  H     15.450179   14.661417   18.371508
  H     14.209632   14.765626   17.126656
  H     15.330301   16.114176   17.338414
  H     16.124075   13.257974   16.481647
  H     15.842482   14.566346   15.328139
  H     17.393778   19.021103   15.112026
  H     16.153272   19.772292   16.134473
  H     15.922595   18.131044   15.521055
  H     17.128712   20.097649   18.064738
  H     19.584891   17.676641   20.135665
  H     19.484518   16.051115   18.286417
  H     18.896743   13.885570   18.941355
  H     17.639925   12.366147   20.449819
  H     15.780826   13.268202   21.850396
  H     14.664800   15.061937   22.436931
  H     16.439325   17.195777   20.239977

 Total Charge           Charge          ....    0
 Multiplicity           Mult            ....    1
 Number of Electrons    NEL             ....  154
 Basis Dimension        Dim             ....  828

ORBITAL ENERGIES
----------------

  NO   OCC          E(Eh)            E(eV)
   0   2.0000     -91.891010     -2500.4815
   1   2.0000     -20.598092      -560.5026
   2   2.0000     -20.578905      -559.9805
   3   2.0000     -20.557067      -559.3862
   4   2.0000     -15.630023      -425.3146
   5   2.0000     -15.609795      -424.7641
   6   2.0000     -11.395011      -310.0740
   7   2.0000     -11.385523      -309.8158
   8   2.0000     -11.334606      -308.4303
   9   2.0000     -11.315336      -307.9059
  10   2.0000     -11.313859      -307.8657
  11   2.0000     -11.300424      -307.5002
  12   2.0000     -11.261604      -306.4438
  13   2.0000     -11.261245      -306.4341
  14   2.0000     -11.256995      -306.3184
  15   2.0000     -11.255246      -306.2708
  16   2.0000     -11.245626      -306.0090
  17   2.0000     -11.240077      -305.8581
  18   2.0000     -11.239624      -305.8457
  19   2.0000     -11.223212      -305.3991
  20   2.0000      -8.896032      -242.0733
  21   2.0000      -6.577599      -178.9856
  22   2.0000      -6.575602      -178.9312
  23   2.0000      -6.575007      -178.9150
  24   2.0000      -1.449770       -39.4502
  25   2.0000      -1.417911       -38.5833
  26   2.0000      -1.351715       -36.7820
  27   2.0000      -1.341530       -36.5049
  28   2.0000      -1.240002       -33.7422
  29   2.0000      -1.158846       -31.5338
  30   2.0000      -1.121270       -30.5113
  31   2.0000      -1.044449       -28.4209
  32   2.0000      -1.032499       -28.0957
  33   2.0000      -1.017119       -27.6772
  34   2.0000      -1.000501       -27.2250
  35   2.0000      -0.986973       -26.8569
  36   2.0000      -0.925113       -25.1736
  37   2.0000      -0.892818       -24.2948
  38   2.0000      -0.848244       -23.0819
  39   2.0000      -0.841768       -22.9057
  40   2.0000      -0.836000       -22.7487
  41   2.0000      -0.819192       -22.2913
  42   2.0000      -0.752273       -20.4704
  43   2.0000      -0.733880       -19.9699
  44   2.0000      -0.725142       -19.7321
  45   2.0000      -0.697426       -18.9779
  46   2.0000      -0.690971       -18.8023
  47   2.0000      -0.678064       -18.4511
  48   2.0000      -0.668844       -18.2002
  49   2.0000      -0.667074       -18.1520
  50   2.0000      -0.650815       -17.7096
  51   2.0000      -0.646952       -17.6045
  52   2.0000      -0.637045       -17.3349
  53   2.0000      -0.610006       -16.5991
  54   2.0000      -0.606939       -16.5156
  55   2.0000      -0.601146       -16.3580
  56   2.0000      -0.598998       -16.2996
  57   2.0000      -0.579418       -15.7668
  58   2.0000      -0.573890       -15.6164
  59   2.0000      -0.565293       -15.3824
  60   2.0000      -0.562825       -15.3152
  61   2.0000      -0.552186       -15.0258
  62   2.0000      -0.540258       -14.7012
  63   2.0000      -0.526149       -14.3172
  64   2.0000      -0.519584       -14.1386
  65   2.0000      -0.514882       -14.0107
  66   2.0000      -0.502924       -13.6853
  67   2.0000      -0.502652       -13.6779
  68   2.0000      -0.474337       -12.9074
  69   2.0000      -0.465000       -12.6533
  70   2.0000      -0.452927       -12.3248
  71   2.0000      -0.446854       -12.1595
  72   2.0000      -0.357411        -9.7256
  73   2.0000      -0.349262        -9.5039
  74   2.0000      -0.330082        -8.9820
  75   2.0000      -0.324049        -8.8178
  76   2.0000      -0.317782        -8.6473
  77   0.0000       0.067165         1.8277
  78   0.0000       0.104306         2.8383
  79   0.0000       0.117197         3.1891
  80   0.0000       0.128360         3.4929
  81   0.0000       0.131215         3.5705

MULLIKEN ATOMIC CHARGES
-----------------------
   0 C :   -0.323852
   1 C :    0.040366
   2 O :   -0.384517
   3 C :    0.468122
   4 O :   -0.388139
   5 C :   -0.228300
   6 C :    0.158769
   7 C :   -0.278085
   8 N :   -0.122420
   9 C :    0.186884
  10 S :   -0.431692
  11 N :   -0.195253
  12 C :    0.027840
  13 C :    0.053841
  14 C :   -0.189155
  15 C :   -0.135188
  16 C :   -0.274947
  17 C :    0.298264
  18 O :   -0.357957
  19 C :   -0.238678
  20 H :    0.116327
  21 H :    0.119888
  22 H :    0.097324
  23 H :    0.113852
  24 H :    0.110424
  25 H :    0.143252
  26 H :    0.095422
  27 H :    0.121619
  28 H :    0.198435
  29 H :    0.191496
  30 H :    0.149433
  31 H :    0.152189
  32 H :    0.162174
  33 H :    0.132222
  34 H :    0.240669
  35 H :    0.169372
Sum of atomic charges:   -0.0000000

LOEWDIN ATOMIC CHARGES
----------------------
   0 C :    0.106569
   1 C :   -0.013328
   2 O :    0.275236
   3 C :   -0.417863
   4 O :    0.137319
   5 C :   -0.093819
   6 C :   -0.068274
   7 C :    0.128328
   8 N :    0.406624
   9 C :   -0.459506
  10 S :   -0.031854
  11 N :    0.396562
  12 C :   -0.052518
  13 C :   -0.039836
  14 C :    0.017095
  15 C :    0.038779
  16 C :   -0.002837
  17 C :   -0.193409
  18 O :    0.396650
  19 C :    0.033115
  20 H :   -0.026601
  21 H :   -0.024226
  22 H :   -0.035021
  23 H :   -0.020477
  24 H :   -0.029961
  25 H :   -0.003379
  26 H :   -0.022295
  27 H :   -0.009643
  28 H :   -0.058018
  29 H :   -0.065077
  30 H :   -0.006808
  31 H :   -0.028599
  32 H :   -0.020352
  33 H :   -0.034999
  34 H :   -0.153625
  35 H :   -0.023955

  Mayer bond orders larger than 0.100000
B(  0-C ,  1-C ) :   0.9604 B(  0-C , 20-H ) :   0.9727 B(  0-C , 21-H ) :   0.9777
B(  0-C , 22-H ) :   0.9712 B(  1-C ,  2-O ) :   0.8821 B(  1-C , 23-H ) :   0.9836
B(  1-C , 24-H ) :   0.9826 B(  2-O ,  3-C ) :   1.1041 B(  3-C ,  4-O ) :   2.0319
B(  3-C ,  5-C ) :   1.0214 B(  5-C ,  6-C ) :   1.6703 B(  5-C , 12-C ) :   0.9673
B(  6-C ,  7-C ) :   0.9658 B(  6-C ,  8-N ) :   1.1268 B(  7-C , 25-H ) :   0.9575
B(  7-C , 26-H ) :   0.9859 B(  7-C , 27-H ) :   0.9687 B(  8-N ,  9-C ) :   1.1813
B(  8-N , 28-H ) :   0.9491 B(  9-C , 10-S ) :   1.6216 B(  9-C , 11-N ) :   1.2921
B( 11-N , 12-C ) :   0.9904 B( 11-N , 29-H ) :   0.9530 B( 12-C , 13-C ) :   0.9364
B( 12-C , 30-H ) :   1.0102 B( 13-C , 14-C ) :   1.3702 B( 13-C , 19-C ) :   1.3611
B( 14-C , 15-C ) :   1.3930 B( 14-C , 31-H ) :   0.9677 B( 15-C , 16-C ) :   1.3586
B( 15-C , 32-H ) :   0.9708 B( 16-C , 17-C ) :   1.3319 B( 16-C , 33-H ) :   0.9848
B( 17-C , 18-O ) :   1.1135 B( 17-C , 19-C ) :   1.3777 B( 18-O , 34-H ) :   0.9797
B( 19-C , 35-H ) :   0.9576

MP2 TOTAL ENERGY:    -1274.313940917 Eh
FINAL SINGLE POINT ENERGY     -1274.313940916881

DIPOLE MOMENT
-------------
                                X             Y             Z
Electronic contribution:      9.84373       8.07292       5.77362
Nuclear contribution   :    -10.98400      -9.71164      -5.85098
                        -----------------------------------------
Total Dipole Moment    :     -1.14028      -1.63872      -0.07736
                        -----------------------------------------
Magnitude (a.u.)       :      1.99790
Magnitude (Debye)      :      5.07827

Rotational constants in cm-1:     0.011653     0.010109     0.006578
Rotational constants in MHz :   349.356866   303.052230   197.192632

                             ****ORCA TERMINATED NORMALLY****
TOTAL RUN TIME: 0 days 2 hours 13 minutes 40 seconds 502 msec
