                         Program Version 5.0.0 -  RELEASE  -
|  1> ! ri-mp2 cc-pvtz cc-pvtz/c TightSCF NoKeepInts
|  2>
|  3> %scf
|  4>   MaxCore 4096
|  5> end
|  6> *xyz  0  1
|  7>     C       15.0788244   15.1331568   17.5386030
|  8>     C       15.5267530   15.4995221   16.1131032
|  9>     O       16.8958879   15.0944644   15.8976465
| 10>     C       18.0361822   15.6203420   16.4604456
| 11>     O       19.0542361   14.9531793   16.4613643
| 12>     C       17.9106708   16.8105176   17.3593841
| 13>     C       17.4460315   18.0094311   16.9312886
| 14>     C       17.0293264   18.3879948   15.5249155
| 15>     N       17.4713383   19.1135947   17.7860651
| 16>     C       18.0952081   19.1426322   19.0051433
| 17>     S       18.1589388   20.5209763   19.9161747
| 18>     N       18.6744520   17.9722313   19.4268218
| 19>     C       18.5562132   16.6676693   18.7450162
| 20>     C       17.8404317   15.6390109   19.6205321
| 21>     C       18.2198740   14.2847452   19.5624107
| 22>     C       17.5712307   13.3209642   20.3518327
| 23>     C       16.5333576   13.7120930   21.2137412
| 24>     C       16.1537251   15.0589045   21.2809015
| 25>     O       15.1465790   15.4392922   22.1063877
| 26>     C       16.8013954   16.0168753   20.4941198
| 27>     H       15.3760583   15.9103122   18.2484237
| 28>     H       15.5111823   14.1757300   17.8574707
| 29>     H       13.9865537   15.0470182   17.5858142
| 30>     H       14.9002303   14.9370848   15.4085751
| 31>     H       15.3505129   16.5591371   15.9190388
| 32>     H       17.1693287   17.5687769   14.8092569
| 33>     H       17.6364759   19.2253743   15.1570643
| 34>     H       15.9782228   18.6995147   15.4888074
| 35>     H       17.0786206   19.9907595   17.4821468
| 36>     H       19.1219585   18.0195616   20.3336146
| 37>     H       19.5796111   16.2959525   18.5865217
| 38>     H       19.0191898   13.9743922   18.8926193
| 39>     H       17.8736158   12.2768470   20.2904479
| 40>     H       16.0283632   12.9703130   21.8236198
| 41>     H       14.8565121   14.6527392   22.5926073
| 42>     H       16.4799081   17.0508894   20.5620738
| 43> *
| 44>
| 45>                          ****END OF INPUT****

CARTESIAN COORDINATES (ANGSTROEM)
---------------------------------
  C     15.078824   15.133157   17.538603
  C     15.526753   15.499522   16.113103
  O     16.895888   15.094464   15.897646
  C     18.036182   15.620342   16.460446
  O     19.054236   14.953179   16.461364
  C     17.910671   16.810518   17.359384
  C     17.446032   18.009431   16.931289
  C     17.029326   18.387995   15.524915
  N     17.471338   19.113595   17.786065
  C     18.095208   19.142632   19.005143
  S     18.158939   20.520976   19.916175
  N     18.674452   17.972231   19.426822
  C     18.556213   16.667669   18.745016
  C     17.840432   15.639011   19.620532
  C     18.219874   14.284745   19.562411
  C     17.571231   13.320964   20.351833
  C     16.533358   13.712093   21.213741
  C     16.153725   15.058905   21.280901
  O     15.146579   15.439292   22.106388
  C     16.801395   16.016875   20.494120
  H     15.376058   15.910312   18.248424
  H     15.511182   14.175730   17.857471
  H     13.986554   15.047018   17.585814
  H     14.900230   14.937085   15.408575
  H     15.350513   16.559137   15.919039
  H     17.169329   17.568777   14.809257
  H     17.636476   19.225374   15.157064
  H     15.978223   18.699515   15.488807
  H     17.078621   19.990759   17.482147
  H     19.121959   18.019562   20.333615
  H     19.579611   16.295952   18.586522
  H     19.019190   13.974392   18.892619
  H     17.873616   12.276847   20.290448
  H     16.028363   12.970313   21.823620
  H     14.856512   14.652739   22.592607
  H     16.479908   17.050889   20.562074

 Total Charge           Charge          ....    0
 Multiplicity           Mult            ....    1
 Number of Electrons    NEL             ....  154
 Basis Dimension        Dim             ....  828

ORBITAL ENERGIES
----------------

  NO   OCC          E(Eh)            E(eV)
   0   2.0000     -91.890954     -2500.4800
   1   2.0000     -20.600882      -560.5785
   2   2.0000     -20.597619      -560.4897
   3   2.0000     -20.549302      -559.1749
   4   2.0000     -15.628563      -425.2748
   5   2.0000     -15.611635      -424.8142
   6   2.0000     -11.401024      -310.2376
   7   2.0000     -11.387317      -309.8646
   8   2.0000     -11.334026      -308.4145
   9   2.0000     -11.314846      -307.8926
  10   2.0000     -11.314366      -307.8795
  11   2.0000     -11.307118      -307.6823
  12   2.0000     -11.271429      -306.7112
  13   2.0000     -11.269135      -306.6488
  14   2.0000     -11.262400      -306.4655
  15   2.0000     -11.254650      -306.2546
  16   2.0000     -11.243772      -305.9586
  17   2.0000     -11.239480      -305.8418
  18   2.0000     -11.235829      -305.7425
  19   2.0000     -11.226251      -305.4818
  20   2.0000      -8.896055      -242.0740
  21   2.0000      -6.577643      -178.9868
  22   2.0000      -6.575616      -178.9316
  23   2.0000      -6.575039      -178.9159
  24   2.0000      -1.446619       -39.3645
  25   2.0000      -1.417422       -38.5700
  26   2.0000      -1.358889       -36.9772
  27   2.0000      -1.342159       -36.5220
  28   2.0000      -1.241146       -33.7733
  29   2.0000      -1.158915       -31.5357
  30   2.0000      -1.125656       -30.6306
  31   2.0000      -1.047883       -28.5143
  32   2.0000      -1.038127       -28.2489
  33   2.0000      -1.017601       -27.6903
  34   2.0000      -1.005995       -27.3745
  35   2.0000      -0.990382       -26.9497
  36   2.0000      -0.928145       -25.2561
  37   2.0000      -0.894352       -24.3365
  38   2.0000      -0.855855       -23.2890
  39   2.0000      -0.841252       -22.8916
  40   2.0000      -0.834323       -22.7031
  41   2.0000      -0.831125       -22.6161
  42   2.0000      -0.748972       -20.3806
  43   2.0000      -0.741149       -20.1677
  44   2.0000      -0.730423       -19.8758
  45   2.0000      -0.695488       -18.9252
  46   2.0000      -0.687842       -18.7171
  47   2.0000      -0.680482       -18.5169
  48   2.0000      -0.675630       -18.3848
  49   2.0000      -0.662674       -18.0323
  50   2.0000      -0.653348       -17.7785
  51   2.0000      -0.646125       -17.5819
  52   2.0000      -0.639129       -17.3916
  53   2.0000      -0.622218       -16.9314
  54   2.0000      -0.611181       -16.6311
  55   2.0000      -0.605933       -16.4883
  56   2.0000      -0.601555       -16.3691
  57   2.0000      -0.589823       -16.0499
  58   2.0000      -0.577570       -15.7165
  59   2.0000      -0.568637       -15.4734
  60   2.0000      -0.566100       -15.4044
  61   2.0000      -0.553569       -15.0634
  62   2.0000      -0.538192       -14.6450
  63   2.0000      -0.535677       -14.5765
  64   2.0000      -0.518923       -14.1206
  65   2.0000      -0.512775       -13.9533
  66   2.0000      -0.502872       -13.6839
  67   2.0000      -0.501368       -13.6429
  68   2.0000      -0.482544       -13.1307
  69   2.0000      -0.467974       -12.7342
  70   2.0000      -0.455404       -12.3922
  71   2.0000      -0.449996       -12.2450
  72   2.0000      -0.359267        -9.7761
  73   2.0000      -0.348381        -9.4799
  74   2.0000      -0.330541        -8.9945
  75   2.0000      -0.323108        -8.7922
  76   2.0000      -0.319663        -8.6985
  77   0.0000       0.082894         2.2557
  78   0.0000       0.106997         2.9115
  79   0.0000       0.112720         3.0673
  80   0.0000       0.129102         3.5131
  81   0.0000       0.131122         3.5680

MULLIKEN ATOMIC CHARGES
-----------------------
   0 C :   -0.317391
   1 C :    0.019355
   2 O :   -0.320964
   3 C :    0.423065
   4 O :   -0.386152
   5 C :   -0.238517
   6 C :    0.162472
   7 C :   -0.327465
   8 N :   -0.138598
   9 C :    0.203856
  10 S :   -0.440126
  11 N :   -0.229696
  12 C :    0.099841
  13 C :    0.020036
  14 C :   -0.220492
  15 C :   -0.138757
  16 C :   -0.274544
  17 C :    0.324768
  18 O :   -0.357210
  19 C :   -0.274841
  20 H :    0.106033
  21 H :    0.124012
  22 H :    0.110522
  23 H :    0.127004
  24 H :    0.088081
  25 H :    0.128021
  26 H :    0.143002
  27 H :    0.119592
  28 H :    0.196048
  29 H :    0.203612
  30 H :    0.167468
  31 H :    0.178878
  32 H :    0.165139
  33 H :    0.131866
  34 H :    0.240978
  35 H :    0.181102
Sum of atomic charges:   -0.0000000

LOEWDIN ATOMIC CHARGES
----------------------
   0 C :    0.106029
   1 C :   -0.022326
   2 O :    0.302359
   3 C :   -0.414063
   4 O :    0.121862
   5 C :   -0.078814
   6 C :   -0.098416
   7 C :    0.121191
   8 N :    0.402430
   9 C :   -0.458304
  10 S :   -0.036923
  11 N :    0.398182
  12 C :   -0.041917
  13 C :   -0.041602
  14 C :    0.020157
  15 C :    0.043420
  16 C :   -0.001391
  17 C :   -0.192378
  18 O :    0.395553
  19 C :    0.027054
  20 H :   -0.034797
  21 H :   -0.018901
  22 H :   -0.025934
  23 H :   -0.020008
  24 H :   -0.039576
  25 H :   -0.008229
  26 H :   -0.008118
  27 H :   -0.018697
  28 H :   -0.057250
  29 H :   -0.063213
  30 H :   -0.001852
  31 H :   -0.022392
  32 H :   -0.018701
  33 H :   -0.035050
  34 H :   -0.153461
  35 H :   -0.025922

  Mayer bond orders larger than 0.100000
B(  0-C ,  1-C ) :   0.9566 B(  0-C , 20-H ) :   0.9724 B(  0-C , 21-H ) :   0.9688
B(  0-C , 22-H ) :   0.9780 B(  1-C ,  2-O ) :   0.9027 B(  1-C , 23-H ) :   0.9849
B(  1-C , 24-H ) :   0.9719 B(  2-O ,  3-C ) :   1.1812 B(  3-C ,  4-O ) :   2.0777
B(  3-C ,  5-C ) :   0.9296 B(  5-C ,  6-C ) :   1.6877 B(  5-C , 12-C ) :   0.9422
B(  6-C ,  7-C ) :   0.9416 B(  6-C ,  8-N ) :   1.1125 B(  7-C , 25-H ) :   0.9802
B(  7-C , 26-H ) :   0.9675 B(  7-C , 27-H ) :   0.9673 B(  8-N ,  9-C ) :   1.1963
B(  8-N , 28-H ) :   0.9525 B(  9-C , 10-S ) :   1.6084 B(  9-C , 11-N ) :   1.2899
B( 11-N , 12-C ) :   0.9853 B( 11-N , 29-H ) :   0.9472 B( 12-C , 13-C ) :   0.9566
B( 12-C , 30-H ) :   0.9938 B( 13-C , 14-C ) :   1.3875 B( 13-C , 19-C ) :   1.3357
B( 14-C , 15-C ) :   1.4029 B( 14-C , 31-H ) :   0.9569 B( 15-C , 16-C ) :   1.3571
B( 15-C , 32-H ) :   0.9696 B( 16-C , 17-C ) :   1.3319 B( 16-C , 33-H ) :   0.9848
B( 17-C , 18-O ) :   1.1094 B( 17-C , 19-C ) :   1.3635 B( 18-O , 34-H ) :   0.9796
B( 19-C , 35-H ) :   0.9578

MP2 TOTAL ENERGY:    -1274.331146037 Eh
FINAL SINGLE POINT ENERGY     -1274.331146037415

DIPOLE MOMENT
-------------
                                X             Y             Z
Electronic contribution:      9.12439       6.63063       6.18055
Nuclear contribution   :    -10.65180      -7.56075      -6.83252
                        -----------------------------------------
Total Dipole Moment    :     -1.52741      -0.93012      -0.65197
                        -----------------------------------------
Magnitude (a.u.)       :      1.90346
Magnitude (Debye)      :      4.83820

Rotational constants in cm-1:     0.011792     0.009556     0.006684
Rotational constants in MHz :   353.526479   286.478163   200.385268

                             ****ORCA TERMINATED NORMALLY****
TOTAL RUN TIME: 0 days 1 hours 39 minutes 38 seconds 477 msec
