                         Program Version 5.0.0 -  RELEASE  -
|  1> ! ri-mp2 cc-pvtz cc-pvtz/c TightSCF NoKeepInts
|  2>
|  3> %scf
|  4>   MaxCore 4096
|  5> end
|  6> *xyz  0  1
|  7>     C       14.1992619   15.1356403   16.3245692
|  8>     C       15.4310631   15.5369738   17.1519015
|  9>     O       16.5941883   15.1832921   16.3764785
| 10>     C       17.8275212   15.7784757   16.4800573
| 11>     O       18.8203115   15.1500261   16.1634610
| 12>     C       17.9329414   16.9292409   17.4245142
| 13>     C       17.3756384   18.1338557   17.1642674
| 14>     C       16.5885207   18.5229915   15.9309443
| 15>     N       17.5609425   19.1925529   18.0554952
| 16>     C       18.3624049   19.1430755   19.1669886
| 17>     S       18.5679271   20.4586300   20.1471970
| 18>     N       18.9814924   17.9449597   19.4304119
| 19>     C       18.7830857   16.6942658   18.6701587
| 20>     C       18.1574566   15.6043495   19.5343869
| 21>     C       18.6289734   14.2816298   19.4509038
| 22>     C       18.0390348   13.2614782   20.2154151
| 23>     C       16.9645497   13.5645312   21.0687065
| 24>     C       16.4863522   14.8791390   21.1487585
| 25>     O       15.4380613   15.1725632   21.9581954
| 26>     C       17.0747250   15.8929668   20.3860249
| 27>     H       13.2762126   15.3600571   16.8728471
| 28>     H       14.2159958   14.0601192   16.1070741
| 29>     H       14.1765131   15.6799206   15.3723498
| 30>     H       15.3636888   16.6083769   17.3596161
| 31>     H       15.4411711   14.9998181   18.1098169
| 32>     H       16.5307857   17.7105327   15.1961744
| 33>     H       17.0581660   19.3757447   15.4240842
| 34>     H       15.5614753   18.8079057   16.1905482
| 35>     H       17.1297367   20.0850562   17.8714740
| 36>     H       19.5504055   17.9336276   20.2676889
| 37>     H       19.7715086   16.3433219   18.3379485
| 38>     H       19.4466700   14.0402740   18.7747118
| 39>     H       18.4107736   12.2410522   20.1375996
| 40>     H       16.5039873   12.7781394   21.6576649
| 41>     H       15.2110193   14.3649419   22.4439640
| 42>     H       16.6844389   16.9024742   20.4616015
| 43> *
| 44>
| 45>                          ****END OF INPUT****

CARTESIAN COORDINATES (ANGSTROEM)
---------------------------------
  C     14.199262   15.135640   16.324569
  C     15.431063   15.536974   17.151902
  O     16.594188   15.183292   16.376479
  C     17.827521   15.778476   16.480057
  O     18.820311   15.150026   16.163461
  C     17.932941   16.929241   17.424514
  C     17.375638   18.133856   17.164267
  C     16.588521   18.522991   15.930944
  N     17.560942   19.192553   18.055495
  C     18.362405   19.143075   19.166989
  S     18.567927   20.458630   20.147197
  N     18.981492   17.944960   19.430412
  C     18.783086   16.694266   18.670159
  C     18.157457   15.604349   19.534387
  C     18.628973   14.281630   19.450904
  C     18.039035   13.261478   20.215415
  C     16.964550   13.564531   21.068706
  C     16.486352   14.879139   21.148758
  O     15.438061   15.172563   21.958195
  C     17.074725   15.892967   20.386025
  H     13.276213   15.360057   16.872847
  H     14.215996   14.060119   16.107074
  H     14.176513   15.679921   15.372350
  H     15.363689   16.608377   17.359616
  H     15.441171   14.999818   18.109817
  H     16.530786   17.710533   15.196174
  H     17.058166   19.375745   15.424084
  H     15.561475   18.807906   16.190548
  H     17.129737   20.085056   17.871474
  H     19.550405   17.933628   20.267689
  H     19.771509   16.343322   18.337948
  H     19.446670   14.040274   18.774712
  H     18.410774   12.241052   20.137600
  H     16.503987   12.778139   21.657665
  H     15.211019   14.364942   22.443964
  H     16.684439   16.902474   20.461601

 Total Charge           Charge          ....    0
 Multiplicity           Mult            ....    1
 Number of Electrons    NEL             ....  154
 Basis Dimension        Dim             ....  828

ORBITAL ENERGIES
----------------

  NO   OCC          E(Eh)            E(eV)
   0   2.0000     -91.890115     -2500.4571
   1   2.0000     -20.600639      -560.5719
   2   2.0000     -20.600402      -560.5654
   3   2.0000     -20.550592      -559.2101
   4   2.0000     -15.626996      -425.2322
   5   2.0000     -15.611920      -424.8219
   6   2.0000     -11.397869      -310.1518
   7   2.0000     -11.387066      -309.8578
   8   2.0000     -11.328695      -308.2695
   9   2.0000     -11.317141      -307.9551
  10   2.0000     -11.315358      -307.9065
  11   2.0000     -11.302539      -307.5577
  12   2.0000     -11.270235      -306.6787
  13   2.0000     -11.264612      -306.5257
  14   2.0000     -11.263885      -306.5059
  15   2.0000     -11.257343      -306.3279
  16   2.0000     -11.246721      -306.0388
  17   2.0000     -11.242541      -305.9251
  18   2.0000     -11.239926      -305.8539
  19   2.0000     -11.233991      -305.6924
  20   2.0000      -8.895231      -242.0515
  21   2.0000      -6.576819      -178.9643
  22   2.0000      -6.574793      -178.9092
  23   2.0000      -6.574218      -178.8936
  24   2.0000      -1.448053       -39.4035
  25   2.0000      -1.420234       -38.6465
  26   2.0000      -1.359410       -36.9914
  27   2.0000      -1.340279       -36.4708
  28   2.0000      -1.240123       -33.7455
  29   2.0000      -1.162002       -31.6197
  30   2.0000      -1.126238       -30.6465
  31   2.0000      -1.049689       -28.5635
  32   2.0000      -1.040986       -28.3267
  33   2.0000      -1.019402       -27.7393
  34   2.0000      -1.005619       -27.3643
  35   2.0000      -0.989785       -26.9334
  36   2.0000      -0.928324       -25.2610
  37   2.0000      -0.882347       -24.0099
  38   2.0000      -0.855308       -23.2741
  39   2.0000      -0.842339       -22.9212
  40   2.0000      -0.837702       -22.7950
  41   2.0000      -0.836877       -22.7726
  42   2.0000      -0.757672       -20.6173
  43   2.0000      -0.739772       -20.1302
  44   2.0000      -0.732547       -19.9336
  45   2.0000      -0.697860       -18.9897
  46   2.0000      -0.688577       -18.7371
  47   2.0000      -0.681048       -18.5323
  48   2.0000      -0.677135       -18.4258
  49   2.0000      -0.666264       -18.1300
  50   2.0000      -0.653074       -17.7710
  51   2.0000      -0.648671       -17.6512
  52   2.0000      -0.640105       -17.4181
  53   2.0000      -0.612474       -16.6663
  54   2.0000      -0.608467       -16.5572
  55   2.0000      -0.604336       -16.4448
  56   2.0000      -0.599584       -16.3155
  57   2.0000      -0.588020       -16.0008
  58   2.0000      -0.578680       -15.7467
  59   2.0000      -0.569538       -15.4979
  60   2.0000      -0.562348       -15.3023
  61   2.0000      -0.560792       -15.2599
  62   2.0000      -0.546335       -14.8665
  63   2.0000      -0.529524       -14.4091
  64   2.0000      -0.524071       -14.2607
  65   2.0000      -0.515813       -14.0360
  66   2.0000      -0.503725       -13.7071
  67   2.0000      -0.502814       -13.6823
  68   2.0000      -0.489185       -13.3114
  69   2.0000      -0.470238       -12.7958
  70   2.0000      -0.454333       -12.3630
  71   2.0000      -0.449435       -12.2298
  72   2.0000      -0.357273        -9.7219
  73   2.0000      -0.352287        -9.5862
  74   2.0000      -0.329815        -8.9747
  75   2.0000      -0.325162        -8.8481
  76   2.0000      -0.318456        -8.6656
  77   0.0000       0.085707         2.3322
  78   0.0000       0.104673         2.8483
  79   0.0000       0.111743         3.0407
  80   0.0000       0.127714         3.4753
  81   0.0000       0.130080         3.5397

MULLIKEN ATOMIC CHARGES
-----------------------
   0 C :   -0.256650
   1 C :    0.011578
   2 O :   -0.312413
   3 C :    0.393658
   4 O :   -0.381321
   5 C :   -0.183960
   6 C :    0.129822
   7 C :   -0.321675
   8 N :   -0.134426
   9 C :    0.205109
  10 S :   -0.440989
  11 N :   -0.214483
  12 C :    0.066110
  13 C :    0.024888
  14 C :   -0.191724
  15 C :   -0.131839
  16 C :   -0.274652
  17 C :    0.318039
  18 O :   -0.359347
  19 C :   -0.280714
  20 H :    0.089807
  21 H :    0.108161
  22 H :    0.092255
  23 H :    0.091522
  24 H :    0.127184
  25 H :    0.124893
  26 H :    0.141979
  27 H :    0.119454
  28 H :    0.195872
  29 H :    0.198356
  30 H :    0.164444
  31 H :    0.167711
  32 H :    0.163901
  33 H :    0.133046
  34 H :    0.241842
  35 H :    0.174562
Sum of atomic charges:   -0.0000000

LOEWDIN ATOMIC CHARGES
----------------------
   0 C :    0.109027
   1 C :   -0.020252
   2 O :    0.307838
   3 C :   -0.416866
   4 O :    0.125191
   5 C :   -0.082266
   6 C :   -0.106297
   7 C :    0.124597
   8 N :    0.401091
   9 C :   -0.455469
  10 S :   -0.037751
  11 N :    0.397256
  12 C :   -0.044258
  13 C :   -0.043859
  14 C :    0.022834
  15 C :    0.045836
  16 C :   -0.000484
  17 C :   -0.195063
  18 O :    0.394650
  19 C :    0.027830
  20 H :   -0.025089
  21 H :   -0.023314
  22 H :   -0.029101
  23 H :   -0.039574
  24 H :   -0.026517
  25 H :   -0.008501
  26 H :   -0.009185
  27 H :   -0.016896
  28 H :   -0.057753
  29 H :   -0.063706
  30 H :   -0.002392
  31 H :   -0.021748
  32 H :   -0.018246
  33 H :   -0.034457
  34 H :   -0.152793
  35 H :   -0.024313

  Mayer bond orders larger than 0.100000
B(  0-C ,  1-C ) :   0.9806 B(  0-C , 20-H ) :   0.9767 B(  0-C , 21-H ) :   0.9793
B(  0-C , 22-H ) :   0.9779 B(  1-C ,  2-O ) :   0.9054 B(  1-C , 23-H ) :   0.9654
B(  1-C , 24-H ) :   0.9701 B(  2-O ,  3-C ) :   1.1853 B(  3-C ,  4-O ) :   2.0988
B(  3-C ,  5-C ) :   0.9216 B(  5-C ,  6-C ) :   1.6938 B(  5-C , 12-C ) :   0.9606
B(  6-C ,  7-C ) :   0.9444 B(  6-C ,  8-N ) :   1.1135 B(  7-C , 25-H ) :   0.9802
B(  7-C , 26-H ) :   0.9689 B(  7-C , 27-H ) :   0.9666 B(  8-N ,  9-C ) :   1.1950
B(  8-N , 28-H ) :   0.9521 B(  9-C , 10-S ) :   1.6111 B(  9-C , 11-N ) :   1.2877
B( 11-N , 12-C ) :   0.9983 B( 11-N , 29-H ) :   0.9488 B( 12-C , 13-C ) :   0.9452
B( 12-C , 30-H ) :   0.9974 B( 13-C , 14-C ) :   1.3860 B( 13-C , 19-C ) :   1.3474
B( 14-C , 15-C ) :   1.3960 B( 14-C , 31-H ) :   0.9613 B( 15-C , 16-C ) :   1.3642
B( 15-C , 32-H ) :   0.9700 B( 16-C , 17-C ) :   1.3277 B( 16-C , 33-H ) :   0.9842
B( 17-C , 18-O ) :   1.1088 B( 17-C , 19-C ) :   1.3674 B( 18-O , 34-H ) :   0.9789
B( 19-C , 35-H ) :   0.9588

MP2 TOTAL ENERGY:    -1274.331953317 Eh
FINAL SINGLE POINT ENERGY     -1274.331953317454

DIPOLE MOMENT
-------------
                                X             Y             Z
Electronic contribution:     11.92845       6.59077       7.51748
Nuclear contribution   :    -13.50480      -7.59810      -7.79147
                        -----------------------------------------
Total Dipole Moment    :     -1.57636      -1.00733      -0.27399
                        -----------------------------------------
Magnitude (a.u.)       :      1.89069
Magnitude (Debye)      :      4.80575

Rotational constants in cm-1:     0.011522     0.009154     0.006775
Rotational constants in MHz :   345.407546   274.425045   203.114417

                             ****ORCA TERMINATED NORMALLY****
TOTAL RUN TIME: 0 days 2 hours 6 minutes 57 seconds 52 msec
