                         Program Version 5.0.0 -  RELEASE  -
|  1> ! ri-mp2 cc-pvtz cc-pvtz/c TightSCF NoKeepInts
|  2>
|  3> %scf
|  4>   MaxCore 4096
|  5> end
|  6> *xyz  0  1
|  7>     C       14.5757071   14.5241787   15.2136591
|  8>     C       15.6206976   14.4790091   16.3408948
|  9>     O       16.5523554   15.5475222   16.1055988
| 10>     C       17.7327382   15.5396237   16.7889123
| 11>     O       18.2862120   14.4951770   17.0910848
| 12>     C       17.9671410   16.8052607   17.5596009
| 13>     C       17.5181490   18.0281536   17.1766067
| 14>     C       16.7411967   18.3787850   15.9243159
| 15>     N       17.8349161   19.1553312   17.9414131
| 16>     C       18.7033197   19.1633579   19.0011661
| 17>     S       19.1181326   20.5637888   19.7771974
| 18>     N       19.2118850   17.9481014   19.3849251
| 19>     C       18.7770291   16.6437650   18.8502757
| 20>     C       17.9789695   15.8753664   19.9004708
| 21>     C       18.3654510   14.5767947   20.2803265
| 22>     C       17.6301291   13.8624650   21.2410305
| 23>     C       16.4970151   14.4507210   21.8280961
| 24>     C       16.1061751   15.7422761   21.4497523
| 25>     O       15.0081792   16.3102996   22.0092119
| 26>     C       16.8396763   16.4504913   20.4927698
| 27>     H       15.0570579   14.3977619   14.2358193
| 28>     H       14.0430200   15.4831227   15.2174409
| 29>     H       13.8393826   13.7211499   15.3399634
| 30>     H       15.1413189   14.5964429   17.3219233
| 31>     H       16.1294113   13.5053532   16.3143017
| 32>     H       17.1643809   17.8743953   15.0465998
| 33>     H       16.7502419   19.4544259   15.7102225
| 34>     H       15.6938290   18.0659260   16.0188244
| 35>     H       17.4722490   20.0567777   17.6749781
| 36>     H       19.8257409   17.9780919   20.1888265
| 37>     H       19.6798093   16.0637940   18.6097754
| 38>     H       19.2311206   14.1126239   19.8140058
| 39>     H       17.9367993   12.8564316   21.5216734
| 40>     H       15.9253680   13.9018368   22.5689971
| 41>     H       14.6705921   15.6932629   22.6757013
| 42>     H       16.5216034   17.4501349   20.2176387
| 43> *
| 44>
| 45>                          ****END OF INPUT****

CARTESIAN COORDINATES (ANGSTROEM)
---------------------------------
  C     14.575707   14.524179   15.213659
  C     15.620698   14.479009   16.340895
  O     16.552355   15.547522   16.105599
  C     17.732738   15.539624   16.788912
  O     18.286212   14.495177   17.091085
  C     17.967141   16.805261   17.559601
  C     17.518149   18.028154   17.176607
  C     16.741197   18.378785   15.924316
  N     17.834916   19.155331   17.941413
  C     18.703320   19.163358   19.001166
  S     19.118133   20.563789   19.777197
  N     19.211885   17.948101   19.384925
  C     18.777029   16.643765   18.850276
  C     17.978970   15.875366   19.900471
  C     18.365451   14.576795   20.280327
  C     17.630129   13.862465   21.241031
  C     16.497015   14.450721   21.828096
  C     16.106175   15.742276   21.449752
  O     15.008179   16.310300   22.009212
  C     16.839676   16.450491   20.492770
  H     15.057058   14.397762   14.235819
  H     14.043020   15.483123   15.217441
  H     13.839383   13.721150   15.339963
  H     15.141319   14.596443   17.321923
  H     16.129411   13.505353   16.314302
  H     17.164381   17.874395   15.046600
  H     16.750242   19.454426   15.710222
  H     15.693829   18.065926   16.018824
  H     17.472249   20.056778   17.674978
  H     19.825741   17.978092   20.188826
  H     19.679809   16.063794   18.609775
  H     19.231121   14.112624   19.814006
  H     17.936799   12.856432   21.521673
  H     15.925368   13.901837   22.568997
  H     14.670592   15.693263   22.675701
  H     16.521603   17.450135   20.217639

 Total Charge           Charge          ....    0
 Multiplicity           Mult            ....    1
 Number of Electrons    NEL             ....  154
 Basis Dimension        Dim             ....  828

ORBITAL ENERGIES
----------------

  NO   OCC          E(Eh)            E(eV)
   0   2.0000     -91.888261     -2500.4067
   1   2.0000     -20.593925      -560.3892
   2   2.0000     -20.593525      -560.3783
   3   2.0000     -20.550840      -559.2168
   4   2.0000     -15.628226      -425.2656
   5   2.0000     -15.607303      -424.6963
   6   2.0000     -11.394917      -310.0715
   7   2.0000     -11.383456      -309.7596
   8   2.0000     -11.334395      -308.4246
   9   2.0000     -11.309467      -307.7462
  10   2.0000     -11.306970      -307.6783
  11   2.0000     -11.298138      -307.4380
  12   2.0000     -11.259963      -306.3992
  13   2.0000     -11.259514      -306.3870
  14   2.0000     -11.255184      -306.2691
  15   2.0000     -11.249518      -306.1149
  16   2.0000     -11.239182      -305.8337
  17   2.0000     -11.235236      -305.7263
  18   2.0000     -11.232866      -305.6618
  19   2.0000     -11.232300      -305.6464
  20   2.0000      -8.893330      -241.9998
  21   2.0000      -6.574909      -178.9124
  22   2.0000      -6.572900      -178.8577
  23   2.0000      -6.572316      -178.8418
  24   2.0000      -1.454046       -39.5666
  25   2.0000      -1.413277       -38.4572
  26   2.0000      -1.357281       -36.9335
  27   2.0000      -1.339240       -36.4426
  28   2.0000      -1.237187       -33.6656
  29   2.0000      -1.153764       -31.3955
  30   2.0000      -1.120267       -30.4840
  31   2.0000      -1.044224       -28.4148
  32   2.0000      -1.036615       -28.2077
  33   2.0000      -1.011184       -27.5157
  34   2.0000      -0.998175       -27.1617
  35   2.0000      -0.983760       -26.7695
  36   2.0000      -0.921917       -25.0866
  37   2.0000      -0.884856       -24.0782
  38   2.0000      -0.847352       -23.0576
  39   2.0000      -0.836466       -22.7614
  40   2.0000      -0.829668       -22.5764
  41   2.0000      -0.821611       -22.3572
  42   2.0000      -0.759504       -20.6672
  43   2.0000      -0.735935       -20.0258
  44   2.0000      -0.726331       -19.7645
  45   2.0000      -0.691763       -18.8238
  46   2.0000      -0.684853       -18.6358
  47   2.0000      -0.680809       -18.5257
  48   2.0000      -0.675148       -18.3717
  49   2.0000      -0.654375       -17.8064
  50   2.0000      -0.651125       -17.7180
  51   2.0000      -0.642678       -17.4882
  52   2.0000      -0.633777       -17.2460
  53   2.0000      -0.613132       -16.6842
  54   2.0000      -0.602004       -16.3814
  55   2.0000      -0.601464       -16.3667
  56   2.0000      -0.596900       -16.2425
  57   2.0000      -0.577152       -15.7051
  58   2.0000      -0.574698       -15.6383
  59   2.0000      -0.562861       -15.3162
  60   2.0000      -0.560281       -15.2460
  61   2.0000      -0.545639       -14.8476
  62   2.0000      -0.539748       -14.6873
  63   2.0000      -0.525052       -14.2874
  64   2.0000      -0.518862       -14.1190
  65   2.0000      -0.510290       -13.8857
  66   2.0000      -0.502442       -13.6722
  67   2.0000      -0.496301       -13.5050
  68   2.0000      -0.481805       -13.1106
  69   2.0000      -0.464367       -12.6361
  70   2.0000      -0.460976       -12.5438
  71   2.0000      -0.451282       -12.2800
  72   2.0000      -0.353941        -9.6312
  73   2.0000      -0.345576        -9.4036
  74   2.0000      -0.327475        -8.9111
  75   2.0000      -0.316618        -8.6156
  76   2.0000      -0.315008        -8.5718
  77   0.0000       0.073414         1.9977
  78   0.0000       0.109062         2.9677
  79   0.0000       0.119792         3.2597
  80   0.0000       0.134443         3.6584
  81   0.0000       0.137603         3.7444

MULLIKEN ATOMIC CHARGES
-----------------------
   0 C :   -0.267961
   1 C :    0.038553
   2 O :   -0.359056
   3 C :    0.453025
   4 O :   -0.411192
   5 C :   -0.186150
   6 C :    0.139836
   7 C :   -0.284882
   8 N :   -0.123942
   9 C :    0.202578
  10 S :   -0.439850
  11 N :   -0.199334
  12 C :    0.045186
  13 C :    0.052961
  14 C :   -0.161962
  15 C :   -0.132955
  16 C :   -0.280323
  17 C :    0.311539
  18 O :   -0.358921
  19 C :   -0.276109
  20 H :    0.099272
  21 H :    0.089818
  22 H :    0.094252
  23 H :    0.093061
  24 H :    0.112805
  25 H :    0.125118
  26 H :    0.103869
  27 H :    0.125800
  28 H :    0.197080
  29 H :    0.193970
  30 H :    0.154380
  31 H :    0.154306
  32 H :    0.159757
  33 H :    0.128982
  34 H :    0.240389
  35 H :    0.166099
Sum of atomic charges:    0.0000000

LOEWDIN ATOMIC CHARGES
----------------------
   0 C :    0.107349
   1 C :   -0.015972
   2 O :    0.298281
   3 C :   -0.413948
   4 O :    0.117097
   5 C :   -0.092575
   6 C :   -0.070652
   7 C :    0.125484
   8 N :    0.404379
   9 C :   -0.458084
  10 S :   -0.036404
  11 N :    0.397379
  12 C :   -0.045810
  13 C :   -0.039417
  14 C :    0.021810
  15 C :    0.041280
  16 C :   -0.002392
  17 C :   -0.193464
  18 O :    0.393068
  19 C :    0.027934
  20 H :   -0.025141
  21 H :   -0.030476
  22 H :   -0.024097
  23 H :   -0.030668
  24 H :   -0.026992
  25 H :   -0.008179
  26 H :   -0.020171
  27 H :   -0.010485
  28 H :   -0.058907
  29 H :   -0.063918
  30 H :   -0.004784
  31 H :   -0.025071
  32 H :   -0.020896
  33 H :   -0.036152
  34 H :   -0.154608
  35 H :   -0.024800

  Mayer bond orders larger than 0.100000
B(  0-C ,  1-C ) :   0.9742 B(  0-C , 20-H ) :   0.9773 B(  0-C , 21-H ) :   0.9792
B(  0-C , 22-H ) :   0.9770 B(  1-C ,  2-O ) :   0.8960 B(  1-C , 23-H ) :   0.9718
B(  1-C , 24-H ) :   0.9774 B(  2-O ,  3-C ) :   1.1121 B(  3-C ,  4-O ) :   2.0089
B(  3-C ,  5-C ) :   1.0395 B(  5-C ,  6-C ) :   1.6598 B(  5-C , 12-C ) :   0.9649
B(  6-C ,  7-C ) :   0.9525 B(  6-C ,  8-N ) :   1.1409 B(  7-C , 25-H ) :   0.9687
B(  7-C , 26-H ) :   0.9898 B(  7-C , 27-H ) :   0.9630 B(  8-N ,  9-C ) :   1.1821
B(  8-N , 28-H ) :   0.9495 B(  9-C , 10-S ) :   1.6104 B(  9-C , 11-N ) :   1.3020
B( 11-N , 12-C ) :   0.9913 B( 11-N , 29-H ) :   0.9518 B( 12-C , 13-C ) :   0.9469
B( 12-C , 30-H ) :   0.9988 B( 13-C , 14-C ) :   1.3771 B( 13-C , 19-C ) :   1.3679
B( 14-C , 15-C ) :   1.3947 B( 14-C , 31-H ) :   0.9645 B( 15-C , 16-C ) :   1.3632
B( 15-C , 32-H ) :   0.9712 B( 16-C , 17-C ) :   1.3313 B( 16-C , 33-H ) :   0.9856
B( 17-C , 18-O ) :   1.1087 B( 17-C , 19-C ) :   1.3773 B( 18-O , 34-H ) :   0.9803
B( 19-C , 35-H ) :   0.9582

MP2 TOTAL ENERGY:    -1274.335002701 Eh
FINAL SINGLE POINT ENERGY     -1274.335002701285

DIPOLE MOMENT
-------------
                                X             Y             Z
Electronic contribution:     11.38142       9.65061       9.95087
Nuclear contribution   :    -12.81853     -10.99582     -10.68981
                        -----------------------------------------
Total Dipole Moment    :     -1.43711      -1.34521      -0.73894
                        -----------------------------------------
Magnitude (a.u.)       :      2.10260
Magnitude (Debye)      :      5.34438

Rotational constants in cm-1:     0.010599     0.009110     0.006138
Rotational constants in MHz :   317.755508   273.109742   184.011756

                             ****ORCA TERMINATED NORMALLY****
TOTAL RUN TIME: 0 days 1 hours 46 minutes 35 seconds 231 msec
