                         Program Version 5.0.0 -  RELEASE  -
|  1> ! ri-mp2 cc-pvtz cc-pvtz/c TightSCF NoKeepInts
|  2>
|  3> %scf
|  4>   MaxCore 4096
|  5> end
|  6> *xyz  0  1
|  7>     C       15.3494505   13.7635263   15.4785586
|  8>     C       15.7497432   14.3849730   16.8281541
|  9>     O       16.8719354   15.2559376   16.6019921
| 10>     C       16.6493404   16.6019412   16.5441594
| 11>     O       15.6700105   17.0604082   15.9812360
| 12>     C       17.4960360   17.3729850   17.5200124
| 13>     C       17.4043108   18.7208517   17.6530212
| 14>     C       16.4878170   19.6568572   16.8942763
| 15>     N       18.2437922   19.3966900   18.5435249
| 16>     C       19.2687855   18.8202985   19.2448791
| 17>     S       20.2821265   19.7093123   20.2033234
| 18>     N       19.4175406   17.4639487   19.1072901
| 19>     C       18.4891016   16.5765247   18.3838906
| 20>     C       17.7840680   15.6582918   19.3783928
| 21>     C       18.1322533   14.2967354   19.4580213
| 22>     C       17.4806181   13.4438867   20.3647076
| 23>     C       16.4754145   13.9571577   21.2019270
| 24>     C       16.1317997   15.3141556   21.1310389
| 25>     O       15.1631484   15.8131778   21.9393160
| 26>     C       16.7810739   16.1601648   20.2267635
| 27>     H       15.0291693   14.5429301   14.7753380
| 28>     H       14.5188582   13.0597198   15.6100261
| 29>     H       16.1939969   13.2222283   15.0347289
| 30>     H       14.9037003   14.9258302   17.2747930
| 31>     H       16.0433155   13.5832687   17.5178621
| 32>     H       15.4374496   19.4362772   17.1240961
| 33>     H       16.6180526   19.5329342   15.8116668
| 34>     H       16.6644033   20.7133293   17.1278029
| 35>     H       18.1507857   20.3937113   18.6550292
| 36>     H       20.1601149   17.0630580   19.6656026
| 37>     H       19.0908422   15.9547223   17.7060000
| 38>     H       18.9066222   13.8965769   18.8087923
| 39>     H       17.7562867   12.3919416   20.4180422
| 40>     H       15.9702684   13.3029350   21.9050374
| 41>     H       14.8696283   15.0960856   22.5212640
| 42>     H       16.5051398   17.2086273   20.1934332
| 43> *
| 44>
| 45>                          ****END OF INPUT****

CARTESIAN COORDINATES (ANGSTROEM)
---------------------------------
  C     15.349450   13.763526   15.478559
  C     15.749743   14.384973   16.828154
  O     16.871935   15.255938   16.601992
  C     16.649340   16.601941   16.544159
  O     15.670010   17.060408   15.981236
  C     17.496036   17.372985   17.520012
  C     17.404311   18.720852   17.653021
  C     16.487817   19.656857   16.894276
  N     18.243792   19.396690   18.543525
  C     19.268785   18.820298   19.244879
  S     20.282127   19.709312   20.203323
  N     19.417541   17.463949   19.107290
  C     18.489102   16.576525   18.383891
  C     17.784068   15.658292   19.378393
  C     18.132253   14.296735   19.458021
  C     17.480618   13.443887   20.364708
  C     16.475414   13.957158   21.201927
  C     16.131800   15.314156   21.131039
  O     15.163148   15.813178   21.939316
  C     16.781074   16.160165   20.226764
  H     15.029169   14.542930   14.775338
  H     14.518858   13.059720   15.610026
  H     16.193997   13.222228   15.034729
  H     14.903700   14.925830   17.274793
  H     16.043315   13.583269   17.517862
  H     15.437450   19.436277   17.124096
  H     16.618053   19.532934   15.811667
  H     16.664403   20.713329   17.127803
  H     18.150786   20.393711   18.655029
  H     20.160115   17.063058   19.665603
  H     19.090842   15.954722   17.706000
  H     18.906622   13.896577   18.808792
  H     17.756287   12.391942   20.418042
  H     15.970268   13.302935   21.905037
  H     14.869628   15.096086   22.521264
  H     16.505140   17.208627   20.193433

 Total Charge           Charge          ....    0
 Multiplicity           Mult            ....    1
 Number of Electrons    NEL             ....  154
 Basis Dimension        Dim             ....  828

ORBITAL ENERGIES
----------------

  NO   OCC          E(Eh)            E(eV)
   0   2.0000     -91.889672     -2500.4451
   1   2.0000     -20.599231      -560.5336
   2   2.0000     -20.590801      -560.3042
   3   2.0000     -20.545267      -559.0651
   4   2.0000     -15.629995      -425.3138
   5   2.0000     -15.609127      -424.7459
   6   2.0000     -11.394613      -310.0632
   7   2.0000     -11.384792      -309.7960
   8   2.0000     -11.336600      -308.4846
   9   2.0000     -11.316777      -307.9452
  10   2.0000     -11.310417      -307.7721
  11   2.0000     -11.294574      -307.3410
  12   2.0000     -11.262260      -306.4617
  13   2.0000     -11.259315      -306.3815
  14   2.0000     -11.258141      -306.3496
  15   2.0000     -11.253077      -306.2118
  16   2.0000     -11.245680      -306.0105
  17   2.0000     -11.240831      -305.8786
  18   2.0000     -11.240555      -305.8710
  19   2.0000     -11.219472      -305.2974
  20   2.0000      -8.894730      -242.0379
  21   2.0000      -6.576302      -178.9503
  22   2.0000      -6.574299      -178.8958
  23   2.0000      -6.573711      -178.8798
  24   2.0000      -1.450258       -39.4635
  25   2.0000      -1.418876       -38.6096
  26   2.0000      -1.353925       -36.8422
  27   2.0000      -1.340994       -36.4903
  28   2.0000      -1.239588       -33.7309
  29   2.0000      -1.159991       -31.5650
  30   2.0000      -1.121143       -30.5079
  31   2.0000      -1.044438       -28.4206
  32   2.0000      -1.033543       -28.1241
  33   2.0000      -1.017887       -27.6981
  34   2.0000      -0.996136       -27.1062
  35   2.0000      -0.984677       -26.7944
  36   2.0000      -0.924005       -25.1435
  37   2.0000      -0.885156       -24.0863
  38   2.0000      -0.848363       -23.0851
  39   2.0000      -0.840060       -22.8592
  40   2.0000      -0.836421       -22.7602
  41   2.0000      -0.822971       -22.3942
  42   2.0000      -0.758721       -20.6458
  43   2.0000      -0.734025       -19.9738
  44   2.0000      -0.723615       -19.6906
  45   2.0000      -0.698116       -18.9967
  46   2.0000      -0.689574       -18.7643
  47   2.0000      -0.679415       -18.4878
  48   2.0000      -0.671487       -18.2721
  49   2.0000      -0.655030       -17.8243
  50   2.0000      -0.647682       -17.6243
  51   2.0000      -0.644999       -17.5513
  52   2.0000      -0.631247       -17.1771
  53   2.0000      -0.609821       -16.5941
  54   2.0000      -0.608153       -16.5487
  55   2.0000      -0.600961       -16.3530
  56   2.0000      -0.600199       -16.3322
  57   2.0000      -0.580985       -15.8094
  58   2.0000      -0.573489       -15.6054
  59   2.0000      -0.569993       -15.5103
  60   2.0000      -0.565267       -15.3817
  61   2.0000      -0.539312       -14.6754
  62   2.0000      -0.534307       -14.5392
  63   2.0000      -0.527291       -14.3483
  64   2.0000      -0.516337       -14.0503
  65   2.0000      -0.513948       -13.9852
  66   2.0000      -0.502545       -13.6749
  67   2.0000      -0.496819       -13.5191
  68   2.0000      -0.488572       -13.2947
  69   2.0000      -0.464101       -12.6288
  70   2.0000      -0.454058       -12.3555
  71   2.0000      -0.446399       -12.1471
  72   2.0000      -0.354962        -9.6590
  73   2.0000      -0.351992        -9.5782
  74   2.0000      -0.329309        -8.9609
  75   2.0000      -0.324142        -8.8204
  76   2.0000      -0.317102        -8.6288
  77   0.0000       0.072560         1.9745
  78   0.0000       0.103205         2.8084
  79   0.0000       0.124074         3.3762
  80   0.0000       0.130996         3.5646
  81   0.0000       0.135869         3.6972

MULLIKEN ATOMIC CHARGES
-----------------------
   0 C :   -0.270216
   1 C :    0.037077
   2 O :   -0.372525
   3 C :    0.458346
   4 O :   -0.421209
   5 C :   -0.235633
   6 C :    0.159849
   7 C :   -0.270688
   8 N :   -0.123060
   9 C :    0.214007
  10 S :   -0.439701
  11 N :   -0.207424
  12 C :    0.070664
  13 C :    0.060034
  14 C :   -0.203527
  15 C :   -0.127613
  16 C :   -0.279415
  17 C :    0.313390
  18 O :   -0.355657
  19 C :   -0.261168
  20 H :    0.111799
  21 H :    0.088402
  22 H :    0.090245
  23 H :    0.095710
  24 H :    0.111901
  25 H :    0.132232
  26 H :    0.130216
  27 H :    0.095617
  28 H :    0.197581
  29 H :    0.195152
  30 H :    0.150003
  31 H :    0.151320
  32 H :    0.164353
  33 H :    0.131975
  34 H :    0.241283
  35 H :    0.166681
Sum of atomic charges:    0.0000000

LOEWDIN ATOMIC CHARGES
----------------------
   0 C :    0.104617
   1 C :   -0.016561
   2 O :    0.300322
   3 C :   -0.417055
   4 O :    0.106419
   5 C :   -0.096636
   6 C :   -0.058847
   7 C :    0.131543
   8 N :    0.406826
   9 C :   -0.455824
  10 S :   -0.034934
  11 N :    0.396123
  12 C :   -0.052235
  13 C :   -0.036989
  14 C :    0.014261
  15 C :    0.039407
  16 C :   -0.002426
  17 C :   -0.189488
  18 O :    0.395898
  19 C :    0.031094
  20 H :   -0.023928
  21 H :   -0.029524
  22 H :   -0.029324
  23 H :   -0.028528
  24 H :   -0.027640
  25 H :   -0.004711
  26 H :   -0.003936
  27 H :   -0.023146
  28 H :   -0.057412
  29 H :   -0.064802
  30 H :   -0.009768
  31 H :   -0.029718
  32 H :   -0.020771
  33 H :   -0.035166
  34 H :   -0.153291
  35 H :   -0.023849

  Mayer bond orders larger than 0.100000
B(  0-C ,  1-C ) :   0.9822 B(  0-C , 20-H ) :   0.9765 B(  0-C , 21-H ) :   0.9779
B(  0-C , 22-H ) :   0.9777 B(  1-C ,  2-O ) :   0.8754 B(  1-C , 23-H ) :   0.9708
B(  1-C , 24-H ) :   0.9745 B(  2-O ,  3-C ) :   1.1220 B(  3-C ,  4-O ) :   1.9817
B(  3-C ,  5-C ) :   1.0695 B(  5-C ,  6-C ) :   1.6486 B(  5-C , 12-C ) :   0.9707
B(  6-C ,  7-C ) :   0.9666 B(  6-C ,  8-N ) :   1.1613 B(  7-C , 25-H ) :   0.9594
B(  7-C , 26-H ) :   0.9611 B(  7-C , 27-H ) :   0.9906 B(  8-N ,  9-C ) :   1.1829
B(  8-N , 28-H ) :   0.9476 B(  9-C , 10-S ) :   1.6062 B(  9-C , 11-N ) :   1.3069
B( 11-N , 12-C ) :   0.9770 B( 11-N , 29-H ) :   0.9516 B( 12-C , 13-C ) :   0.9373
B( 12-C , 30-H ) :   1.0020 B( 13-C , 14-C ) :   1.3480 B( 13-C , 19-C ) :   1.3790
B( 14-C , 15-C ) :   1.3887 B( 14-C , 31-H ) :   0.9738 B( 15-C , 16-C ) :   1.3618
B( 15-C , 32-H ) :   0.9696 B( 16-C , 17-C ) :   1.3308 B( 16-C , 33-H ) :   0.9844
B( 17-C , 18-O ) :   1.1121 B( 17-C , 19-C ) :   1.3714 B( 18-O , 34-H ) :   0.9793
B( 19-C , 35-H ) :   0.9583

MP2 TOTAL ENERGY:    -1274.339388223 Eh
FINAL SINGLE POINT ENERGY     -1274.339388223311

DIPOLE MOMENT
-------------
                                X             Y             Z
Electronic contribution:     10.09078      10.18087       8.41008
Nuclear contribution   :    -11.09243     -11.73916      -8.52691
                        -----------------------------------------
Total Dipole Moment    :     -1.00165      -1.55830      -0.11684
                        -----------------------------------------
Magnitude (a.u.)       :      1.85613
Magnitude (Debye)      :      4.71792

Rotational constants in cm-1:     0.012069     0.008608     0.006191
Rotational constants in MHz :   361.822881   258.068139   185.612248

                             ****ORCA TERMINATED NORMALLY****
TOTAL RUN TIME: 0 days 2 hours 2 minutes 57 seconds 264 msec
