                         Program Version 5.0.0 -  RELEASE  -
|  1> ! ri-mp2 cc-pvtz cc-pvtz/c TightSCF NoKeepInts
|  2>
|  3> %scf
|  4>   MaxCore 4096
|  5> end
|  6> *xyz  0  1
|  7>     C       14.6274347   14.8756472   14.5956231
|  8>     C       15.4848309   14.4693009   15.8059390
|  9>     O       16.3270779   15.5878195   16.1299783
| 10>     C       17.3884970   15.3978051   16.9661209
| 11>     O       17.7874077   14.2838216   17.2651193
| 12>     C       17.8573428   16.6378492   17.6736752
| 13>     C       17.5689821   17.9113196   17.2950260
| 14>     C       16.7462877   18.3718319   16.1087682
| 15>     N       18.1192401   18.9864487   18.0011844
| 16>     C       19.0726805   18.8771582   18.9786512
| 17>     S       19.7697272   20.2083535   19.6698048
| 18>     N       19.4192834   17.6041730   19.3534642
| 19>     C       18.7320197   16.3783933   18.9059939
| 20>     C       17.9119665   15.7803304   20.0463919
| 21>     C       18.1063958   14.4428870   20.4383397
| 22>     C       17.3534950   13.8862388   21.4858282
| 23>     C       16.3965837   14.6731644   22.1488883
| 24>     C       16.1969873   16.0045412   21.7594584
| 25>     O       15.2694889   16.7653048   22.3938043
| 26>     C       16.9475620   16.5556314   20.7161812
| 27>     H       14.0046361   15.7458276   14.8372475
| 28>     H       13.9667060   14.0518868   14.2991389
| 29>     H       15.2638081   15.1305759   13.7390356
| 30>     H       14.8503305   14.2051450   16.6623763
| 31>     H       16.0906767   13.5934305   15.5351217
| 32>     H       17.0868952   17.8858596   15.1859572
| 33>     H       16.8089959   19.4541967   15.9435247
| 34>     H       15.6876394   18.1214195   16.2516936
| 35>     H       17.8776387   19.9291128   17.7405588
| 36>     H       20.1011422   17.5502550   20.0991681
| 37>     H       19.5053514   15.6506009   18.6205358
| 38>     H       18.8338182   13.8268704   19.9152570
| 39>     H       17.5095481   12.8484842   21.7747886
| 40>     H       15.8116773   14.2467081   22.9569127
| 41>     H       14.8855483   16.2243912   23.1000114
| 42>     H       16.7792968   17.5892161   20.4344317
| 43> *
| 44>
| 45>                          ****END OF INPUT****

CARTESIAN COORDINATES (ANGSTROEM)
---------------------------------
  C     14.627435   14.875647   14.595623
  C     15.484831   14.469301   15.805939
  O     16.327078   15.587820   16.129978
  C     17.388497   15.397805   16.966121
  O     17.787408   14.283822   17.265119
  C     17.857343   16.637849   17.673675
  C     17.568982   17.911320   17.295026
  C     16.746288   18.371832   16.108768
  N     18.119240   18.986449   18.001184
  C     19.072681   18.877158   18.978651
  S     19.769727   20.208353   19.669805
  N     19.419283   17.604173   19.353464
  C     18.732020   16.378393   18.905994
  C     17.911966   15.780330   20.046392
  C     18.106396   14.442887   20.438340
  C     17.353495   13.886239   21.485828
  C     16.396584   14.673164   22.148888
  C     16.196987   16.004541   21.759458
  O     15.269489   16.765305   22.393804
  C     16.947562   16.555631   20.716181
  H     14.004636   15.745828   14.837247
  H     13.966706   14.051887   14.299139
  H     15.263808   15.130576   13.739036
  H     14.850331   14.205145   16.662376
  H     16.090677   13.593430   15.535122
  H     17.086895   17.885860   15.185957
  H     16.808996   19.454197   15.943525
  H     15.687639   18.121419   16.251694
  H     17.877639   19.929113   17.740559
  H     20.101142   17.550255   20.099168
  H     19.505351   15.650601   18.620536
  H     18.833818   13.826870   19.915257
  H     17.509548   12.848484   21.774789
  H     15.811677   14.246708   22.956913
  H     14.885548   16.224391   23.100011
  H     16.779297   17.589216   20.434432

 Total Charge           Charge          ....    0
 Multiplicity           Mult            ....    1
 Number of Electrons    NEL             ....  154
 Basis Dimension        Dim             ....  828

ORBITAL ENERGIES
----------------

  NO   OCC          E(Eh)            E(eV)
   0   2.0000     -91.887996     -2500.3995
   1   2.0000     -20.603454      -560.6485
   2   2.0000     -20.591226      -560.3157
   3   2.0000     -20.545824      -559.0803
   4   2.0000     -15.628417      -425.2708
   5   2.0000     -15.606543      -424.6756
   6   2.0000     -11.395275      -310.0812
   7   2.0000     -11.382855      -309.7432
   8   2.0000     -11.336456      -308.4806
   9   2.0000     -11.306985      -307.6787
  10   2.0000     -11.305320      -307.6334
  11   2.0000     -11.298924      -307.4594
  12   2.0000     -11.260539      -306.4148
  13   2.0000     -11.259036      -306.3740
  14   2.0000     -11.252937      -306.2080
  15   2.0000     -11.247078      -306.0485
  16   2.0000     -11.236759      -305.7678
  17   2.0000     -11.235008      -305.7201
  18   2.0000     -11.232915      -305.6631
  19   2.0000     -11.229836      -305.5794
  20   2.0000      -8.893059      -241.9925
  21   2.0000      -6.574637      -178.9050
  22   2.0000      -6.572630      -178.8504
  23   2.0000      -6.572044      -178.8344
  24   2.0000      -1.455171       -39.5972
  25   2.0000      -1.410959       -38.3942
  26   2.0000      -1.357320       -36.9345
  27   2.0000      -1.339300       -36.4442
  28   2.0000      -1.236849       -33.6564
  29   2.0000      -1.151661       -31.3383
  30   2.0000      -1.119393       -30.4602
  31   2.0000      -1.044813       -28.4308
  32   2.0000      -1.036886       -28.2151
  33   2.0000      -1.009013       -27.4566
  34   2.0000      -0.997475       -27.1427
  35   2.0000      -0.983147       -26.7528
  36   2.0000      -0.920818       -25.0567
  37   2.0000      -0.888400       -24.1746
  38   2.0000      -0.846924       -23.0460
  39   2.0000      -0.834594       -22.7105
  40   2.0000      -0.827307       -22.5122
  41   2.0000      -0.817941       -22.2573
  42   2.0000      -0.761997       -20.7350
  43   2.0000      -0.735902       -20.0249
  44   2.0000      -0.724484       -19.7142
  45   2.0000      -0.690011       -18.7761
  46   2.0000      -0.683595       -18.6016
  47   2.0000      -0.681457       -18.5434
  48   2.0000      -0.675999       -18.3949
  49   2.0000      -0.656981       -17.8774
  50   2.0000      -0.650643       -17.7049
  51   2.0000      -0.643064       -17.4987
  52   2.0000      -0.634360       -17.2618
  53   2.0000      -0.601938       -16.3796
  54   2.0000      -0.600472       -16.3397
  55   2.0000      -0.598828       -16.2949
  56   2.0000      -0.594584       -16.1794
  57   2.0000      -0.579945       -15.7811
  58   2.0000      -0.572704       -15.5841
  59   2.0000      -0.563657       -15.3379
  60   2.0000      -0.562187       -15.2979
  61   2.0000      -0.549213       -14.9448
  62   2.0000      -0.542191       -14.7538
  63   2.0000      -0.524140       -14.2626
  64   2.0000      -0.516636       -14.0584
  65   2.0000      -0.509164       -13.8551
  66   2.0000      -0.503362       -13.6972
  67   2.0000      -0.495175       -13.4744
  68   2.0000      -0.481323       -13.0975
  69   2.0000      -0.463017       -12.5993
  70   2.0000      -0.461888       -12.5686
  71   2.0000      -0.453517       -12.3408
  72   2.0000      -0.354175        -9.6376
  73   2.0000      -0.343547        -9.3484
  74   2.0000      -0.327101        -8.9009
  75   2.0000      -0.315426        -8.5832
  76   2.0000      -0.313340        -8.5264
  77   0.0000       0.075860         2.0643
  78   0.0000       0.113462         3.0875
  79   0.0000       0.120421         3.2768
  80   0.0000       0.135915         3.6984
  81   0.0000       0.138635         3.7724

MULLIKEN ATOMIC CHARGES
-----------------------
   0 C :   -0.270994
   1 C :    0.039615
   2 O :   -0.338738
   3 C :    0.440620
   4 O :   -0.426542
   5 C :   -0.174746
   6 C :    0.143181
   7 C :   -0.288851
   8 N :   -0.122134
   9 C :    0.201466
  10 S :   -0.439237
  11 N :   -0.196880
  12 C :    0.035297
  13 C :    0.057363
  14 C :   -0.159768
  15 C :   -0.133976
  16 C :   -0.279036
  17 C :    0.311304
  18 O :   -0.359251
  19 C :   -0.272755
  20 H :    0.092130
  21 H :    0.099113
  22 H :    0.096946
  23 H :    0.092380
  24 H :    0.107135
  25 H :    0.126644
  26 H :    0.104121
  27 H :    0.127652
  28 H :    0.196737
  29 H :    0.193532
  30 H :    0.153492
  31 H :    0.153048
  32 H :    0.158876
  33 H :    0.127863
  34 H :    0.240001
  35 H :    0.164396
Sum of atomic charges:    0.0000000

LOEWDIN ATOMIC CHARGES
----------------------
   0 C :    0.106580
   1 C :   -0.016048
   2 O :    0.305955
   3 C :   -0.414168
   4 O :    0.104471
   5 C :   -0.091305
   6 C :   -0.065840
   7 C :    0.124986
   8 N :    0.404822
   9 C :   -0.458906
  10 S :   -0.035964
  11 N :    0.397863
  12 C :   -0.046444
  13 C :   -0.038790
  14 C :    0.022373
  15 C :    0.040970
  16 C :   -0.002390
  17 C :   -0.192681
  18 O :    0.392903
  19 C :    0.028325
  20 H :   -0.029646
  21 H :   -0.023227
  22 H :   -0.026549
  23 H :   -0.029134
  24 H :   -0.027212
  25 H :   -0.008711
  26 H :   -0.020957
  27 H :   -0.010207
  28 H :   -0.059188
  29 H :   -0.063665
  30 H :   -0.004973
  31 H :   -0.025319
  32 H :   -0.021266
  33 H :   -0.036472
  34 H :   -0.154974
  35 H :   -0.025213

  Mayer bond orders larger than 0.100000
B(  0-C ,  1-C ) :   0.9714 B(  0-C , 20-H ) :   0.9789 B(  0-C , 21-H ) :   0.9781
B(  0-C , 22-H ) :   0.9772 B(  1-C ,  2-O ) :   0.8999 B(  1-C , 23-H ) :   0.9759
B(  1-C , 24-H ) :   0.9776 B(  2-O ,  3-C ) :   1.1641 B(  3-C ,  4-O ) :   1.9870
B(  3-C ,  5-C ) :   1.0522 B(  5-C ,  6-C ) :   1.6459 B(  5-C , 12-C ) :   0.9667
B(  6-C ,  7-C ) :   0.9543 B(  6-C ,  8-N ) :   1.1465 B(  7-C , 25-H ) :   0.9658
B(  7-C , 26-H ) :   0.9924 B(  7-C , 27-H ) :   0.9629 B(  8-N ,  9-C ) :   1.1782
B(  8-N , 28-H ) :   0.9488 B(  9-C , 10-S ) :   1.6108 B(  9-C , 11-N ) :   1.3044
B( 11-N , 12-C ) :   0.9921 B( 11-N , 29-H ) :   0.9520 B( 12-C , 13-C ) :   0.9477
B( 12-C , 30-H ) :   0.9999 B( 13-C , 14-C ) :   1.3762 B( 13-C , 19-C ) :   1.3692
B( 14-C , 15-C ) :   1.3947 B( 14-C , 31-H ) :   0.9649 B( 15-C , 16-C ) :   1.3625
B( 15-C , 32-H ) :   0.9715 B( 16-C , 17-C ) :   1.3315 B( 16-C , 33-H ) :   0.9861
B( 17-C , 18-O ) :   1.1079 B( 17-C , 19-C ) :   1.3793 B( 18-O , 34-H ) :   0.9807
B( 19-C , 35-H ) :   0.9585

MP2 TOTAL ENERGY:    -1274.347526718 Eh
FINAL SINGLE POINT ENERGY     -1274.347526717513

DIPOLE MOMENT
-------------
                                X             Y             Z
Electronic contribution:     11.86019       8.18114      11.82634
Nuclear contribution   :    -13.49643      -9.35608     -12.76676
                        -----------------------------------------
Total Dipole Moment    :     -1.63623      -1.17493      -0.94042
                        -----------------------------------------
Magnitude (a.u.)       :      2.22309
Magnitude (Debye)      :      5.65064

Rotational constants in cm-1:     0.010368     0.008782     0.005794
Rotational constants in MHz :   310.810905   263.291472   173.694120

                             ****ORCA TERMINATED NORMALLY****
TOTAL RUN TIME: 0 days 1 hours 49 minutes 0 seconds 105 msec
