                         Program Version 5.0.0 -  RELEASE  -
|  1> ! ri-mp2 cc-pvtz cc-pvtz/c TightSCF NoKeepInts
|  2>
|  3> %scf
|  4>   MaxCore 4096
|  5> end
|  6> *xyz  0  1
|  7>     C       14.8811219   14.1404520   15.9914635
|  8>     C       16.3883057   13.8879735   16.2174223
|  9>     O       17.1447074   15.0368550   16.6779852
| 10>     C       16.7756956   16.3554789   16.5853737
| 11>     O       15.9637443   16.7746195   15.7797522
| 12>     C       17.5870707   17.2330402   17.5001616
| 13>     C       17.5022041   18.5880287   17.4784425
| 14>     C       16.6303714   19.4401518   16.5807670
| 15>     N       18.2978047   19.3551209   18.3347813
| 16>     C       19.2553275   18.8548488   19.1756877
| 17>     S       20.2085982   19.8401676   20.1011413
| 18>     N       19.3852689   17.4903379   19.2123103
| 19>     C       18.5125221   16.5324522   18.5094129
| 20>     C       17.7254726   15.7100038   19.5257643
| 21>     C       17.9863044   14.3362385   19.6873376
| 22>     C       17.2595201   13.5752318   20.6183930
| 23>     C       16.2656698   14.1931407   21.3964993
| 24>     C       16.0068214   15.5619763   21.2416345
| 25>     O       15.0488637   16.1616605   21.9924105
| 26>     C       16.7316769   16.3166664   20.3142257
| 27>     H       14.4357138   14.6614260   16.8483411
| 28>     H       14.3537306   13.1874408   15.8650187
| 29>     H       14.7061677   14.7326254   15.0847461
| 30>     H       16.5073488   13.0797846   16.9505331
| 31>     H       16.8205743   13.5343863   15.2724428
| 32>     H       16.8590445   19.2469624   15.5249141
| 33>     H       16.7555019   20.5152260   16.7547504
| 34>     H       15.5702458   19.2011963   16.7345136
| 35>     H       18.2169070   20.3592336   18.3211757
| 36>     H       20.0724226   17.1496017   19.8722262
| 37>     H       19.1668122   15.8537331   17.9444855
| 38>     H       18.7514227   13.8555908   19.0836757
| 39>     H       17.4674365   12.5131081   20.7353742
| 40>     H       15.7019564   13.6099683   22.1172160
| 41>     H       14.6835509   15.4911826   22.5888922
| 42>     H       16.5210927   17.3760889   20.2147281
| 43> *
| 44>
| 45>                          ****END OF INPUT****

CARTESIAN COORDINATES (ANGSTROEM)
---------------------------------
  C     14.881122   14.140452   15.991463
  C     16.388306   13.887973   16.217422
  O     17.144707   15.036855   16.677985
  C     16.775696   16.355479   16.585374
  O     15.963744   16.774620   15.779752
  C     17.587071   17.233040   17.500162
  C     17.502204   18.588029   17.478442
  C     16.630371   19.440152   16.580767
  N     18.297805   19.355121   18.334781
  C     19.255327   18.854849   19.175688
  S     20.208598   19.840168   20.101141
  N     19.385269   17.490338   19.212310
  C     18.512522   16.532452   18.509413
  C     17.725473   15.710004   19.525764
  C     17.986304   14.336238   19.687338
  C     17.259520   13.575232   20.618393
  C     16.265670   14.193141   21.396499
  C     16.006821   15.561976   21.241634
  O     15.048864   16.161660   21.992410
  C     16.731677   16.316666   20.314226
  H     14.435714   14.661426   16.848341
  H     14.353731   13.187441   15.865019
  H     14.706168   14.732625   15.084746
  H     16.507349   13.079785   16.950533
  H     16.820574   13.534386   15.272443
  H     16.859044   19.246962   15.524914
  H     16.755502   20.515226   16.754750
  H     15.570246   19.201196   16.734514
  H     18.216907   20.359234   18.321176
  H     20.072423   17.149602   19.872226
  H     19.166812   15.853733   17.944485
  H     18.751423   13.855591   19.083676
  H     17.467437   12.513108   20.735374
  H     15.701956   13.609968   22.117216
  H     14.683551   15.491183   22.588892
  H     16.521093   17.376089   20.214728

 Total Charge           Charge          ....    0
 Multiplicity           Mult            ....    1
 Number of Electrons    NEL             ....  154
 Basis Dimension        Dim             ....  828

ORBITAL ENERGIES
----------------

  NO   OCC          E(Eh)            E(eV)
   0   2.0000     -91.887919     -2500.3974
   1   2.0000     -20.597570      -560.4884
   2   2.0000     -20.596699      -560.4647
   3   2.0000     -20.540204      -558.9274
   4   2.0000     -15.627893      -425.2566
   5   2.0000     -15.607245      -424.6947
   6   2.0000     -11.396861      -310.1244
   7   2.0000     -11.382987      -309.7468
   8   2.0000     -11.334764      -308.4346
   9   2.0000     -11.313867      -307.8660
  10   2.0000     -11.307478      -307.6921
  11   2.0000     -11.302502      -307.5567
  12   2.0000     -11.259604      -306.3894
  13   2.0000     -11.257918      -306.3435
  14   2.0000     -11.255432      -306.2759
  15   2.0000     -11.251100      -306.1580
  16   2.0000     -11.243131      -305.9411
  17   2.0000     -11.238407      -305.8126
  18   2.0000     -11.238306      -305.8099
  19   2.0000     -11.223360      -305.4032
  20   2.0000      -8.892994      -241.9907
  21   2.0000      -6.574573      -178.9032
  22   2.0000      -6.572565      -178.8486
  23   2.0000      -6.571981      -178.8327
  24   2.0000      -1.443331       -39.2750
  25   2.0000      -1.416350       -38.5408
  26   2.0000      -1.353425       -36.8286
  27   2.0000      -1.339000       -36.4360
  28   2.0000      -1.237542       -33.6752
  29   2.0000      -1.157447       -31.4957
  30   2.0000      -1.119142       -30.4534
  31   2.0000      -1.042187       -28.3593
  32   2.0000      -1.035933       -28.1892
  33   2.0000      -1.015110       -27.6225
  34   2.0000      -0.994754       -27.0686
  35   2.0000      -0.983067       -26.7506
  36   2.0000      -0.921726       -25.0814
  37   2.0000      -0.898351       -24.4454
  38   2.0000      -0.846487       -23.0341
  39   2.0000      -0.837672       -22.7942
  40   2.0000      -0.834074       -22.6963
  41   2.0000      -0.817567       -22.2471
  42   2.0000      -0.744624       -20.2622
  43   2.0000      -0.730760       -19.8850
  44   2.0000      -0.719180       -19.5699
  45   2.0000      -0.695564       -18.9273
  46   2.0000      -0.687318       -18.7029
  47   2.0000      -0.675115       -18.3708
  48   2.0000      -0.670912       -18.2565
  49   2.0000      -0.658932       -17.9304
  50   2.0000      -0.651329       -17.7235
  51   2.0000      -0.642689       -17.4885
  52   2.0000      -0.635230       -17.2855
  53   2.0000      -0.609549       -16.5867
  54   2.0000      -0.606485       -16.5033
  55   2.0000      -0.599973       -16.3261
  56   2.0000      -0.598190       -16.2776
  57   2.0000      -0.577330       -15.7099
  58   2.0000      -0.571480       -15.5508
  59   2.0000      -0.569884       -15.5073
  60   2.0000      -0.559901       -15.2357
  61   2.0000      -0.540081       -14.6964
  62   2.0000      -0.535526       -14.5724
  63   2.0000      -0.525333       -14.2950
  64   2.0000      -0.520800       -14.1717
  65   2.0000      -0.512913       -13.9571
  66   2.0000      -0.501740       -13.6530
  67   2.0000      -0.498741       -13.5714
  68   2.0000      -0.485488       -13.2108
  69   2.0000      -0.462840       -12.5945
  70   2.0000      -0.452858       -12.3229
  71   2.0000      -0.440621       -11.9899
  72   2.0000      -0.352951        -9.6043
  73   2.0000      -0.349286        -9.5046
  74   2.0000      -0.327464        -8.9107
  75   2.0000      -0.321464        -8.7475
  76   2.0000      -0.315249        -8.5784
  77   0.0000       0.077560         2.1105
  78   0.0000       0.105814         2.8793
  79   0.0000       0.125352         3.4110
  80   0.0000       0.133024         3.6198
  81   0.0000       0.137988         3.7549

MULLIKEN ATOMIC CHARGES
-----------------------
   0 C :   -0.300940
   1 C :    0.051240
   2 O :   -0.362900
   3 C :    0.464919
   4 O :   -0.429997
   5 C :   -0.219630
   6 C :    0.151741
   7 C :   -0.272404
   8 N :   -0.120329
   9 C :    0.212267
  10 S :   -0.441918
  11 N :   -0.205679
  12 C :    0.060683
  13 C :    0.064765
  14 C :   -0.191129
  15 C :   -0.130133
  16 C :   -0.279313
  17 C :    0.317017
  18 O :   -0.356534
  19 C :   -0.271543
  20 H :    0.101766
  21 H :    0.095893
  22 H :    0.123373
  23 H :    0.096395
  24 H :    0.095636
  25 H :    0.131553
  26 H :    0.094769
  27 H :    0.130383
  28 H :    0.196895
  29 H :    0.194980
  30 H :    0.149627
  31 H :    0.151700
  32 H :    0.160867
  33 H :    0.129932
  34 H :    0.240722
  35 H :    0.165326
Sum of atomic charges:    0.0000000

LOEWDIN ATOMIC CHARGES
----------------------
   0 C :    0.103650
   1 C :   -0.008695
   2 O :    0.296854
   3 C :   -0.413487
   4 O :    0.105103
   5 C :   -0.093720
   6 C :   -0.059504
   7 C :    0.130828
   8 N :    0.406348
   9 C :   -0.456537
  10 S :   -0.036957
  11 N :    0.396467
  12 C :   -0.052698
  13 C :   -0.038422
  14 C :    0.014679
  15 C :    0.038405
  16 C :   -0.001895
  17 C :   -0.189731
  18 O :    0.395227
  19 C :    0.031090
  20 H :   -0.026097
  21 H :   -0.027692
  22 H :   -0.024924
  23 H :   -0.027438
  24 H :   -0.028911
  25 H :   -0.004054
  26 H :   -0.023700
  27 H :   -0.005083
  28 H :   -0.057781
  29 H :   -0.064701
  30 H :   -0.011777
  31 H :   -0.030155
  32 H :   -0.021534
  33 H :   -0.035626
  34 H :   -0.153907
  35 H :   -0.023625

  Mayer bond orders larger than 0.100000
B(  0-C ,  1-C ) :   0.9708 B(  0-C , 20-H ) :   0.9759 B(  0-C , 21-H ) :   0.9747
B(  0-C , 22-H ) :   0.9721 B(  1-C ,  2-O ) :   0.9006 B(  1-C , 23-H ) :   0.9786
B(  1-C , 24-H ) :   0.9816 B(  2-O ,  3-C ) :   1.1579 B(  3-C ,  4-O ) :   1.9753
B(  3-C ,  5-C ) :   1.0532 B(  5-C ,  6-C ) :   1.6549 B(  5-C , 12-C ) :   0.9725
B(  6-C ,  7-C ) :   0.9671 B(  6-C ,  8-N ) :   1.1629 B(  7-C , 25-H ) :   0.9601
B(  7-C , 26-H ) :   0.9906 B(  7-C , 27-H ) :   0.9609 B(  8-N ,  9-C ) :   1.1845
B(  8-N , 28-H ) :   0.9479 B(  9-C , 10-S ) :   1.6051 B(  9-C , 11-N ) :   1.3062
B( 11-N , 12-C ) :   0.9867 B( 11-N , 29-H ) :   0.9515 B( 12-C , 13-C ) :   0.9351
B( 12-C , 30-H ) :   1.0028 B( 13-C , 14-C ) :   1.3545 B( 13-C , 19-C ) :   1.3816
B( 14-C , 15-C ) :   1.3895 B( 14-C , 31-H ) :   0.9710 B( 15-C , 16-C ) :   1.3642
B( 15-C , 32-H ) :   0.9705 B( 16-C , 17-C ) :   1.3316 B( 16-C , 33-H ) :   0.9850
B( 17-C , 18-O ) :   1.1099 B( 17-C , 19-C ) :   1.3705 B( 18-O , 34-H ) :   0.9798
B( 19-C , 35-H ) :   0.9586

MP2 TOTAL ENERGY:    -1274.340627888 Eh
FINAL SINGLE POINT ENERGY     -1274.340627888246

DIPOLE MOMENT
-------------
                                X             Y             Z
Electronic contribution:     10.38002       9.98162       8.39530
Nuclear contribution   :    -11.44666     -11.78140      -8.75042
                        -----------------------------------------
Total Dipole Moment    :     -1.06664      -1.79978      -0.35512
                        -----------------------------------------
Magnitude (a.u.)       :      2.12204
Magnitude (Debye)      :      5.39379

Rotational constants in cm-1:     0.011739     0.008670     0.006149
Rotational constants in MHz :   351.913436   259.923801   184.329248

                             ****ORCA TERMINATED NORMALLY****
TOTAL RUN TIME: 0 days 2 hours 5 minutes 33 seconds 622 msec
