                         Program Version 5.0.0 -  RELEASE  -
|  1> ! ri-mp2 cc-pvtz cc-pvtz/c TightSCF NoKeepInts
|  2>
|  3> %scf
|  4>   MaxCore 4096
|  5> end
|  6> *xyz  0  1
|  7>     C       15.4088561   14.0665962   14.7086145
|  8>     C       15.0921312   14.8130058   16.0180171
|  9>     O       16.0459681   15.8790208   16.1765011
| 10>     C       17.2097977   15.6472453   16.8532313
| 11>     O       17.6344316   14.5196027   17.0471813
| 12>     C       17.7151299   16.8325312   17.6250082
| 13>     C       17.4073646   18.1272814   17.3501439
| 14>     C       16.5336264   18.6615330   16.2336301
| 15>     N       17.9876650   19.1536253   18.1029610
| 16>     C       18.9851692   18.9809853   19.0259043
| 17>     S       19.7087820   20.2641069   19.7779769
| 18>     N       19.3529836   17.6867515   19.2928251
| 19>     C       18.6520547   16.4906355   18.7892983
| 20>     C       17.8927353   15.8015165   19.9203046
| 21>     C       18.1122469   14.4399260   20.1996311
| 22>     C       17.4143209   13.7994833   21.2372502
| 23>     C       16.4875850   14.5261063   22.0039109
| 24>     C       16.2629521   15.8813928   21.7267653
| 25>     O       15.3640858   16.5842535   22.4612122
| 26>     C       16.9587053   16.5159168   20.6929386
| 27>     H       15.3974636   14.7562341   13.8556774
| 28>     H       14.6663375   13.2805482   14.5257246
| 29>     H       16.3980020   13.5940495   14.7595584
| 30>     H       14.0829639   15.2383740   15.9465828
| 31>     H       15.1124211   14.1260834   16.8757205
| 32>     H       16.8026825   18.2029387   15.2738775
| 33>     H       16.6259881   19.7469824   16.1066367
| 34>     H       15.4771100   18.4398934   16.4294821
| 35>     H       17.7313184   20.1108170   17.9211845
| 36>     H       20.0688171   17.5845891   20.0006840
| 37>     H       19.4143746   15.7935564   18.4122462
| 38>     H       18.8157677   13.8712713   19.5963265
| 39>     H       17.5892833   12.7442092   21.4387302
| 40>     H       15.9451711   14.0349956   22.8048471
| 41>     H       15.0207108   15.9895733   23.1447355
| 42>     H       16.7719970   17.5663684   20.4986796
| 43> *
| 44>
| 45>                          ****END OF INPUT****

CARTESIAN COORDINATES (ANGSTROEM)
---------------------------------
  C     15.408856   14.066596   14.708614
  C     15.092131   14.813006   16.018017
  O     16.045968   15.879021   16.176501
  C     17.209798   15.647245   16.853231
  O     17.634432   14.519603   17.047181
  C     17.715130   16.832531   17.625008
  C     17.407365   18.127281   17.350144
  C     16.533626   18.661533   16.233630
  N     17.987665   19.153625   18.102961
  C     18.985169   18.980985   19.025904
  S     19.708782   20.264107   19.777977
  N     19.352984   17.686751   19.292825
  C     18.652055   16.490635   18.789298
  C     17.892735   15.801516   19.920305
  C     18.112247   14.439926   20.199631
  C     17.414321   13.799483   21.237250
  C     16.487585   14.526106   22.003911
  C     16.262952   15.881393   21.726765
  O     15.364086   16.584253   22.461212
  C     16.958705   16.515917   20.692939
  H     15.397464   14.756234   13.855677
  H     14.666337   13.280548   14.525725
  H     16.398002   13.594050   14.759558
  H     14.082964   15.238374   15.946583
  H     15.112421   14.126083   16.875720
  H     16.802682   18.202939   15.273877
  H     16.625988   19.746982   16.106637
  H     15.477110   18.439893   16.429482
  H     17.731318   20.110817   17.921184
  H     20.068817   17.584589   20.000684
  H     19.414375   15.793556   18.412246
  H     18.815768   13.871271   19.596326
  H     17.589283   12.744209   21.438730
  H     15.945171   14.034996   22.804847
  H     15.020711   15.989573   23.144735
  H     16.771997   17.566368   20.498680

 Total Charge           Charge          ....    0
 Multiplicity           Mult            ....    1
 Number of Electrons    NEL             ....  154
 Basis Dimension        Dim             ....  828

ORBITAL ENERGIES
----------------

  NO   OCC          E(Eh)            E(eV)
   0   2.0000     -91.888037     -2500.4006
   1   2.0000     -20.600453      -560.5668
   2   2.0000     -20.591896      -560.3340
   3   2.0000     -20.548164      -559.1440
   4   2.0000     -15.628215      -425.2653
   5   2.0000     -15.606812      -424.6829
   6   2.0000     -11.396839      -310.1237
   7   2.0000     -11.383001      -309.7472
   8   2.0000     -11.335585      -308.4569
   9   2.0000     -11.307790      -307.7006
  10   2.0000     -11.306018      -307.6524
  11   2.0000     -11.300416      -307.5000
  12   2.0000     -11.260493      -306.4136
  13   2.0000     -11.258903      -306.3703
  14   2.0000     -11.253759      -306.2304
  15   2.0000     -11.248008      -306.0739
  16   2.0000     -11.237616      -305.7911
  17   2.0000     -11.233674      -305.6838
  18   2.0000     -11.230779      -305.6050
  19   2.0000     -11.224931      -305.4459
  20   2.0000      -8.893101      -241.9936
  21   2.0000      -6.574678      -178.9061
  22   2.0000      -6.572671      -178.8515
  23   2.0000      -6.572086      -178.8355
  24   2.0000      -1.454179       -39.5702
  25   2.0000      -1.411632       -38.4125
  26   2.0000      -1.357806       -36.9478
  27   2.0000      -1.339218       -36.4420
  28   2.0000      -1.236933       -33.6587
  29   2.0000      -1.152395       -31.3583
  30   2.0000      -1.119692       -30.4684
  31   2.0000      -1.042380       -28.3646
  32   2.0000      -1.034290       -28.1445
  33   2.0000      -1.009733       -27.4762
  34   2.0000      -0.997225       -27.1359
  35   2.0000      -0.982662       -26.7396
  36   2.0000      -0.921349       -25.0712
  37   2.0000      -0.890407       -24.2292
  38   2.0000      -0.847620       -23.0649
  39   2.0000      -0.835693       -22.7404
  40   2.0000      -0.828183       -22.5360
  41   2.0000      -0.819105       -22.2890
  42   2.0000      -0.755163       -20.5490
  43   2.0000      -0.734806       -19.9951
  44   2.0000      -0.725210       -19.7340
  45   2.0000      -0.690920       -18.8009
  46   2.0000      -0.685352       -18.6494
  47   2.0000      -0.680222       -18.5098
  48   2.0000      -0.671574       -18.2745
  49   2.0000      -0.659157       -17.9366
  50   2.0000      -0.646168       -17.5831
  51   2.0000      -0.641352       -17.4521
  52   2.0000      -0.629906       -17.1406
  53   2.0000      -0.611603       -16.6426
  54   2.0000      -0.600202       -16.3323
  55   2.0000      -0.599866       -16.3232
  56   2.0000      -0.595100       -16.1935
  57   2.0000      -0.585149       -15.9227
  58   2.0000      -0.573308       -15.6005
  59   2.0000      -0.566151       -15.4057
  60   2.0000      -0.560719       -15.2580
  61   2.0000      -0.546189       -14.8626
  62   2.0000      -0.534642       -14.5483
  63   2.0000      -0.523535       -14.2461
  64   2.0000      -0.517312       -14.0768
  65   2.0000      -0.510389       -13.8884
  66   2.0000      -0.501084       -13.6352
  67   2.0000      -0.495612       -13.4863
  68   2.0000      -0.480263       -13.0686
  69   2.0000      -0.462022       -12.5723
  70   2.0000      -0.456232       -12.4147
  71   2.0000      -0.456080       -12.4106
  72   2.0000      -0.354005        -9.6330
  73   2.0000      -0.344224        -9.3668
  74   2.0000      -0.327179        -8.9030
  75   2.0000      -0.315681        -8.5901
  76   2.0000      -0.314064        -8.5461
  77   0.0000       0.075567         2.0563
  78   0.0000       0.112426         3.0593
  79   0.0000       0.121647         3.3102
  80   0.0000       0.135758         3.6942
  81   0.0000       0.140696         3.8285

MULLIKEN ATOMIC CHARGES
-----------------------
   0 C :   -0.285576
   1 C :    0.039500
   2 O :   -0.350040
   3 C :    0.432543
   4 O :   -0.428000
   5 C :   -0.156033
   6 C :    0.143183
   7 C :   -0.284342
   8 N :   -0.122453
   9 C :    0.201620
  10 S :   -0.439540
  11 N :   -0.197264
  12 C :    0.036974
  13 C :    0.055284
  14 C :   -0.162413
  15 C :   -0.134242
  16 C :   -0.279205
  17 C :    0.311407
  18 O :   -0.358923
  19 C :   -0.271434
  20 H :    0.090457
  21 H :    0.092950
  22 H :    0.114645
  23 H :    0.102261
  24 H :    0.103284
  25 H :    0.125491
  26 H :    0.101869
  27 H :    0.127815
  28 H :    0.196853
  29 H :    0.193610
  30 H :    0.153660
  31 H :    0.153756
  32 H :    0.159284
  33 H :    0.128209
  34 H :    0.240047
  35 H :    0.164764
Sum of atomic charges:    0.0000000

LOEWDIN ATOMIC CHARGES
----------------------
   0 C :    0.104236
   1 C :   -0.015601
   2 O :    0.303438
   3 C :   -0.413220
   4 O :    0.107425
   5 C :   -0.090868
   6 C :   -0.067130
   7 C :    0.125169
   8 N :    0.404674
   9 C :   -0.458712
  10 S :   -0.036187
  11 N :    0.397691
  12 C :   -0.046117
  13 C :   -0.039017
  14 C :    0.021586
  15 C :    0.040573
  16 C :   -0.002371
  17 C :   -0.192588
  18 O :    0.393087
  19 C :    0.028679
  20 H :   -0.030264
  21 H :   -0.027886
  22 H :   -0.024024
  23 H :   -0.026978
  24 H :   -0.026112
  25 H :   -0.008713
  26 H :   -0.020772
  27 H :   -0.009456
  28 H :   -0.059064
  29 H :   -0.063744
  30 H :   -0.004997
  31 H :   -0.025342
  32 H :   -0.021225
  33 H :   -0.036372
  34 H :   -0.154878
  35 H :   -0.024920

  Mayer bond orders larger than 0.100000
B(  0-C ,  1-C ) :   0.9683 B(  0-C , 20-H ) :   0.9772 B(  0-C , 21-H ) :   0.9766
B(  0-C , 22-H ) :   0.9748 B(  1-C ,  2-O ) :   0.8976 B(  1-C , 23-H ) :   0.9844
B(  1-C , 24-H ) :   0.9746 B(  2-O ,  3-C ) :   1.1351 B(  3-C ,  4-O ) :   1.9670
B(  3-C ,  5-C ) :   1.0575 B(  5-C ,  6-C ) :   1.6514 B(  5-C , 12-C ) :   0.9647
B(  6-C ,  7-C ) :   0.9546 B(  6-C ,  8-N ) :   1.1440 B(  7-C , 25-H ) :   0.9670
B(  7-C , 26-H ) :   0.9909 B(  7-C , 27-H ) :   0.9632 B(  8-N ,  9-C ) :   1.1798
B(  8-N , 28-H ) :   0.9489 B(  9-C , 10-S ) :   1.6105 B(  9-C , 11-N ) :   1.3032
B( 11-N , 12-C ) :   0.9926 B( 11-N , 29-H ) :   0.9518 B( 12-C , 13-C ) :   0.9468
B( 12-C , 30-H ) :   0.9995 B( 13-C , 14-C ) :   1.3755 B( 13-C , 19-C ) :   1.3700
B( 14-C , 15-C ) :   1.3945 B( 14-C , 31-H ) :   0.9649 B( 15-C , 16-C ) :   1.3627
B( 15-C , 32-H ) :   0.9714 B( 16-C , 17-C ) :   1.3313 B( 16-C , 33-H ) :   0.9859
B( 17-C , 18-O ) :   1.1082 B( 17-C , 19-C ) :   1.3787 B( 18-O , 34-H ) :   0.9806
B( 19-C , 35-H ) :   0.9584

MP2 TOTAL ENERGY:    -1274.343161835 Eh
FINAL SINGLE POINT ENERGY     -1274.343161835179

DIPOLE MOMENT
-------------
                                X             Y             Z
Electronic contribution:     10.40098       9.82026      11.31510
Nuclear contribution   :    -12.05939     -10.96955     -12.12120
                        -----------------------------------------
Total Dipole Moment    :     -1.65842      -1.14928      -0.80610
                        -----------------------------------------
Magnitude (a.u.)       :      2.17279
Magnitude (Debye)      :      5.52278

Rotational constants in cm-1:     0.010619     0.008899     0.005833
Rotational constants in MHz :   318.346152   266.791614   174.879169

                             ****ORCA TERMINATED NORMALLY****
TOTAL RUN TIME: 0 days 1 hours 51 minutes 48 seconds 417 msec
