                         Program Version 5.0.0 -  RELEASE  -
|  1> ! ri-mp2 cc-pvtz cc-pvtz/c TightSCF NoKeepInts
|  2>
|  3> %scf
|  4>   MaxCore 4096
|  5> end
|  6> *xyz  0  1
|  7>     C       15.2377827   15.0955972   17.2772804
|  8>     C       15.6526589   15.0349529   15.7919404
|  9>     O       16.8620355   15.7741938   15.5070743
| 10>     C       17.9170872   15.7847969   16.3734191
| 11>     O       18.5505188   14.7624806   16.5694182
| 12>     C       17.9064651   16.9101017   17.3713258
| 13>     C       17.3178581   18.1156432   17.1574316
| 14>     C       16.5696851   18.5791481   15.9242758
| 15>     N       17.4495802   19.1313749   18.1099797
| 16>     C       18.3008878   19.0893689   19.1826934
| 17>     S       18.5181736   20.3944824   20.1747970
| 18>     N       18.9631302   17.9057426   19.3897885
| 19>     C       18.6796907   16.6490820   18.6706338
| 20>     C       17.9356936   15.6712410   19.5769425
| 21>     C       18.3820754   14.3430480   19.7065290
| 22>     C       17.6963235   13.4324870   20.5276216
| 23>     C       16.5526218   13.8521358   21.2276578
| 24>     C       16.1032212   15.1733158   21.1012779
| 25>     O       14.9930876   15.5792569   21.7673446
| 26>     C       16.7879742   16.0775330   20.2835018
| 27>     H       15.9584708   14.5608372   17.9075879
| 28>     H       14.2632645   14.6122676   17.4162926
| 29>     H       15.1512706   16.1302353   17.6292461
| 30>     H       15.8084938   13.9820952   15.5210532
| 31>     H       14.8384005   15.4202246   15.1650200
| 32>     H       15.5789016   18.1124574   15.8706006
| 33>     H       17.1180339   18.3145231   15.0113463
| 34>     H       16.4254334   19.6663001   15.9033693
| 35>     H       16.9756000   20.0096694   17.9715810
| 36>     H       19.5654974   17.8905394   20.2028537
| 37>     H       19.6452284   16.1967515   18.4011669
| 38>     H       19.2556726   14.0100937   19.1507261
| 39>     H       18.0492642   12.4062011   20.6125368
| 40>     H       16.0183822   13.1511398   21.8603039
| 41>     H       14.6976752   14.8380174   22.3172050
| 42>     H       16.4208596   17.0946643   20.2021773
| 43> *
| 44>
| 45>                          ****END OF INPUT****

CARTESIAN COORDINATES (ANGSTROEM)
---------------------------------
  C     15.237783   15.095597   17.277280
  C     15.652659   15.034953   15.791940
  O     16.862036   15.774194   15.507074
  C     17.917087   15.784797   16.373419
  O     18.550519   14.762481   16.569418
  C     17.906465   16.910102   17.371326
  C     17.317858   18.115643   17.157432
  C     16.569685   18.579148   15.924276
  N     17.449580   19.131375   18.109980
  C     18.300888   19.089369   19.182693
  S     18.518174   20.394482   20.174797
  N     18.963130   17.905743   19.389789
  C     18.679691   16.649082   18.670634
  C     17.935694   15.671241   19.576943
  C     18.382075   14.343048   19.706529
  C     17.696323   13.432487   20.527622
  C     16.552622   13.852136   21.227658
  C     16.103221   15.173316   21.101278
  O     14.993088   15.579257   21.767345
  C     16.787974   16.077533   20.283502
  H     15.958471   14.560837   17.907588
  H     14.263265   14.612268   17.416293
  H     15.151271   16.130235   17.629246
  H     15.808494   13.982095   15.521053
  H     14.838400   15.420225   15.165020
  H     15.578902   18.112457   15.870601
  H     17.118034   18.314523   15.011346
  H     16.425433   19.666300   15.903369
  H     16.975600   20.009669   17.971581
  H     19.565497   17.890539   20.202854
  H     19.645228   16.196752   18.401167
  H     19.255673   14.010094   19.150726
  H     18.049264   12.406201   20.612537
  H     16.018382   13.151140   21.860304
  H     14.697675   14.838017   22.317205
  H     16.420860   17.094664   20.202177

 Total Charge           Charge          ....    0
 Multiplicity           Mult            ....    1
 Number of Electrons    NEL             ....  154
 Basis Dimension        Dim             ....  828

ORBITAL ENERGIES
----------------

  NO   OCC          E(Eh)            E(eV)
   0   2.0000     -91.890645     -2500.4716
   1   2.0000     -20.595272      -560.4259
   2   2.0000     -20.581428      -560.0491
   3   2.0000     -20.552517      -559.2624
   4   2.0000     -15.631368      -425.3511
   5   2.0000     -15.608946      -424.7410
   6   2.0000     -11.395272      -310.0811
   7   2.0000     -11.385490      -309.8149
   8   2.0000     -11.338194      -308.5280
   9   2.0000     -11.311293      -307.7959
  10   2.0000     -11.308470      -307.7191
  11   2.0000     -11.305085      -307.6270
  12   2.0000     -11.262290      -306.4625
  13   2.0000     -11.262232      -306.4609
  14   2.0000     -11.256966      -306.3176
  15   2.0000     -11.251643      -306.1728
  16   2.0000     -11.241378      -305.8934
  17   2.0000     -11.236700      -305.7661
  18   2.0000     -11.233758      -305.6861
  19   2.0000     -11.228424      -305.5409
  20   2.0000      -8.895691      -242.0641
  21   2.0000      -6.577262      -178.9764
  22   2.0000      -6.575259      -178.9219
  23   2.0000      -6.574668      -178.9058
  24   2.0000      -1.447402       -39.3858
  25   2.0000      -1.415080       -38.5063
  26   2.0000      -1.353583       -36.8329
  27   2.0000      -1.342148       -36.5217
  28   2.0000      -1.239492       -33.7283
  29   2.0000      -1.155638       -31.4465
  30   2.0000      -1.121473       -30.5168
  31   2.0000      -1.043976       -28.4080
  32   2.0000      -1.032870       -28.1058
  33   2.0000      -1.013403       -27.5761
  34   2.0000      -1.001486       -27.2518
  35   2.0000      -0.987407       -26.8687
  36   2.0000      -0.924790       -25.1648
  37   2.0000      -0.895913       -24.3790
  38   2.0000      -0.850503       -23.1434
  39   2.0000      -0.839300       -22.8385
  40   2.0000      -0.831713       -22.6321
  41   2.0000      -0.818368       -22.2689
  42   2.0000      -0.746989       -20.3266
  43   2.0000      -0.732442       -19.9308
  44   2.0000      -0.727770       -19.8036
  45   2.0000      -0.693672       -18.8758
  46   2.0000      -0.687521       -18.7084
  47   2.0000      -0.676387       -18.4054
  48   2.0000      -0.672452       -18.2984
  49   2.0000      -0.661479       -17.9997
  50   2.0000      -0.653171       -17.7737
  51   2.0000      -0.647138       -17.6095
  52   2.0000      -0.638480       -17.3739
  53   2.0000      -0.619413       -16.8551
  54   2.0000      -0.603268       -16.4158
  55   2.0000      -0.603134       -16.4121
  56   2.0000      -0.599346       -16.3090
  57   2.0000      -0.581735       -15.8298
  58   2.0000      -0.575553       -15.6616
  59   2.0000      -0.563091       -15.3225
  60   2.0000      -0.554802       -15.0969
  61   2.0000      -0.547091       -14.8871
  62   2.0000      -0.542149       -14.7526
  63   2.0000      -0.531896       -14.4736
  64   2.0000      -0.520847       -14.1730
  65   2.0000      -0.512526       -13.9465
  66   2.0000      -0.499689       -13.5972
  67   2.0000      -0.492388       -13.3986
  68   2.0000      -0.480910       -13.0862
  69   2.0000      -0.465434       -12.6651
  70   2.0000      -0.453927       -12.3520
  71   2.0000      -0.450132       -12.2487
  72   2.0000      -0.356600        -9.7036
  73   2.0000      -0.346729        -9.4350
  74   2.0000      -0.329689        -8.9713
  75   2.0000      -0.319680        -8.6989
  76   2.0000      -0.317344        -8.6354
  77   0.0000       0.068051         1.8518
  78   0.0000       0.107554         2.9267
  79   0.0000       0.118368         3.2210
  80   0.0000       0.132594         3.6081
  81   0.0000       0.136494         3.7142

MULLIKEN ATOMIC CHARGES
-----------------------
   0 C :   -0.347828
   1 C :    0.040030
   2 O :   -0.388319
   3 C :    0.480548
   4 O :   -0.400363
   5 C :   -0.210216
   6 C :    0.144345
   7 C :   -0.289755
   8 N :   -0.123019
   9 C :    0.190965
  10 S :   -0.434931
  11 N :   -0.197402
  12 C :    0.043340
  13 C :    0.035453
  14 C :   -0.167757
  15 C :   -0.135768
  16 C :   -0.278864
  17 C :    0.312970
  18 O :   -0.360148
  19 C :   -0.267641
  20 H :    0.131200
  21 H :    0.120603
  22 H :    0.103595
  23 H :    0.114398
  24 H :    0.111031
  25 H :    0.117061
  26 H :    0.135807
  27 H :    0.108568
  28 H :    0.197502
  29 H :    0.193426
  30 H :    0.156830
  31 H :    0.160966
  32 H :    0.161377
  33 H :    0.130756
  34 H :    0.240752
  35 H :    0.170490
Sum of atomic charges:   -0.0000000

LOEWDIN ATOMIC CHARGES
----------------------
   0 C :    0.104607
   1 C :   -0.016579
   2 O :    0.280393
   3 C :   -0.419647
   4 O :    0.124797
   5 C :   -0.093674
   6 C :   -0.068891
   7 C :    0.126478
   8 N :    0.405813
   9 C :   -0.460084
  10 S :   -0.033290
  11 N :    0.397724
  12 C :   -0.045618
  13 C :   -0.041579
  14 C :    0.020341
  15 C :    0.040869
  16 C :   -0.002312
  17 C :   -0.193837
  18 O :    0.394125
  19 C :    0.030740
  20 H :   -0.020611
  21 H :   -0.022507
  22 H :   -0.033086
  23 H :   -0.025552
  24 H :   -0.025633
  25 H :   -0.012600
  26 H :   -0.005586
  27 H :   -0.019390
  28 H :   -0.058746
  29 H :   -0.063672
  30 H :   -0.003235
  31 H :   -0.024026
  32 H :   -0.020129
  33 H :   -0.035610
  34 H :   -0.154178
  35 H :   -0.025815

  Mayer bond orders larger than 0.100000
B(  0-C ,  1-C ) :   0.9596 B(  0-C , 20-H ) :   0.9655 B(  0-C , 21-H ) :   0.9761
B(  0-C , 22-H ) :   0.9702 B(  1-C ,  2-O ) :   0.8912 B(  1-C , 23-H ) :   0.9863
B(  1-C , 24-H ) :   0.9817 B(  2-O ,  3-C ) :   1.0902 B(  3-C ,  4-O ) :   2.0292
B(  3-C ,  5-C ) :   1.0245 B(  5-C ,  6-C ) :   1.6576 B(  5-C , 12-C ) :   0.9644
B(  6-C ,  7-C ) :   0.9561 B(  6-C ,  8-N ) :   1.1379 B(  7-C , 25-H ) :   0.9654
B(  7-C , 26-H ) :   0.9648 B(  7-C , 27-H ) :   0.9900 B(  8-N ,  9-C ) :   1.1776
B(  8-N , 28-H ) :   0.9487 B(  9-C , 10-S ) :   1.6166 B(  9-C , 11-N ) :   1.3011
B( 11-N , 12-C ) :   0.9872 B( 11-N , 29-H ) :   0.9525 B( 12-C , 13-C ) :   0.9465
B( 12-C , 30-H ) :   0.9993 B( 13-C , 14-C ) :   1.3852 B( 13-C , 19-C ) :   1.3556
B( 14-C , 15-C ) :   1.3950 B( 14-C , 31-H ) :   0.9615 B( 15-C , 16-C ) :   1.3623
B( 15-C , 32-H ) :   0.9711 B( 16-C , 17-C ) :   1.3304 B( 16-C , 33-H ) :   0.9850
B( 17-C , 18-O ) :   1.1101 B( 17-C , 19-C ) :   1.3763 B( 18-O , 34-H ) :   0.9802
B( 19-C , 35-H ) :   0.9583

MP2 TOTAL ENERGY:    -1274.326832734 Eh
FINAL SINGLE POINT ENERGY     -1274.326832733629

DIPOLE MOMENT
-------------
                                X             Y             Z
Electronic contribution:      9.77490       7.85928       6.19839
Nuclear contribution   :    -11.19162      -8.98316      -6.85839
                        -----------------------------------------
Total Dipole Moment    :     -1.41671      -1.12388      -0.66000
                        -----------------------------------------
Magnitude (a.u.)       :      1.92504
Magnitude (Debye)      :      4.89307

Rotational constants in cm-1:     0.011419     0.009909     0.006797
Rotational constants in MHz :   342.347536   297.059449   203.755485

                             ****ORCA TERMINATED NORMALLY****
TOTAL RUN TIME: 0 days 1 hours 56 minutes 5 seconds 778 msec
