                         Program Version 5.0.0 -  RELEASE  -
|  1> ! ri-mp2 cc-pvtz cc-pvtz/c TightSCF NoKeepInts
|  2>
|  3> %scf
|  4>   MaxCore 4096
|  5> end
|  6> *xyz  0  1
|  7>     C       15.0020341   14.4464012   14.5144730
|  8>     C       15.2705783   14.6060119   16.0203197
|  9>     O       16.2150711   15.6820062   16.1746027
| 10>     C       17.3434128   15.5065194   16.9235243
| 11>     O       17.7919530   14.4007776   17.1782895
| 12>     C       17.7941096   16.7391347   17.6546539
| 13>     C       17.4610665   18.0122621   17.3146320
| 14>     C       16.6050505   18.4755800   16.1534237
| 15>     N       17.9929877   19.0854175   18.0374178
| 16>     C       18.9676199   18.9800453   18.9942360
| 17>     S       19.6362819   20.3136739   19.7083472
| 18>     N       19.3603705   17.7090368   19.3283509
| 19>     C       18.7045197   16.4739991   18.8594295
| 20>     C       17.9299081   15.8159786   19.9985390
| 21>     C       18.1766610   14.4749947   20.3464014
| 22>     C       17.4652322   13.8632029   21.3921144
| 23>     C       16.4973710   14.5979730   22.0977730
| 24>     C       16.2456290   15.9326258   21.7522393
| 25>     O       15.3072244   16.6429960   22.4276338
| 26>     C       16.9549594   16.5386435   20.7105637
| 27>     H       14.6077616   15.3776967   14.0894199
| 28>     H       14.2697103   13.6494862   14.3367937
| 29>     H       15.9268234   14.1862573   13.9842511
| 30>     H       14.3386427   14.8486412   16.5469878
| 31>     H       15.6515039   13.6567018   16.4206661
| 32>     H       16.9219399   17.9953627   15.2191644
| 33>     H       16.6612307   19.5588571   15.9916284
| 34>     H       15.5514947   18.2210345   16.3235758
| 35>     H       17.7178901   20.0266166   17.8062943
| 36>     H       20.0579840   17.6569461   20.0594749
| 37>     H       19.4948905   15.7812425   18.5359433
| 38>     H       18.9125932   13.8992485   19.7903356
| 39>     H       17.6617467   12.8233599   21.6469113
| 40>     H       15.9444392   14.1288482   22.9046751
| 41>     H       14.9595113   16.0706685   23.1278486
| 42>     H       16.7467970   17.5737521   20.4630650
| 43> *
| 44>
| 45>                          ****END OF INPUT****

CARTESIAN COORDINATES (ANGSTROEM)
---------------------------------
  C     15.002034   14.446401   14.514473
  C     15.270578   14.606012   16.020320
  O     16.215071   15.682006   16.174603
  C     17.343413   15.506519   16.923524
  O     17.791953   14.400778   17.178290
  C     17.794110   16.739135   17.654654
  C     17.461067   18.012262   17.314632
  C     16.605051   18.475580   16.153424
  N     17.992988   19.085417   18.037418
  C     18.967620   18.980045   18.994236
  S     19.636282   20.313674   19.708347
  N     19.360370   17.709037   19.328351
  C     18.704520   16.473999   18.859430
  C     17.929908   15.815979   19.998539
  C     18.176661   14.474995   20.346401
  C     17.465232   13.863203   21.392114
  C     16.497371   14.597973   22.097773
  C     16.245629   15.932626   21.752239
  O     15.307224   16.642996   22.427634
  C     16.954959   16.538643   20.710564
  H     14.607762   15.377697   14.089420
  H     14.269710   13.649486   14.336794
  H     15.926823   14.186257   13.984251
  H     14.338643   14.848641   16.546988
  H     15.651504   13.656702   16.420666
  H     16.921940   17.995363   15.219164
  H     16.661231   19.558857   15.991628
  H     15.551495   18.221034   16.323576
  H     17.717890   20.026617   17.806294
  H     20.057984   17.656946   20.059475
  H     19.494891   15.781242   18.535943
  H     18.912593   13.899249   19.790336
  H     17.661747   12.823360   21.646911
  H     15.944439   14.128848   22.904675
  H     14.959511   16.070669   23.127849
  H     16.746797   17.573752   20.463065

 Total Charge           Charge          ....    0
 Multiplicity           Mult            ....    1
 Number of Electrons    NEL             ....  154
 Basis Dimension        Dim             ....  828

ORBITAL ENERGIES
----------------

  NO   OCC          E(Eh)            E(eV)
   0   2.0000     -91.887991     -2500.3993
   1   2.0000     -20.600661      -560.5725
   2   2.0000     -20.591716      -560.3291
   3   2.0000     -20.546951      -559.1110
   4   2.0000     -15.628294      -425.2675
   5   2.0000     -15.606658      -424.6788
   6   2.0000     -11.396452      -310.1132
   7   2.0000     -11.382924      -309.7451
   8   2.0000     -11.335916      -308.4660
   9   2.0000     -11.307531      -307.6936
  10   2.0000     -11.305647      -307.6423
  11   2.0000     -11.298782      -307.4555
  12   2.0000     -11.260407      -306.4112
  13   2.0000     -11.259062      -306.3747
  14   2.0000     -11.253457      -306.2221
  15   2.0000     -11.247671      -306.0647
  16   2.0000     -11.237308      -305.7827
  17   2.0000     -11.233424      -305.6770
  18   2.0000     -11.231102      -305.6138
  19   2.0000     -11.230429      -305.5955
  20   2.0000      -8.893057      -241.9924
  21   2.0000      -6.574635      -178.9049
  22   2.0000      -6.572627      -178.8503
  23   2.0000      -6.572042      -178.8344
  24   2.0000      -1.453270       -39.5455
  25   2.0000      -1.411449       -38.4075
  26   2.0000      -1.357488       -36.9391
  27   2.0000      -1.339234       -36.4424
  28   2.0000      -1.236877       -33.6571
  29   2.0000      -1.152111       -31.3505
  30   2.0000      -1.119497       -30.4631
  31   2.0000      -1.043834       -28.4042
  32   2.0000      -1.036327       -28.1999
  33   2.0000      -1.009493       -27.4697
  34   2.0000      -0.997483       -27.1429
  35   2.0000      -0.982974       -26.7481
  36   2.0000      -0.921080       -25.0639
  37   2.0000      -0.888466       -24.1764
  38   2.0000      -0.847277       -23.0556
  39   2.0000      -0.835229       -22.7277
  40   2.0000      -0.827871       -22.5275
  41   2.0000      -0.819093       -22.2886
  42   2.0000      -0.760378       -20.6909
  43   2.0000      -0.735833       -20.0230
  44   2.0000      -0.724958       -19.7271
  45   2.0000      -0.690394       -18.7866
  46   2.0000      -0.684779       -18.6338
  47   2.0000      -0.680020       -18.5043
  48   2.0000      -0.673126       -18.3167
  49   2.0000      -0.654202       -17.8017
  50   2.0000      -0.648689       -17.6517
  51   2.0000      -0.641929       -17.4678
  52   2.0000      -0.630407       -17.1542
  53   2.0000      -0.614722       -16.7274
  54   2.0000      -0.600588       -16.3428
  55   2.0000      -0.599879       -16.3235
  56   2.0000      -0.595024       -16.1914
  57   2.0000      -0.581096       -15.8124
  58   2.0000      -0.573235       -15.5985
  59   2.0000      -0.563036       -15.3210
  60   2.0000      -0.561551       -15.2806
  61   2.0000      -0.545471       -14.8430
  62   2.0000      -0.535865       -14.5816
  63   2.0000      -0.530407       -14.4331
  64   2.0000      -0.517222       -14.0743
  65   2.0000      -0.509557       -13.8658
  66   2.0000      -0.499805       -13.6004
  67   2.0000      -0.495270       -13.4770
  68   2.0000      -0.480892       -13.0857
  69   2.0000      -0.462608       -12.5882
  70   2.0000      -0.460384       -12.5277
  71   2.0000      -0.453118       -12.3300
  72   2.0000      -0.354063        -9.6345
  73   2.0000      -0.343980        -9.3602
  74   2.0000      -0.327130        -8.9017
  75   2.0000      -0.315565        -8.5870
  76   2.0000      -0.313844        -8.5401
  77   0.0000       0.075389         2.0514
  78   0.0000       0.112524         3.0619
  79   0.0000       0.120751         3.2858
  80   0.0000       0.135676         3.6919
  81   0.0000       0.139172         3.7871

MULLIKEN ATOMIC CHARGES
-----------------------
   0 C :   -0.265094
   1 C :    0.023114
   2 O :   -0.352813
   3 C :    0.455230
   4 O :   -0.424843
   5 C :   -0.183038
   6 C :    0.143412
   7 C :   -0.285457
   8 N :   -0.122734
   9 C :    0.201370
  10 S :   -0.439511
  11 N :   -0.197396
  12 C :    0.037227
  13 C :    0.055536
  14 C :   -0.161408
  15 C :   -0.133959
  16 C :   -0.279048
  17 C :    0.311252
  18 O :   -0.359134
  19 C :   -0.271900
  20 H :    0.089936
  21 H :    0.092535
  22 H :    0.099901
  23 H :    0.100144
  24 H :    0.120711
  25 H :    0.126473
  26 H :    0.103031
  27 H :    0.126712
  28 H :    0.196840
  29 H :    0.193710
  30 H :    0.153832
  31 H :    0.153567
  32 H :    0.159083
  33 H :    0.128021
  34 H :    0.240060
  35 H :    0.164637
Sum of atomic charges:   -0.0000000

LOEWDIN ATOMIC CHARGES
----------------------
   0 C :    0.104373
   1 C :   -0.011208
   2 O :    0.304917
   3 C :   -0.413946
   4 O :    0.106078
   5 C :   -0.091430
   6 C :   -0.066836
   7 C :    0.124895
   8 N :    0.404727
   9 C :   -0.458808
  10 S :   -0.036161
  11 N :    0.397759
  12 C :   -0.046324
  13 C :   -0.038913
  14 C :    0.021948
  15 C :    0.040831
  16 C :   -0.002360
  17 C :   -0.192679
  18 O :    0.392959
  19 C :    0.028418
  20 H :   -0.030104
  21 H :   -0.025775
  22 H :   -0.024850
  23 H :   -0.030634
  24 H :   -0.026849
  25 H :   -0.008560
  26 H :   -0.020824
  27 H :   -0.009909
  28 H :   -0.059125
  29 H :   -0.063718
  30 H :   -0.004971
  31 H :   -0.025298
  32 H :   -0.021244
  33 H :   -0.036417
  34 H :   -0.154901
  35 H :   -0.025062

  Mayer bond orders larger than 0.100000
B(  0-C ,  1-C ) :   0.9732 B(  0-C , 20-H ) :   0.9796 B(  0-C , 21-H ) :   0.9762
B(  0-C , 22-H ) :   0.9782 B(  1-C ,  2-O ) :   0.8834 B(  1-C , 23-H ) :   0.9793
B(  1-C , 24-H ) :   0.9728 B(  2-O ,  3-C ) :   1.1430 B(  3-C ,  4-O ) :   1.9927
B(  3-C ,  5-C ) :   1.0481 B(  5-C ,  6-C ) :   1.6518 B(  5-C , 12-C ) :   0.9645
B(  6-C ,  7-C ) :   0.9537 B(  6-C ,  8-N ) :   1.1455 B(  7-C , 25-H ) :   0.9668
B(  7-C , 26-H ) :   0.9911 B(  7-C , 27-H ) :   0.9637 B(  8-N ,  9-C ) :   1.1795
B(  8-N , 28-H ) :   0.9490 B(  9-C , 10-S ) :   1.6106 B(  9-C , 11-N ) :   1.3038
B( 11-N , 12-C ) :   0.9917 B( 11-N , 29-H ) :   0.9519 B( 12-C , 13-C ) :   0.9478
B( 12-C , 30-H ) :   0.9995 B( 13-C , 14-C ) :   1.3762 B( 13-C , 19-C ) :   1.3691
B( 14-C , 15-C ) :   1.3946 B( 14-C , 31-H ) :   0.9648 B( 15-C , 16-C ) :   1.3627
B( 15-C , 32-H ) :   0.9714 B( 16-C , 17-C ) :   1.3314 B( 16-C , 33-H ) :   0.9860
B( 17-C , 18-O ) :   1.1080 B( 17-C , 19-C ) :   1.3790 B( 18-O , 34-H ) :   0.9806
B( 19-C , 35-H ) :   0.9585

MP2 TOTAL ENERGY:    -1274.342934382 Eh
FINAL SINGLE POINT ENERGY     -1274.342934381629

DIPOLE MOMENT
-------------
                                X             Y             Z
Electronic contribution:     11.13956       9.19402      11.75016
Nuclear contribution   :    -12.78033     -10.40581     -12.57957
                        -----------------------------------------
Total Dipole Moment    :     -1.64076      -1.21179      -0.82941
                        -----------------------------------------
Magnitude (a.u.)       :      2.20192
Magnitude (Debye)      :      5.59683

Rotational constants in cm-1:     0.010469     0.008824     0.005788
Rotational constants in MHz :   313.850298   264.532070   173.515034

                             ****ORCA TERMINATED NORMALLY****
TOTAL RUN TIME: 0 days 1 hours 28 minutes 42 seconds 147 msec
