                         Program Version 5.0.0 -  RELEASE  -
|  1> ! ri-mp2 cc-pvtz cc-pvtz/c TightSCF NoKeepInts
|  2>
|  3> %scf
|  4>   MaxCore 4096
|  5> end
|  6> *xyz  0  1
|  7>     C       15.0912296   15.0485526   16.9578553
|  8>     C       16.3178649   14.1284432   16.7489036
|  9>     O       17.5471156   14.8322986   16.4336755
| 10>     C       17.5612657   16.1550494   16.0972663
| 11>     O       17.0903706   16.5186502   15.0342648
| 12>     C       17.7930188   17.0664006   17.2734497
| 13>     C       17.4401375   18.3773967   17.2587031
| 14>     C       16.6776725   19.1125531   16.1774473
| 15>     N       17.8291801   19.2170865   18.3071069
| 16>     C       18.7418858   18.8811319   19.2719487
| 17>     S       19.2984282   19.9818687   20.3736892
| 18>     N       19.1798306   17.5807745   19.2694353
| 19>     C       18.5810088   16.4975453   18.4678240
| 20>     C       17.7537855   15.6018379   19.3848989
| 21>     C       18.1492552   14.2717761   19.6227752
| 22>     C       17.4004544   13.4443744   20.4765483
| 23>     C       16.2513232   13.9529462   21.1053653
| 24>     C       15.8645997   15.2818853   20.8854127
| 25>     O       14.7574940   15.7774800   21.4928188
| 26>     C       16.6128384   16.1031745   20.0367033
| 27>     H       15.2701547   15.8005902   17.7323219
| 28>     H       14.2250232   14.4523240   17.2689398
| 29>     H       14.8198380   15.5620638   16.0268492
| 30>     H       16.4686696   13.5164967   17.6464847
| 31>     H       16.0902749   13.4395658   15.9251003
| 32>     H       17.2713048   19.1640986   15.2556283
| 33>     H       16.4123883   20.1375549   16.4615823
| 34>     H       15.7451433   18.5868022   15.9361018
| 35>     H       17.5293496   20.1790401   18.3113847
| 36>     H       19.8336027   17.3551313   20.0081581
| 37>     H       19.4054154   15.8966595   18.0585857
| 38>     H       19.0365470   13.8745319   19.1365032
| 39>     H       17.7123352   12.4157052   20.6501628
| 40>     H       15.6695262   13.3178701   21.7655275
| 41>     H       14.4164233   15.0904987   22.0852564
| 42>     H       16.3022447   17.1318414   19.8893213
| 43> *
| 44>
| 45>                          ****END OF INPUT****

CARTESIAN COORDINATES (ANGSTROEM)
---------------------------------
  C     15.091230   15.048553   16.957855
  C     16.317865   14.128443   16.748904
  O     17.547116   14.832299   16.433675
  C     17.561266   16.155049   16.097266
  O     17.090371   16.518650   15.034265
  C     17.793019   17.066401   17.273450
  C     17.440137   18.377397   17.258703
  C     16.677672   19.112553   16.177447
  N     17.829180   19.217087   18.307107
  C     18.741886   18.881132   19.271949
  S     19.298428   19.981869   20.373689
  N     19.179831   17.580774   19.269435
  C     18.581009   16.497545   18.467824
  C     17.753785   15.601838   19.384899
  C     18.149255   14.271776   19.622775
  C     17.400454   13.444374   20.476548
  C     16.251323   13.952946   21.105365
  C     15.864600   15.281885   20.885413
  O     14.757494   15.777480   21.492819
  C     16.612838   16.103175   20.036703
  H     15.270155   15.800590   17.732322
  H     14.225023   14.452324   17.268940
  H     14.819838   15.562064   16.026849
  H     16.468670   13.516497   17.646485
  H     16.090275   13.439566   15.925100
  H     17.271305   19.164099   15.255628
  H     16.412388   20.137555   16.461582
  H     15.745143   18.586802   15.936102
  H     17.529350   20.179040   18.311385
  H     19.833603   17.355131   20.008158
  H     19.405415   15.896659   18.058586
  H     19.036547   13.874532   19.136503
  H     17.712335   12.415705   20.650163
  H     15.669526   13.317870   21.765527
  H     14.416423   15.090499   22.085256
  H     16.302245   17.131841   19.889321

 Total Charge           Charge          ....    0
 Multiplicity           Mult            ....    1
 Number of Electrons    NEL             ....  154
 Basis Dimension        Dim             ....  828

ORBITAL ENERGIES
----------------

  NO   OCC          E(Eh)            E(eV)
   0   2.0000     -91.891099     -2500.4839
   1   2.0000     -20.601303      -560.5899
   2   2.0000     -20.578570      -559.9713
   3   2.0000     -20.548786      -559.1609
   4   2.0000     -15.631132      -425.3447
   5   2.0000     -15.609924      -424.7676
   6   2.0000     -11.393704      -310.0385
   7   2.0000     -11.385681      -309.8201
   8   2.0000     -11.336957      -308.4943
   9   2.0000     -11.318749      -307.9988
  10   2.0000     -11.312712      -307.8345
  11   2.0000     -11.299040      -307.4625
  12   2.0000     -11.263913      -306.5067
  13   2.0000     -11.259829      -306.3955
  14   2.0000     -11.259714      -306.3924
  15   2.0000     -11.253887      -306.2338
  16   2.0000     -11.248167      -306.0782
  17   2.0000     -11.243058      -305.9392
  18   2.0000     -11.242475      -305.9233
  19   2.0000     -11.225696      -305.4667
  20   2.0000      -8.896122      -242.0758
  21   2.0000      -6.577687      -178.9880
  22   2.0000      -6.575694      -178.9337
  23   2.0000      -6.575097      -178.9175
  24   2.0000      -1.443421       -39.2775
  25   2.0000      -1.421009       -38.6676
  26   2.0000      -1.349780       -36.7294
  27   2.0000      -1.342345       -36.5271
  28   2.0000      -1.240769       -33.7630
  29   2.0000      -1.161657       -31.6103
  30   2.0000      -1.121386       -30.5145
  31   2.0000      -1.046030       -28.4639
  32   2.0000      -1.030565       -28.0431
  33   2.0000      -1.020202       -27.7611
  34   2.0000      -0.999624       -27.2011
  35   2.0000      -0.986926       -26.8556
  36   2.0000      -0.925570       -25.1860
  37   2.0000      -0.896455       -24.3938
  38   2.0000      -0.849094       -23.1050
  39   2.0000      -0.843540       -22.9539
  40   2.0000      -0.838816       -22.8253
  41   2.0000      -0.819707       -22.3054
  42   2.0000      -0.744984       -20.2720
  43   2.0000      -0.735139       -20.0041
  44   2.0000      -0.720684       -19.6108
  45   2.0000      -0.700278       -19.0555
  46   2.0000      -0.691463       -18.8157
  47   2.0000      -0.672575       -18.3017
  48   2.0000      -0.671593       -18.2750
  49   2.0000      -0.660107       -17.9624
  50   2.0000      -0.654395       -17.8070
  51   2.0000      -0.645586       -17.5673
  52   2.0000      -0.636850       -17.3296
  53   2.0000      -0.627549       -17.0765
  54   2.0000      -0.611587       -16.6421
  55   2.0000      -0.603670       -16.4267
  56   2.0000      -0.601387       -16.3646
  57   2.0000      -0.581313       -15.8183
  58   2.0000      -0.572760       -15.5856
  59   2.0000      -0.565948       -15.4002
  60   2.0000      -0.545585       -14.8461
  61   2.0000      -0.544321       -14.8117
  62   2.0000      -0.534952       -14.5568
  63   2.0000      -0.531483       -14.4624
  64   2.0000      -0.529078       -14.3969
  65   2.0000      -0.516210       -14.0468
  66   2.0000      -0.504803       -13.7364
  67   2.0000      -0.494380       -13.4528
  68   2.0000      -0.483393       -13.1538
  69   2.0000      -0.465166       -12.6578
  70   2.0000      -0.453750       -12.3472
  71   2.0000      -0.443097       -12.0573
  72   2.0000      -0.357211        -9.7202
  73   2.0000      -0.352887        -9.6026
  74   2.0000      -0.330599        -8.9961
  75   2.0000      -0.326351        -8.8804
  76   2.0000      -0.318204        -8.6588
  77   0.0000       0.068096         1.8530
  78   0.0000       0.101953         2.7743
  79   0.0000       0.120995         3.2924
  80   0.0000       0.128167         3.4876
  81   0.0000       0.133042         3.6203

MULLIKEN ATOMIC CHARGES
-----------------------
   0 C :   -0.342717
   1 C :    0.041722
   2 O :   -0.399781
   3 C :    0.520349
   4 O :   -0.408612
   5 C :   -0.281587
   6 C :    0.161268
   7 C :   -0.272170
   8 N :   -0.124108
   9 C :    0.204972
  10 S :   -0.434549
  11 N :   -0.195902
  12 C :    0.049242
  13 C :    0.077523
  14 C :   -0.193446
  15 C :   -0.130892
  16 C :   -0.276115
  17 C :    0.325635
  18 O :   -0.357512
  19 C :   -0.308412
  20 H :    0.106434
  21 H :    0.112902
  22 H :    0.123596
  23 H :    0.113566
  24 H :    0.119972
  25 H :    0.137514
  26 H :    0.094817
  27 H :    0.127319
  28 H :    0.198141
  29 H :    0.192293
  30 H :    0.150085
  31 H :    0.152574
  32 H :    0.165856
  33 H :    0.133549
  34 H :    0.241574
  35 H :    0.174901
Sum of atomic charges:    0.0000000

LOEWDIN ATOMIC CHARGES
----------------------
   0 C :    0.105944
   1 C :   -0.006576
   2 O :    0.276488
   3 C :   -0.422504
   4 O :    0.122226
   5 C :   -0.098619
   6 C :   -0.061152
   7 C :    0.130846
   8 N :    0.406707
   9 C :   -0.457838
  10 S :   -0.031945
  11 N :    0.396525
  12 C :   -0.052579
  13 C :   -0.038411
  14 C :    0.017039
  15 C :    0.039692
  16 C :   -0.001930
  17 C :   -0.190294
  18 O :    0.396377
  19 C :    0.033780
  20 H :   -0.035488
  21 H :   -0.022149
  22 H :   -0.027267
  23 H :   -0.028952
  24 H :   -0.027620
  25 H :   -0.002900
  26 H :   -0.023099
  27 H :   -0.006581
  28 H :   -0.057640
  29 H :   -0.064949
  30 H :   -0.006585
  31 H :   -0.028312
  32 H :   -0.020289
  33 H :   -0.034541
  34 H :   -0.152808
  35 H :   -0.024597

  Mayer bond orders larger than 0.100000
B(  0-C ,  1-C ) :   0.9594 B(  0-C , 20-H ) :   0.9698 B(  0-C , 21-H ) :   0.9762
B(  0-C , 22-H ) :   0.9720 B(  1-C ,  2-O ) :   0.8798 B(  1-C , 23-H ) :   0.9724
B(  1-C , 24-H ) :   0.9864 B(  2-O ,  3-C ) :   1.0996 B(  3-C ,  4-O ) :   2.0200
B(  3-C ,  5-C ) :   1.0455 B(  5-C ,  6-C ) :   1.6542 B(  5-C , 12-C ) :   0.9705
B(  6-C ,  7-C ) :   0.9676 B(  6-C ,  8-N ) :   1.1507 B(  7-C , 25-H ) :   0.9571
B(  7-C , 26-H ) :   0.9884 B(  7-C , 27-H ) :   0.9653 B(  8-N ,  9-C ) :   1.1790
B(  8-N , 28-H ) :   0.9484 B(  9-C , 10-S ) :   1.6169 B(  9-C , 11-N ) :   1.2998
B( 11-N , 12-C ) :   0.9844 B( 11-N , 29-H ) :   0.9536 B( 12-C , 13-C ) :   0.9406
B( 12-C , 30-H ) :   1.0038 B( 13-C , 14-C ) :   1.3505 B( 13-C , 19-C ) :   1.3595
B( 14-C , 15-C ) :   1.3863 B( 14-C , 31-H ) :   0.9736 B( 15-C , 16-C ) :   1.3625
B( 15-C , 32-H ) :   0.9696 B( 16-C , 17-C ) :   1.3291 B( 16-C , 33-H ) :   0.9837
B( 17-C , 18-O ) :   1.1133 B( 17-C , 19-C ) :   1.3686 B( 18-O , 34-H ) :   0.9794
B( 19-C , 35-H ) :   0.9573

MP2 TOTAL ENERGY:    -1274.325857814 Eh
FINAL SINGLE POINT ENERGY     -1274.325857813874

DIPOLE MOMENT
-------------
                                X             Y             Z
Electronic contribution:     10.10356       7.86063       5.56778
Nuclear contribution   :    -11.22590      -9.43000      -5.38219
                        -----------------------------------------
Total Dipole Moment    :     -1.12234      -1.56937       0.18559
                        -----------------------------------------
Magnitude (a.u.)       :      1.93830
Magnitude (Debye)      :      4.92677

Rotational constants in cm-1:     0.012035     0.009689     0.006710
Rotational constants in MHz :   360.786757   290.463710   201.158179

                             ****ORCA TERMINATED NORMALLY****
TOTAL RUN TIME: 0 days 2 hours 18 minutes 57 seconds 731 msec
