                         Program Version 5.0.0 -  RELEASE  -
|  1> ! ri-mp2 cc-pvtz cc-pvtz/c TightSCF NoKeepInts
|  2>
|  3> %scf
|  4>   MaxCore 4096
|  5> end
|  6> *xyz  0  1
|  7>     C       15.8148278   13.4703838   17.3388546
|  8>     C       16.2954250   14.1553534   16.0494589
|  9>     O       17.3303914   15.1016223   16.3884125
| 10>     C       17.1089961   16.4360933   16.1857797
| 11>     O       16.3771886   16.8345323   15.2956775
| 12>     C       17.6196613   17.2997288   17.3072143
| 13>     C       17.4063262   18.6406411   17.3476423
| 14>     C       16.6178527   19.4778546   16.3630267
| 15>     N       17.9863700   19.4114786   18.3599866
| 16>     C       18.9230041   18.9540053   19.2480887
| 17>     S       19.6851265   19.9619374   20.3155530
| 18>     N       19.2093868   17.6138459   19.1947957
| 19>     C       18.4518906   16.6226782   18.4096846
| 20>     C       17.6110228   15.7782595   19.3618123
| 21>     C       18.0698701   14.5124595   19.7721884
| 22>     C       17.3207748   13.7370673   20.6734161
| 23>     C       16.1046982   14.2331786   21.1730087
| 24>     C       15.6503604   15.4981931   20.7760322
| 25>     O       14.4793264   15.9824122   21.2607113
| 26>     C       16.3983341   16.2682175   19.8800462
| 27>     H       16.6451918   12.9574806   17.8382173
| 28>     H       15.0411063   12.7270224   17.1126230
| 29>     H       15.3880461   14.2050111   18.0319771
| 30>     H       16.7031151   13.3988535   15.3667612
| 31>     H       15.4423095   14.6341629   15.5498934
| 32>     H       15.5790163   19.1285127   16.3053124
| 33>     H       17.0469366   19.3959083   15.3562338
| 34>     H       16.5939661   20.5417372   16.6264698
| 35>     H       17.7939453   20.3993714   18.4052573
| 36>     H       19.8818311   17.2999732   19.8824125
| 37>     H       19.1808009   15.9629946   17.9180180
| 38>     H       19.0109009   14.1271224   19.3889755
| 39>     H       17.6835172   12.7583302   20.9826906
| 40>     H       15.5227447   13.6383755   21.8693323
| 41>     H       14.1381980   15.3365553   21.8975371
| 42>     H       16.0345404   17.2506457   19.6008986
| 43> *
| 44>
| 45>                          ****END OF INPUT****

CARTESIAN COORDINATES (ANGSTROEM)
---------------------------------
  C     15.814828   13.470384   17.338855
  C     16.295425   14.155353   16.049459
  O     17.330391   15.101622   16.388413
  C     17.108996   16.436093   16.185780
  O     16.377189   16.834532   15.295677
  C     17.619661   17.299729   17.307214
  C     17.406326   18.640641   17.347642
  C     16.617853   19.477855   16.363027
  N     17.986370   19.411479   18.359987
  C     18.923004   18.954005   19.248089
  S     19.685126   19.961937   20.315553
  N     19.209387   17.613846   19.194796
  C     18.451891   16.622678   18.409685
  C     17.611023   15.778259   19.361812
  C     18.069870   14.512460   19.772188
  C     17.320775   13.737067   20.673416
  C     16.104698   14.233179   21.173009
  C     15.650360   15.498193   20.776032
  O     14.479326   15.982412   21.260711
  C     16.398334   16.268217   19.880046
  H     16.645192   12.957481   17.838217
  H     15.041106   12.727022   17.112623
  H     15.388046   14.205011   18.031977
  H     16.703115   13.398853   15.366761
  H     15.442310   14.634163   15.549893
  H     15.579016   19.128513   16.305312
  H     17.046937   19.395908   15.356234
  H     16.593966   20.541737   16.626470
  H     17.793945   20.399371   18.405257
  H     19.881831   17.299973   19.882412
  H     19.180801   15.962995   17.918018
  H     19.010901   14.127122   19.388976
  H     17.683517   12.758330   20.982691
  H     15.522745   13.638375   21.869332
  H     14.138198   15.336555   21.897537
  H     16.034540   17.250646   19.600899

 Total Charge           Charge          ....    0
 Multiplicity           Mult            ....    1
 Number of Electrons    NEL             ....  154
 Basis Dimension        Dim             ....  828

ORBITAL ENERGIES
----------------

  NO   OCC          E(Eh)            E(eV)
   0   2.0000     -91.889288     -2500.4347
   1   2.0000     -20.599187      -560.5324
   2   2.0000     -20.596133      -560.4493
   3   2.0000     -20.542227      -558.9824
   4   2.0000     -15.629922      -425.3118
   5   2.0000     -15.608330      -424.7243
   6   2.0000     -11.394473      -310.0594
   7   2.0000     -11.384098      -309.7771
   8   2.0000     -11.336859      -308.4916
   9   2.0000     -11.316312      -307.9325
  10   2.0000     -11.309819      -307.7558
  11   2.0000     -11.293221      -307.3042
  12   2.0000     -11.261698      -306.4464
  13   2.0000     -11.259529      -306.3874
  14   2.0000     -11.257521      -306.3327
  15   2.0000     -11.252416      -306.1938
  16   2.0000     -11.245070      -305.9939
  17   2.0000     -11.239772      -305.8497
  18   2.0000     -11.239620      -305.8456
  19   2.0000     -11.220937      -305.3372
  20   2.0000      -8.894331      -242.0270
  21   2.0000      -6.575901      -178.9394
  22   2.0000      -6.573902      -178.8850
  23   2.0000      -6.573312      -178.8689
  24   2.0000      -1.448977       -39.4287
  25   2.0000      -1.418846       -38.6088
  26   2.0000      -1.352763       -36.8106
  27   2.0000      -1.340934       -36.4887
  28   2.0000      -1.239300       -33.7231
  29   2.0000      -1.159306       -31.5463
  30   2.0000      -1.120690       -30.4955
  31   2.0000      -1.043677       -28.3999
  32   2.0000      -1.035138       -28.1675
  33   2.0000      -1.017481       -27.6871
  34   2.0000      -0.996501       -27.1162
  35   2.0000      -0.984634       -26.7933
  36   2.0000      -0.923611       -25.1327
  37   2.0000      -0.888023       -24.1643
  38   2.0000      -0.847593       -23.0642
  39   2.0000      -0.839805       -22.8522
  40   2.0000      -0.835275       -22.7290
  41   2.0000      -0.815422       -22.1888
  42   2.0000      -0.761485       -20.7211
  43   2.0000      -0.733853       -19.9691
  44   2.0000      -0.721241       -19.6260
  45   2.0000      -0.697970       -18.9927
  46   2.0000      -0.689021       -18.7492
  47   2.0000      -0.678347       -18.4588
  48   2.0000      -0.670979       -18.2583
  49   2.0000      -0.666984       -18.1496
  50   2.0000      -0.647825       -17.6282
  51   2.0000      -0.644630       -17.5413
  52   2.0000      -0.637033       -17.3346
  53   2.0000      -0.610078       -16.6011
  54   2.0000      -0.602640       -16.3987
  55   2.0000      -0.599838       -16.3224
  56   2.0000      -0.586424       -15.9574
  57   2.0000      -0.578820       -15.7505
  58   2.0000      -0.570920       -15.5355
  59   2.0000      -0.565973       -15.4009
  60   2.0000      -0.565542       -15.3892
  61   2.0000      -0.550748       -14.9866
  62   2.0000      -0.536959       -14.6114
  63   2.0000      -0.527475       -14.3533
  64   2.0000      -0.523608       -14.2481
  65   2.0000      -0.513020       -13.9600
  66   2.0000      -0.502985       -13.6869
  67   2.0000      -0.495073       -13.4716
  68   2.0000      -0.483663       -13.1612
  69   2.0000      -0.463122       -12.6022
  70   2.0000      -0.451117       -12.2755
  71   2.0000      -0.447564       -12.1788
  72   2.0000      -0.355963        -9.6862
  73   2.0000      -0.351816        -9.5734
  74   2.0000      -0.328936        -8.9508
  75   2.0000      -0.323584        -8.8052
  76   2.0000      -0.316562        -8.6141
  77   0.0000       0.074440         2.0256
  78   0.0000       0.104336         2.8391
  79   0.0000       0.122893         3.3441
  80   0.0000       0.130948         3.5633
  81   0.0000       0.134415         3.6576

MULLIKEN ATOMIC CHARGES
-----------------------
   0 C :   -0.295716
   1 C :    0.033483
   2 O :   -0.365175
   3 C :    0.471929
   4 O :   -0.426801
   5 C :   -0.248193
   6 C :    0.153735
   7 C :   -0.269535
   8 N :   -0.122919
   9 C :    0.216717
  10 S :   -0.440477
  11 N :   -0.207660
  12 C :    0.055421
  13 C :    0.089505
  14 C :   -0.209844
  15 C :   -0.123336
  16 C :   -0.273674
  17 C :    0.308334
  18 O :   -0.359199
  19 C :   -0.261949
  20 H :    0.097322
  21 H :    0.109789
  22 H :    0.104974
  23 H :    0.101686
  24 H :    0.108383
  25 H :    0.130051
  26 H :    0.133181
  27 H :    0.094861
  28 H :    0.198020
  29 H :    0.193780
  30 H :    0.149547
  31 H :    0.149330
  32 H :    0.163524
  33 H :    0.132079
  34 H :    0.241484
  35 H :    0.167341
Sum of atomic charges:    0.0000000

LOEWDIN ATOMIC CHARGES
----------------------
   0 C :    0.103477
   1 C :   -0.011543
   2 O :    0.297368
   3 C :   -0.415489
   4 O :    0.100975
   5 C :   -0.095966
   6 C :   -0.057927
   7 C :    0.131083
   8 N :    0.407398
   9 C :   -0.454990
  10 S :   -0.034958
  11 N :    0.396327
  12 C :   -0.053066
  13 C :   -0.035154
  14 C :    0.014355
  15 C :    0.044629
  16 C :   -0.001405
  17 C :   -0.190102
  18 O :    0.396108
  19 C :    0.029376
  20 H :   -0.029961
  21 H :   -0.026917
  22 H :   -0.025926
  23 H :   -0.029366
  24 H :   -0.028433
  25 H :   -0.005226
  26 H :   -0.003364
  27 H :   -0.023401
  28 H :   -0.057484
  29 H :   -0.065715
  30 H :   -0.008609
  31 H :   -0.031099
  32 H :   -0.020770
  33 H :   -0.035178
  34 H :   -0.153186
  35 H :   -0.025861

  Mayer bond orders larger than 0.100000
B(  0-C ,  1-C ) :   0.9717 B(  0-C , 20-H ) :   0.9738 B(  0-C , 21-H ) :   0.9784
B(  0-C , 22-H ) :   0.9729 B(  1-C ,  2-O ) :   0.8856 B(  1-C , 23-H ) :   0.9869
B(  1-C , 24-H ) :   0.9728 B(  2-O ,  3-C ) :   1.1538 B(  3-C ,  4-O ) :   1.9837
B(  3-C ,  5-C ) :   1.0600 B(  5-C ,  6-C ) :   1.6513 B(  5-C , 12-C ) :   0.9763
B(  6-C ,  7-C ) :   0.9687 B(  6-C ,  8-N ) :   1.1608 B(  7-C , 25-H ) :   0.9611
B(  7-C , 26-H ) :   0.9587 B(  7-C , 27-H ) :   0.9902 B(  8-N ,  9-C ) :   1.1820
B(  8-N , 28-H ) :   0.9479 B(  9-C , 10-S ) :   1.6044 B(  9-C , 11-N ) :   1.3074
B( 11-N , 12-C ) :   0.9646 B( 11-N , 29-H ) :   0.9528 B( 12-C , 13-C ) :   0.9450
B( 12-C , 30-H ) :   1.0017 B( 13-C , 14-C ) :   1.3441 B( 13-C , 19-C ) :   1.3729
B( 14-C , 15-C ) :   1.3846 B( 14-C , 31-H ) :   0.9753 B( 15-C , 16-C ) :   1.3641
B( 15-C , 32-H ) :   0.9701 B( 16-C , 17-C ) :   1.3301 B( 16-C , 33-H ) :   0.9845
B( 17-C , 18-O ) :   1.1116 B( 17-C , 19-C ) :   1.3719 B( 18-O , 34-H ) :   0.9793
B( 19-C , 35-H ) :   0.9581

MP2 TOTAL ENERGY:    -1274.345228877 Eh
FINAL SINGLE POINT ENERGY     -1274.345228876584

DIPOLE MOMENT
-------------
                                X             Y             Z
Electronic contribution:      8.25247      11.15789       5.24043
Nuclear contribution   :     -9.20110     -12.82833      -5.35346
                        -----------------------------------------
Total Dipole Moment    :     -0.94863      -1.67044      -0.11303
                        -----------------------------------------
Magnitude (a.u.)       :      1.92433
Magnitude (Debye)      :      4.89126

Rotational constants in cm-1:     0.012296     0.008932     0.006444
Rotational constants in MHz :   368.615531   267.770415   193.182836

                             ****ORCA TERMINATED NORMALLY****
TOTAL RUN TIME: 0 days 1 hours 55 minutes 55 seconds 696 msec
