                         Program Version 5.0.0 -  RELEASE  -
|  1> ! ri-mp2 cc-pvtz cc-pvtz/c TightSCF NoKeepInts
|  2>
|  3> %scf
|  4>   MaxCore 4096
|  5> end
|  6> *xyz  0  1
|  7>     C       14.3340190   15.5670671   16.1312742
|  8>     C       15.4108976   15.4795696   17.2263452
|  9>     O       16.6371556   15.0531559   16.5986553
| 10>     C       17.7927386   15.7880605   16.4959950
| 11>     O       18.7975869   15.2397759   16.0836474
| 12>     C       17.9185168   16.9215578   17.4562893
| 13>     C       17.3611496   18.1295699   17.2197485
| 14>     C       16.5532090   18.5268163   16.0043595
| 15>     N       17.5441353   19.1700294   18.1327269
| 16>     C       18.3360191   19.0943607   19.2497684
| 17>     S       18.5313292   20.3863784   20.2628941
| 18>     N       18.9511683   17.8895794   19.4923414
| 19>     C       18.7647614   16.6578252   18.6986310
| 20>     C       18.1481941   15.5400667   19.5329860
| 21>     C       18.6436002   14.2275951   19.4288654
| 22>     C       18.0618090   13.1823561   20.1652729
| 23>     C       16.9713583   13.4497939   21.0102311
| 24>     C       16.4694536   14.7541968   21.1100828
| 25>     O       15.4057144   15.0132663   21.9111219
| 26>     C       17.0504854   15.7933038   20.3764424
| 27>     H       14.6061858   16.3045932   15.3674028
| 28>     H       13.3684587   15.8573126   16.5631306
| 29>     H       14.2091389   14.5942683   15.6388323
| 30>     H       15.4930698   16.4350144   17.7542159
| 31>     H       15.1088770   14.7243124   17.9640798
| 32>     H       16.6704509   17.8132076   15.1793880
| 33>     H       16.8730561   19.5043036   15.6212708
| 34>     H       15.4852948   18.5918008   16.2457827
| 35>     H       17.1111153   20.0653551   17.9680305
| 36>     H       19.5109984   17.8583550   20.3351824
| 37>     H       19.7566755   16.3248076   18.3587121
| 38>     H       19.4726520   14.0138159   18.7574887
| 39>     H       18.4513885   12.1700392   20.0712413
| 40>     H       16.5165891   12.6438196   21.5767170
| 41>     H       15.1868191   14.1920659   22.3774724
| 42>     H       16.6429288   16.7946040   20.4673740
| 43> *
| 44>
| 45>                          ****END OF INPUT****

CARTESIAN COORDINATES (ANGSTROEM)
---------------------------------
  C     14.334019   15.567067   16.131274
  C     15.410898   15.479570   17.226345
  O     16.637156   15.053156   16.598655
  C     17.792739   15.788061   16.495995
  O     18.797587   15.239776   16.083647
  C     17.918517   16.921558   17.456289
  C     17.361150   18.129570   17.219749
  C     16.553209   18.526816   16.004359
  N     17.544135   19.170029   18.132727
  C     18.336019   19.094361   19.249768
  S     18.531329   20.386378   20.262894
  N     18.951168   17.889579   19.492341
  C     18.764761   16.657825   18.698631
  C     18.148194   15.540067   19.532986
  C     18.643600   14.227595   19.428865
  C     18.061809   13.182356   20.165273
  C     16.971358   13.449794   21.010231
  C     16.469454   14.754197   21.110083
  O     15.405714   15.013266   21.911122
  C     17.050485   15.793304   20.376442
  H     14.606186   16.304593   15.367403
  H     13.368459   15.857313   16.563131
  H     14.209139   14.594268   15.638832
  H     15.493070   16.435014   17.754216
  H     15.108877   14.724312   17.964080
  H     16.670451   17.813208   15.179388
  H     16.873056   19.504304   15.621271
  H     15.485295   18.591801   16.245783
  H     17.111115   20.065355   17.968031
  H     19.510998   17.858355   20.335182
  H     19.756676   16.324808   18.358712
  H     19.472652   14.013816   18.757489
  H     18.451389   12.170039   20.071241
  H     16.516589   12.643820   21.576717
  H     15.186819   14.192066   22.377472
  H     16.642929   16.794604   20.467374

 Total Charge           Charge          ....    0
 Multiplicity           Mult            ....    1
 Number of Electrons    NEL             ....  154
 Basis Dimension        Dim             ....  828

ORBITAL ENERGIES
----------------

  NO   OCC          E(Eh)            E(eV)
   0   2.0000     -91.889314     -2500.4353
   1   2.0000     -20.602369      -560.6190
   2   2.0000     -20.600183      -560.5595
   3   2.0000     -20.551458      -559.2336
   4   2.0000     -15.625490      -425.1912
   5   2.0000     -15.611747      -424.8172
   6   2.0000     -11.398007      -310.1555
   7   2.0000     -11.386386      -309.8393
   8   2.0000     -11.325449      -308.1811
   9   2.0000     -11.316693      -307.9429
  10   2.0000     -11.316231      -307.9303
  11   2.0000     -11.303657      -307.5881
  12   2.0000     -11.270274      -306.6797
  13   2.0000     -11.264474      -306.5219
  14   2.0000     -11.263494      -306.4953
  15   2.0000     -11.256720      -306.3109
  16   2.0000     -11.246098      -306.0219
  17   2.0000     -11.242218      -305.9163
  18   2.0000     -11.239526      -305.8431
  19   2.0000     -11.235424      -305.7314
  20   2.0000      -8.894442      -242.0301
  21   2.0000      -6.576034      -178.9430
  22   2.0000      -6.574004      -178.8877
  23   2.0000      -6.573433      -178.8722
  24   2.0000      -1.449365       -39.4392
  25   2.0000      -1.419982       -38.6397
  26   2.0000      -1.359715       -36.9997
  27   2.0000      -1.339227       -36.4422
  28   2.0000      -1.239465       -33.7276
  29   2.0000      -1.161484       -31.6056
  30   2.0000      -1.125994       -30.6399
  31   2.0000      -1.049564       -28.5601
  32   2.0000      -1.041566       -28.3425
  33   2.0000      -1.018850       -27.7243
  34   2.0000      -1.005166       -27.3519
  35   2.0000      -0.989480       -26.9251
  36   2.0000      -0.928039       -25.2532
  37   2.0000      -0.889310       -24.1993
  38   2.0000      -0.853801       -23.2331
  39   2.0000      -0.841534       -22.8993
  40   2.0000      -0.837028       -22.7767
  41   2.0000      -0.836448       -22.7609
  42   2.0000      -0.756359       -20.5816
  43   2.0000      -0.737081       -20.0570
  44   2.0000      -0.732291       -19.9266
  45   2.0000      -0.697732       -18.9862
  46   2.0000      -0.688899       -18.7459
  47   2.0000      -0.680130       -18.5073
  48   2.0000      -0.677104       -18.4249
  49   2.0000      -0.668795       -18.1988
  50   2.0000      -0.652796       -17.7635
  51   2.0000      -0.643722       -17.5166
  52   2.0000      -0.639699       -17.4071
  53   2.0000      -0.615039       -16.7361
  54   2.0000      -0.608412       -16.5557
  55   2.0000      -0.604596       -16.4519
  56   2.0000      -0.602686       -16.3999
  57   2.0000      -0.589753       -16.0480
  58   2.0000      -0.578806       -15.7501
  59   2.0000      -0.568874       -15.4798
  60   2.0000      -0.566421       -15.4131
  61   2.0000      -0.560945       -15.2641
  62   2.0000      -0.544552       -14.8180
  63   2.0000      -0.532784       -14.4978
  64   2.0000      -0.522768       -14.2252
  65   2.0000      -0.515850       -14.0370
  66   2.0000      -0.504879       -13.7385
  67   2.0000      -0.502395       -13.6709
  68   2.0000      -0.488410       -13.2903
  69   2.0000      -0.470859       -12.8127
  70   2.0000      -0.452198       -12.3049
  71   2.0000      -0.448884       -12.2148
  72   2.0000      -0.356127        -9.6907
  73   2.0000      -0.351809        -9.5732
  74   2.0000      -0.329116        -8.9557
  75   2.0000      -0.324407        -8.8276
  76   2.0000      -0.317562        -8.6413
  77   0.0000       0.089244         2.4285
  78   0.0000       0.104693         2.8488
  79   0.0000       0.111887         3.0446
  80   0.0000       0.127169         3.4605
  81   0.0000       0.129337         3.5194

MULLIKEN ATOMIC CHARGES
-----------------------
   0 C :   -0.267491
   1 C :    0.010327
   2 O :   -0.310949
   3 C :    0.382688
   4 O :   -0.377474
   5 C :   -0.158517
   6 C :    0.120112
   7 C :   -0.332732
   8 N :   -0.137210
   9 C :    0.207644
  10 S :   -0.442641
  11 N :   -0.214229
  12 C :    0.061031
  13 C :    0.029683
  14 C :   -0.185917
  15 C :   -0.129479
  16 C :   -0.276540
  17 C :    0.308530
  18 O :   -0.358779
  19 C :   -0.272393
  20 H :    0.085034
  21 H :    0.094058
  22 H :    0.113342
  23 H :    0.097342
  24 H :    0.130243
  25 H :    0.124057
  26 H :    0.139235
  27 H :    0.125783
  28 H :    0.195792
  29 H :    0.198739
  30 H :    0.164609
  31 H :    0.163462
  32 H :    0.162991
  33 H :    0.132814
  34 H :    0.241936
  35 H :    0.174899
Sum of atomic charges:   -0.0000000

LOEWDIN ATOMIC CHARGES
----------------------
   0 C :    0.103435
   1 C :   -0.019690
   2 O :    0.316674
   3 C :   -0.419844
   4 O :    0.127617
   5 C :   -0.080859
   6 C :   -0.110886
   7 C :    0.124980
   8 N :    0.400012
   9 C :   -0.455090
  10 S :   -0.039188
  11 N :    0.397343
  12 C :   -0.043574
  13 C :   -0.042352
  14 C :    0.024474
  15 C :    0.046562
  16 C :   -0.000305
  17 C :   -0.194232
  18 O :    0.394237
  19 C :    0.028593
  20 H :   -0.033961
  21 H :   -0.025745
  22 H :   -0.022291
  23 H :   -0.040888
  24 H :   -0.021272
  25 H :   -0.009464
  26 H :   -0.010215
  27 H :   -0.015964
  28 H :   -0.058936
  29 H :   -0.063674
  30 H :   -0.002343
  31 H :   -0.022326
  32 H :   -0.018451
  33 H :   -0.034644
  34 H :   -0.152864
  35 H :   -0.024867

  Mayer bond orders larger than 0.100000
B(  0-C ,  1-C ) :   0.9740 B(  0-C , 20-H ) :   0.9773 B(  0-C , 21-H ) :   0.9758
B(  0-C , 22-H ) :   0.9788 B(  1-C ,  2-O ) :   0.9001 B(  1-C , 23-H ) :   0.9626
B(  1-C , 24-H ) :   0.9755 B(  2-O ,  3-C ) :   1.1674 B(  3-C ,  4-O ) :   2.0960
B(  3-C ,  5-C ) :   0.9225 B(  5-C ,  6-C ) :   1.7008 B(  5-C , 12-C ) :   0.9624
B(  6-C ,  7-C ) :   0.9410 B(  6-C ,  8-N ) :   1.1078 B(  7-C , 25-H ) :   0.9812
B(  7-C , 26-H ) :   0.9745 B(  7-C , 27-H ) :   0.9647 B(  8-N ,  9-C ) :   1.1979
B(  8-N , 28-H ) :   0.9526 B(  9-C , 10-S ) :   1.6094 B(  9-C , 11-N ) :   1.2854
B( 11-N , 12-C ) :   0.9982 B( 11-N , 29-H ) :   0.9483 B( 12-C , 13-C ) :   0.9472
B( 12-C , 30-H ) :   0.9969 B( 13-C , 14-C ) :   1.3859 B( 13-C , 19-C ) :   1.3434
B( 14-C , 15-C ) :   1.3969 B( 14-C , 31-H ) :   0.9632 B( 15-C , 16-C ) :   1.3644
B( 15-C , 32-H ) :   0.9702 B( 16-C , 17-C ) :   1.3285 B( 16-C , 33-H ) :   0.9842
B( 17-C , 18-O ) :   1.1092 B( 17-C , 19-C ) :   1.3725 B( 18-O , 34-H ) :   0.9789
B( 19-C , 35-H ) :   0.9589

MP2 TOTAL ENERGY:    -1274.326873894 Eh
FINAL SINGLE POINT ENERGY     -1274.326873894192

DIPOLE MOMENT
-------------
                                X             Y             Z
Electronic contribution:     11.64123       5.53082       8.11029
Nuclear contribution   :    -13.26186      -6.57900      -8.45545
                        -----------------------------------------
Total Dipole Moment    :     -1.62062      -1.04818      -0.34516
                        -----------------------------------------
Magnitude (a.u.)       :      1.96067
Magnitude (Debye)      :      4.98363

Rotational constants in cm-1:     0.011613     0.009236     0.006838
Rotational constants in MHz :   348.142989   276.886071   204.990627

                             ****ORCA TERMINATED NORMALLY****
TOTAL RUN TIME: 0 days 2 hours 12 minutes 22 seconds 502 msec
