                         Program Version 5.0.0 -  RELEASE  -
|  1> ! ri-mp2 cc-pvtz cc-pvtz/c TightSCF NoKeepInts
|  2>
|  3> %scf
|  4>   MaxCore 4096
|  5> end
|  6> *xyz  0  1
|  7>     C       15.7560751   13.7590058   14.9651541
|  8>     C       15.1322203   15.1315647   15.2982350
|  9>     O       15.9431618   16.0251832   16.1080819
| 10>     C       17.0325430   15.7162519   16.8825975
| 11>     O       17.4894178   14.5941525   17.0150898
| 12>     C       17.5771419   16.8793447   17.6678401
| 13>     C       17.2614501   18.1874866   17.4671331
| 14>     C       16.3213848   18.7827488   16.4380905
| 15>     N       17.8923431   19.1784703   18.2274976
| 16>     C       18.9442365   18.9654076   19.0782421
| 17>     S       19.7234989   20.2146205   19.8319144
| 18>     N       19.3166513   17.6601016   19.2712278
| 19>     C       18.5709505   16.4906580   18.7704882
| 20>     C       17.8657698   15.7757715   19.9206542
| 21>     C       18.0774814   14.4023007   20.1419460
| 22>     C       17.4307888   13.7381264   21.1976796
| 23>     C       16.5637358   14.4527765   22.0414960
| 24>     C       16.3469683   15.8199540   21.8226685
| 25>     O       15.5056222   16.5115698   22.6321728
| 26>     C       16.9917773   16.4781732   20.7707764
| 27>     H       16.7622457   13.8742657   14.5429305
| 28>     H       15.1395762   13.2324082   14.2268812
| 29>     H       15.8149376   13.1222902   15.8568329
| 30>     H       14.8848597   15.6439646   14.3597171
| 31>     H       14.1846925   14.9511446   15.8222899
| 32>     H       15.2855912   18.4837797   16.6417382
| 33>     H       16.5825682   18.4410171   15.4288938
| 34>     H       16.3478726   19.8790576   16.4225772
| 35>     H       17.6329906   20.1435175   18.1003239
| 36>     H       20.0740132   17.5251579   19.9284951
| 37>     H       19.3029918   15.7966580   18.3326546
| 38>     H       18.7339518   13.8434035   19.4793945
| 39>     H       17.5983074   12.6739625   21.3532737
| 40>     H       16.0606128   13.9433362   22.8564554
| 41>     H       15.1863547   15.8970850   23.3097786
| 42>     H       16.8122150   17.5372830   20.6227779
| 43> *
| 44>
| 45>                          ****END OF INPUT****

CARTESIAN COORDINATES (ANGSTROEM)
---------------------------------
  C     15.756075   13.759006   14.965154
  C     15.132220   15.131565   15.298235
  O     15.943162   16.025183   16.108082
  C     17.032543   15.716252   16.882597
  O     17.489418   14.594152   17.015090
  C     17.577142   16.879345   17.667840
  C     17.261450   18.187487   17.467133
  C     16.321385   18.782749   16.438091
  N     17.892343   19.178470   18.227498
  C     18.944236   18.965408   19.078242
  S     19.723499   20.214620   19.831914
  N     19.316651   17.660102   19.271228
  C     18.570950   16.490658   18.770488
  C     17.865770   15.775771   19.920654
  C     18.077481   14.402301   20.141946
  C     17.430789   13.738126   21.197680
  C     16.563736   14.452777   22.041496
  C     16.346968   15.819954   21.822668
  O     15.505622   16.511570   22.632173
  C     16.991777   16.478173   20.770776
  H     16.762246   13.874266   14.542930
  H     15.139576   13.232408   14.226881
  H     15.814938   13.122290   15.856833
  H     14.884860   15.643965   14.359717
  H     14.184693   14.951145   15.822290
  H     15.285591   18.483780   16.641738
  H     16.582568   18.441017   15.428894
  H     16.347873   19.879058   16.422577
  H     17.632991   20.143518   18.100324
  H     20.074013   17.525158   19.928495
  H     19.302992   15.796658   18.332655
  H     18.733952   13.843404   19.479395
  H     17.598307   12.673963   21.353274
  H     16.060613   13.943336   22.856455
  H     15.186355   15.897085   23.309779
  H     16.812215   17.537283   20.622778

 Total Charge           Charge          ....    0
 Multiplicity           Mult            ....    1
 Number of Electrons    NEL             ....  154
 Basis Dimension        Dim             ....  828

ORBITAL ENERGIES
----------------

  NO   OCC          E(Eh)            E(eV)
   0   2.0000     -91.887113     -2500.3755
   1   2.0000     -20.601889      -560.6059
   2   2.0000     -20.590281      -560.2900
   3   2.0000     -20.542851      -558.9994
   4   2.0000     -15.627231      -425.2386
   5   2.0000     -15.605548      -424.6486
   6   2.0000     -11.399207      -310.1882
   7   2.0000     -11.381727      -309.7125
   8   2.0000     -11.335394      -308.4517
   9   2.0000     -11.307473      -307.6920
  10   2.0000     -11.305997      -307.6518
  11   2.0000     -11.303863      -307.5938
  12   2.0000     -11.259639      -306.3904
  13   2.0000     -11.257945      -306.3443
  14   2.0000     -11.251897      -306.1797
  15   2.0000     -11.246179      -306.0241
  16   2.0000     -11.235797      -305.7416
  17   2.0000     -11.231864      -305.6346
  18   2.0000     -11.228823      -305.5518
  19   2.0000     -11.225356      -305.4575
  20   2.0000      -8.892183      -241.9686
  21   2.0000      -6.573763      -178.8812
  22   2.0000      -6.571755      -178.8266
  23   2.0000      -6.571171      -178.8107
  24   2.0000      -1.445182       -39.3254
  25   2.0000      -1.410010       -38.3683
  26   2.0000      -1.356807       -36.9206
  27   2.0000      -1.338351       -36.4184
  28   2.0000      -1.235866       -33.6296
  29   2.0000      -1.150451       -31.3054
  30   2.0000      -1.117506       -30.4089
  31   2.0000      -1.041488       -28.3403
  32   2.0000      -1.034581       -28.1524
  33   2.0000      -1.007968       -27.4282
  34   2.0000      -0.996016       -27.1030
  35   2.0000      -0.981389       -26.7049
  36   2.0000      -0.920399       -25.0453
  37   2.0000      -0.897499       -24.4222
  38   2.0000      -0.847230       -23.0543
  39   2.0000      -0.834682       -22.7128
  40   2.0000      -0.826393       -22.4873
  41   2.0000      -0.816707       -22.2237
  42   2.0000      -0.742927       -20.2161
  43   2.0000      -0.725809       -19.7503
  44   2.0000      -0.723250       -19.6806
  45   2.0000      -0.689313       -18.7572
  46   2.0000      -0.683525       -18.5997
  47   2.0000      -0.676722       -18.4145
  48   2.0000      -0.672520       -18.3002
  49   2.0000      -0.665392       -18.1062
  50   2.0000      -0.644985       -17.5509
  51   2.0000      -0.642798       -17.4914
  52   2.0000      -0.633697       -17.2438
  53   2.0000      -0.603482       -16.4216
  54   2.0000      -0.598855       -16.2957
  55   2.0000      -0.597150       -16.2493
  56   2.0000      -0.593457       -16.1488
  57   2.0000      -0.585725       -15.9384
  58   2.0000      -0.570926       -15.5357
  59   2.0000      -0.569432       -15.4950
  60   2.0000      -0.558761       -15.2046
  61   2.0000      -0.541880       -14.7453
  62   2.0000      -0.537211       -14.6182
  63   2.0000      -0.524937       -14.2843
  64   2.0000      -0.516137       -14.0448
  65   2.0000      -0.510184       -13.8828
  66   2.0000      -0.498958       -13.5773
  67   2.0000      -0.494071       -13.4443
  68   2.0000      -0.479536       -13.0488
  69   2.0000      -0.461694       -12.5633
  70   2.0000      -0.452586       -12.3155
  71   2.0000      -0.446774       -12.1573
  72   2.0000      -0.353050        -9.6070
  73   2.0000      -0.342538        -9.3209
  74   2.0000      -0.326259        -8.8780
  75   2.0000      -0.314532        -8.5589
  76   2.0000      -0.312278        -8.4975
  77   0.0000       0.077244         2.1019
  78   0.0000       0.115175         3.1341
  79   0.0000       0.121097         3.2952
  80   0.0000       0.136838         3.7236
  81   0.0000       0.139493         3.7958

MULLIKEN ATOMIC CHARGES
-----------------------
   0 C :   -0.289663
   1 C :    0.050770
   2 O :   -0.356637
   3 C :    0.440189
   4 O :   -0.431789
   5 C :   -0.148972
   6 C :    0.139078
   7 C :   -0.286548
   8 N :   -0.120071
   9 C :    0.200657
  10 S :   -0.440549
  11 N :   -0.196220
  12 C :    0.028455
  13 C :    0.060585
  14 C :   -0.162412
  15 C :   -0.134038
  16 C :   -0.278944
  17 C :    0.311667
  18 O :   -0.359259
  19 C :   -0.271772
  20 H :    0.103657
  21 H :    0.097081
  22 H :    0.119058
  23 H :    0.092566
  24 H :    0.090252
  25 H :    0.128378
  26 H :    0.124635
  27 H :    0.102879
  28 H :    0.196286
  29 H :    0.193242
  30 H :    0.154153
  31 H :    0.153278
  32 H :    0.158447
  33 H :    0.127474
  34 H :    0.239826
  35 H :    0.164261
Sum of atomic charges:    0.0000000

LOEWDIN ATOMIC CHARGES
----------------------
   0 C :    0.102583
   1 C :   -0.008184
   2 O :    0.294164
   3 C :   -0.413360
   4 O :    0.112010
   5 C :   -0.089950
   6 C :   -0.064653
   7 C :    0.124120
   8 N :    0.404631
   9 C :   -0.459579
  10 S :   -0.037011
  11 N :    0.398050
  12 C :   -0.046799
  13 C :   -0.038421
  14 C :    0.021744
  15 C :    0.040513
  16 C :   -0.002539
  17 C :   -0.192470
  18 O :    0.392906
  19 C :    0.028639
  20 H :   -0.025544
  21 H :   -0.027928
  22 H :   -0.024011
  23 H :   -0.027553
  24 H :   -0.028201
  25 H :   -0.009543
  26 H :   -0.009187
  27 H :   -0.021518
  28 H :   -0.059569
  29 H :   -0.063666
  30 H :   -0.005691
  31 H :   -0.025514
  32 H :   -0.021514
  33 H :   -0.036617
  34 H :   -0.155109
  35 H :   -0.025228

  Mayer bond orders larger than 0.100000
B(  0-C ,  1-C ) :   0.9803 B(  0-C , 20-H ) :   0.9749 B(  0-C , 21-H ) :   0.9735
B(  0-C , 22-H ) :   0.9722 B(  1-C ,  2-O ) :   0.8984 B(  1-C , 23-H ) :   0.9801
B(  1-C , 24-H ) :   0.9783 B(  2-O ,  3-C ) :   1.1542 B(  3-C ,  4-O ) :   1.9722
B(  3-C ,  5-C ) :   1.0627 B(  5-C ,  6-C ) :   1.6472 B(  5-C , 12-C ) :   0.9658
B(  6-C ,  7-C ) :   0.9553 B(  6-C ,  8-N ) :   1.1496 B(  7-C , 25-H ) :   0.9641
B(  7-C , 26-H ) :   0.9657 B(  7-C , 27-H ) :   0.9923 B(  8-N ,  9-C ) :   1.1779
B(  8-N , 28-H ) :   0.9489 B(  9-C , 10-S ) :   1.6097 B(  9-C , 11-N ) :   1.3053
B( 11-N , 12-C ) :   0.9924 B( 11-N , 29-H ) :   0.9521 B( 12-C , 13-C ) :   0.9479
B( 12-C , 30-H ) :   1.0006 B( 13-C , 14-C ) :   1.3749 B( 13-C , 19-C ) :   1.3698
B( 14-C , 15-C ) :   1.3948 B( 14-C , 31-H ) :   0.9651 B( 15-C , 16-C ) :   1.3625
B( 15-C , 32-H ) :   0.9716 B( 16-C , 17-C ) :   1.3316 B( 16-C , 33-H ) :   0.9862
B( 17-C , 18-O ) :   1.1078 B( 17-C , 19-C ) :   1.3795 B( 18-O , 34-H ) :   0.9808
B( 19-C , 35-H ) :   0.9583

MP2 TOTAL ENERGY:    -1274.337601625 Eh
FINAL SINGLE POINT ENERGY     -1274.337601625033

DIPOLE MOMENT
-------------
                                X             Y             Z
Electronic contribution:      9.63040       9.95033      11.57239
Nuclear contribution   :    -11.31493     -11.08369     -12.66157
                        -----------------------------------------
Total Dipole Moment    :     -1.68452      -1.13336      -1.08918
                        -----------------------------------------
Magnitude (a.u.)       :      2.30401
Magnitude (Debye)      :      5.85632

Rotational constants in cm-1:     0.010572     0.008779     0.005759
Rotational constants in MHz :   316.955324   263.199572   172.642023

                             ****ORCA TERMINATED NORMALLY****
TOTAL RUN TIME: 0 days 1 hours 55 minutes 32 seconds 140 msec
