                         Program Version 5.0.0 -  RELEASE  -
|  1> ! ri-mp2 cc-pvtz cc-pvtz/c TightSCF NoKeepInts
|  2>
|  3> %scf
|  4>   MaxCore 4096
|  5> end
|  6> *xyz  0  1
|  7>     C       14.8999582   14.5216921   16.0579098
|  8>     C       16.0739186   14.5605514   17.0533801
|  9>     O       17.2536073   14.9883379   16.3438100
| 10>     C       17.4475942   16.3201340   16.1168728
| 11>     O       17.1413810   16.7962238   15.0393045
| 12>     C       17.7075011   17.1440543   17.3497483
| 13>     C       17.3477708   18.4501979   17.4297578
| 14>     C       16.5094471   19.2315398   16.4414379
| 15>     N       17.8048186   19.2363673   18.4918800
| 16>     C       18.8070082   18.8660969   19.3500251
| 17>     S       19.4482241   19.9161738   20.4549312
| 18>     N       19.2595932   17.5751397   19.2363723
| 19>     C       18.5905669   16.5227307   18.4487272
| 20>     C       17.8497903   15.5925724   19.4033125
| 21>     C       18.2264146   14.2403188   19.5110551
| 22>     C       17.5472170   13.3764963   20.3864927
| 23>     C       16.4874418   13.8693242   21.1666413
| 24>     C       16.1175164   15.2176637   21.0718432
| 25>     O       15.0942136   15.6967790   21.8222926
| 26>     C       16.7934113   16.0747416   20.1979189
| 27>     H       14.6796236   15.5244329   15.6705947
| 28>     H       13.9954022   14.1371244   16.5442454
| 29>     H       15.1367946   13.8697788   15.2076548
| 30>     H       15.8202520   15.2355643   17.8777053
| 31>     H       16.2339641   13.5544260   17.4619682
| 32>     H       15.6224591   18.6582696   16.1436835
| 33>     H       17.0849734   19.4378264   15.5296309
| 34>     H       16.1598090   20.1896704   16.8434112
| 35>     H       17.4988213   20.1933029   18.5705696
| 36>     H       19.9855079   17.3240494   19.8954314
| 37>     H       19.3742385   15.9386522   17.9454704
| 38>     H       19.0439640   13.8541967   18.9073144
| 39>     H       17.8442687   12.3314095   20.4602454
| 40>     H       15.9607805   13.2057784   21.8450361
| 41>     H       14.8035963   14.9840285   22.4114383
| 42>     H       16.4951505   17.1163541   20.1458868
| 43> *
| 44>
| 45>                          ****END OF INPUT****

CARTESIAN COORDINATES (ANGSTROEM)
---------------------------------
  C     14.899958   14.521692   16.057910
  C     16.073919   14.560551   17.053380
  O     17.253607   14.988338   16.343810
  C     17.447594   16.320134   16.116873
  O     17.141381   16.796224   15.039304
  C     17.707501   17.144054   17.349748
  C     17.347771   18.450198   17.429758
  C     16.509447   19.231540   16.441438
  N     17.804819   19.236367   18.491880
  C     18.807008   18.866097   19.350025
  S     19.448224   19.916174   20.454931
  N     19.259593   17.575140   19.236372
  C     18.590567   16.522731   18.448727
  C     17.849790   15.592572   19.403312
  C     18.226415   14.240319   19.511055
  C     17.547217   13.376496   20.386493
  C     16.487442   13.869324   21.166641
  C     16.117516   15.217664   21.071843
  O     15.094214   15.696779   21.822293
  C     16.793411   16.074742   20.197919
  H     14.679624   15.524433   15.670595
  H     13.995402   14.137124   16.544245
  H     15.136795   13.869779   15.207655
  H     15.820252   15.235564   17.877705
  H     16.233964   13.554426   17.461968
  H     15.622459   18.658270   16.143684
  H     17.084973   19.437826   15.529631
  H     16.159809   20.189670   16.843411
  H     17.498821   20.193303   18.570570
  H     19.985508   17.324049   19.895431
  H     19.374239   15.938652   17.945470
  H     19.043964   13.854197   18.907314
  H     17.844269   12.331409   20.460245
  H     15.960780   13.205778   21.845036
  H     14.803596   14.984029   22.411438
  H     16.495151   17.116354   20.145887

 Total Charge           Charge          ....    0
 Multiplicity           Mult            ....    1
 Number of Electrons    NEL             ....  154
 Basis Dimension        Dim             ....  828

ORBITAL ENERGIES
----------------

  NO   OCC          E(Eh)            E(eV)
   0   2.0000     -91.892094     -2500.5110
   1   2.0000     -20.602782      -560.6302
   2   2.0000     -20.582660      -560.0827
   3   2.0000     -20.551074      -559.2232
   4   2.0000     -15.631789      -425.3626
   5   2.0000     -15.611252      -424.8038
   6   2.0000     -11.393489      -310.0326
   7   2.0000     -11.386759      -309.8495
   8   2.0000     -11.337326      -308.5043
   9   2.0000     -11.320859      -308.0562
  10   2.0000     -11.315606      -307.9133
  11   2.0000     -11.295874      -307.3763
  12   2.0000     -11.265668      -306.5544
  13   2.0000     -11.261954      -306.4533
  14   2.0000     -11.260435      -306.4120
  15   2.0000     -11.255295      -306.2721
  16   2.0000     -11.250129      -306.1316
  17   2.0000     -11.244368      -305.9748
  18   2.0000     -11.244316      -305.9734
  19   2.0000     -11.220979      -305.3384
  20   2.0000      -8.897106      -242.1026
  21   2.0000      -6.578668      -179.0147
  22   2.0000      -6.576677      -178.9605
  23   2.0000      -6.576077      -178.9442
  24   2.0000      -1.446881       -39.3716
  25   2.0000      -1.422512       -38.7085
  26   2.0000      -1.354540       -36.8589
  27   2.0000      -1.343311       -36.5534
  28   2.0000      -1.241957       -33.7954
  29   2.0000      -1.163468       -31.6596
  30   2.0000      -1.122633       -30.5484
  31   2.0000      -1.047977       -28.5169
  32   2.0000      -1.030394       -28.0384
  33   2.0000      -1.021987       -27.8097
  34   2.0000      -1.000462       -27.2239
  35   2.0000      -0.987694       -26.8765
  36   2.0000      -0.927274       -25.2324
  37   2.0000      -0.883220       -24.0336
  38   2.0000      -0.851379       -23.1672
  39   2.0000      -0.845566       -23.0090
  40   2.0000      -0.840541       -22.8723
  41   2.0000      -0.831790       -22.6342
  42   2.0000      -0.754718       -20.5369
  43   2.0000      -0.736502       -20.0412
  44   2.0000      -0.718806       -19.5597
  45   2.0000      -0.701988       -19.1021
  46   2.0000      -0.692849       -18.8534
  47   2.0000      -0.681199       -18.5364
  48   2.0000      -0.668814       -18.1993
  49   2.0000      -0.668302       -18.1854
  50   2.0000      -0.652230       -17.7481
  51   2.0000      -0.649340       -17.6694
  52   2.0000      -0.639217       -17.3940
  53   2.0000      -0.612894       -16.6777
  54   2.0000      -0.607818       -16.5396
  55   2.0000      -0.602793       -16.4028
  56   2.0000      -0.596601       -16.2343
  57   2.0000      -0.582549       -15.8520
  58   2.0000      -0.575194       -15.6518
  59   2.0000      -0.571067       -15.5395
  60   2.0000      -0.560721       -15.2580
  61   2.0000      -0.546627       -14.8745
  62   2.0000      -0.538984       -14.6665
  63   2.0000      -0.530294       -14.4300
  64   2.0000      -0.520384       -14.1604
  65   2.0000      -0.518108       -14.0984
  66   2.0000      -0.506456       -13.7814
  67   2.0000      -0.498929       -13.5765
  68   2.0000      -0.480224       -13.0676
  69   2.0000      -0.467757       -12.7283
  70   2.0000      -0.453645       -12.3443
  71   2.0000      -0.444929       -12.1071
  72   2.0000      -0.359556        -9.7840
  73   2.0000      -0.354238        -9.6393
  74   2.0000      -0.331893        -9.0313
  75   2.0000      -0.328367        -8.9353
  76   2.0000      -0.319375        -8.6906
  77   0.0000       0.069862         1.9010
  78   0.0000       0.098870         2.6904
  79   0.0000       0.119804         3.2600
  80   0.0000       0.127042         3.4570
  81   0.0000       0.130623         3.5544

MULLIKEN ATOMIC CHARGES
-----------------------
   0 C :   -0.262429
   1 C :    0.021945
   2 O :   -0.367407
   3 C :    0.462333
   4 O :   -0.384071
   5 C :   -0.266098
   6 C :    0.158583
   7 C :   -0.271924
   8 N :   -0.126750
   9 C :    0.202702
  10 S :   -0.432438
  11 N :   -0.190038
  12 C :    0.037119
  13 C :    0.044885
  14 C :   -0.176255
  15 C :   -0.137196
  16 C :   -0.272023
  17 C :    0.308383
  18 O :   -0.355135
  19 C :   -0.261438
  20 H :    0.095042
  21 H :    0.090288
  22 H :    0.103070
  23 H :    0.104193
  24 H :    0.113037
  25 H :    0.123800
  26 H :    0.139935
  27 H :    0.094684
  28 H :    0.198556
  29 H :    0.191067
  30 H :    0.149688
  31 H :    0.149199
  32 H :    0.165967
  33 H :    0.134474
  34 H :    0.241795
  35 H :    0.172458
Sum of atomic charges:   -0.0000000

LOEWDIN ATOMIC CHARGES
----------------------
   0 C :    0.106272
   1 C :   -0.022862
   2 O :    0.287349
   3 C :   -0.423031
   4 O :    0.129491
   5 C :   -0.099401
   6 C :   -0.064075
   7 C :    0.130215
   8 N :    0.406233
   9 C :   -0.457853
  10 S :   -0.030413
  11 N :    0.396455
  12 C :   -0.051970
  13 C :   -0.040675
  14 C :    0.016812
  15 C :    0.042536
  16 C :   -0.000321
  17 C :   -0.191278
  18 O :    0.396846
  19 C :    0.031062
  20 H :   -0.029226
  21 H :   -0.029108
  22 H :   -0.024086
  23 H :   -0.036635
  24 H :   -0.023019
  25 H :   -0.007307
  26 H :   -0.002632
  27 H :   -0.022572
  28 H :   -0.057335
  29 H :   -0.064898
  30 H :   -0.006023
  31 H :   -0.028424
  32 H :   -0.019519
  33 H :   -0.033994
  34 H :   -0.152408
  35 H :   -0.024206

  Mayer bond orders larger than 0.100000
B(  0-C ,  1-C ) :   0.9803 B(  0-C , 20-H ) :   0.9738 B(  0-C , 21-H ) :   0.9767
B(  0-C , 22-H ) :   0.9799 B(  1-C ,  2-O ) :   0.8766 B(  1-C , 23-H ) :   0.9613
B(  1-C , 24-H ) :   0.9800 B(  2-O ,  3-C ) :   1.1283 B(  3-C ,  4-O ) :   2.0600
B(  3-C ,  5-C ) :   1.0048 B(  5-C ,  6-C ) :   1.6702 B(  5-C , 12-C ) :   0.9680
B(  6-C ,  7-C ) :   0.9665 B(  6-C ,  8-N ) :   1.1440 B(  7-C , 25-H ) :   0.9687
B(  7-C , 26-H ) :   0.9553 B(  7-C , 27-H ) :   0.9864 B(  8-N ,  9-C ) :   1.1789
B(  8-N , 28-H ) :   0.9490 B(  9-C , 10-S ) :   1.6205 B(  9-C , 11-N ) :   1.2954
B( 11-N , 12-C ) :   0.9876 B( 11-N , 29-H ) :   0.9540 B( 12-C , 13-C ) :   0.9504
B( 12-C , 30-H ) :   1.0048 B( 13-C , 14-C ) :   1.3517 B( 13-C , 19-C ) :   1.3607
B( 14-C , 15-C ) :   1.3870 B( 14-C , 31-H ) :   0.9764 B( 15-C , 16-C ) :   1.3684
B( 15-C , 32-H ) :   0.9691 B( 16-C , 17-C ) :   1.3254 B( 16-C , 33-H ) :   0.9831
B( 17-C , 18-O ) :   1.1157 B( 17-C , 19-C ) :   1.3782 B( 18-O , 34-H ) :   0.9789
B( 19-C , 35-H ) :   0.9564

MP2 TOTAL ENERGY:    -1274.327582652 Eh
FINAL SINGLE POINT ENERGY     -1274.327582651833

DIPOLE MOMENT
-------------
                                X             Y             Z
Electronic contribution:     10.93765       8.44799       6.97560
Nuclear contribution   :    -12.11291      -9.97922      -6.57893
                        -----------------------------------------
Total Dipole Moment    :     -1.17526      -1.53124       0.39666
                        -----------------------------------------
Magnitude (a.u.)       :      1.97060
Magnitude (Debye)      :      5.00887

Rotational constants in cm-1:     0.011439     0.009687     0.006424
Rotational constants in MHz :   342.938976   290.416262   192.576562

                             ****ORCA TERMINATED NORMALLY****
TOTAL RUN TIME: 0 days 2 hours 28 minutes 20 seconds 964 msec
