                         Program Version 5.0.0 -  RELEASE  -
|  1> ! ri-mp2 cc-pvtz cc-pvtz/c TightSCF NoKeepInts
|  2>
|  3> %scf
|  4>   MaxCore 4096
|  5> end
|  6> *xyz  0  1
|  7>     C       14.7686986   14.4794421   17.3138891
|  8>     C       15.6774854   15.3528263   16.4339741
|  9>     O       17.0295268   14.9366534   16.6790995
| 10>     C       18.0886956   15.7736379   16.4704405
| 11>     O       19.1709052   15.2679007   16.2405005
| 12>     C       18.0436707   16.9485454   17.3852940
| 13>     C       17.5527554   18.1411657   16.9826285
| 14>     C       16.9766846   18.4688999   15.6216612
| 15>     N       17.5986711   19.2389805   17.8443613
| 16>     C       18.2250879   19.2434379   19.0640859
| 17>     S       18.2974739   20.6074112   19.9962157
| 18>     N       18.7859704   18.0583332   19.4753459
| 19>     C       18.6688609   16.7665801   18.7679201
| 20>     C       17.8973100   15.7453728   19.5982916
| 21>     C       18.3443067   14.4130756   19.6662004
| 22>     C       17.6397355   13.4583310   20.4181398
| 23>     C       16.4767879   13.8378220   21.1094732
| 24>     C       16.0243816   15.1622529   21.0394168
| 25>     O       14.8929613   15.5279330   21.6927825
| 26>     C       16.7253408   16.1102312   20.2871287
| 27>     H       14.8884694   13.4191261   17.0585010
| 28>     H       13.7155284   14.7511494   17.1741854
| 29>     H       15.0185690   14.6063227   18.3738444
| 30>     H       15.4243656   15.2331082   15.3724174
| 31>     H       15.5194824   16.3982528   16.7214765
| 32>     H       17.1885559   17.6897695   14.8794382
| 33>     H       17.4077714   19.3991873   15.2295940
| 34>     H       15.8888489   18.5994177   15.6750525
| 35>     H       17.2051141   20.1211801   17.5566401
| 36>     H       19.2230503   18.0868826   20.3877996
| 37>     H       19.6868751   16.3779579   18.6171816
| 38>     H       19.2342298   14.1132459   19.1170631
| 39>     H       17.9933053   12.4294772   20.4565416
| 40>     H       15.9285442   13.1025666   21.6889877
| 41>     H       14.5860207   14.7573973   22.1940748
| 42>     H       16.3529592   17.1281257   20.2443528
| 43> *
| 44>
| 45>                          ****END OF INPUT****

CARTESIAN COORDINATES (ANGSTROEM)
---------------------------------
  C     14.768699   14.479442   17.313889
  C     15.677485   15.352826   16.433974
  O     17.029527   14.936653   16.679099
  C     18.088696   15.773638   16.470440
  O     19.170905   15.267901   16.240500
  C     18.043671   16.948545   17.385294
  C     17.552755   18.141166   16.982629
  C     16.976685   18.468900   15.621661
  N     17.598671   19.238980   17.844361
  C     18.225088   19.243438   19.064086
  S     18.297474   20.607411   19.996216
  N     18.785970   18.058333   19.475346
  C     18.668861   16.766580   18.767920
  C     17.897310   15.745373   19.598292
  C     18.344307   14.413076   19.666200
  C     17.639736   13.458331   20.418140
  C     16.476788   13.837822   21.109473
  C     16.024382   15.162253   21.039417
  O     14.892961   15.527933   21.692782
  C     16.725341   16.110231   20.287129
  H     14.888469   13.419126   17.058501
  H     13.715528   14.751149   17.174185
  H     15.018569   14.606323   18.373844
  H     15.424366   15.233108   15.372417
  H     15.519482   16.398253   16.721477
  H     17.188556   17.689770   14.879438
  H     17.407771   19.399187   15.229594
  H     15.888849   18.599418   15.675052
  H     17.205114   20.121180   17.556640
  H     19.223050   18.086883   20.387800
  H     19.686875   16.377958   18.617182
  H     19.234230   14.113246   19.117063
  H     17.993305   12.429477   20.456542
  H     15.928544   13.102567   21.688988
  H     14.586021   14.757397   22.194075
  H     16.352959   17.128126   20.244353

 Total Charge           Charge          ....    0
 Multiplicity           Mult            ....    1
 Number of Electrons    NEL             ....  154
 Basis Dimension        Dim             ....  828

ORBITAL ENERGIES
----------------

  NO   OCC          E(Eh)            E(eV)
   0   2.0000     -91.887000     -2500.3724
   1   2.0000     -20.600843      -560.5774
   2   2.0000     -20.598073      -560.5021
   3   2.0000     -20.560795      -559.4877
   4   2.0000     -15.621996      -425.0961
   5   2.0000     -15.609894      -424.7668
   6   2.0000     -11.395390      -310.0843
   7   2.0000     -11.383969      -309.7735
   8   2.0000     -11.321066      -308.0619
   9   2.0000     -11.315799      -307.9186
  10   2.0000     -11.314408      -307.8807
  11   2.0000     -11.304843      -307.6204
  12   2.0000     -11.269649      -306.6627
  13   2.0000     -11.264367      -306.5190
  14   2.0000     -11.261689      -306.4461
  15   2.0000     -11.254864      -306.2604
  16   2.0000     -11.243793      -305.9592
  17   2.0000     -11.239698      -305.8477
  18   2.0000     -11.237457      -305.7867
  19   2.0000     -11.229548      -305.5715
  20   2.0000      -8.892144      -241.9675
  21   2.0000      -6.573743      -178.8806
  22   2.0000      -6.571707      -178.8252
  23   2.0000      -6.571143      -178.8099
  24   2.0000      -1.457795       -39.6686
  25   2.0000      -1.417874       -38.5823
  26   2.0000      -1.364721       -37.1359
  27   2.0000      -1.336624       -36.3714
  28   2.0000      -1.237204       -33.6660
  29   2.0000      -1.158789       -31.5322
  30   2.0000      -1.123692       -30.5772
  31   2.0000      -1.047337       -28.4995
  32   2.0000      -1.040329       -28.3088
  33   2.0000      -1.016686       -27.6654
  34   2.0000      -1.003359       -27.3028
  35   2.0000      -0.986825       -26.8529
  36   2.0000      -0.926206       -25.2033
  37   2.0000      -0.882850       -24.0236
  38   2.0000      -0.852319       -23.1928
  39   2.0000      -0.839465       -22.8430
  40   2.0000      -0.835129       -22.7250
  41   2.0000      -0.834521       -22.7085
  42   2.0000      -0.759908       -20.6781
  43   2.0000      -0.736364       -20.0375
  44   2.0000      -0.729911       -19.8619
  45   2.0000      -0.696751       -18.9595
  46   2.0000      -0.691073       -18.8050
  47   2.0000      -0.683914       -18.6102
  48   2.0000      -0.676497       -18.4084
  49   2.0000      -0.662465       -18.0266
  50   2.0000      -0.653048       -17.7703
  51   2.0000      -0.642362       -17.4796
  52   2.0000      -0.637203       -17.3392
  53   2.0000      -0.618744       -16.8369
  54   2.0000      -0.610643       -16.6164
  55   2.0000      -0.605454       -16.4752
  56   2.0000      -0.601734       -16.3740
  57   2.0000      -0.587742       -15.9933
  58   2.0000      -0.576372       -15.6839
  59   2.0000      -0.565500       -15.3881
  60   2.0000      -0.561294       -15.2736
  61   2.0000      -0.553148       -15.0519
  62   2.0000      -0.537959       -14.6386
  63   2.0000      -0.531512       -14.4632
  64   2.0000      -0.520295       -14.1579
  65   2.0000      -0.512579       -13.9480
  66   2.0000      -0.500956       -13.6317
  67   2.0000      -0.500092       -13.6082
  68   2.0000      -0.490322       -13.3423
  69   2.0000      -0.466368       -12.6905
  70   2.0000      -0.459337       -12.4992
  71   2.0000      -0.453435       -12.3386
  72   2.0000      -0.354831        -9.6554
  73   2.0000      -0.349257        -9.5038
  74   2.0000      -0.326948        -8.8967
  75   2.0000      -0.321965        -8.7611
  76   2.0000      -0.315256        -8.5786
  77   0.0000       0.092010         2.5037
  78   0.0000       0.098157         2.6710
  79   0.0000       0.108459         2.9513
  80   0.0000       0.126399         3.4395
  81   0.0000       0.128867         3.5067

MULLIKEN ATOMIC CHARGES
-----------------------
   0 C :   -0.268838
   1 C :    0.010957
   2 O :   -0.304731
   3 C :    0.379206
   4 O :   -0.358548
   5 C :   -0.133770
   6 C :    0.113238
   7 C :   -0.321536
   8 N :   -0.133795
   9 C :    0.207159
  10 S :   -0.446048
  11 N :   -0.214287
  12 C :    0.039140
  13 C :    0.040496
  14 C :   -0.183828
  15 C :   -0.137135
  16 C :   -0.265800
  17 C :    0.296050
  18 O :   -0.363805
  19 C :   -0.258538
  20 H :    0.102211
  21 H :    0.088640
  22 H :    0.119209
  23 H :    0.109932
  24 H :    0.081417
  25 H :    0.117338
  26 H :    0.132710
  27 H :    0.122377
  28 H :    0.194088
  29 H :    0.198372
  30 H :    0.167619
  31 H :    0.159775
  32 H :    0.162038
  33 H :    0.132022
  34 H :    0.240972
  35 H :    0.175692
Sum of atomic charges:   -0.0000000

LOEWDIN ATOMIC CHARGES
----------------------
   0 C :    0.112712
   1 C :   -0.030997
   2 O :    0.327294
   3 C :   -0.425552
   4 O :    0.145042
   5 C :   -0.078261
   6 C :   -0.117421
   7 C :    0.121726
   8 N :    0.399123
   9 C :   -0.455322
  10 S :   -0.042125
  11 N :    0.397731
  12 C :   -0.040931
  13 C :   -0.039961
  14 C :    0.024240
  15 C :    0.045523
  16 C :   -0.001612
  17 C :   -0.194744
  18 O :    0.394954
  19 C :    0.026637
  20 H :   -0.025058
  21 H :   -0.026658
  22 H :   -0.022780
  23 H :   -0.033486
  24 H :   -0.038397
  25 H :   -0.011506
  26 H :   -0.010760
  27 H :   -0.017595
  28 H :   -0.059826
  29 H :   -0.063818
  30 H :   -0.002485
  31 H :   -0.023539
  32 H :   -0.019140
  33 H :   -0.035358
  34 H :   -0.153409
  35 H :   -0.024243

  Mayer bond orders larger than 0.100000
B(  0-C ,  1-C ) :   0.9824 B(  0-C , 20-H ) :   0.9812 B(  0-C , 21-H ) :   0.9764
B(  0-C , 22-H ) :   0.9710 B(  1-C ,  2-O ) :   0.9304 B(  1-C , 23-H ) :   0.9783
B(  1-C , 24-H ) :   0.9621 B(  2-O ,  3-C ) :   1.1007 B(  3-C ,  4-O ) :   2.1047
B(  3-C ,  5-C ) :   0.9295 B(  5-C ,  6-C ) :   1.7171 B(  5-C , 12-C ) :   0.9683
B(  6-C ,  7-C ) :   0.9436 B(  6-C ,  8-N ) :   1.1034 B(  7-C , 25-H ) :   0.9818
B(  7-C , 26-H ) :   0.9732 B(  7-C , 27-H ) :   0.9664 B(  8-N ,  9-C ) :   1.2023
B(  8-N , 28-H ) :   0.9542 B(  9-C , 10-S ) :   1.6052 B(  9-C , 11-N ) :   1.2847
B( 11-N , 12-C ) :   0.9944 B( 11-N , 29-H ) :   0.9481 B( 12-C , 13-C ) :   0.9462
B( 12-C , 30-H ) :   0.9988 B( 13-C , 14-C ) :   1.3816 B( 13-C , 19-C ) :   1.3543
B( 14-C , 15-C ) :   1.3972 B( 14-C , 31-H ) :   0.9654 B( 15-C , 16-C ) :   1.3602
B( 15-C , 32-H ) :   0.9707 B( 16-C , 17-C ) :   1.3343 B( 16-C , 33-H ) :   0.9849
B( 17-C , 18-O ) :   1.1028 B( 17-C , 19-C ) :   1.3676 B( 18-O , 34-H ) :   0.9797
B( 19-C , 35-H ) :   0.9562

MP2 TOTAL ENERGY:    -1274.316282799 Eh
FINAL SINGLE POINT ENERGY     -1274.316282799193

DIPOLE MOMENT
-------------
                                X             Y             Z
Electronic contribution:     10.26603       8.19102       6.59698
Nuclear contribution   :    -11.85105      -9.43622      -7.39336
                        -----------------------------------------
Total Dipole Moment    :     -1.58502      -1.24520      -0.79638
                        -----------------------------------------
Magnitude (a.u.)       :      2.16726
Magnitude (Debye)      :      5.50874

Rotational constants in cm-1:     0.012379     0.009130     0.006809
Rotational constants in MHz :   371.108630   273.708691   204.119790

                             ****ORCA TERMINATED NORMALLY****
TOTAL RUN TIME: 0 days 2 hours 8 minutes 54 seconds 185 msec
