                         Program Version 5.0.0 -  RELEASE  -
|  1> ! ri-mp2 cc-pvtz cc-pvtz/c TightSCF NoKeepInts
|  2>
|  3> %scf
|  4>   MaxCore 4096
|  5> end
|  6> *xyz  0  1
|  7>     C       15.0272651   13.4826955   16.7297318
|  8>     C       15.4270701   14.7809862   16.0096451
|  9>     O       16.3970447   15.4609855   16.8250414
| 10>     C       16.8985462   16.6486183   16.3792187
| 11>     O       16.5601535   17.1358260   15.3131789
| 12>     C       17.6164217   17.4084417   17.4546853
| 13>     C       17.5226058   18.7581452   17.5502446
| 14>     C       16.6485775   19.6784126   16.7244594
| 15>     N       18.2604670   19.4474474   18.5143585
| 16>     C       19.1959986   18.8798134   19.3361789
| 17>     S       20.0583113   19.7795398   20.4245800
| 18>     N       19.3669813   17.5227701   19.2248022
| 19>     C       18.5340880   16.6193990   18.4070526
| 20>     C       17.8239630   15.6383235   19.3330835
| 21>     C       18.3032838   14.3202323   19.4569371
| 22>     C       17.6909506   13.4159741   20.3400681
| 23>     C       16.5916172   13.8336613   21.1083436
| 24>     C       16.1152412   15.1467782   20.9909367
| 25>     O       15.0598748   15.5509946   21.7411287
| 26>     C       16.7282458   16.0468735   20.1129893
| 27>     H       14.5453567   13.7154628   17.6883225
| 28>     H       15.9033126   12.8534451   16.9260877
| 29>     H       14.3147189   12.9111143   16.1218321
| 30>     H       15.8672717   14.5340037   15.0340381
| 31>     H       14.5448153   15.4135815   15.8421937
| 32>     H       15.6730164   19.2191135   16.5206523
| 33>     H       17.1193278   19.8948280   15.7570639
| 34>     H       16.4509931   20.6314469   17.2294034
| 35>     H       18.1378581   20.4426246   18.6161706
| 36>     H       20.0258861   17.1309016   19.8852712
| 37>     H       19.2166776   16.0386995   17.7713175
| 38>     H       19.1588081   13.9956576   18.8709346
| 39>     H       18.0707007   12.3997966   20.4306913
| 40>     H       16.1176506   13.1405029   21.7956869
| 41>     H       14.8182346   14.8118298   22.3193295
| 42>     H       16.3556650   17.0630733   20.0483400
| 43> *
| 44>
| 45>                          ****END OF INPUT****

CARTESIAN COORDINATES (ANGSTROEM)
---------------------------------
  C     15.027265   13.482696   16.729732
  C     15.427070   14.780986   16.009645
  O     16.397045   15.460985   16.825041
  C     16.898546   16.648618   16.379219
  O     16.560153   17.135826   15.313179
  C     17.616422   17.408442   17.454685
  C     17.522606   18.758145   17.550245
  C     16.648577   19.678413   16.724459
  N     18.260467   19.447447   18.514359
  C     19.195999   18.879813   19.336179
  S     20.058311   19.779540   20.424580
  N     19.366981   17.522770   19.224802
  C     18.534088   16.619399   18.407053
  C     17.823963   15.638324   19.333084
  C     18.303284   14.320232   19.456937
  C     17.690951   13.415974   20.340068
  C     16.591617   13.833661   21.108344
  C     16.115241   15.146778   20.990937
  O     15.059875   15.550995   21.741129
  C     16.728246   16.046874   20.112989
  H     14.545357   13.715463   17.688323
  H     15.903313   12.853445   16.926088
  H     14.314719   12.911114   16.121832
  H     15.867272   14.534004   15.034038
  H     14.544815   15.413581   15.842194
  H     15.673016   19.219113   16.520652
  H     17.119328   19.894828   15.757064
  H     16.450993   20.631447   17.229403
  H     18.137858   20.442625   18.616171
  H     20.025886   17.130902   19.885271
  H     19.216678   16.038699   17.771317
  H     19.158808   13.995658   18.870935
  H     18.070701   12.399797   20.430691
  H     16.117651   13.140503   21.795687
  H     14.818235   14.811830   22.319329
  H     16.355665   17.063073   20.048340

 Total Charge           Charge          ....    0
 Multiplicity           Mult            ....    1
 Number of Electrons    NEL             ....  154
 Basis Dimension        Dim             ....  828

ORBITAL ENERGIES
----------------

  NO   OCC          E(Eh)            E(eV)
   0   2.0000     -91.887440     -2500.3844
   1   2.0000     -20.602664      -560.6270
   2   2.0000     -20.596354      -560.4553
   3   2.0000     -20.547019      -559.1128
   4   2.0000     -15.625897      -425.2023
   5   2.0000     -15.607707      -424.7073
   6   2.0000     -11.394479      -310.0596
   7   2.0000     -11.382806      -309.7419
   8   2.0000     -11.332009      -308.3596
   9   2.0000     -11.313099      -307.8451
  10   2.0000     -11.312083      -307.8174
  11   2.0000     -11.295365      -307.3625
  12   2.0000     -11.259895      -306.3973
  13   2.0000     -11.259817      -306.3952
  14   2.0000     -11.254790      -306.2584
  15   2.0000     -11.252566      -306.1979
  16   2.0000     -11.242100      -305.9131
  17   2.0000     -11.237617      -305.7911
  18   2.0000     -11.236341      -305.7564
  19   2.0000     -11.228510      -305.5433
  20   2.0000      -8.892499      -241.9772
  21   2.0000      -6.574077      -178.8897
  22   2.0000      -6.572069      -178.8351
  23   2.0000      -6.571489      -178.8193
  24   2.0000      -1.454745       -39.5856
  25   2.0000      -1.416257       -38.5383
  26   2.0000      -1.356559       -36.9139
  27   2.0000      -1.338410       -36.4200
  28   2.0000      -1.237722       -33.6801
  29   2.0000      -1.156457       -31.4688
  30   2.0000      -1.119995       -30.4766
  31   2.0000      -1.042357       -28.3640
  32   2.0000      -1.039581       -28.2884
  33   2.0000      -1.014338       -27.6015
  34   2.0000      -0.996663       -27.1206
  35   2.0000      -0.983044       -26.7500
  36   2.0000      -0.922771       -25.1099
  37   2.0000      -0.887155       -24.1407
  38   2.0000      -0.845796       -23.0153
  39   2.0000      -0.837153       -22.7801
  40   2.0000      -0.833128       -22.6706
  41   2.0000      -0.815858       -22.2006
  42   2.0000      -0.764610       -20.8061
  43   2.0000      -0.730870       -19.8880
  44   2.0000      -0.722563       -19.6619
  45   2.0000      -0.695598       -18.9282
  46   2.0000      -0.687357       -18.7039
  47   2.0000      -0.679388       -18.4871
  48   2.0000      -0.677201       -18.4276
  49   2.0000      -0.666234       -18.1291
  50   2.0000      -0.648135       -17.6367
  51   2.0000      -0.644992       -17.5511
  52   2.0000      -0.635028       -17.2800
  53   2.0000      -0.606717       -16.5096
  54   2.0000      -0.600521       -16.3410
  55   2.0000      -0.599064       -16.3014
  56   2.0000      -0.586878       -15.9698
  57   2.0000      -0.577229       -15.7072
  58   2.0000      -0.573312       -15.6006
  59   2.0000      -0.568752       -15.4765
  60   2.0000      -0.561128       -15.2691
  61   2.0000      -0.551801       -15.0153
  62   2.0000      -0.538145       -14.6437
  63   2.0000      -0.525522       -14.3002
  64   2.0000      -0.514035       -13.9876
  65   2.0000      -0.512696       -13.9512
  66   2.0000      -0.507917       -13.8211
  67   2.0000      -0.499205       -13.5841
  68   2.0000      -0.480625       -13.0785
  69   2.0000      -0.462646       -12.5892
  70   2.0000      -0.459315       -12.4986
  71   2.0000      -0.452883       -12.3236
  72   2.0000      -0.353582        -9.6215
  73   2.0000      -0.346774        -9.4362
  74   2.0000      -0.326985        -8.8977
  75   2.0000      -0.321113        -8.7379
  76   2.0000      -0.315382        -8.5820
  77   0.0000       0.081630         2.2213
  78   0.0000       0.108174         2.9436
  79   0.0000       0.121427         3.3042
  80   0.0000       0.131625         3.5817
  81   0.0000       0.137366         3.7379

MULLIKEN ATOMIC CHARGES
-----------------------
   0 C :   -0.261767
   1 C :    0.049040
   2 O :   -0.324968
   3 C :    0.398723
   4 O :   -0.422809
   5 C :   -0.194782
   6 C :    0.158425
   7 C :   -0.267430
   8 N :   -0.124669
   9 C :    0.219065
  10 S :   -0.443626
  11 N :   -0.209235
  12 C :    0.046878
  13 C :    0.097156
  14 C :   -0.200461
  15 C :   -0.127527
  16 C :   -0.281092
  17 C :    0.313439
  18 O :   -0.358327
  19 C :   -0.253266
  20 H :    0.099265
  21 H :    0.095740
  22 H :    0.094094
  23 H :    0.090719
  24 H :    0.088467
  25 H :    0.122870
  26 H :    0.133788
  27 H :    0.093812
  28 H :    0.196582
  29 H :    0.196348
  30 H :    0.142704
  31 H :    0.144245
  32 H :    0.160238
  33 H :    0.129112
  34 H :    0.240921
  35 H :    0.158328
Sum of atomic charges:   -0.0000000

LOEWDIN ATOMIC CHARGES
----------------------
   0 C :    0.109322
   1 C :   -0.018087
   2 O :    0.312736
   3 C :   -0.418036
   4 O :    0.104501
   5 C :   -0.088180
   6 C :   -0.069578
   7 C :    0.130138
   8 N :    0.405485
   9 C :   -0.453790
  10 S :   -0.038327
  11 N :    0.395411
  12 C :   -0.050374
  13 C :   -0.034746
  14 C :    0.008893
  15 C :    0.041416
  16 C :   -0.002419
  17 C :   -0.189255
  18 O :    0.394804
  19 C :    0.034159
  20 H :   -0.025403
  21 H :   -0.027071
  22 H :   -0.024807
  23 H :   -0.029945
  24 H :   -0.029189
  25 H :   -0.007216
  26 H :   -0.005229
  27 H :   -0.022203
  28 H :   -0.057185
  29 H :   -0.065257
  30 H :   -0.011971
  31 H :   -0.032448
  32 H :   -0.020991
  33 H :   -0.035759
  34 H :   -0.153909
  35 H :   -0.025491

  Mayer bond orders larger than 0.100000
B(  0-C ,  1-C ) :   0.9723 B(  0-C , 20-H ) :   0.9765 B(  0-C , 21-H ) :   0.9761
B(  0-C , 22-H ) :   0.9787 B(  1-C ,  2-O ) :   0.9117 B(  1-C , 23-H ) :   0.9802
B(  1-C , 24-H ) :   0.9765 B(  2-O ,  3-C ) :   1.1938 B(  3-C ,  4-O ) :   1.9859
B(  3-C ,  5-C ) :   1.0254 B(  5-C ,  6-C ) :   1.6768 B(  5-C , 12-C ) :   0.9719
B(  6-C ,  7-C ) :   0.9627 B(  6-C ,  8-N ) :   1.1562 B(  7-C , 25-H ) :   0.9688
B(  7-C , 26-H ) :   0.9595 B(  7-C , 27-H ) :   0.9865 B(  8-N ,  9-C ) :   1.1894
B(  8-N , 28-H ) :   0.9492 B(  9-C , 10-S ) :   1.6005 B(  9-C , 11-N ) :   1.3034
B( 11-N , 12-C ) :   0.9781 B( 11-N , 29-H ) :   0.9503 B( 12-C , 13-C ) :   0.9510
B( 12-C , 30-H ) :   1.0087 B( 13-C , 14-C ) :   1.3461 B( 13-C , 19-C ) :   1.3724
B( 14-C , 15-C ) :   1.3941 B( 14-C , 31-H ) :   0.9743 B( 15-C , 16-C ) :   1.3688
B( 15-C , 32-H ) :   0.9704 B( 16-C , 17-C ) :   1.3244 B( 16-C , 33-H ) :   0.9859
B( 17-C , 18-O ) :   1.1054 B( 17-C , 19-C ) :   1.3775 B( 18-O , 34-H ) :   0.9797
B( 19-C , 35-H ) :   0.9607

MP2 TOTAL ENERGY:    -1274.344489837 Eh
FINAL SINGLE POINT ENERGY     -1274.344489836909

DIPOLE MOMENT
-------------
                                X             Y             Z
Electronic contribution:     10.42840      10.32850       7.18220
Nuclear contribution   :    -11.66080     -12.02041      -7.58300
                        -----------------------------------------
Total Dipole Moment    :     -1.23239      -1.69191      -0.40079
                        -----------------------------------------
Magnitude (a.u.)       :      2.13120
Magnitude (Debye)      :      5.41707

Rotational constants in cm-1:     0.012090     0.008634     0.006006
Rotational constants in MHz :   362.439552   258.832930   180.049167

                             ****ORCA TERMINATED NORMALLY****
TOTAL RUN TIME: 0 days 2 hours 0 minutes 18 seconds 908 msec
