                         Program Version 5.0.0 -  RELEASE  -
|  1> ! ri-mp2 cc-pvtz cc-pvtz/c TightSCF NoKeepInts
|  2>
|  3> %scf
|  4>   MaxCore 4096
|  5> end
|  6> *xyz  0  1
|  7>     C       15.0271754   14.0380198   15.7973235
|  8>     C       16.0494848   14.2311933   16.9360301
|  9>     O       17.1078871   15.1292142   16.5393949
| 10>     C       16.8693126   16.4693959   16.4066251
| 11>     O       15.9740947   16.9001748   15.7022011
| 12>     C       17.5945071   17.2934669   17.4376141
| 13>     C       17.4458931   18.6405262   17.5265420
| 14>     C       16.5625639   19.5265580   16.6739947
| 15>     N       18.1879681   19.3681049   18.4618877
| 16>     C       19.1868890   18.8507181   19.2422582
| 17>     S       20.0999353   19.8017153   20.2410917
| 18>     N       19.3984033   17.4992422   19.1470557
| 19>     C       18.5435053   16.5585334   18.4010003
| 20>     C       17.7969603   15.6649899   19.3870288
| 21>     C       18.1831302   14.3225307   19.5609166
| 22>     C       17.4936530   13.4908959   20.4592469
| 23>     C       16.4127707   14.0068819   21.1942702
| 24>     C       16.0321204   15.3459184   21.0315209
| 25>     O       14.9903311   15.8477136   21.7408894
| 26>     C       16.7185715   16.1705144   20.1349564
| 27>     H       14.3945714   14.9249538   15.6721251
| 28>     H       14.3679498   13.1898610   16.0172731
| 29>     H       15.5374973   13.8378612   14.8470237
| 30>     H       15.5432592   14.6043579   17.8364445
| 31>     H       16.4905551   13.2563674   17.1801287
| 32>     H       15.5072896   19.2514045   16.7979047
| 33>     H       16.8079914   19.4085992   15.6108206
| 34>     H       16.6582829   20.5910817   16.9177912
| 35>     H       18.0496342   20.3630069   18.5405079
| 36>     H       20.1204982   17.1422701   19.7594168
| 37>     H       19.2052203   15.9253164   17.7931244
| 38>     H       19.0173557   13.9204406   18.9918615
| 39>     H       17.7991266   12.4535011   20.5860667
| 40>     H       15.8783717   13.3691203   21.8909560
| 41>     H       14.6819270   15.1517712   22.3406858
| 42>     H       16.4123125   17.2057790   20.0300211
| 43> *
| 44>
| 45>                          ****END OF INPUT****

CARTESIAN COORDINATES (ANGSTROEM)
---------------------------------
  C     15.027175   14.038020   15.797323
  C     16.049485   14.231193   16.936030
  O     17.107887   15.129214   16.539395
  C     16.869313   16.469396   16.406625
  O     15.974095   16.900175   15.702201
  C     17.594507   17.293467   17.437614
  C     17.445893   18.640526   17.526542
  C     16.562564   19.526558   16.673995
  N     18.187968   19.368105   18.461888
  C     19.186889   18.850718   19.242258
  S     20.099935   19.801715   20.241092
  N     19.398403   17.499242   19.147056
  C     18.543505   16.558533   18.401000
  C     17.796960   15.664990   19.387029
  C     18.183130   14.322531   19.560917
  C     17.493653   13.490896   20.459247
  C     16.412771   14.006882   21.194270
  C     16.032120   15.345918   21.031521
  O     14.990331   15.847714   21.740889
  C     16.718571   16.170514   20.134956
  H     14.394571   14.924954   15.672125
  H     14.367950   13.189861   16.017273
  H     15.537497   13.837861   14.847024
  H     15.543259   14.604358   17.836444
  H     16.490555   13.256367   17.180129
  H     15.507290   19.251404   16.797905
  H     16.807991   19.408599   15.610821
  H     16.658283   20.591082   16.917791
  H     18.049634   20.363007   18.540508
  H     20.120498   17.142270   19.759417
  H     19.205220   15.925316   17.793124
  H     19.017356   13.920441   18.991861
  H     17.799127   12.453501   20.586067
  H     15.878372   13.369120   21.890956
  H     14.681927   15.151771   22.340686
  H     16.412312   17.205779   20.030021

 Total Charge           Charge          ....    0
 Multiplicity           Mult            ....    1
 Number of Electrons    NEL             ....  154
 Basis Dimension        Dim             ....  828

ORBITAL ENERGIES
----------------

  NO   OCC          E(Eh)            E(eV)
   0   2.0000     -91.889888     -2500.4510
   1   2.0000     -20.600640      -560.5719
   2   2.0000     -20.586077      -560.1756
   3   2.0000     -20.546307      -559.0934
   4   2.0000     -15.630268      -425.3212
   5   2.0000     -15.609203      -424.7480
   6   2.0000     -11.394898      -310.0709
   7   2.0000     -11.384835      -309.7971
   8   2.0000     -11.336876      -308.4921
   9   2.0000     -11.318340      -307.9877
  10   2.0000     -11.310534      -307.7753
  11   2.0000     -11.297121      -307.4103
  12   2.0000     -11.263249      -306.4886
  13   2.0000     -11.259668      -306.3911
  14   2.0000     -11.258938      -306.3713
  15   2.0000     -11.253116      -306.2129
  16   2.0000     -11.247289      -306.0543
  17   2.0000     -11.242101      -305.9131
  18   2.0000     -11.241868      -305.9068
  19   2.0000     -11.215962      -305.2019
  20   2.0000      -8.894944      -242.0437
  21   2.0000      -6.576516      -178.9561
  22   2.0000      -6.574514      -178.9016
  23   2.0000      -6.573924      -178.8856
  24   2.0000      -1.445901       -39.3450
  25   2.0000      -1.420326       -38.6490
  26   2.0000      -1.353915       -36.8419
  27   2.0000      -1.341346       -36.4999
  28   2.0000      -1.239895       -33.7393
  29   2.0000      -1.161210       -31.5981
  30   2.0000      -1.120987       -30.5036
  31   2.0000      -1.045218       -28.4418
  32   2.0000      -1.030870       -28.0514
  33   2.0000      -1.019351       -27.7379
  34   2.0000      -0.996362       -27.1124
  35   2.0000      -0.984796       -26.7977
  36   2.0000      -0.924516       -25.1574
  37   2.0000      -0.886659       -24.1272
  38   2.0000      -0.848920       -23.1003
  39   2.0000      -0.841478       -22.8978
  40   2.0000      -0.837722       -22.7956
  41   2.0000      -0.824256       -22.4292
  42   2.0000      -0.752115       -20.4661
  43   2.0000      -0.734271       -19.9805
  44   2.0000      -0.719933       -19.5904
  45   2.0000      -0.699378       -19.0310
  46   2.0000      -0.690223       -18.7819
  47   2.0000      -0.679749       -18.4969
  48   2.0000      -0.669420       -18.2158
  49   2.0000      -0.658693       -17.9239
  50   2.0000      -0.649500       -17.6738
  51   2.0000      -0.647181       -17.6107
  52   2.0000      -0.636699       -17.3255
  53   2.0000      -0.611116       -16.6293
  54   2.0000      -0.604761       -16.4564
  55   2.0000      -0.600938       -16.3523
  56   2.0000      -0.593090       -16.1388
  57   2.0000      -0.581921       -15.8349
  58   2.0000      -0.575964       -15.6728
  59   2.0000      -0.571341       -15.5470
  60   2.0000      -0.564237       -15.3537
  61   2.0000      -0.539688       -14.6857
  62   2.0000      -0.534698       -14.5499
  63   2.0000      -0.527899       -14.3649
  64   2.0000      -0.517792       -14.0898
  65   2.0000      -0.514117       -13.9898
  66   2.0000      -0.503307       -13.6957
  67   2.0000      -0.497339       -13.5333
  68   2.0000      -0.484289       -13.1782
  69   2.0000      -0.463542       -12.6136
  70   2.0000      -0.455687       -12.3999
  71   2.0000      -0.440484       -11.9862
  72   2.0000      -0.355658        -9.6779
  73   2.0000      -0.353267        -9.6129
  74   2.0000      -0.329785        -8.9739
  75   2.0000      -0.325578        -8.8594
  76   2.0000      -0.317285        -8.6338
  77   0.0000       0.071379         1.9423
  78   0.0000       0.101548         2.7633
  79   0.0000       0.123302         3.3552
  80   0.0000       0.129943         3.5359
  81   0.0000       0.134583         3.6622

MULLIKEN ATOMIC CHARGES
-----------------------
   0 C :   -0.272932
   1 C :    0.031660
   2 O :   -0.385719
   3 C :    0.489082
   4 O :   -0.416715
   5 C :   -0.256592
   6 C :    0.161089
   7 C :   -0.270171
   8 N :   -0.123280
   9 C :    0.214169
  10 S :   -0.439361
  11 N :   -0.206241
  12 C :    0.066671
  13 C :    0.029135
  14 C :   -0.167924
  15 C :   -0.130989
  16 C :   -0.277918
  17 C :    0.312740
  18 O :   -0.356205
  19 C :   -0.258198
  20 H :    0.112993
  21 H :    0.089213
  22 H :    0.096969
  23 H :    0.097935
  24 H :    0.104915
  25 H :    0.130827
  26 H :    0.131900
  27 H :    0.095478
  28 H :    0.197665
  29 H :    0.194578
  30 H :    0.150344
  31 H :    0.148472
  32 H :    0.163549
  33 H :    0.133024
  34 H :    0.241578
  35 H :    0.168259
Sum of atomic charges:   -0.0000000

LOEWDIN ATOMIC CHARGES
----------------------
   0 C :    0.104733
   1 C :   -0.018699
   2 O :    0.287473
   3 C :   -0.414260
   4 O :    0.117694
   5 C :   -0.097649
   6 C :   -0.058217
   7 C :    0.131173
   8 N :    0.406907
   9 C :   -0.456217
  10 S :   -0.034683
  11 N :    0.396217
  12 C :   -0.052632
  13 C :   -0.037653
  14 C :    0.015760
  15 C :    0.041044
  16 C :   -0.002156
  17 C :   -0.190745
  18 O :    0.396365
  19 C :    0.029905
  20 H :   -0.028285
  21 H :   -0.030856
  22 H :   -0.025593
  23 H :   -0.030131
  24 H :   -0.024395
  25 H :   -0.005098
  26 H :   -0.003636
  27 H :   -0.023256
  28 H :   -0.057411
  29 H :   -0.064942
  30 H :   -0.009195
  31 H :   -0.029465
  32 H :   -0.020328
  33 H :   -0.034768
  34 H :   -0.152939
  35 H :   -0.024064

  Mayer bond orders larger than 0.100000
B(  0-C ,  1-C ) :   0.9849 B(  0-C , 20-H ) :   0.9719 B(  0-C , 21-H ) :   0.9773
B(  0-C , 22-H ) :   0.9774 B(  1-C ,  2-O ) :   0.8823 B(  1-C , 23-H ) :   0.9669
B(  1-C , 24-H ) :   0.9807 B(  2-O ,  3-C ) :   1.0918 B(  3-C ,  4-O ) :   1.9943
B(  3-C ,  5-C ) :   1.0779 B(  5-C ,  6-C ) :   1.6485 B(  5-C , 12-C ) :   0.9707
B(  6-C ,  7-C ) :   0.9668 B(  6-C ,  8-N ) :   1.1610 B(  7-C , 25-H ) :   0.9600
B(  7-C , 26-H ) :   0.9600 B(  7-C , 27-H ) :   0.9906 B(  8-N ,  9-C ) :   1.1819
B(  8-N , 28-H ) :   0.9476 B(  9-C , 10-S ) :   1.6068 B(  9-C , 11-N ) :   1.3069
B( 11-N , 12-C ) :   0.9747 B( 11-N , 29-H ) :   0.9521 B( 12-C , 13-C ) :   0.9419
B( 12-C , 30-H ) :   1.0010 B( 13-C , 14-C ) :   1.3478 B( 13-C , 19-C ) :   1.3804
B( 14-C , 15-C ) :   1.3893 B( 14-C , 31-H ) :   0.9764 B( 15-C , 16-C ) :   1.3646
B( 15-C , 32-H ) :   0.9699 B( 16-C , 17-C ) :   1.3293 B( 16-C , 33-H ) :   0.9840
B( 17-C , 18-O ) :   1.1134 B( 17-C , 19-C ) :   1.3703 B( 18-O , 34-H ) :   0.9791
B( 19-C , 35-H ) :   0.9578

MP2 TOTAL ENERGY:    -1274.334885160 Eh
FINAL SINGLE POINT ENERGY     -1274.334885160287

DIPOLE MOMENT
-------------
                                X             Y             Z
Electronic contribution:     10.50636       9.80057       7.50247
Nuclear contribution   :    -11.48350     -11.38134      -7.46341
                        -----------------------------------------
Total Dipole Moment    :     -0.97714      -1.58077       0.03906
                        -----------------------------------------
Magnitude (a.u.)       :      1.85880
Magnitude (Debye)      :      4.72470

Rotational constants in cm-1:     0.012187     0.008798     0.006286
Rotational constants in MHz :   365.355617   263.761575   188.462285

                             ****ORCA TERMINATED NORMALLY****
TOTAL RUN TIME: 0 days 1 hours 33 minutes 3 seconds 58 msec
