                         Program Version 5.0.0 -  RELEASE  -
|  1> ! ri-mp2 cc-pvtz cc-pvtz/c TightSCF NoKeepInts
|  2>
|  3> %scf
|  4>   MaxCore 4096
|  5> end
|  6> *xyz  0  1
|  7>     C       14.8840465   14.5312593   17.3671822
|  8>     C       15.5425373   15.6064336   16.4872553
|  9>     O       16.8568203   15.1187828   16.1473774
| 10>     C       18.0615167   15.6938684   16.4759107
| 11>     O       19.0723815   15.0200874   16.4025425
| 12>     C       18.0242552   16.8893208   17.3711016
| 13>     C       17.5420000   18.0862924   16.9631665
| 14>     C       16.9741785   18.4210109   15.5999830
| 15>     N       17.6110774   19.1916136   17.8136860
| 16>     C       18.2558255   19.2032079   19.0234070
| 17>     S       18.3532614   20.5750684   19.9412114
| 18>     N       18.8145081   18.0181354   19.4363603
| 19>     C       18.6788462   16.7219893   18.7411502
| 20>     C       17.9060112   15.7135194   19.5854476
| 21>     C       18.3349015   14.3752404   19.6508587
| 22>     C       17.6260835   13.4320557   20.4133674
| 23>     C       16.4754623   13.8286347   21.1157809
| 24>     C       16.0394189   15.1585955   21.0465431
| 25>     O       14.9194477   15.5411428   21.7096531
| 26>     C       16.7455016   16.0952464   20.2848007
| 27>     H       15.4861270   14.3407541   18.2633009
| 28>     H       14.7870776   13.5879407   16.8153732
| 29>     H       13.8839642   14.8489398   17.6858564
| 30>     H       14.9496682   15.7516925   15.5749878
| 31>     H       15.5535504   16.5454540   17.0479910
| 32>     H       17.1355350   17.6166303   14.8717326
| 33>     H       17.4540740   19.3176644   15.1869789
| 34>     H       15.8956618   18.6125856   15.6564517
| 35>     H       17.2230957   20.0750691   17.5217882
| 36>     H       19.2674339   18.0520950   20.3410305
| 37>     H       19.6915695   16.3235802   18.5795342
| 38>     H       19.2160263   14.0619477   19.0944492
| 39>     H       17.9672244   12.3988473   20.4519195
| 40>     H       15.9240181   13.1022296   21.7035781
| 41>     H       14.6077892   14.7770613   22.2180893
| 42>     H       16.3861034   17.1180033   20.2441526
| 43> *
| 44>
| 45>                          ****END OF INPUT****

CARTESIAN COORDINATES (ANGSTROEM)
---------------------------------
  C     14.884047   14.531259   17.367182
  C     15.542537   15.606434   16.487255
  O     16.856820   15.118783   16.147377
  C     18.061517   15.693868   16.475911
  O     19.072381   15.020087   16.402542
  C     18.024255   16.889321   17.371102
  C     17.542000   18.086292   16.963166
  C     16.974178   18.421011   15.599983
  N     17.611077   19.191614   17.813686
  C     18.255826   19.203208   19.023407
  S     18.353261   20.575068   19.941211
  N     18.814508   18.018135   19.436360
  C     18.678846   16.721989   18.741150
  C     17.906011   15.713519   19.585448
  C     18.334902   14.375240   19.650859
  C     17.626084   13.432056   20.413367
  C     16.475462   13.828635   21.115781
  C     16.039419   15.158595   21.046543
  O     14.919448   15.541143   21.709653
  C     16.745502   16.095246   20.284801
  H     15.486127   14.340754   18.263301
  H     14.787078   13.587941   16.815373
  H     13.883964   14.848940   17.685856
  H     14.949668   15.751693   15.574988
  H     15.553550   16.545454   17.047991
  H     17.135535   17.616630   14.871733
  H     17.454074   19.317664   15.186979
  H     15.895662   18.612586   15.656452
  H     17.223096   20.075069   17.521788
  H     19.267434   18.052095   20.341030
  H     19.691569   16.323580   18.579534
  H     19.216026   14.061948   19.094449
  H     17.967224   12.398847   20.451919
  H     15.924018   13.102230   21.703578
  H     14.607789   14.777061   22.218089
  H     16.386103   17.118003   20.244153

 Total Charge           Charge          ....    0
 Multiplicity           Mult            ....    1
 Number of Electrons    NEL             ....  154
 Basis Dimension        Dim             ....  828

ORBITAL ENERGIES
----------------

  NO   OCC          E(Eh)            E(eV)
   0   2.0000     -91.890564     -2500.4694
   1   2.0000     -20.602053      -560.6104
   2   2.0000     -20.599815      -560.5495
   3   2.0000     -20.548668      -559.1577
   4   2.0000     -15.627931      -425.2576
   5   2.0000     -15.611986      -424.8237
   6   2.0000     -11.398827      -310.1779
   7   2.0000     -11.387298      -309.8641
   8   2.0000     -11.330458      -308.3174
   9   2.0000     -11.316768      -307.9449
  10   2.0000     -11.315031      -307.8977
  11   2.0000     -11.304349      -307.6070
  12   2.0000     -11.270725      -306.6920
  13   2.0000     -11.265887      -306.5604
  14   2.0000     -11.263896      -306.5062
  15   2.0000     -11.257093      -306.3211
  16   2.0000     -11.246084      -306.0215
  17   2.0000     -11.242286      -305.9181
  18   2.0000     -11.239342      -305.8380
  19   2.0000     -11.226029      -305.4758
  20   2.0000      -8.895671      -242.0635
  21   2.0000      -6.577258      -178.9763
  22   2.0000      -6.575233      -178.9212
  23   2.0000      -6.574656      -178.9055
  24   2.0000      -1.447527       -39.3892
  25   2.0000      -1.419595       -38.6291
  26   2.0000      -1.358634       -36.9703
  27   2.0000      -1.341114       -36.4936
  28   2.0000      -1.240591       -33.7582
  29   2.0000      -1.161592       -31.6085
  30   2.0000      -1.126474       -30.6529
  31   2.0000      -1.049530       -28.5592
  32   2.0000      -1.038122       -28.2487
  33   2.0000      -1.019095       -27.7310
  34   2.0000      -1.005924       -27.3726
  35   2.0000      -0.990084       -26.9415
  36   2.0000      -0.928467       -25.2649
  37   2.0000      -0.884423       -24.0664
  38   2.0000      -0.855443       -23.2778
  39   2.0000      -0.842209       -22.9177
  40   2.0000      -0.837090       -22.7784
  41   2.0000      -0.835384       -22.7319
  42   2.0000      -0.755403       -20.5556
  43   2.0000      -0.740881       -20.1604
  44   2.0000      -0.731489       -19.9048
  45   2.0000      -0.697970       -18.9927
  46   2.0000      -0.689227       -18.7548
  47   2.0000      -0.681792       -18.5525
  48   2.0000      -0.676972       -18.4214
  49   2.0000      -0.661528       -18.0011
  50   2.0000      -0.655416       -17.8348
  51   2.0000      -0.644724       -17.5438
  52   2.0000      -0.640085       -17.4176
  53   2.0000      -0.614002       -16.7079
  54   2.0000      -0.608436       -16.5564
  55   2.0000      -0.608194       -16.5498
  56   2.0000      -0.602064       -16.3830
  57   2.0000      -0.586173       -15.9506
  58   2.0000      -0.578764       -15.7490
  59   2.0000      -0.568867       -15.4796
  60   2.0000      -0.561445       -15.2777
  61   2.0000      -0.555965       -15.1286
  62   2.0000      -0.546047       -14.8587
  63   2.0000      -0.531256       -14.4562
  64   2.0000      -0.519600       -14.1390
  65   2.0000      -0.513882       -13.9834
  66   2.0000      -0.503441       -13.6993
  67   2.0000      -0.502121       -13.6634
  68   2.0000      -0.486747       -13.2451
  69   2.0000      -0.471068       -12.8184
  70   2.0000      -0.451936       -12.2978
  71   2.0000      -0.449399       -12.2288
  72   2.0000      -0.357930        -9.7398
  73   2.0000      -0.352498        -9.5920
  74   2.0000      -0.330183        -8.9847
  75   2.0000      -0.324832        -8.8391
  76   2.0000      -0.318968        -8.6796
  77   0.0000       0.084524         2.3000
  78   0.0000       0.104513         2.8440
  79   0.0000       0.111360         3.0302
  80   0.0000       0.128117         3.4862
  81   0.0000       0.132720         3.6115

MULLIKEN ATOMIC CHARGES
-----------------------
   0 C :   -0.263145
   1 C :    0.015979
   2 O :   -0.312699
   3 C :    0.397161
   4 O :   -0.384644
   5 C :   -0.179125
   6 C :    0.127693
   7 C :   -0.322155
   8 N :   -0.136475
   9 C :    0.202939
  10 S :   -0.439913
  11 N :   -0.214454
  12 C :    0.066175
  13 C :    0.015700
  14 C :   -0.195796
  15 C :   -0.130517
  16 C :   -0.275581
  17 C :    0.307751
  18 O :   -0.360013
  19 C :   -0.256420
  20 H :    0.109344
  21 H :    0.106432
  22 H :    0.089409
  23 H :    0.110723
  24 H :    0.091533
  25 H :    0.125925
  26 H :    0.137446
  27 H :    0.122582
  28 H :    0.196822
  29 H :    0.198779
  30 H :    0.165927
  31 H :    0.169920
  32 H :    0.163568
  33 H :    0.132158
  34 H :    0.241624
  35 H :    0.175346
Sum of atomic charges:    0.0000000

LOEWDIN ATOMIC CHARGES
----------------------
   0 C :    0.109561
   1 C :   -0.021736
   2 O :    0.311749
   3 C :   -0.417660
   4 O :    0.121903
   5 C :   -0.082584
   6 C :   -0.103881
   7 C :    0.125465
   8 N :    0.401340
   9 C :   -0.456537
  10 S :   -0.037091
  11 N :    0.397643
  12 C :   -0.043875
  13 C :   -0.043583
  14 C :    0.021980
  15 C :    0.045179
  16 C :   -0.000989
  17 C :   -0.193457
  18 O :    0.395602
  19 C :    0.026503
  20 H :   -0.023216
  21 H :   -0.025743
  22 H :   -0.026632
  23 H :   -0.030552
  24 H :   -0.040331
  25 H :   -0.007634
  26 H :   -0.009746
  27 H :   -0.016419
  28 H :   -0.057784
  29 H :   -0.063469
  30 H :   -0.001999
  31 H :   -0.021513
  32 H :   -0.018329
  33 H :   -0.034729
  34 H :   -0.152915
  35 H :   -0.024522

  Mayer bond orders larger than 0.100000
B(  0-C ,  1-C ) :   0.9783 B(  0-C , 20-H ) :   0.9699 B(  0-C , 21-H ) :   0.9818
B(  0-C , 22-H ) :   0.9751 B(  1-C ,  2-O ) :   0.9085 B(  1-C , 23-H ) :   0.9795
B(  1-C , 24-H ) :   0.9618 B(  2-O ,  3-C ) :   1.1842 B(  3-C ,  4-O ) :   2.0873
B(  3-C ,  5-C ) :   0.9259 B(  5-C ,  6-C ) :   1.6886 B(  5-C , 12-C ) :   0.9584
B(  6-C ,  7-C ) :   0.9476 B(  6-C ,  8-N ) :   1.1125 B(  7-C , 25-H ) :   0.9795
B(  7-C , 26-H ) :   0.9721 B(  7-C , 27-H ) :   0.9651 B(  8-N ,  9-C ) :   1.1937
B(  8-N , 28-H ) :   0.9519 B(  9-C , 10-S ) :   1.6119 B(  9-C , 11-N ) :   1.2883
B( 11-N , 12-C ) :   0.9961 B( 11-N , 29-H ) :   0.9490 B( 12-C , 13-C ) :   0.9451
B( 12-C , 30-H ) :   0.9960 B( 13-C , 14-C ) :   1.3894 B( 13-C , 19-C ) :   1.3532
B( 14-C , 15-C ) :   1.3953 B( 14-C , 31-H ) :   0.9602 B( 15-C , 16-C ) :   1.3601
B( 15-C , 32-H ) :   0.9708 B( 16-C , 17-C ) :   1.3312 B( 16-C , 33-H ) :   0.9853
B( 17-C , 18-O ) :   1.1086 B( 17-C , 19-C ) :   1.3704 B( 18-O , 34-H ) :   0.9791
B( 19-C , 35-H ) :   0.9561

MP2 TOTAL ENERGY:    -1274.333209739 Eh
FINAL SINGLE POINT ENERGY     -1274.333209738802

DIPOLE MOMENT
-------------
                                X             Y             Z
Electronic contribution:     10.06738       7.97473       6.00821
Nuclear contribution   :    -11.61605      -8.90614      -6.49393
                        -----------------------------------------
Total Dipole Moment    :     -1.54868      -0.93141      -0.48571
                        -----------------------------------------
Magnitude (a.u.)       :      1.87132
Magnitude (Debye)      :      4.75652

Rotational constants in cm-1:     0.012244     0.009233     0.006839
Rotational constants in MHz :   367.054480   276.797047   205.030539

                             ****ORCA TERMINATED NORMALLY****
TOTAL RUN TIME: 0 days 1 hours 43 minutes 52 seconds 968 msec
