                         Program Version 5.0.0 -  RELEASE  -
|  1> ! ri-mp2 cc-pvtz cc-pvtz/c TightSCF NoKeepInts
|  2>
|  3> %scf
|  4>   MaxCore 4096
|  5> end
|  6> *xyz  0  1
|  7>     C       14.4990632   15.9649311   16.7626667
|  8>     C       15.6837327   14.9886287   16.8672941
|  9>     O       16.7160066   15.3483724   15.9255085
| 10>     C       17.9444498   15.7597356   16.3680270
| 11>     O       18.8777441   14.9786208   16.3340877
| 12>     C       17.9085207   16.8731891   17.3668383
| 13>     C       17.2873617   18.0519825   17.1207777
| 14>     C       16.5891469   18.4833105   15.8469822
| 15>     N       17.3659176   19.0870234   18.0554838
| 16>     C       18.1632359   19.0727356   19.1700655
| 17>     S       18.2792988   20.3822873   20.1728915
| 18>     N       18.8635477   17.9164655   19.4104307
| 19>     C       18.7121101   16.6585273   18.6526440
| 20>     C       18.0796255   15.5710768   19.5161553
| 21>     C       18.5934741   14.2616054   19.4920958
| 22>     C       18.0026123   13.2453230   20.2610467
| 23>     C       16.8855282   13.5388534   21.0612169
| 24>     C       16.3669271   14.8403173   21.0851550
| 25>     O       15.2798907   15.1243274   21.8453745
| 26>     C       16.9560551   15.8498531   20.3173851
| 27>     H       14.7157022   16.9033962   17.2833218
| 28>     H       13.6090293   15.5281847   17.2321110
| 29>     H       14.2596797   16.1814415   15.7140399
| 30>     H       16.0581464   14.9438112   17.8964041
| 31>     H       15.3263845   13.9827678   16.6110048
| 32>     H       16.5863314   17.7051109   15.0758025
| 33>     H       17.0919761   19.3549916   15.4092551
| 34>     H       15.5460658   18.7616436   16.0386610
| 35>     H       16.8760256   19.9514099   17.8855405
| 36>     H       19.4302703   17.9277432   20.2490490
| 37>     H       19.7190395   16.3213884   18.3652053
| 38>     H       19.4473533   14.0272511   18.8596195
| 39>     H       18.4087748   12.2355760   20.2297495
| 40>     H       16.4251810   12.7558993   21.6549388
| 41>     H       15.0592761   14.3255481   22.3481649
| 42>     H       16.5335153   16.8486703   20.3490053
| 43> *
| 44>
| 45>                          ****END OF INPUT****

CARTESIAN COORDINATES (ANGSTROEM)
---------------------------------
  C     14.499063   15.964931   16.762667
  C     15.683733   14.988629   16.867294
  O     16.716007   15.348372   15.925508
  C     17.944450   15.759736   16.368027
  O     18.877744   14.978621   16.334088
  C     17.908521   16.873189   17.366838
  C     17.287362   18.051982   17.120778
  C     16.589147   18.483311   15.846982
  N     17.365918   19.087023   18.055484
  C     18.163236   19.072736   19.170065
  S     18.279299   20.382287   20.172891
  N     18.863548   17.916466   19.410431
  C     18.712110   16.658527   18.652644
  C     18.079625   15.571077   19.516155
  C     18.593474   14.261605   19.492096
  C     18.002612   13.245323   20.261047
  C     16.885528   13.538853   21.061217
  C     16.366927   14.840317   21.085155
  O     15.279891   15.124327   21.845374
  C     16.956055   15.849853   20.317385
  H     14.715702   16.903396   17.283322
  H     13.609029   15.528185   17.232111
  H     14.259680   16.181441   15.714040
  H     16.058146   14.943811   17.896404
  H     15.326384   13.982768   16.611005
  H     16.586331   17.705111   15.075802
  H     17.091976   19.354992   15.409255
  H     15.546066   18.761644   16.038661
  H     16.876026   19.951410   17.885541
  H     19.430270   17.927743   20.249049
  H     19.719039   16.321388   18.365205
  H     19.447353   14.027251   18.859620
  H     18.408775   12.235576   20.229750
  H     16.425181   12.755899   21.654939
  H     15.059276   14.325548   22.348165
  H     16.533515   16.848670   20.349005

 Total Charge           Charge          ....    0
 Multiplicity           Mult            ....    1
 Number of Electrons    NEL             ....  154
 Basis Dimension        Dim             ....  828

ORBITAL ENERGIES
----------------

  NO   OCC          E(Eh)            E(eV)
   0   2.0000     -91.890950     -2500.4799
   1   2.0000     -20.600078      -560.5566
   2   2.0000     -20.583228      -560.0981
   3   2.0000     -20.556244      -559.3638
   4   2.0000     -15.628906      -425.2841
   5   2.0000     -15.611364      -424.8068
   6   2.0000     -11.395793      -310.0953
   7   2.0000     -11.387125      -309.8594
   8   2.0000     -11.333752      -308.4071
   9   2.0000     -11.317333      -307.9603
  10   2.0000     -11.313632      -307.8596
  11   2.0000     -11.300446      -307.5008
  12   2.0000     -11.264589      -306.5250
  13   2.0000     -11.263664      -306.4999
  14   2.0000     -11.263275      -306.4893
  15   2.0000     -11.257391      -306.3292
  16   2.0000     -11.246777      -306.0404
  17   2.0000     -11.242407      -305.9214
  18   2.0000     -11.239300      -305.8369
  19   2.0000     -11.233143      -305.6694
  20   2.0000      -8.896033      -242.0734
  21   2.0000      -6.577614      -178.9860
  22   2.0000      -6.575598      -178.9311
  23   2.0000      -6.575015      -178.9152
  24   2.0000      -1.447778       -39.3960
  25   2.0000      -1.419918       -38.6379
  26   2.0000      -1.356429       -36.9103
  27   2.0000      -1.341816       -36.5127
  28   2.0000      -1.240766       -33.7630
  29   2.0000      -1.161342       -31.6017
  30   2.0000      -1.124676       -30.6040
  31   2.0000      -1.048176       -28.5223
  32   2.0000      -1.036510       -28.2049
  33   2.0000      -1.018954       -27.7272
  34   2.0000      -1.003994       -27.3201
  35   2.0000      -0.989522       -26.9263
  36   2.0000      -0.927545       -25.2398
  37   2.0000      -0.885895       -24.1064
  38   2.0000      -0.852212       -23.1899
  39   2.0000      -0.842567       -22.9274
  40   2.0000      -0.837173       -22.7806
  41   2.0000      -0.833115       -22.6702
  42   2.0000      -0.756390       -20.5824
  43   2.0000      -0.735858       -20.0237
  44   2.0000      -0.731559       -19.9067
  45   2.0000      -0.698222       -18.9996
  46   2.0000      -0.688728       -18.7413
  47   2.0000      -0.680621       -18.5207
  48   2.0000      -0.675595       -18.3839
  49   2.0000      -0.661875       -18.0105
  50   2.0000      -0.654121       -17.7995
  51   2.0000      -0.642348       -17.4792
  52   2.0000      -0.635029       -17.2800
  53   2.0000      -0.615422       -16.7465
  54   2.0000      -0.608860       -16.5679
  55   2.0000      -0.607380       -16.5276
  56   2.0000      -0.603593       -16.4246
  57   2.0000      -0.583534       -15.8788
  58   2.0000      -0.578359       -15.7379
  59   2.0000      -0.575442       -15.6586
  60   2.0000      -0.564750       -15.3676
  61   2.0000      -0.555602       -15.1187
  62   2.0000      -0.542376       -14.7588
  63   2.0000      -0.527305       -14.3487
  64   2.0000      -0.521474       -14.1900
  65   2.0000      -0.515122       -14.0172
  66   2.0000      -0.502896       -13.6845
  67   2.0000      -0.495378       -13.4799
  68   2.0000      -0.485318       -13.2062
  69   2.0000      -0.468147       -12.7389
  70   2.0000      -0.457324       -12.4444
  71   2.0000      -0.449256       -12.2249
  72   2.0000      -0.358755        -9.7622
  73   2.0000      -0.352097        -9.5811
  74   2.0000      -0.330427        -8.9914
  75   2.0000      -0.325116        -8.8468
  76   2.0000      -0.319740        -8.7006
  77   0.0000       0.077257         2.1023
  78   0.0000       0.101380         2.7587
  79   0.0000       0.117289         3.1916
  80   0.0000       0.128488         3.4963
  81   0.0000       0.130032         3.5384

MULLIKEN ATOMIC CHARGES
-----------------------
   0 C :   -0.300016
   1 C :    0.024483
   2 O :   -0.359587
   3 C :    0.440224
   4 O :   -0.374087
   5 C :   -0.187793
   6 C :    0.108312
   7 C :   -0.326959
   8 N :   -0.127858
   9 C :    0.193446
  10 S :   -0.437846
  11 N :   -0.209047
  12 C :    0.066290
  13 C :    0.005725
  14 C :   -0.179190
  15 C :   -0.138131
  16 C :   -0.273287
  17 C :    0.309962
  18 O :   -0.357263
  19 C :   -0.257593
  20 H :    0.087204
  21 H :    0.117366
  22 H :    0.105920
  23 H :    0.107708
  24 H :    0.123327
  25 H :    0.133780
  26 H :    0.143964
  27 H :    0.119453
  28 H :    0.197876
  29 H :    0.196868
  30 H :    0.163712
  31 H :    0.170100
  32 H :    0.163947
  33 H :    0.133466
  34 H :    0.241488
  35 H :    0.174035
Sum of atomic charges:   -0.0000000

LOEWDIN ATOMIC CHARGES
----------------------
   0 C :    0.105177
   1 C :   -0.012013
   2 O :    0.282074
   3 C :   -0.418208
   4 O :    0.135499
   5 C :   -0.087722
   6 C :   -0.088355
   7 C :    0.125312
   8 N :    0.403863
   9 C :   -0.457981
  10 S :   -0.035424
  11 N :    0.397061
  12 C :   -0.044180
  13 C :   -0.045466
  14 C :    0.020321
  15 C :    0.044415
  16 C :   -0.000512
  17 C :   -0.194660
  18 O :    0.395345
  19 C :    0.026201
  20 H :   -0.034969
  21 H :   -0.022186
  22 H :   -0.025732
  23 H :   -0.030511
  24 H :   -0.023182
  25 H :   -0.010821
  26 H :   -0.011088
  27 H :   -0.017433
  28 H :   -0.056323
  29 H :   -0.063659
  30 H :   -0.002790
  31 H :   -0.022105
  32 H :   -0.018481
  33 H :   -0.034443
  34 H :   -0.153004
  35 H :   -0.024019

  Mayer bond orders larger than 0.100000
B(  0-C ,  1-C ) :   0.9665 B(  0-C , 20-H ) :   0.9771 B(  0-C , 21-H ) :   0.9785
B(  0-C , 22-H ) :   0.9749 B(  1-C ,  2-O ) :   0.8916 B(  1-C , 23-H ) :   0.9629
B(  1-C , 24-H ) :   0.9873 B(  2-O ,  3-C ) :   1.1266 B(  3-C ,  4-O ) :   2.0839
B(  3-C ,  5-C ) :   0.9493 B(  5-C ,  6-C ) :   1.6712 B(  5-C , 12-C ) :   0.9554
B(  6-C ,  7-C ) :   0.9575 B(  6-C ,  8-N ) :   1.1144 B(  7-C , 25-H ) :   0.9742
B(  7-C , 26-H ) :   0.9682 B(  7-C , 27-H ) :   0.9649 B(  8-N ,  9-C ) :   1.1900
B(  8-N , 28-H ) :   0.9514 B(  9-C , 10-S ) :   1.6151 B(  9-C , 11-N ) :   1.2918
B( 11-N , 12-C ) :   0.9931 B( 11-N , 29-H ) :   0.9504 B( 12-C , 13-C ) :   0.9480
B( 12-C , 30-H ) :   0.9978 B( 13-C , 14-C ) :   1.3921 B( 13-C , 19-C ) :   1.3470
B( 14-C , 15-C ) :   1.3960 B( 14-C , 31-H ) :   0.9588 B( 15-C , 16-C ) :   1.3643
B( 15-C , 32-H ) :   0.9701 B( 16-C , 17-C ) :   1.3289 B( 16-C , 33-H ) :   0.9839
B( 17-C , 18-O ) :   1.1127 B( 17-C , 19-C ) :   1.3710 B( 18-O , 34-H ) :   0.9791
B( 19-C , 35-H ) :   0.9592

MP2 TOTAL ENERGY:    -1274.323820089 Eh
FINAL SINGLE POINT ENERGY     -1274.323820088560

DIPOLE MOMENT
-------------
                                X             Y             Z
Electronic contribution:     10.71823       5.64715       6.50120
Nuclear contribution   :    -12.02898      -6.79664      -6.81434
                        -----------------------------------------
Total Dipole Moment    :     -1.31075      -1.14949      -0.31313
                        -----------------------------------------
Magnitude (a.u.)       :      1.77129
Magnitude (Debye)      :      4.50225

Rotational constants in cm-1:     0.011663     0.009473     0.007004
Rotational constants in MHz :   349.635363   283.982904   209.989553

                             ****ORCA TERMINATED NORMALLY****
TOTAL RUN TIME: 0 days 2 hours 16 minutes 25 seconds 605 msec
