                         Program Version 5.0.0 -  RELEASE  -
|  1> ! ri-mp2 cc-pvtz cc-pvtz/c TightSCF NoKeepInts
|  2>
|  3> %scf
|  4>   MaxCore 4096
|  5> end
|  6> *xyz  0  1
|  7>     C       15.2122516   15.1622024   17.1384220
|  8>     C       16.2544496   14.2323337   16.4810313
|  9>     O       17.6089007   14.7478423   16.4729487
| 10>     C       17.8691260   16.0377470   16.1125419
| 11>     O       17.6040403   16.3860421   14.9760263
| 12>     C       17.8366550   16.9899908   17.2776724
| 13>     C       17.3912586   18.2684083   17.1729707
| 14>     C       16.7075812   18.9137081   15.9863579
| 15>     N       17.6175734   19.1706351   18.2172146
| 16>     C       18.4987295   18.9551456   19.2445220
| 17>     S       18.8899375   20.1413776   20.3282285
| 18>     N       19.0412065   17.6967034   19.3266946
| 19>     C       18.5606452   16.5319498   18.5580386
| 20>     C       17.7366108   15.6200621   19.4656226
| 21>     C       17.9998585   14.2373582   19.5061521
| 22>     C       17.2610449   13.3897499   20.3483350
| 23>     C       16.2550476   13.9285850   21.1676592
| 24>     C       15.9972192   15.3056437   21.1425354
| 25>     O       15.0251640   15.8288498   21.9309912
| 26>     C       16.7326499   16.1467789   20.3014745
| 27>     H       15.4053456   15.2932276   18.2041709
| 28>     H       14.2128312   14.7206936   17.0444315
| 29>     H       15.1805669   16.1443369   16.6537003
| 30>     H       16.2432801   13.2604003   16.9908443
| 31>     H       15.9458488   14.0584908   15.4414611
| 32>     H       17.4219572   19.0595409   15.1658755
| 33>     H       16.2676367   19.8886688   16.2264182
| 34>     H       15.9006393   18.2762342   15.6050521
| 35>     H       17.2396846   20.1028692   18.1593993
| 36>     H       19.6683364   17.5571061   20.1087187
| 37>     H       19.4487185   15.9660021   18.2430858
| 38>     H       18.7759712   13.8151701   18.8727921
| 39>     H       17.4710533   12.3216215   20.3658568
| 40>     H       15.6821062   13.2780926   21.8204014
| 41>     H       14.6698516   15.1093919   22.4742105
| 42>     H       16.5132222   17.2090401   20.3021420
| 43> *
| 44>
| 45>                          ****END OF INPUT****

CARTESIAN COORDINATES (ANGSTROEM)
---------------------------------
  C     15.212252   15.162202   17.138422
  C     16.254450   14.232334   16.481031
  O     17.608901   14.747842   16.472949
  C     17.869126   16.037747   16.112542
  O     17.604040   16.386042   14.976026
  C     17.836655   16.989991   17.277672
  C     17.391259   18.268408   17.172971
  C     16.707581   18.913708   15.986358
  N     17.617573   19.170635   18.217215
  C     18.498729   18.955146   19.244522
  S     18.889937   20.141378   20.328229
  N     19.041207   17.696703   19.326695
  C     18.560645   16.531950   18.558039
  C     17.736611   15.620062   19.465623
  C     17.999858   14.237358   19.506152
  C     17.261045   13.389750   20.348335
  C     16.255048   13.928585   21.167659
  C     15.997219   15.305644   21.142535
  O     15.025164   15.828850   21.930991
  C     16.732650   16.146779   20.301475
  H     15.405346   15.293228   18.204171
  H     14.212831   14.720694   17.044432
  H     15.180567   16.144337   16.653700
  H     16.243280   13.260400   16.990844
  H     15.945849   14.058491   15.441461
  H     17.421957   19.059541   15.165875
  H     16.267637   19.888669   16.226418
  H     15.900639   18.276234   15.605052
  H     17.239685   20.102869   18.159399
  H     19.668336   17.557106   20.108719
  H     19.448718   15.966002   18.243086
  H     18.775971   13.815170   18.872792
  H     17.471053   12.321621   20.365857
  H     15.682106   13.278093   21.820401
  H     14.669852   15.109392   22.474210
  H     16.513222   17.209040   20.302142

 Total Charge           Charge          ....    0
 Multiplicity           Mult            ....    1
 Number of Electrons    NEL             ....  154
 Basis Dimension        Dim             ....  828

ORBITAL ENERGIES
----------------

  NO   OCC          E(Eh)            E(eV)
   0   2.0000     -91.891310     -2500.4897
   1   2.0000     -20.598516      -560.5141
   2   2.0000     -20.577931      -559.9540
   3   2.0000     -20.554658      -559.3207
   4   2.0000     -15.630473      -425.3268
   5   2.0000     -15.609784      -424.7638
   6   2.0000     -11.394723      -310.0662
   7   2.0000     -11.385661      -309.8196
   8   2.0000     -11.335700      -308.4601
   9   2.0000     -11.315946      -307.9225
  10   2.0000     -11.313630      -307.8595
  11   2.0000     -11.301451      -307.5281
  12   2.0000     -11.262432      -306.4664
  13   2.0000     -11.260906      -306.4248
  14   2.0000     -11.257479      -306.3316
  15   2.0000     -11.254947      -306.2627
  16   2.0000     -11.245856      -306.0153
  17   2.0000     -11.240697      -305.8749
  18   2.0000     -11.239732      -305.8486
  19   2.0000     -11.225572      -305.4633
  20   2.0000      -8.896328      -242.0814
  21   2.0000      -6.577894      -178.9936
  22   2.0000      -6.575899      -178.9393
  23   2.0000      -6.575302      -178.9231
  24   2.0000      -1.448093       -39.4046
  25   2.0000      -1.418345       -38.5951
  26   2.0000      -1.350842       -36.7583
  27   2.0000      -1.341850       -36.5136
  28   2.0000      -1.240166       -33.7466
  29   2.0000      -1.159077       -31.5401
  30   2.0000      -1.120763       -30.4975
  31   2.0000      -1.044483       -28.4218
  32   2.0000      -1.032488       -28.0954
  33   2.0000      -1.017735       -27.6940
  34   2.0000      -1.000213       -27.2172
  35   2.0000      -0.987008       -26.8579
  36   2.0000      -0.925048       -25.1718
  37   2.0000      -0.896181       -24.3863
  38   2.0000      -0.848449       -23.0875
  39   2.0000      -0.842223       -22.9181
  40   2.0000      -0.836468       -22.7615
  41   2.0000      -0.818244       -22.2656
  42   2.0000      -0.748707       -20.3734
  43   2.0000      -0.734126       -19.9766
  44   2.0000      -0.723760       -19.6945
  45   2.0000      -0.697534       -18.9809
  46   2.0000      -0.691127       -18.8065
  47   2.0000      -0.675623       -18.3846
  48   2.0000      -0.668737       -18.1973
  49   2.0000      -0.665727       -18.1154
  50   2.0000      -0.651297       -17.7227
  51   2.0000      -0.646125       -17.5820
  52   2.0000      -0.637941       -17.3593
  53   2.0000      -0.618814       -16.8388
  54   2.0000      -0.608329       -16.5535
  55   2.0000      -0.601489       -16.3673
  56   2.0000      -0.600844       -16.3498
  57   2.0000      -0.579450       -15.7676
  58   2.0000      -0.573230       -15.5984
  59   2.0000      -0.564780       -15.3684
  60   2.0000      -0.553246       -15.0546
  61   2.0000      -0.549524       -14.9533
  62   2.0000      -0.540929       -14.7194
  63   2.0000      -0.527605       -14.3569
  64   2.0000      -0.525045       -14.2872
  65   2.0000      -0.515175       -14.0186
  66   2.0000      -0.503397       -13.6981
  67   2.0000      -0.499922       -13.6036
  68   2.0000      -0.476491       -12.9660
  69   2.0000      -0.465007       -12.6535
  70   2.0000      -0.453449       -12.3390
  71   2.0000      -0.445200       -12.1145
  72   2.0000      -0.357927        -9.7397
  73   2.0000      -0.349458        -9.5092
  74   2.0000      -0.330379        -8.9901
  75   2.0000      -0.324392        -8.8272
  76   2.0000      -0.318209        -8.6589
  77   0.0000       0.066520         1.8101
  78   0.0000       0.103555         2.8179
  79   0.0000       0.118512         3.2249
  80   0.0000       0.128873         3.5068
  81   0.0000       0.132117         3.5951

MULLIKEN ATOMIC CHARGES
-----------------------
   0 C :   -0.333138
   1 C :    0.039785
   2 O :   -0.390201
   3 C :    0.461883
   4 O :   -0.390908
   5 C :   -0.222508
   6 C :    0.163046
   7 C :   -0.278007
   8 N :   -0.122991
   9 C :    0.185224
  10 S :   -0.430787
  11 N :   -0.196013
  12 C :    0.034977
  13 C :    0.041376
  14 C :   -0.185302
  15 C :   -0.144547
  16 C :   -0.270284
  17 C :    0.300409
  18 O :   -0.357702
  19 C :   -0.244467
  20 H :    0.123475
  21 H :    0.118215
  22 H :    0.099116
  23 H :    0.114298
  24 H :    0.119288
  25 H :    0.140130
  26 H :    0.094700
  27 H :    0.125197
  28 H :    0.198063
  29 H :    0.191640
  30 H :    0.149264
  31 H :    0.157207
  32 H :    0.164190
  33 H :    0.133028
  34 H :    0.240497
  35 H :    0.171844
Sum of atomic charges:   -0.0000000

LOEWDIN ATOMIC CHARGES
----------------------
   0 C :    0.108139
   1 C :   -0.011497
   2 O :    0.275253
   3 C :   -0.421997
   4 O :    0.131814
   5 C :   -0.094743
   6 C :   -0.063101
   7 C :    0.129384
   8 N :    0.407008
   9 C :   -0.460099
  10 S :   -0.031424
  11 N :    0.396158
  12 C :   -0.051692
  13 C :   -0.040276
  14 C :    0.018303
  15 C :    0.038927
  16 C :   -0.002356
  17 C :   -0.193047
  18 O :    0.396602
  19 C :    0.030685
  20 H :   -0.030861
  21 H :   -0.022252
  22 H :   -0.031395
  23 H :   -0.022611
  24 H :   -0.028221
  25 H :   -0.003150
  26 H :   -0.022496
  27 H :   -0.010819
  28 H :   -0.058008
  29 H :   -0.065113
  30 H :   -0.006323
  31 H :   -0.028039
  32 H :   -0.020441
  33 H :   -0.034937
  34 H :   -0.153548
  35 H :   -0.023829

  Mayer bond orders larger than 0.100000
B(  0-C ,  1-C ) :   0.9617 B(  0-C , 20-H ) :   0.9670 B(  0-C , 21-H ) :   0.9782
B(  0-C , 22-H ) :   0.9727 B(  1-C ,  2-O ) :   0.8780 B(  1-C , 23-H ) :   0.9792
B(  1-C , 24-H ) :   0.9853 B(  2-O ,  3-C ) :   1.1009 B(  3-C ,  4-O ) :   2.0311
B(  3-C ,  5-C ) :   1.0323 B(  5-C ,  6-C ) :   1.6654 B(  5-C , 12-C ) :   0.9685
B(  6-C ,  7-C ) :   0.9668 B(  6-C ,  8-N ) :   1.1331 B(  7-C , 25-H ) :   0.9566
B(  7-C , 26-H ) :   0.9868 B(  7-C , 27-H ) :   0.9676 B(  8-N ,  9-C ) :   1.1793
B(  8-N , 28-H ) :   0.9491 B(  9-C , 10-S ) :   1.6230 B(  9-C , 11-N ) :   1.2929
B( 11-N , 12-C ) :   0.9878 B( 11-N , 29-H ) :   0.9528 B( 12-C , 13-C ) :   0.9361
B( 12-C , 30-H ) :   1.0076 B( 13-C , 14-C ) :   1.3728 B( 13-C , 19-C ) :   1.3599
B( 14-C , 15-C ) :   1.3905 B( 14-C , 31-H ) :   0.9669 B( 15-C , 16-C ) :   1.3621
B( 15-C , 32-H ) :   0.9698 B( 16-C , 17-C ) :   1.3312 B( 16-C , 33-H ) :   0.9840
B( 17-C , 18-O ) :   1.1130 B( 17-C , 19-C ) :   1.3767 B( 18-O , 34-H ) :   0.9798
B( 19-C , 35-H ) :   0.9578

MP2 TOTAL ENERGY:    -1274.315810574 Eh
FINAL SINGLE POINT ENERGY     -1274.315810574108

DIPOLE MOMENT
-------------
                                X             Y             Z
Electronic contribution:     10.00095       7.74745       6.09581
Nuclear contribution   :    -11.16173      -9.36358      -6.13161
                        -----------------------------------------
Total Dipole Moment    :     -1.16078      -1.61613      -0.03580
                        -----------------------------------------
Magnitude (a.u.)       :      1.99011
Magnitude (Debye)      :      5.05846

Rotational constants in cm-1:     0.011642     0.010120     0.006571
Rotational constants in MHz :   349.004664   303.378038   196.990596

                             ****ORCA TERMINATED NORMALLY****
TOTAL RUN TIME: 0 days 2 hours 21 minutes 51 seconds 307 msec
