                         Program Version 5.0.0 -  RELEASE  -
|  1> ! ri-mp2 cc-pvtz cc-pvtz/c TightSCF NoKeepInts
|  2>
|  3> %scf
|  4>   MaxCore 4096
|  5> end
|  6> *xyz  0  1
|  7>     C       15.2260337   15.0304442   17.4285351
|  8>     C       15.5283202   15.4531808   15.9778171
|  9>     O       16.9308313   15.3099657   15.6500392
| 10>     C       17.9912251   15.6074692   16.4704482
| 11>     O       18.9288842   14.8345395   16.5444193
| 12>     C       17.9007166   16.8095294   17.3652777
| 13>     C       17.3924982   18.0083136   16.9816140
| 14>     C       16.8889545   18.4195854   15.6131818
| 15>     N       17.4407083   19.0970149   17.8562295
| 16>     C       18.1363589   19.1233844   19.0354926
| 17>     S       18.2371313   20.4933666   19.9557956
| 18>     N       18.7510275   17.9556731   19.4095300
| 19>     C       18.5847871   16.6549408   18.7320780
| 20>     C       17.8602860   15.6541157   19.6315666
| 21>     C       18.2625427   14.3054936   19.6512407
| 22>     C       17.6015789   13.3696746   20.4638601
| 23>     C       16.5281219   13.7839117   21.2697516
| 24>     C       16.1252906   15.1256865   21.2583680
| 25>     O       15.0838726   15.5279286   22.0291778
| 26>     C       16.7853084   16.0555261   20.4485914
| 27>     H       15.8025341   14.1407034   17.7139134
| 28>     H       14.1613620   14.7917793   17.5393651
| 29>     H       15.4494827   15.8416807   18.1275382
| 30>     H       14.9542767   14.8115864   15.2965770
| 31>     H       15.1773613   16.4770342   15.8212885
| 32>     H       17.1186037   17.6788342   14.8387049
| 33>     H       17.3691189   19.3518878   15.2888351
| 34>     H       15.8064350   18.5930054   15.6199405
| 35>     H       17.0155516   19.9707917   17.5885949
| 36>     H       19.2477959   17.9975672   20.2905130
| 37>     H       19.5942278   16.2577357   18.5485278
| 38>     H       19.0878369   13.9773799   19.0227251
| 39>     H       17.9215371   12.3290084   20.4631828
| 40>     H       16.0135040   13.0636614   21.8971433
| 41>     H       14.7937144   14.7625511   22.5480421
| 42>     H       16.4491800   17.0870488   20.4560938
| 43> *
| 44>
| 45>                          ****END OF INPUT****

CARTESIAN COORDINATES (ANGSTROEM)
---------------------------------
  C     15.226034   15.030444   17.428535
  C     15.528320   15.453181   15.977817
  O     16.930831   15.309966   15.650039
  C     17.991225   15.607469   16.470448
  O     18.928884   14.834539   16.544419
  C     17.900717   16.809529   17.365278
  C     17.392498   18.008314   16.981614
  C     16.888955   18.419585   15.613182
  N     17.440708   19.097015   17.856230
  C     18.136359   19.123384   19.035493
  S     18.237131   20.493367   19.955796
  N     18.751027   17.955673   19.409530
  C     18.584787   16.654941   18.732078
  C     17.860286   15.654116   19.631567
  C     18.262543   14.305494   19.651241
  C     17.601579   13.369675   20.463860
  C     16.528122   13.783912   21.269752
  C     16.125291   15.125687   21.258368
  O     15.083873   15.527929   22.029178
  C     16.785308   16.055526   20.448591
  H     15.802534   14.140703   17.713913
  H     14.161362   14.791779   17.539365
  H     15.449483   15.841681   18.127538
  H     14.954277   14.811586   15.296577
  H     15.177361   16.477034   15.821288
  H     17.118604   17.678834   14.838705
  H     17.369119   19.351888   15.288835
  H     15.806435   18.593005   15.619941
  H     17.015552   19.970792   17.588595
  H     19.247796   17.997567   20.290513
  H     19.594228   16.257736   18.548528
  H     19.087837   13.977380   19.022725
  H     17.921537   12.329008   20.463183
  H     16.013504   13.063661   21.897143
  H     14.793714   14.762551   22.548042
  H     16.449180   17.087049   20.456094

 Total Charge           Charge          ....    0
 Multiplicity           Mult            ....    1
 Number of Electrons    NEL             ....  154
 Basis Dimension        Dim             ....  828

ORBITAL ENERGIES
----------------

  NO   OCC          E(Eh)            E(eV)
   0   2.0000     -91.891039     -2500.4823
   1   2.0000     -20.597267      -560.4801
   2   2.0000     -20.596050      -560.4470
   3   2.0000     -20.550203      -559.1995
   4   2.0000     -15.629621      -425.3036
   5   2.0000     -15.610710      -424.7890
   6   2.0000     -11.399756      -310.2031
   7   2.0000     -11.386840      -309.8517
   8   2.0000     -11.337191      -308.5007
   9   2.0000     -11.313845      -307.8654
  10   2.0000     -11.312205      -307.8207
  11   2.0000     -11.308704      -307.7255
  12   2.0000     -11.268609      -306.6344
  13   2.0000     -11.267688      -306.6094
  14   2.0000     -11.260880      -306.4241
  15   2.0000     -11.253948      -306.2355
  16   2.0000     -11.243401      -305.9485
  17   2.0000     -11.239049      -305.8301
  18   2.0000     -11.235189      -305.7250
  19   2.0000     -11.229160      -305.5610
  20   2.0000      -8.896130      -242.0760
  21   2.0000      -6.577714      -178.9887
  22   2.0000      -6.575693      -178.9337
  23   2.0000      -6.575112      -178.9179
  24   2.0000      -1.445711       -39.3398
  25   2.0000      -1.417081       -38.5607
  26   2.0000      -1.358043       -36.9542
  27   2.0000      -1.342754       -36.5382
  28   2.0000      -1.241064       -33.7711
  29   2.0000      -1.158135       -31.5144
  30   2.0000      -1.124147       -30.5896
  31   2.0000      -1.046481       -28.4762
  32   2.0000      -1.037400       -28.2291
  33   2.0000      -1.016736       -27.6668
  34   2.0000      -1.005557       -27.3626
  35   2.0000      -0.989483       -26.9252
  36   2.0000      -0.927527       -25.2393
  37   2.0000      -0.897582       -24.4244
  38   2.0000      -0.855036       -23.2667
  39   2.0000      -0.841043       -22.8859
  40   2.0000      -0.833938       -22.6926
  41   2.0000      -0.828207       -22.5366
  42   2.0000      -0.745179       -20.2774
  43   2.0000      -0.736944       -20.0533
  44   2.0000      -0.730016       -19.8647
  45   2.0000      -0.695046       -18.9132
  46   2.0000      -0.686590       -18.6831
  47   2.0000      -0.681494       -18.5444
  48   2.0000      -0.675220       -18.3737
  49   2.0000      -0.660284       -17.9672
  50   2.0000      -0.657565       -17.8933
  51   2.0000      -0.650670       -17.7056
  52   2.0000      -0.639609       -17.4046
  53   2.0000      -0.624488       -16.9932
  54   2.0000      -0.609588       -16.5877
  55   2.0000      -0.605156       -16.4671
  56   2.0000      -0.601232       -16.3604
  57   2.0000      -0.587158       -15.9774
  58   2.0000      -0.575632       -15.6637
  59   2.0000      -0.565422       -15.3859
  60   2.0000      -0.563571       -15.3355
  61   2.0000      -0.550095       -14.9688
  62   2.0000      -0.540467       -14.7068
  63   2.0000      -0.536147       -14.5893
  64   2.0000      -0.520895       -14.1743
  65   2.0000      -0.512859       -13.9556
  66   2.0000      -0.500919       -13.6307
  67   2.0000      -0.496171       -13.5015
  68   2.0000      -0.483209       -13.1488
  69   2.0000      -0.470430       -12.8011
  70   2.0000      -0.457744       -12.4558
  71   2.0000      -0.449701       -12.2370
  72   2.0000      -0.359103        -9.7717
  73   2.0000      -0.348134        -9.4732
  74   2.0000      -0.330498        -8.9933
  75   2.0000      -0.322501        -8.7757
  76   2.0000      -0.319414        -8.6917
  77   0.0000       0.076701         2.0871
  78   0.0000       0.106885         2.9085
  79   0.0000       0.115441         3.1413
  80   0.0000       0.131006         3.5649
  81   0.0000       0.132073         3.5939

MULLIKEN ATOMIC CHARGES
-----------------------
   0 C :   -0.331979
   1 C :    0.031886
   2 O :   -0.340010
   3 C :    0.447919
   4 O :   -0.386472
   5 C :   -0.254987
   6 C :    0.184827
   7 C :   -0.339741
   8 N :   -0.135157
   9 C :    0.195398
  10 S :   -0.438388
  11 N :   -0.218463
  12 C :    0.077463
  13 C :    0.027716
  14 C :   -0.215785
  15 C :   -0.135501
  16 C :   -0.275588
  17 C :    0.320899
  18 O :   -0.357371
  19 C :   -0.273058
  20 H :    0.126365
  21 H :    0.114487
  22 H :    0.110235
  23 H :    0.126680
  24 H :    0.084631
  25 H :    0.140688
  26 H :    0.136313
  27 H :    0.121675
  28 H :    0.197418
  29 H :    0.200400
  30 H :    0.165288
  31 H :    0.176397
  32 H :    0.164565
  33 H :    0.131602
  34 H :    0.240859
  35 H :    0.178788
Sum of atomic charges:    0.0000000

LOEWDIN ATOMIC CHARGES
----------------------
   0 C :    0.106140
   1 C :   -0.018707
   2 O :    0.292370
   3 C :   -0.415809
   4 O :    0.124199
   5 C :   -0.082931
   6 C :   -0.086347
   7 C :    0.123046
   8 N :    0.403650
   9 C :   -0.460104
  10 S :   -0.035819
  11 N :    0.397909
  12 C :   -0.043463
  13 C :   -0.041991
  14 C :    0.020157
  15 C :    0.042353
  16 C :   -0.001542
  17 C :   -0.192988
  18 O :    0.395103
  19 C :    0.027564
  20 H :   -0.018985
  21 H :   -0.023997
  22 H :   -0.034487
  23 H :   -0.019925
  24 H :   -0.039308
  25 H :   -0.008169
  26 H :   -0.010192
  27 H :   -0.019456
  28 H :   -0.056703
  29 H :   -0.063012
  30 H :   -0.002353
  31 H :   -0.022729
  32 H :   -0.019149
  33 H :   -0.035163
  34 H :   -0.153617
  35 H :   -0.025545

  Mayer bond orders larger than 0.100000
B(  0-C ,  1-C ) :   0.9566 B(  0-C , 20-H ) :   0.9675 B(  0-C , 21-H ) :   0.9774
B(  0-C , 22-H ) :   0.9721 B(  1-C ,  2-O ) :   0.9017 B(  1-C , 23-H ) :   0.9825
B(  1-C , 24-H ) :   0.9735 B(  2-O ,  3-C ) :   1.1626 B(  3-C ,  4-O ) :   2.0722
B(  3-C ,  5-C ) :   0.9464 B(  5-C ,  6-C ) :   1.6685 B(  5-C , 12-C ) :   0.9526
B(  6-C ,  7-C ) :   0.9431 B(  6-C ,  8-N ) :   1.1217 B(  7-C , 25-H ) :   0.9749
B(  7-C , 26-H ) :   0.9724 B(  7-C , 27-H ) :   0.9659 B(  8-N ,  9-C ) :   1.1902
B(  8-N , 28-H ) :   0.9519 B(  9-C , 10-S ) :   1.6117 B(  9-C , 11-N ) :   1.2933
B( 11-N , 12-C ) :   0.9868 B( 11-N , 29-H ) :   0.9493 B( 12-C , 13-C ) :   0.9521
B( 12-C , 30-H ) :   0.9963 B( 13-C , 14-C ) :   1.3865 B( 13-C , 19-C ) :   1.3389
B( 14-C , 15-C ) :   1.3989 B( 14-C , 31-H ) :   0.9575 B( 15-C , 16-C ) :   1.3594
B( 15-C , 32-H ) :   0.9699 B( 16-C , 17-C ) :   1.3311 B( 16-C , 33-H ) :   0.9848
B( 17-C , 18-O ) :   1.1108 B( 17-C , 19-C ) :   1.3654 B( 18-O , 34-H ) :   0.9798
B( 19-C , 35-H ) :   0.9583

MP2 TOTAL ENERGY:    -1274.332968724 Eh
FINAL SINGLE POINT ENERGY     -1274.332968724079

DIPOLE MOMENT
-------------
                                X             Y             Z
Electronic contribution:      9.12425       6.92461       6.22523
Nuclear contribution   :    -10.68568      -7.89770      -6.79923
                        -----------------------------------------
Total Dipole Moment    :     -1.56143      -0.97310      -0.57400
                        -----------------------------------------
Magnitude (a.u.)       :      1.92729
Magnitude (Debye)      :      4.89879

Rotational constants in cm-1:     0.011540     0.009724     0.006697
Rotational constants in MHz :   345.964605   291.530576   200.773006

                             ****ORCA TERMINATED NORMALLY****
TOTAL RUN TIME: 0 days 2 hours 14 minutes 32 seconds 433 msec
