                         Program Version 5.0.0 -  RELEASE  -
|  1> ! ri-mp2 cc-pvtz cc-pvtz/c TightSCF NoKeepInts
|  2>
|  3> %scf
|  4>   MaxCore 4096
|  5> end
|  6> *xyz  0  1
|  7>     C       15.5223205   14.3915722   14.2902216
|  8>     C       15.1136916   14.7051494   15.7400969
|  9>     O       15.9470945   15.7812381   16.2087025
| 10>     C       17.0190887   15.5159469   17.0122443
| 11>     O       17.4108254   14.3800301   17.2263390
| 12>     C       17.6093120   16.7152086   17.7006331
| 13>     C       17.3383330   18.0122050   17.3945192
| 14>     C       16.4122882   18.5503049   16.3225921
| 15>     N       18.0069612   19.0387098   18.0705348
| 16>     C       19.0521544   18.8573070   18.9370303
| 17>     S       19.8765748   20.1344689   19.5888451
| 18>     N       19.3787302   17.5592519   19.2353109
| 19>     C       18.5937113   16.3793210   18.8275590
| 20>     C       17.8698709   15.7784611   20.0299646
| 21>     C       18.0383869   14.4201577   20.3567723
| 22>     C       17.3738820   13.8607719   21.4610614
| 23>     C       16.5324425   14.6659835   22.2473042
| 24>     C       16.3587404   16.0183745   21.9233997
| 25>     O       15.5422243   16.7971885   22.6771681
| 26>     C       17.0210953   16.5721691   20.8233454
| 27>     H       15.4338125   15.2843440   13.6589555
| 28>     H       14.8800934   13.6076707   13.8708348
| 29>     H       16.5609210   14.0391788   14.2512872
| 30>     H       14.0654828   15.0302983   15.7490099
| 31>     H       15.1946715   13.8109359   16.3735548
| 32>     H       16.6577651   18.1190922   15.3440293
| 33>     H       16.4719065   19.6403500   16.2177453
| 34>     H       15.3688183   18.3000539   16.5512697
| 35>     H       17.7820021   19.9989113   17.8649528
| 36>     H       20.1321110   17.4516012   19.9021861
| 37>     H       19.3001851   15.6297280   18.4425119
| 38>     H       18.6751867   13.7909444   19.7396263
| 39>     H       17.5081238   12.8071163   21.6988979
| 40>     H       16.0158422   14.2375815   23.0996373
| 41>     H       15.2072211   16.2484344   23.4019861
| 42>     H       16.8751289   17.6219389   20.5938704
| 43> *
| 44>
| 45>                          ****END OF INPUT****

CARTESIAN COORDINATES (ANGSTROEM)
---------------------------------
  C     15.522320   14.391572   14.290222
  C     15.113692   14.705149   15.740097
  O     15.947094   15.781238   16.208703
  C     17.019089   15.515947   17.012244
  O     17.410825   14.380030   17.226339
  C     17.609312   16.715209   17.700633
  C     17.338333   18.012205   17.394519
  C     16.412288   18.550305   16.322592
  N     18.006961   19.038710   18.070535
  C     19.052154   18.857307   18.937030
  S     19.876575   20.134469   19.588845
  N     19.378730   17.559252   19.235311
  C     18.593711   16.379321   18.827559
  C     17.869871   15.778461   20.029965
  C     18.038387   14.420158   20.356772
  C     17.373882   13.860772   21.461061
  C     16.532442   14.665983   22.247304
  C     16.358740   16.018375   21.923400
  O     15.542224   16.797189   22.677168
  C     17.021095   16.572169   20.823345
  H     15.433813   15.284344   13.658955
  H     14.880093   13.607671   13.870835
  H     16.560921   14.039179   14.251287
  H     14.065483   15.030298   15.749010
  H     15.194672   13.810936   16.373555
  H     16.657765   18.119092   15.344029
  H     16.471906   19.640350   16.217745
  H     15.368818   18.300054   16.551270
  H     17.782002   19.998911   17.864953
  H     20.132111   17.451601   19.902186
  H     19.300185   15.629728   18.442512
  H     18.675187   13.790944   19.739626
  H     17.508124   12.807116   21.698898
  H     16.015842   14.237581   23.099637
  H     15.207221   16.248434   23.401986
  H     16.875129   17.621939   20.593870

 Total Charge           Charge          ....    0
 Multiplicity           Mult            ....    1
 Number of Electrons    NEL             ....  154
 Basis Dimension        Dim             ....  828

ORBITAL ENERGIES
----------------

  NO   OCC          E(Eh)            E(eV)
   0   2.0000     -91.888065     -2500.4014
   1   2.0000     -20.604356      -560.6730
   2   2.0000     -20.590876      -560.3062
   3   2.0000     -20.545221      -559.0639
   4   2.0000     -15.628595      -425.2757
   5   2.0000     -15.606540      -424.6756
   6   2.0000     -11.396819      -310.1232
   7   2.0000     -11.382831      -309.7426
   8   2.0000     -11.337099      -308.4982
   9   2.0000     -11.306664      -307.6700
  10   2.0000     -11.305080      -307.6269
  11   2.0000     -11.299612      -307.4781
  12   2.0000     -11.260891      -306.4244
  13   2.0000     -11.258958      -306.3718
  14   2.0000     -11.252672      -306.2008
  15   2.0000     -11.246793      -306.0408
  16   2.0000     -11.236457      -305.7596
  17   2.0000     -11.232636      -305.6556
  18   2.0000     -11.229547      -305.5715
  19   2.0000     -11.229496      -305.5701
  20   2.0000      -8.893125      -241.9942
  21   2.0000      -6.574701      -178.9067
  22   2.0000      -6.572696      -178.8521
  23   2.0000      -6.572109      -178.8362
  24   2.0000      -1.454372       -39.5755
  25   2.0000      -1.410608       -38.3846
  26   2.0000      -1.357494       -36.9393
  27   2.0000      -1.339464       -36.4487
  28   2.0000      -1.236929       -33.6586
  29   2.0000      -1.151431       -31.3320
  30   2.0000      -1.119264       -30.4567
  31   2.0000      -1.042955       -28.3802
  32   2.0000      -1.035682       -28.1823
  33   2.0000      -1.008753       -27.4496
  34   2.0000      -0.997243       -27.1364
  35   2.0000      -0.982757       -26.7422
  36   2.0000      -0.920891       -25.0587
  37   2.0000      -0.891962       -24.2715
  38   2.0000      -0.847500       -23.0617
  39   2.0000      -0.834745       -22.7146
  40   2.0000      -0.827050       -22.5052
  41   2.0000      -0.817203       -22.2372
  42   2.0000      -0.758701       -20.6453
  43   2.0000      -0.735695       -20.0193
  44   2.0000      -0.724383       -19.7115
  45   2.0000      -0.689979       -18.7753
  46   2.0000      -0.684897       -18.6370
  47   2.0000      -0.679936       -18.5020
  48   2.0000      -0.671993       -18.2859
  49   2.0000      -0.655767       -17.8443
  50   2.0000      -0.647808       -17.6277
  51   2.0000      -0.641973       -17.4690
  52   2.0000      -0.629379       -17.1263
  53   2.0000      -0.613671       -16.6988
  54   2.0000      -0.599945       -16.3253
  55   2.0000      -0.598884       -16.2965
  56   2.0000      -0.594158       -16.1679
  57   2.0000      -0.584233       -15.8978
  58   2.0000      -0.572396       -15.5757
  59   2.0000      -0.564429       -15.3589
  60   2.0000      -0.560967       -15.2647
  61   2.0000      -0.545345       -14.8396
  62   2.0000      -0.534383       -14.5413
  63   2.0000      -0.532399       -14.4873
  64   2.0000      -0.516486       -14.0543
  65   2.0000      -0.509516       -13.8646
  66   2.0000      -0.500041       -13.6068
  67   2.0000      -0.494955       -13.4684
  68   2.0000      -0.480278       -13.0690
  69   2.0000      -0.463515       -12.6129
  70   2.0000      -0.456927       -12.4336
  71   2.0000      -0.455097       -12.3838
  72   2.0000      -0.354353        -9.6424
  73   2.0000      -0.343339        -9.3427
  74   2.0000      -0.327143        -8.9020
  75   2.0000      -0.315460        -8.5841
  76   2.0000      -0.313013        -8.5175
  77   0.0000       0.075974         2.0674
  78   0.0000       0.114260         3.1092
  79   0.0000       0.121357         3.3023
  80   0.0000       0.136400         3.7116
  81   0.0000       0.140373         3.8197

MULLIKEN ATOMIC CHARGES
-----------------------
   0 C :   -0.280142
   1 C :    0.027251
   2 O :   -0.344368
   3 C :    0.454806
   4 O :   -0.437030
   5 C :   -0.180328
   6 C :    0.145222
   7 C :   -0.284379
   8 N :   -0.120446
   9 C :    0.200747
  10 S :   -0.438996
  11 N :   -0.196333
  12 C :    0.033116
  13 C :    0.058398
  14 C :   -0.160632
  15 C :   -0.133976
  16 C :   -0.278669
  17 C :    0.311709
  18 O :   -0.359217
  19 C :   -0.272300
  20 H :    0.090860
  21 H :    0.095572
  22 H :    0.106541
  23 H :    0.103830
  24 H :    0.114561
  25 H :    0.126856
  26 H :    0.101921
  27 H :    0.128305
  28 H :    0.196633
  29 H :    0.193486
  30 H :    0.153345
  31 H :    0.153074
  32 H :    0.158720
  33 H :    0.127720
  34 H :    0.239957
  35 H :    0.164187
Sum of atomic charges:   -0.0000000

LOEWDIN ATOMIC CHARGES
----------------------
   0 C :    0.104036
   1 C :   -0.014770
   2 O :    0.308389
   3 C :   -0.414409
   4 O :    0.100411
   5 C :   -0.090779
   6 C :   -0.064424
   7 C :    0.124862
   8 N :    0.404983
   9 C :   -0.459172
  10 S :   -0.035764
  11 N :    0.398024
  12 C :   -0.046660
  13 C :   -0.038779
  14 C :    0.022258
  15 C :    0.040829
  16 C :   -0.002257
  17 C :   -0.192495
  18 O :    0.392954
  19 C :    0.028459
  20 H :   -0.029911
  21 H :   -0.026114
  22 H :   -0.024287
  23 H :   -0.028133
  24 H :   -0.026340
  25 H :   -0.008934
  26 H :   -0.021229
  27 H :   -0.009313
  28 H :   -0.059225
  29 H :   -0.063572
  30 H :   -0.005203
  31 H :   -0.025389
  32 H :   -0.021344
  33 H :   -0.036477
  34 H :   -0.154981
  35 H :   -0.025243

  Mayer bond orders larger than 0.100000
B(  0-C ,  1-C ) :   0.9672 B(  0-C , 20-H ) :   0.9786 B(  0-C , 21-H ) :   0.9759
B(  0-C , 22-H ) :   0.9775 B(  1-C ,  2-O ) :   0.8889 B(  1-C , 23-H ) :   0.9842
B(  1-C , 24-H ) :   0.9735 B(  2-O ,  3-C ) :   1.1652 B(  3-C ,  4-O ) :   1.9590
B(  3-C ,  5-C ) :   1.0693 B(  5-C ,  6-C ) :   1.6437 B(  5-C , 12-C ) :   0.9663
B(  6-C ,  7-C ) :   0.9553 B(  6-C ,  8-N ) :   1.1521 B(  7-C , 25-H ) :   0.9652
B(  7-C , 26-H ) :   0.9914 B(  7-C , 27-H ) :   0.9640 B(  8-N ,  9-C ) :   1.1770
B(  8-N , 28-H ) :   0.9487 B(  9-C , 10-S ) :   1.6110 B(  9-C , 11-N ) :   1.3050
B( 11-N , 12-C ) :   0.9932 B( 11-N , 29-H ) :   0.9520 B( 12-C , 13-C ) :   0.9477
B( 12-C , 30-H ) :   1.0006 B( 13-C , 14-C ) :   1.3750 B( 13-C , 19-C ) :   1.3693
B( 14-C , 15-C ) :   1.3945 B( 14-C , 31-H ) :   0.9651 B( 15-C , 16-C ) :   1.3625
B( 15-C , 32-H ) :   0.9715 B( 16-C , 17-C ) :   1.3316 B( 16-C , 33-H ) :   0.9861
B( 17-C , 18-O ) :   1.1078 B( 17-C , 19-C ) :   1.3794 B( 18-O , 34-H ) :   0.9807
B( 19-C , 35-H ) :   0.9585

MP2 TOTAL ENERGY:    -1274.348547548 Eh
FINAL SINGLE POINT ENERGY     -1274.348547548003

DIPOLE MOMENT
-------------
                                X             Y             Z
Electronic contribution:     10.18865       8.89199      12.37235
Nuclear contribution   :    -11.90003      -9.99515     -13.24221
                        -----------------------------------------
Total Dipole Moment    :     -1.71138      -1.10316      -0.86986
                        -----------------------------------------
Magnitude (a.u.)       :      2.21414
Magnitude (Debye)      :      5.62790

Rotational constants in cm-1:     0.010564     0.008663     0.005683
Rotational constants in MHz :   316.711910   259.705648   170.359964

                             ****ORCA TERMINATED NORMALLY****
TOTAL RUN TIME: 0 days 1 hours 29 minutes 36 seconds 267 msec
