                         Program Version 5.0.0 -  RELEASE  -
|  1> ! ri-mp2 cc-pvtz cc-pvtz/c TightSCF NoKeepInts
|  2>
|  3> %scf
|  4>   MaxCore 4096
|  5> end
|  6> *xyz  0  1
|  7>     C       15.6337146   13.4174185   15.6843491
|  8>     C       15.6287362   14.4944665   16.7816086
|  9>     O       16.7777902   15.3337792   16.5658675
| 10>     C       16.6053914   16.6871831   16.5168649
| 11>     O       15.6569177   17.1872828   15.9370505
| 12>     C       17.4758465   17.4206093   17.5009959
| 13>     C       17.4252956   18.7689851   17.6506891
| 14>     C       16.5332695   19.7415473   16.9089362
| 15>     N       18.2890887   19.4084449   18.5448379
| 16>     C       19.3020343   18.7937147   19.2309455
| 17>     S       20.3479124   19.6406555   20.1925354
| 18>     N       19.4103584   17.4355662   19.0748540
| 19>     C       18.4495173   16.5847456   18.3498287
| 20>     C       17.7254444   15.6780494   19.3410202
| 21>     C       18.0359741   14.3066204   19.4063001
| 22>     C       17.3678556   13.4645238   20.3110359
| 23>     C       16.3842147   13.9984989   21.1608367
| 24>     C       16.0783885   15.3651867   21.1043555
| 25>     O       15.1307439   15.8841308   21.9248866
| 26>     C       16.7438513   16.2004986   20.2018871
| 27>     H       14.7819845   12.7377849   15.8082042
| 28>     H       16.5564600   12.8257438   15.7263362
| 29>     H       15.5622957   13.8801389   14.6918828
| 30>     H       14.6912106   15.0647178   16.7263775
| 31>     H       15.6852062   14.0258758   17.7726122
| 32>     H       15.4772313   19.5405314   17.1304688
| 33>     H       16.6649402   19.6374001   15.8243976
| 34>     H       16.7328132   20.7885528   17.1654716
| 35>     H       18.2263383   20.4063138   18.6691379
| 36>     H       20.1453353   17.0061915   19.6219247
| 37>     H       19.0266825   15.9516451   17.6610893
| 38>     H       18.7932752   13.8904491   18.7470907
| 39>     H       17.6140156   12.4047697   20.3528227
| 40>     H       15.8664851   13.3525603   21.8624554
| 41>     H       14.8227982   15.1708060   22.5040185
| 42>     H       16.4975830   17.2566118   20.1800246
| 43> *
| 44>
| 45>                          ****END OF INPUT****

CARTESIAN COORDINATES (ANGSTROEM)
---------------------------------
  C     15.633715   13.417418   15.684349
  C     15.628736   14.494466   16.781609
  O     16.777790   15.333779   16.565867
  C     16.605391   16.687183   16.516865
  O     15.656918   17.187283   15.937050
  C     17.475846   17.420609   17.500996
  C     17.425296   18.768985   17.650689
  C     16.533269   19.741547   16.908936
  N     18.289089   19.408445   18.544838
  C     19.302034   18.793715   19.230946
  S     20.347912   19.640656   20.192535
  N     19.410358   17.435566   19.074854
  C     18.449517   16.584746   18.349829
  C     17.725444   15.678049   19.341020
  C     18.035974   14.306620   19.406300
  C     17.367856   13.464524   20.311036
  C     16.384215   13.998499   21.160837
  C     16.078388   15.365187   21.104356
  O     15.130744   15.884131   21.924887
  C     16.743851   16.200499   20.201887
  H     14.781984   12.737785   15.808204
  H     16.556460   12.825744   15.726336
  H     15.562296   13.880139   14.691883
  H     14.691211   15.064718   16.726378
  H     15.685206   14.025876   17.772612
  H     15.477231   19.540531   17.130469
  H     16.664940   19.637400   15.824398
  H     16.732813   20.788553   17.165472
  H     18.226338   20.406314   18.669138
  H     20.145335   17.006191   19.621925
  H     19.026682   15.951645   17.661089
  H     18.793275   13.890449   18.747091
  H     17.614016   12.404770   20.352823
  H     15.866485   13.352560   21.862455
  H     14.822798   15.170806   22.504019
  H     16.497583   17.256612   20.180025

 Total Charge           Charge          ....    0
 Multiplicity           Mult            ....    1
 Number of Electrons    NEL             ....  154
 Basis Dimension        Dim             ....  828

ORBITAL ENERGIES
----------------

  NO   OCC          E(Eh)            E(eV)
   0   2.0000     -91.889670     -2500.4450
   1   2.0000     -20.599563      -560.5426
   2   2.0000     -20.591150      -560.3137
   3   2.0000     -20.544352      -559.0402
   4   2.0000     -15.629946      -425.3125
   5   2.0000     -15.609144      -424.7464
   6   2.0000     -11.394099      -310.0492
   7   2.0000     -11.384765      -309.7952
   8   2.0000     -11.336549      -308.4832
   9   2.0000     -11.317283      -307.9589
  10   2.0000     -11.310469      -307.7735
  11   2.0000     -11.292786      -307.2923
  12   2.0000     -11.262509      -306.4685
  13   2.0000     -11.259113      -306.3760
  14   2.0000     -11.258588      -306.3617
  15   2.0000     -11.252820      -306.2048
  16   2.0000     -11.246143      -306.0231
  17   2.0000     -11.241210      -305.8889
  18   2.0000     -11.240877      -305.8798
  19   2.0000     -11.224103      -305.4234
  20   2.0000      -8.894727      -242.0378
  21   2.0000      -6.576300      -178.9502
  22   2.0000      -6.574297      -178.8957
  23   2.0000      -6.573708      -178.8797
  24   2.0000      -1.449505       -39.4430
  25   2.0000      -1.419208       -38.6186
  26   2.0000      -1.353440       -36.8290
  27   2.0000      -1.340981       -36.4900
  28   2.0000      -1.239611       -33.7315
  29   2.0000      -1.160343       -31.5745
  30   2.0000      -1.121124       -30.5073
  31   2.0000      -1.044654       -28.4265
  32   2.0000      -1.035640       -28.1812
  33   2.0000      -1.018272       -27.7086
  34   2.0000      -0.996498       -27.1161
  35   2.0000      -0.984890       -26.8002
  36   2.0000      -0.924096       -25.1459
  37   2.0000      -0.883840       -24.0505
  38   2.0000      -0.848184       -23.0803
  39   2.0000      -0.840153       -22.8617
  40   2.0000      -0.836691       -22.7675
  41   2.0000      -0.822578       -22.3835
  42   2.0000      -0.761629       -20.7250
  43   2.0000      -0.734674       -19.9915
  44   2.0000      -0.724192       -19.7063
  45   2.0000      -0.698406       -19.0046
  46   2.0000      -0.689258       -18.7557
  47   2.0000      -0.678911       -18.4741
  48   2.0000      -0.672529       -18.3004
  49   2.0000      -0.654759       -17.8169
  50   2.0000      -0.647632       -17.6230
  51   2.0000      -0.643015       -17.4973
  52   2.0000      -0.626415       -17.0456
  53   2.0000      -0.619839       -16.8667
  54   2.0000      -0.610110       -16.6019
  55   2.0000      -0.602143       -16.3851
  56   2.0000      -0.600202       -16.3323
  57   2.0000      -0.580267       -15.7899
  58   2.0000      -0.571991       -15.5647
  59   2.0000      -0.565973       -15.4009
  60   2.0000      -0.563906       -15.3447
  61   2.0000      -0.539595       -14.6831
  62   2.0000      -0.533527       -14.5180
  63   2.0000      -0.527785       -14.3618
  64   2.0000      -0.520186       -14.1550
  65   2.0000      -0.514787       -14.0081
  66   2.0000      -0.503076       -13.6894
  67   2.0000      -0.495778       -13.4908
  68   2.0000      -0.488599       -13.2954
  69   2.0000      -0.464316       -12.6347
  70   2.0000      -0.454699       -12.3730
  71   2.0000      -0.447382       -12.1739
  72   2.0000      -0.355039        -9.6611
  73   2.0000      -0.352419        -9.5898
  74   2.0000      -0.329398        -8.9634
  75   2.0000      -0.324640        -8.8339
  76   2.0000      -0.317141        -8.6298
  77   0.0000       0.072644         1.9768
  78   0.0000       0.103455         2.8151
  79   0.0000       0.123775         3.3681
  80   0.0000       0.130353         3.5471
  81   0.0000       0.134478         3.6593

MULLIKEN ATOMIC CHARGES
-----------------------
   0 C :   -0.262074
   1 C :    0.023336
   2 O :   -0.376023
   3 C :    0.478831
   4 O :   -0.419933
   5 C :   -0.260478
   6 C :    0.162062
   7 C :   -0.269601
   8 N :   -0.123785
   9 C :    0.213863
  10 S :   -0.439650
  11 N :   -0.207192
  12 C :    0.071595
  13 C :    0.046872
  14 C :   -0.192024
  15 C :   -0.132216
  16 C :   -0.278025
  17 C :    0.311424
  18 O :   -0.355463
  19 C :   -0.253876
  20 H :    0.087269
  21 H :    0.090036
  22 H :    0.102779
  23 H :    0.109758
  24 H :    0.116984
  25 H :    0.131957
  26 H :    0.130873
  27 H :    0.095307
  28 H :    0.197740
  29 H :    0.195212
  30 H :    0.149365
  31 H :    0.151607
  32 H :    0.162707
  33 H :    0.132341
  34 H :    0.241279
  35 H :    0.167144
Sum of atomic charges:   -0.0000000

LOEWDIN ATOMIC CHARGES
----------------------
   0 C :    0.105750
   1 C :   -0.014749
   2 O :    0.301685
   3 C :   -0.416981
   4 O :    0.104820
   5 C :   -0.097270
   6 C :   -0.058772
   7 C :    0.131595
   8 N :    0.406848
   9 C :   -0.455857
  10 S :   -0.034927
  11 N :    0.396160
  12 C :   -0.052393
  13 C :   -0.037343
  14 C :    0.013239
  15 C :    0.039110
  16 C :   -0.002809
  17 C :   -0.189413
  18 O :    0.396151
  19 C :    0.031132
  20 H :   -0.027571
  21 H :   -0.029767
  22 H :   -0.024012
  23 H :   -0.028609
  24 H :   -0.030101
  25 H :   -0.004701
  26 H :   -0.003802
  27 H :   -0.023236
  28 H :   -0.057417
  29 H :   -0.064825
  30 H :   -0.009761
  31 H :   -0.029692
  32 H :   -0.020560
  33 H :   -0.035049
  34 H :   -0.153208
  35 H :   -0.023665

  Mayer bond orders larger than 0.100000
B(  0-C ,  1-C ) :   0.9822 B(  0-C , 20-H ) :   0.9767 B(  0-C , 21-H ) :   0.9794
B(  0-C , 22-H ) :   0.9788 B(  1-C ,  2-O ) :   0.8701 B(  1-C , 23-H ) :   0.9728
B(  1-C , 24-H ) :   0.9689 B(  2-O ,  3-C ) :   1.1278 B(  3-C ,  4-O ) :   1.9962
B(  3-C ,  5-C ) :   1.0681 B(  5-C ,  6-C ) :   1.6492 B(  5-C , 12-C ) :   0.9703
B(  6-C ,  7-C ) :   0.9664 B(  6-C ,  8-N ) :   1.1610 B(  7-C , 25-H ) :   0.9595
B(  7-C , 26-H ) :   0.9608 B(  7-C , 27-H ) :   0.9904 B(  8-N ,  9-C ) :   1.1832
B(  8-N , 28-H ) :   0.9477 B(  9-C , 10-S ) :   1.6062 B(  9-C , 11-N ) :   1.3067
B( 11-N , 12-C ) :   0.9785 B( 11-N , 29-H ) :   0.9518 B( 12-C , 13-C ) :   0.9375
B( 12-C , 30-H ) :   1.0019 B( 13-C , 14-C ) :   1.3529 B( 13-C , 19-C ) :   1.3810
B( 14-C , 15-C ) :   1.3921 B( 14-C , 31-H ) :   0.9734 B( 15-C , 16-C ) :   1.3599
B( 15-C , 32-H ) :   0.9707 B( 16-C , 17-C ) :   1.3304 B( 16-C , 33-H ) :   0.9845
B( 17-C , 18-O ) :   1.1129 B( 17-C , 19-C ) :   1.3719 B( 18-O , 34-H ) :   0.9793
B( 19-C , 35-H ) :   0.9575

MP2 TOTAL ENERGY:    -1274.340170712 Eh
FINAL SINGLE POINT ENERGY     -1274.340170711932

DIPOLE MOMENT
-------------
                                X             Y             Z
Electronic contribution:      9.59157      10.74525       7.95078
Nuclear contribution   :    -10.64892     -12.29493      -8.05101
                        -----------------------------------------
Total Dipole Moment    :     -1.05735      -1.54968      -0.10023
                        -----------------------------------------
Magnitude (a.u.)       :      1.87871
Magnitude (Debye)      :      4.77530

Rotational constants in cm-1:     0.012189     0.008504     0.006221
Rotational constants in MHz :   365.406209   254.946377   186.490612

                             ****ORCA TERMINATED NORMALLY****
TOTAL RUN TIME: 0 days 2 hours 0 minutes 10 seconds 145 msec
