                         Program Version 5.0.0 -  RELEASE  -
|  1> ! ri-mp2 cc-pvtz cc-pvtz/c TightSCF NoKeepInts
|  2>
|  3> %scf
|  4>   MaxCore 4096
|  5> end
|  6> *xyz  0  1
|  7>     C       15.2572869   14.3143664   17.2071458
|  8>     C       15.3525407   15.6048466   16.3685982
|  9>     O       16.6303755   15.6626940   15.6994884
| 10>     C       17.7865210   15.6991491   16.4275511
| 11>     O       18.4955236   14.7132634   16.5204021
| 12>     C       17.9324837   16.8819470   17.3395785
| 13>     C       17.4844639   18.1280006   17.0413989
| 14>     C       16.8145929   18.5899256   15.7629929
| 15>     N       17.7170536   19.1817180   17.9298747
| 16>     C       18.5094343   19.1043406   19.0447651
| 17>     S       18.8180287   20.4285443   19.9858153
| 18>     N       19.0339123   17.8710961   19.3395372
| 19>     C       18.6937991   16.6163584   18.6417841
| 20>     C       17.8995853   15.6930829   19.5592846
| 21>     C       18.3149702   14.3645537   19.7639911
| 22>     C       17.5774424   13.5039767   20.5941960
| 23>     C       16.4129806   13.9745527   21.2246241
| 24>     C       15.9941656   15.2962011   21.0205473
| 25>     O       14.8636751   15.7503996   21.6174321
| 26>     C       16.7302961   16.1509314   20.1941283
| 27>     H       15.9952130   14.3024505   18.0161426
| 28>     H       15.4295675   13.4327875   16.5769040
| 29>     H       14.2624542   14.2225961   17.6592009
| 30>     H       14.5511487   15.6079081   15.6185446
| 31>     H       15.2085625   16.4739018   17.0228499
| 32>     H       17.1868466   18.0342699   14.8930178
| 33>     H       17.0113115   19.6498385   15.5584549
| 34>     H       15.7277974   18.4570148   15.8116434
| 35>     H       17.3502763   20.0979627   17.7256315
| 36>     H       19.5950426   17.8367264   20.1812084
| 37>     H       19.6366679   16.1136202   18.3807390
| 38>     H       19.2038434   13.9919270   19.2598784
| 39>     H       17.9058803   12.4761344   20.7388804
| 40>     H       15.8387260   13.3115219   21.8632488
| 41>     H       14.5347066   15.0424754   22.1919858
| 42>     H       16.3898241   17.1709164   20.0525342
| 43> *
| 44>
| 45>                          ****END OF INPUT****

CARTESIAN COORDINATES (ANGSTROEM)
---------------------------------
  C     15.257287   14.314366   17.207146
  C     15.352541   15.604847   16.368598
  O     16.630375   15.662694   15.699488
  C     17.786521   15.699149   16.427551
  O     18.495524   14.713263   16.520402
  C     17.932484   16.881947   17.339578
  C     17.484464   18.128001   17.041399
  C     16.814593   18.589926   15.762993
  N     17.717054   19.181718   17.929875
  C     18.509434   19.104341   19.044765
  S     18.818029   20.428544   19.985815
  N     19.033912   17.871096   19.339537
  C     18.693799   16.616358   18.641784
  C     17.899585   15.693083   19.559285
  C     18.314970   14.364554   19.763991
  C     17.577442   13.503977   20.594196
  C     16.412981   13.974553   21.224624
  C     15.994166   15.296201   21.020547
  O     14.863675   15.750400   21.617432
  C     16.730296   16.150931   20.194128
  H     15.995213   14.302451   18.016143
  H     15.429567   13.432787   16.576904
  H     14.262454   14.222596   17.659201
  H     14.551149   15.607908   15.618545
  H     15.208562   16.473902   17.022850
  H     17.186847   18.034270   14.893018
  H     17.011312   19.649839   15.558455
  H     15.727797   18.457015   15.811643
  H     17.350276   20.097963   17.725631
  H     19.595043   17.836726   20.181208
  H     19.636668   16.113620   18.380739
  H     19.203843   13.991927   19.259878
  H     17.905880   12.476134   20.738880
  H     15.838726   13.311522   21.863249
  H     14.534707   15.042475   22.191986
  H     16.389824   17.170916   20.052534

 Total Charge           Charge          ....    0
 Multiplicity           Mult            ....    1
 Number of Electrons    NEL             ....  154
 Basis Dimension        Dim             ....  828

ORBITAL ENERGIES
----------------

  NO   OCC          E(Eh)            E(eV)
   0   2.0000     -91.890975     -2500.4806
   1   2.0000     -20.598491      -560.5134
   2   2.0000     -20.587826      -560.2232
   3   2.0000     -20.553485      -559.2888
   4   2.0000     -15.630898      -425.3384
   5   2.0000     -15.610360      -424.7795
   6   2.0000     -11.395539      -310.0884
   7   2.0000     -11.386570      -309.8443
   8   2.0000     -11.337812      -308.5176
   9   2.0000     -11.315049      -307.8981
  10   2.0000     -11.310324      -307.7696
  11   2.0000     -11.305966      -307.6510
  12   2.0000     -11.264510      -306.5229
  13   2.0000     -11.263292      -306.4898
  14   2.0000     -11.260373      -306.4103
  15   2.0000     -11.255088      -306.2665
  16   2.0000     -11.244640      -305.9822
  17   2.0000     -11.240546      -305.8708
  18   2.0000     -11.237508      -305.7881
  19   2.0000     -11.222946      -305.3919
  20   2.0000      -8.896050      -242.0738
  21   2.0000      -6.577626      -178.9863
  22   2.0000      -6.575615      -178.9316
  23   2.0000      -6.575029      -178.9156
  24   2.0000      -1.447820       -39.3972
  25   2.0000      -1.418261       -38.5928
  26   2.0000      -1.358119       -36.9563
  27   2.0000      -1.342517       -36.5317
  28   2.0000      -1.240614       -33.7588
  29   2.0000      -1.159354       -31.5476
  30   2.0000      -1.123671       -30.5766
  31   2.0000      -1.046680       -28.4816
  32   2.0000      -1.031980       -28.0816
  33   2.0000      -1.016798       -27.6685
  34   2.0000      -1.003637       -27.3103
  35   2.0000      -0.988265       -26.8921
  36   2.0000      -0.926660       -25.2157
  37   2.0000      -0.889315       -24.1995
  38   2.0000      -0.853753       -23.2318
  39   2.0000      -0.841701       -22.9039
  40   2.0000      -0.835178       -22.7263
  41   2.0000      -0.829876       -22.5821
  42   2.0000      -0.746245       -20.3064
  43   2.0000      -0.734264       -19.9803
  44   2.0000      -0.729973       -19.8636
  45   2.0000      -0.696627       -18.9562
  46   2.0000      -0.687121       -18.6975
  47   2.0000      -0.680706       -18.5230
  48   2.0000      -0.676672       -18.4132
  49   2.0000      -0.664189       -18.0735
  50   2.0000      -0.653259       -17.7761
  51   2.0000      -0.649008       -17.6604
  52   2.0000      -0.639291       -17.3960
  53   2.0000      -0.617230       -16.7957
  54   2.0000      -0.607644       -16.5348
  55   2.0000      -0.605207       -16.4685
  56   2.0000      -0.601193       -16.3593
  57   2.0000      -0.581718       -15.8293
  58   2.0000      -0.576115       -15.6769
  59   2.0000      -0.567849       -15.4520
  60   2.0000      -0.556279       -15.1371
  61   2.0000      -0.551028       -14.9942
  62   2.0000      -0.540742       -14.7143
  63   2.0000      -0.529657       -14.4127
  64   2.0000      -0.521159       -14.1814
  65   2.0000      -0.512970       -13.9586
  66   2.0000      -0.501597       -13.6491
  67   2.0000      -0.490569       -13.3491
  68   2.0000      -0.486847       -13.2478
  69   2.0000      -0.468392       -12.7456
  70   2.0000      -0.459721       -12.5097
  71   2.0000      -0.448324       -12.1995
  72   2.0000      -0.358265        -9.7489
  73   2.0000      -0.350950        -9.5498
  74   2.0000      -0.330312        -8.9883
  75   2.0000      -0.322701        -8.7811
  76   2.0000      -0.318902        -8.6778
  77   0.0000       0.071487         1.9453
  78   0.0000       0.103604         2.8192
  79   0.0000       0.117816         3.2059
  80   0.0000       0.129574         3.5259
  81   0.0000       0.137076         3.7300

MULLIKEN ATOMIC CHARGES
-----------------------
   0 C :   -0.278000
   1 C :    0.013786
   2 O :   -0.362684
   3 C :    0.451308
   4 O :   -0.385208
   5 C :   -0.232580
   6 C :    0.154749
   7 C :   -0.302244
   8 N :   -0.126866
   9 C :    0.199151
  10 S :   -0.437484
  11 N :   -0.200319
  12 C :    0.057333
  13 C :    0.008644
  14 C :   -0.159376
  15 C :   -0.134096
  16 C :   -0.273357
  17 C :    0.305423
  18 O :   -0.359847
  19 C :   -0.254189
  20 H :    0.107732
  21 H :    0.111973
  22 H :    0.095037
  23 H :    0.121401
  24 H :    0.086273
  25 H :    0.140012
  26 H :    0.116617
  27 H :    0.120827
  28 H :    0.197503
  29 H :    0.194820
  30 H :    0.157955
  31 H :    0.159956
  32 H :    0.161702
  33 H :    0.131952
  34 H :    0.241549
  35 H :    0.170547
Sum of atomic charges:   -0.0000000

LOEWDIN ATOMIC CHARGES
----------------------
   0 C :    0.111353
   1 C :   -0.023420
   2 O :    0.288860
   3 C :   -0.419405
   4 O :    0.129321
   5 C :   -0.092683
   6 C :   -0.077423
   7 C :    0.127713
   8 N :    0.404255
   9 C :   -0.458798
  10 S :   -0.034369
  11 N :    0.397595
  12 C :   -0.046099
  13 C :   -0.044593
  14 C :    0.021322
  15 C :    0.043498
  16 C :   -0.000452
  17 C :   -0.193014
  18 O :    0.394411
  19 C :    0.027617
  20 H :   -0.026416
  21 H :   -0.022346
  22 H :   -0.026311
  23 H :   -0.022150
  24 H :   -0.040748
  25 H :   -0.006090
  26 H :   -0.016101
  27 H :   -0.014978
  28 H :   -0.057844
  29 H :   -0.063358
  30 H :   -0.003613
  31 H :   -0.023308
  32 H :   -0.019309
  33 H :   -0.034903
  34 H :   -0.153283
  35 H :   -0.024933

  Mayer bond orders larger than 0.100000
B(  0-C ,  1-C ) :   0.9799 B(  0-C , 20-H ) :   0.9666 B(  0-C , 21-H ) :   0.9775
B(  0-C , 22-H ) :   0.9760 B(  1-C ,  2-O ) :   0.8971 B(  1-C , 23-H ) :   0.9789
B(  1-C , 24-H ) :   0.9680 B(  2-O ,  3-C ) :   1.1172 B(  3-C ,  4-O ) :   2.0706
B(  3-C ,  5-C ) :   0.9760 B(  5-C ,  6-C ) :   1.6660 B(  5-C , 12-C ) :   0.9637
B(  6-C ,  7-C ) :   0.9456 B(  6-C ,  8-N ) :   1.1385 B(  7-C , 25-H ) :   0.9685
B(  7-C , 26-H ) :   0.9852 B(  7-C , 27-H ) :   0.9649 B(  8-N ,  9-C ) :   1.1832
B(  8-N , 28-H ) :   0.9498 B(  9-C , 10-S ) :   1.6136 B(  9-C , 11-N ) :   1.2990
B( 11-N , 12-C ) :   0.9958 B( 11-N , 29-H ) :   0.9518 B( 12-C , 13-C ) :   0.9424
B( 12-C , 30-H ) :   0.9978 B( 13-C , 14-C ) :   1.3847 B( 13-C , 19-C ) :   1.3661
B( 14-C , 15-C ) :   1.3922 B( 14-C , 31-H ) :   0.9631 B( 15-C , 16-C ) :   1.3637
B( 15-C , 32-H ) :   0.9714 B( 16-C , 17-C ) :   1.3315 B( 16-C , 33-H ) :   0.9845
B( 17-C , 18-O ) :   1.1104 B( 17-C , 19-C ) :   1.3719 B( 18-O , 34-H ) :   0.9794
B( 19-C , 35-H ) :   0.9574

MP2 TOTAL ENERGY:    -1274.334518818 Eh
FINAL SINGLE POINT ENERGY     -1274.334518818238

DIPOLE MOMENT
-------------
                                X             Y             Z
Electronic contribution:      9.88576       8.38914       5.64563
Nuclear contribution   :    -11.37682      -9.28444      -6.02104
                        -----------------------------------------
Total Dipole Moment    :     -1.49106      -0.89530      -0.37541
                        -----------------------------------------
Magnitude (a.u.)       :      1.77925
Magnitude (Debye)      :      4.52250

Rotational constants in cm-1:     0.012072     0.009443     0.006787
Rotational constants in MHz :   361.906191   283.108486   203.478353

                             ****ORCA TERMINATED NORMALLY****
TOTAL RUN TIME: 0 days 2 hours 19 minutes 21 seconds 284 msec
