                         Program Version 5.0.0 -  RELEASE  -
|  1> ! ri-mp2 cc-pvtz cc-pvtz/c TightSCF NoKeepInts
|  2>
|  3> %scf
|  4>   MaxCore 4096
|  5> end
|  6> *xyz  0  1
|  7>     C       14.9740369   14.7663968   17.1061527
|  8>     C       15.7330957   14.7867848   15.7654285
|  9>     O       16.5891629   15.9434235   15.7412971
| 10>     C       17.7677528   15.9067513   16.4288812
| 11>     O       18.4067493   14.8735296   16.5422554
| 12>     C       17.9021773   17.0284973   17.4161372
| 13>     C       17.3595894   18.2619959   17.2507110
| 14>     C       16.5580115   18.7698616   16.0700864
| 15>     N       17.5899911   19.2559310   18.2072870
| 16>     C       18.4627258   19.1432547   19.2576384
| 17>     S       18.7755595   20.4125138   20.2708285
| 18>     N       19.0636826   17.9210584   19.4253066
| 19>     C       18.7180515   16.7012402   18.6709217
| 20>     C       17.9660850   15.7149020   19.5609768
| 21>     C       18.4092075   14.3851081   19.6838801
| 22>     C       17.7110289   13.4682697   20.4874481
| 23>     C       16.5579541   13.8832790   21.1749726
| 24>     C       16.1109914   15.2058262   21.0529910
| 25>     O       14.9920097   15.6071266   21.7070563
| 26>     C       16.8078700   16.1159806   20.2522544
| 27>     H       15.6642482   14.5902624   17.9406711
| 28>     H       14.2281181   13.9625957   17.1119748
| 29>     H       14.4560053   15.7179581   17.2778796
| 30>     H       16.3049956   13.8588566   15.6266505
| 31>     H       15.0054160   14.8617449   14.9473169
| 32>     H       15.5387525   18.3644359   16.0920447
| 33>     H       17.0204891   18.4656077   15.1228078
| 34>     H       16.4817424   19.8638320   16.0519320
| 35>     H       17.1584351   20.1601054   18.1008824
| 36>     H       19.6800057   17.8554332   20.2251737
| 37>     H       19.6578881   16.2298528   18.3488157
| 38>     H       19.2894631   14.0563521   19.1365573
| 39>     H       18.0614215   12.4408551   20.5685687
| 40>     H       16.0143304   13.1776633   21.7943136
| 41>     H       14.6861472   14.8602981   22.2433576
| 42>     H       16.4438088   17.1344158   20.1725427
| 43> *
| 44>
| 45>                          ****END OF INPUT****

CARTESIAN COORDINATES (ANGSTROEM)
---------------------------------
  C     14.974037   14.766397   17.106153
  C     15.733096   14.786785   15.765428
  O     16.589163   15.943423   15.741297
  C     17.767753   15.906751   16.428881
  O     18.406749   14.873530   16.542255
  C     17.902177   17.028497   17.416137
  C     17.359589   18.261996   17.250711
  C     16.558011   18.769862   16.070086
  N     17.589991   19.255931   18.207287
  C     18.462726   19.143255   19.257638
  S     18.775559   20.412514   20.270829
  N     19.063683   17.921058   19.425307
  C     18.718052   16.701240   18.670922
  C     17.966085   15.714902   19.560977
  C     18.409208   14.385108   19.683880
  C     17.711029   13.468270   20.487448
  C     16.557954   13.883279   21.174973
  C     16.110991   15.205826   21.052991
  O     14.992010   15.607127   21.707056
  C     16.807870   16.115981   20.252254
  H     15.664248   14.590262   17.940671
  H     14.228118   13.962596   17.111975
  H     14.456005   15.717958   17.277880
  H     16.304996   13.858857   15.626651
  H     15.005416   14.861745   14.947317
  H     15.538752   18.364436   16.092045
  H     17.020489   18.465608   15.122808
  H     16.481742   19.863832   16.051932
  H     17.158435   20.160105   18.100882
  H     19.680006   17.855433   20.225174
  H     19.657888   16.229853   18.348816
  H     19.289463   14.056352   19.136557
  H     18.061422   12.440855   20.568569
  H     16.014330   13.177663   21.794314
  H     14.686147   14.860298   22.243358
  H     16.443809   17.134416   20.172543

 Total Charge           Charge          ....    0
 Multiplicity           Mult            ....    1
 Number of Electrons    NEL             ....  154
 Basis Dimension        Dim             ....  828

ORBITAL ENERGIES
----------------

  NO   OCC          E(Eh)            E(eV)
   0   2.0000     -91.888770     -2500.4205
   1   2.0000     -20.594568      -560.4067
   2   2.0000     -20.592629      -560.3539
   3   2.0000     -20.550803      -559.2158
   4   2.0000     -15.628611      -425.2761
   5   2.0000     -15.607847      -424.7111
   6   2.0000     -11.395708      -310.0930
   7   2.0000     -11.383927      -309.7724
   8   2.0000     -11.334579      -308.4296
   9   2.0000     -11.310704      -307.7799
  10   2.0000     -11.307788      -307.7005
  11   2.0000     -11.298107      -307.4371
  12   2.0000     -11.260299      -306.4083
  13   2.0000     -11.259407      -306.3840
  14   2.0000     -11.256419      -306.3027
  15   2.0000     -11.251188      -306.1604
  16   2.0000     -11.240801      -305.8777
  17   2.0000     -11.236322      -305.7559
  18   2.0000     -11.233755      -305.6860
  19   2.0000     -11.225165      -305.4523
  20   2.0000      -8.893831      -242.0135
  21   2.0000      -6.575408      -178.9260
  22   2.0000      -6.573401      -178.8713
  23   2.0000      -6.572815      -178.8554
  24   2.0000      -1.452799       -39.5327
  25   2.0000      -1.414364       -38.4868
  26   2.0000      -1.356610       -36.9152
  27   2.0000      -1.339696       -36.4550
  28   2.0000      -1.237664       -33.6786
  29   2.0000      -1.155224       -31.4352
  30   2.0000      -1.120829       -30.4993
  31   2.0000      -1.043591       -28.3976
  32   2.0000      -1.032276       -28.0897
  33   2.0000      -1.012604       -27.5544
  34   2.0000      -0.998932       -27.1823
  35   2.0000      -0.984716       -26.7955
  36   2.0000      -0.923028       -25.1169
  37   2.0000      -0.892107       -24.2755
  38   2.0000      -0.847798       -23.0698
  39   2.0000      -0.837378       -22.7862
  40   2.0000      -0.831062       -22.6144
  41   2.0000      -0.815118       -22.1805
  42   2.0000      -0.753563       -20.5055
  43   2.0000      -0.735920       -20.0254
  44   2.0000      -0.727177       -19.7875
  45   2.0000      -0.693215       -18.8633
  46   2.0000      -0.686142       -18.6709
  47   2.0000      -0.678054       -18.4508
  48   2.0000      -0.673140       -18.3171
  49   2.0000      -0.659745       -17.9526
  50   2.0000      -0.652391       -17.7525
  51   2.0000      -0.645423       -17.5629
  52   2.0000      -0.635052       -17.2806
  53   2.0000      -0.607413       -16.5285
  54   2.0000      -0.601936       -16.3795
  55   2.0000      -0.600045       -16.3280
  56   2.0000      -0.598228       -16.2786
  57   2.0000      -0.580788       -15.8041
  58   2.0000      -0.575372       -15.6567
  59   2.0000      -0.562443       -15.3049
  60   2.0000      -0.555933       -15.1277
  61   2.0000      -0.551685       -15.0121
  62   2.0000      -0.539100       -14.6697
  63   2.0000      -0.527723       -14.3601
  64   2.0000      -0.520049       -14.1512
  65   2.0000      -0.511259       -13.9121
  66   2.0000      -0.498680       -13.5698
  67   2.0000      -0.493375       -13.4254
  68   2.0000      -0.481305       -13.0970
  69   2.0000      -0.464004       -12.6262
  70   2.0000      -0.460155       -12.5215
  71   2.0000      -0.449507       -12.2317
  72   2.0000      -0.354464        -9.6455
  73   2.0000      -0.346800        -9.4369
  74   2.0000      -0.327976        -8.9247
  75   2.0000      -0.318369        -8.6633
  76   2.0000      -0.315637        -8.5889
  77   0.0000       0.073124         1.9898
  78   0.0000       0.108464         2.9514
  79   0.0000       0.119303         3.2464
  80   0.0000       0.133220         3.6251
  81   0.0000       0.141119         3.8400

MULLIKEN ATOMIC CHARGES
-----------------------
   0 C :   -0.303699
   1 C :    0.031992
   2 O :   -0.367093
   3 C :    0.440383
   4 O :   -0.413475
   5 C :   -0.167056
   6 C :    0.136018
   7 C :   -0.283125
   8 N :   -0.123579
   9 C :    0.199787
  10 S :   -0.438704
  11 N :   -0.199419
  12 C :    0.050040
  13 C :    0.028232
  14 C :   -0.155318
  15 C :   -0.138112
  16 C :   -0.276410
  17 C :    0.309943
  18 O :   -0.360293
  19 C :   -0.264601
  20 H :    0.119994
  21 H :    0.103719
  22 H :    0.094548
  23 H :    0.114137
  24 H :    0.105663
  25 H :    0.124900
  26 H :    0.125791
  27 H :    0.102804
  28 H :    0.197183
  29 H :    0.193670
  30 H :    0.155315
  31 H :    0.158022
  32 H :    0.160414
  33 H :    0.130271
  34 H :    0.240554
  35 H :    0.167502
Sum of atomic charges:    0.0000000

LOEWDIN ATOMIC CHARGES
----------------------
   0 C :    0.105626
   1 C :   -0.018487
   2 O :    0.296939
   3 C :   -0.414324
   4 O :    0.114889
   5 C :   -0.092448
   6 C :   -0.070350
   7 C :    0.125833
   8 N :    0.404618
   9 C :   -0.458424
  10 S :   -0.035776
  11 N :    0.397506
  12 C :   -0.045412
  13 C :   -0.041744
  14 C :    0.020833
  15 C :    0.040721
  16 C :   -0.002495
  17 C :   -0.193876
  18 O :    0.394186
  19 C :    0.029715
  20 H :   -0.023158
  21 H :   -0.025848
  22 H :   -0.029381
  23 H :   -0.027130
  24 H :   -0.026125
  25 H :   -0.010851
  26 H :   -0.007780
  27 H :   -0.020220
  28 H :   -0.058875
  29 H :   -0.063991
  30 H :   -0.004320
  31 H :   -0.024474
  32 H :   -0.020507
  33 H :   -0.035787
  34 H :   -0.154350
  35 H :   -0.024734

  Mayer bond orders larger than 0.100000
B(  0-C ,  1-C ) :   0.9626 B(  0-C , 20-H ) :   0.9680 B(  0-C , 21-H ) :   0.9777
B(  0-C , 22-H ) :   0.9767 B(  1-C ,  2-O ) :   0.8907 B(  1-C , 23-H ) :   0.9773
B(  1-C , 24-H ) :   0.9848 B(  2-O ,  3-C ) :   1.1123 B(  3-C ,  4-O ) :   2.0026
B(  3-C ,  5-C ) :   1.0350 B(  5-C ,  6-C ) :   1.6629 B(  5-C , 12-C ) :   0.9629
B(  6-C ,  7-C ) :   0.9541 B(  6-C ,  8-N ) :   1.1393 B(  7-C , 25-H ) :   0.9632
B(  7-C , 26-H ) :   0.9684 B(  7-C , 27-H ) :   0.9895 B(  8-N ,  9-C ) :   1.1818
B(  8-N , 28-H ) :   0.9494 B(  9-C , 10-S ) :   1.6122 B(  9-C , 11-N ) :   1.3007
B( 11-N , 12-C ) :   0.9911 B( 11-N , 29-H ) :   0.9520 B( 12-C , 13-C ) :   0.9433
B( 12-C , 30-H ) :   0.9990 B( 13-C , 14-C ) :   1.3817 B( 13-C , 19-C ) :   1.3690
B( 14-C , 15-C ) :   1.3938 B( 14-C , 31-H ) :   0.9627 B( 15-C , 16-C ) :   1.3623
B( 15-C , 32-H ) :   0.9715 B( 16-C , 17-C ) :   1.3313 B( 16-C , 33-H ) :   0.9853
B( 17-C , 18-O ) :   1.1095 B( 17-C , 19-C ) :   1.3755 B( 18-O , 34-H ) :   0.9802
B( 19-C , 35-H ) :   0.9581

MP2 TOTAL ENERGY:    -1274.337556518 Eh
FINAL SINGLE POINT ENERGY     -1274.337556517844

DIPOLE MOMENT
-------------
                                X             Y             Z
Electronic contribution:     10.17307       8.96736       6.72678
Nuclear contribution   :    -11.52749     -10.27141      -7.57498
                        -----------------------------------------
Total Dipole Moment    :     -1.35443      -1.30405      -0.84820
                        -----------------------------------------
Magnitude (a.u.)       :      2.06264
Magnitude (Debye)      :      5.24280

Rotational constants in cm-1:     0.011714     0.009443     0.006654
Rotational constants in MHz :   351.191372   283.108443   199.470779

                             ****ORCA TERMINATED NORMALLY****
TOTAL RUN TIME: 0 days 1 hours 34 minutes 52 seconds 467 msec
