                         Program Version 5.0.0 -  RELEASE  -
|  1> ! ri-mp2 cc-pvtz cc-pvtz/c TightSCF NoKeepInts
|  2>
|  3> %scf
|  4>   MaxCore 4096
|  5> end
|  6> *xyz  0  1
|  7>     C       15.0618170   15.7136119   17.4276259
|  8>     C       15.5467522   15.2698374   16.0308549
|  9>     O       16.9682541   14.9984051   15.9253320
| 10>     C       18.0819810   15.5936746   16.4783221
| 11>     O       19.1284777   14.9718442   16.4700493
| 12>     C       17.9268254   16.7630186   17.3956335
| 13>     C       17.4055208   17.9408238   16.9766491
| 14>     C       16.8766685   18.2688913   15.5965608
| 15>     N       17.4079709   19.0476633   17.8284784
| 16>     C       18.0617747   19.1025556   19.0313175
| 17>     S       18.0953470   20.4840111   19.9393538
| 18>     N       18.6916468   17.9538818   19.4420044
| 19>     C       18.5992491   16.6432364   18.7672335
| 20>     C       17.9005641   15.6080067   19.6456555
| 21>     C       18.3276247   14.2673780   19.6220494
| 22>     C       17.6903462   13.2965093   20.4121640
| 23>     C       16.6144005   13.6671519   21.2360147
| 24>     C       16.1833091   15.0000320   21.2626247
| 25>     O       15.1372003   15.3590823   22.0483140
| 26>     C       16.8190070   15.9649112   20.4746077
| 27>     H       15.5218910   15.0944184   18.2059667
| 28>     H       13.9772026   15.5679108   17.5008890
| 29>     H       15.2470711   16.7683578   17.6418064
| 30>     H       15.0116518   14.3518640   15.7545258
| 31>     H       15.2588083   16.0315603   15.2965811
| 32>     H       17.1670853   17.5186920   14.8511047
| 33>     H       17.2763911   19.2276016   15.2417867
| 34>     H       15.7826835   18.3434956   15.5997768
| 35>     H       16.9703676   19.9069457   17.5351947
| 36>     H       19.1566940   18.0189950   20.3387174
| 37>     H       19.6277990   16.2903566   18.5997747
| 38>     H       19.1535822   13.9740505   18.9770666
| 39>     H       18.0298294   12.2625639   20.3797696
| 40>     H       16.1181859   12.9196463   21.8460962
| 41>     H       14.8641297   14.5732811   22.5454425
| 42>     H       16.4588906   16.9877340   20.5086559
| 43> *
| 44>
| 45>                          ****END OF INPUT****

CARTESIAN COORDINATES (ANGSTROEM)
---------------------------------
  C     15.061817   15.713612   17.427626
  C     15.546752   15.269837   16.030855
  O     16.968254   14.998405   15.925332
  C     18.081981   15.593675   16.478322
  O     19.128478   14.971844   16.470049
  C     17.926825   16.763019   17.395633
  C     17.405521   17.940824   16.976649
  C     16.876669   18.268891   15.596561
  N     17.407971   19.047663   17.828478
  C     18.061775   19.102556   19.031318
  S     18.095347   20.484011   19.939354
  N     18.691647   17.953882   19.442004
  C     18.599249   16.643236   18.767233
  C     17.900564   15.608007   19.645656
  C     18.327625   14.267378   19.622049
  C     17.690346   13.296509   20.412164
  C     16.614400   13.667152   21.236015
  C     16.183309   15.000032   21.262625
  O     15.137200   15.359082   22.048314
  C     16.819007   15.964911   20.474608
  H     15.521891   15.094418   18.205967
  H     13.977203   15.567911   17.500889
  H     15.247071   16.768358   17.641806
  H     15.011652   14.351864   15.754526
  H     15.258808   16.031560   15.296581
  H     17.167085   17.518692   14.851105
  H     17.276391   19.227602   15.241787
  H     15.782683   18.343496   15.599777
  H     16.970368   19.906946   17.535195
  H     19.156694   18.018995   20.338717
  H     19.627799   16.290357   18.599775
  H     19.153582   13.974050   18.977067
  H     18.029829   12.262564   20.379770
  H     16.118186   12.919646   21.846096
  H     14.864130   14.573281   22.545443
  H     16.458891   16.987734   20.508656

 Total Charge           Charge          ....    0
 Multiplicity           Mult            ....    1
 Number of Electrons    NEL             ....  154
 Basis Dimension        Dim             ....  828

ORBITAL ENERGIES
----------------

  NO   OCC          E(Eh)            E(eV)
   0   2.0000     -91.890718     -2500.4736
   1   2.0000     -20.597679      -560.4913
   2   2.0000     -20.597675      -560.4912
   3   2.0000     -20.546403      -559.0961
   4   2.0000     -15.628829      -425.2821
   5   2.0000     -15.611203      -424.8024
   6   2.0000     -11.400557      -310.2249
   7   2.0000     -11.387064      -309.8578
   8   2.0000     -11.331564      -308.3475
   9   2.0000     -11.314366      -307.8795
  10   2.0000     -11.313435      -307.8542
  11   2.0000     -11.312550      -307.8301
  12   2.0000     -11.270908      -306.6970
  13   2.0000     -11.265732      -306.5561
  14   2.0000     -11.261759      -306.4480
  15   2.0000     -11.254857      -306.2602
  16   2.0000     -11.243931      -305.9629
  17   2.0000     -11.239446      -305.8409
  18   2.0000     -11.236312      -305.7556
  19   2.0000     -11.233142      -305.6693
  20   2.0000      -8.895812      -242.0674
  21   2.0000      -6.577399      -178.9801
  22   2.0000      -6.575375      -178.9250
  23   2.0000      -6.574797      -178.9093
  24   2.0000      -1.442158       -39.2431
  25   2.0000      -1.417490       -38.5719
  26   2.0000      -1.354197       -36.8496
  27   2.0000      -1.341594       -36.5066
  28   2.0000      -1.240480       -33.7552
  29   2.0000      -1.159112       -31.5410
  30   2.0000      -1.125372       -30.6229
  31   2.0000      -1.047859       -28.5137
  32   2.0000      -1.040577       -28.3155
  33   2.0000      -1.017310       -27.6824
  34   2.0000      -1.005689       -27.3662
  35   2.0000      -0.990506       -26.9530
  36   2.0000      -0.928167       -25.2567
  37   2.0000      -0.900390       -24.5008
  38   2.0000      -0.854839       -23.2614
  39   2.0000      -0.840905       -22.8822
  40   2.0000      -0.834486       -22.7075
  41   2.0000      -0.828385       -22.5415
  42   2.0000      -0.745385       -20.2830
  43   2.0000      -0.736811       -20.0496
  44   2.0000      -0.730633       -19.8815
  45   2.0000      -0.695026       -18.9126
  46   2.0000      -0.687003       -18.6943
  47   2.0000      -0.678513       -18.4633
  48   2.0000      -0.674380       -18.3508
  49   2.0000      -0.661809       -18.0087
  50   2.0000      -0.655782       -17.8447
  51   2.0000      -0.652076       -17.7439
  52   2.0000      -0.641477       -17.4555
  53   2.0000      -0.615603       -16.7514
  54   2.0000      -0.608670       -16.5627
  55   2.0000      -0.605287       -16.4707
  56   2.0000      -0.602171       -16.3859
  57   2.0000      -0.591433       -16.0937
  58   2.0000      -0.578118       -15.7314
  59   2.0000      -0.573047       -15.5934
  60   2.0000      -0.565652       -15.3922
  61   2.0000      -0.557114       -15.1598
  62   2.0000      -0.542913       -14.7734
  63   2.0000      -0.529629       -14.4119
  64   2.0000      -0.520484       -14.1631
  65   2.0000      -0.513740       -13.9796
  66   2.0000      -0.501254       -13.6398
  67   2.0000      -0.499513       -13.5924
  68   2.0000      -0.483346       -13.1525
  69   2.0000      -0.466479       -12.6936
  70   2.0000      -0.454164       -12.3584
  71   2.0000      -0.449240       -12.2244
  72   2.0000      -0.356595        -9.7034
  73   2.0000      -0.348797        -9.4912
  74   2.0000      -0.330252        -8.9866
  75   2.0000      -0.323093        -8.7918
  76   2.0000      -0.318878        -8.6771
  77   0.0000       0.082944         2.2570
  78   0.0000       0.107603         2.9280
  79   0.0000       0.113873         3.0986
  80   0.0000       0.129949         3.5361
  81   0.0000       0.131124         3.5681

MULLIKEN ATOMIC CHARGES
-----------------------
   0 C :   -0.340394
   1 C :    0.039236
   2 O :   -0.329551
   3 C :    0.420088
   4 O :   -0.385873
   5 C :   -0.196150
   6 C :    0.136018
   7 C :   -0.335636
   8 N :   -0.137556
   9 C :    0.201386
  10 S :   -0.439604
  11 N :   -0.223299
  12 C :    0.082094
  13 C :    0.018631
  14 C :   -0.211677
  15 C :   -0.135708
  16 C :   -0.276454
  17 C :    0.317654
  18 O :   -0.358001
  19 C :   -0.269954
  20 H :    0.131175
  21 H :    0.118800
  22 H :    0.108293
  23 H :    0.133096
  24 H :    0.083990
  25 H :    0.131627
  26 H :    0.138630
  27 H :    0.122522
  28 H :    0.197137
  29 H :    0.201650
  30 H :    0.167957
  31 H :    0.176594
  32 H :    0.163860
  33 H :    0.132034
  34 H :    0.241081
  35 H :    0.176305
Sum of atomic charges:    0.0000000

LOEWDIN ATOMIC CHARGES
----------------------
   0 C :    0.104716
   1 C :   -0.015938
   2 O :    0.294017
   3 C :   -0.416050
   4 O :    0.120530
   5 C :   -0.080335
   6 C :   -0.097188
   7 C :    0.125432
   8 N :    0.402785
   9 C :   -0.457733
  10 S :   -0.036732
  11 N :    0.398372
  12 C :   -0.042457
  13 C :   -0.043279
  14 C :    0.019932
  15 C :    0.043896
  16 C :   -0.001786
  17 C :   -0.194098
  18 O :    0.395303
  19 C :    0.027978
  20 H :   -0.020904
  21 H :   -0.022667
  22 H :   -0.036844
  23 H :   -0.016677
  24 H :   -0.038422
  25 H :   -0.007541
  26 H :   -0.009532
  27 H :   -0.017802
  28 H :   -0.057726
  29 H :   -0.063411
  30 H :   -0.001704
  31 H :   -0.021637
  32 H :   -0.018576
  33 H :   -0.035033
  34 H :   -0.153586
  35 H :   -0.025301

  Mayer bond orders larger than 0.100000
B(  0-C ,  1-C ) :   0.9547 B(  0-C , 20-H ) :   0.9659 B(  0-C , 21-H ) :   0.9779
B(  0-C , 22-H ) :   0.9742 B(  1-C ,  2-O ) :   0.9084 B(  1-C , 23-H ) :   0.9792
B(  1-C , 24-H ) :   0.9744 B(  2-O ,  3-C ) :   1.1781 B(  3-C ,  4-O ) :   2.0732
B(  3-C ,  5-C ) :   0.9287 B(  5-C ,  6-C ) :   1.6973 B(  5-C , 12-C ) :   0.9556
B(  6-C ,  7-C ) :   0.9431 B(  6-C ,  8-N ) :   1.1006 B(  7-C , 25-H ) :   0.9789
B(  7-C , 26-H ) :   0.9739 B(  7-C , 27-H ) :   0.9641 B(  8-N ,  9-C ) :   1.1937
B(  8-N , 28-H ) :   0.9518 B(  9-C , 10-S ) :   1.6105 B(  9-C , 11-N ) :   1.2892
B( 11-N , 12-C ) :   0.9873 B( 11-N , 29-H ) :   0.9483 B( 12-C , 13-C ) :   0.9474
B( 12-C , 30-H ) :   0.9945 B( 13-C , 14-C ) :   1.3912 B( 13-C , 19-C ) :   1.3443
B( 14-C , 15-C ) :   1.3997 B( 14-C , 31-H ) :   0.9575 B( 15-C , 16-C ) :   1.3599
B( 15-C , 32-H ) :   0.9702 B( 16-C , 17-C ) :   1.3300 B( 16-C , 33-H ) :   0.9848
B( 17-C , 18-O ) :   1.1107 B( 17-C , 19-C ) :   1.3690 B( 18-O , 34-H ) :   0.9796
B( 19-C , 35-H ) :   0.9577

MP2 TOTAL ENERGY:    -1274.325321882 Eh
FINAL SINGLE POINT ENERGY     -1274.325321882150

DIPOLE MOMENT
-------------
                                X             Y             Z
Electronic contribution:      9.46866       5.74233       6.54042
Nuclear contribution   :    -11.09347      -6.75678      -7.18186
                        -----------------------------------------
Total Dipole Moment    :     -1.62481      -1.01445      -0.64145
                        -----------------------------------------
Magnitude (a.u.)       :      2.02004
Magnitude (Debye)      :      5.13454

Rotational constants in cm-1:     0.011593     0.009643     0.006807
Rotational constants in MHz :   347.556276   289.092326   204.069365

                             ****ORCA TERMINATED NORMALLY****
TOTAL RUN TIME: 0 days 2 hours 11 minutes 46 seconds 65 msec
