                         Program Version 5.0.0 -  RELEASE  -
|  1> ! ri-mp2 cc-pvtz cc-pvtz/c TightSCF NoKeepInts
|  2>
|  3> %scf
|  4>   MaxCore 4096
|  5> end
|  6> *xyz  0  1
|  7>     C       14.8000639   15.4538584   16.4110265
|  8>     C       15.9164151   14.6260444   17.0759789
|  9>     O       17.1556343   14.8127171   16.3584598
| 10>     C       17.7761031   16.0229796   16.1950182
| 11>     O       18.1626578   16.3629604   15.0923909
| 12>     C       17.7715346   16.9684038   17.3569401
| 13>     C       17.3479697   18.2458348   17.2032761
| 14>     C       16.6742828   18.8411402   15.9854949
| 15>     N       17.5784480   19.1873512   18.2085692
| 16>     C       18.4154158   18.9905318   19.2747904
| 17>     S       18.7612126   20.1981760   20.3500783
| 18>     N       18.9610178   17.7372014   19.4020493
| 19>     C       18.5706610   16.5559919   18.6067082
| 20>     C       17.8823237   15.5386960   19.5074997
| 21>     C       18.2913468   14.1917111   19.4944836
| 22>     C       17.6581524   13.2443850   20.3162549
| 23>     C       16.6105273   13.6465555   21.1620834
| 24>     C       16.2042774   14.9875830   21.1832838
| 25>     O       15.1891760   15.3776587   21.9939370
| 26>     C       16.8338868   15.9285745   20.3623868
| 27>     H       14.9097059   16.5198349   16.6367313
| 28>     H       13.8190280   15.1352964   16.7841133
| 29>     H       14.8106303   15.3193195   15.3216936
| 30>     H       15.9838207   14.9006526   18.1277677
| 31>     H       15.6455181   13.5632714   17.0319210
| 32>     H       16.1645540   18.0798844   15.3832984
| 33>     H       17.4200024   19.3141503   15.3337008
| 34>     H       15.9267049   19.5960692   16.2565584
| 35>     H       17.2140039   20.1217567   18.1094246
| 36>     H       19.5630447   17.6199028   20.2073951
| 37>     H       19.5008439   16.0937336   18.2460644
| 38>     H       19.0972354   13.8744525   18.8369865
| 39>     H       17.9803867   12.2043335   20.2962543
| 40>     H       16.1192916   12.9176819   21.7987263
| 41>     H       14.9288111   14.6117784   22.5279490
| 42>     H       16.5023116   16.9615271   20.3947052
| 43> *
| 44>
| 45>                          ****END OF INPUT****

CARTESIAN COORDINATES (ANGSTROEM)
---------------------------------
  C     14.800064   15.453858   16.411026
  C     15.916415   14.626044   17.075979
  O     17.155634   14.812717   16.358460
  C     17.776103   16.022980   16.195018
  O     18.162658   16.362960   15.092391
  C     17.771535   16.968404   17.356940
  C     17.347970   18.245835   17.203276
  C     16.674283   18.841140   15.985495
  N     17.578448   19.187351   18.208569
  C     18.415416   18.990532   19.274790
  S     18.761213   20.198176   20.350078
  N     18.961018   17.737201   19.402049
  C     18.570661   16.555992   18.606708
  C     17.882324   15.538696   19.507500
  C     18.291347   14.191711   19.494484
  C     17.658152   13.244385   20.316255
  C     16.610527   13.646555   21.162083
  C     16.204277   14.987583   21.183284
  O     15.189176   15.377659   21.993937
  C     16.833887   15.928574   20.362387
  H     14.909706   16.519835   16.636731
  H     13.819028   15.135296   16.784113
  H     14.810630   15.319319   15.321694
  H     15.983821   14.900653   18.127768
  H     15.645518   13.563271   17.031921
  H     16.164554   18.079884   15.383298
  H     17.420002   19.314150   15.333701
  H     15.926705   19.596069   16.256558
  H     17.214004   20.121757   18.109425
  H     19.563045   17.619903   20.207395
  H     19.500844   16.093734   18.246064
  H     19.097235   13.874453   18.836986
  H     17.980387   12.204333   20.296254
  H     16.119292   12.917682   21.798726
  H     14.928811   14.611778   22.527949
  H     16.502312   16.961527   20.394705

 Total Charge           Charge          ....    0
 Multiplicity           Mult            ....    1
 Number of Electrons    NEL             ....  154
 Basis Dimension        Dim             ....  828

ORBITAL ENERGIES
----------------

  NO   OCC          E(Eh)            E(eV)
   0   2.0000     -91.890614     -2500.4707
   1   2.0000     -20.604128      -560.6668
   2   2.0000     -20.591772      -560.3306
   3   2.0000     -20.551825      -559.2436
   4   2.0000     -15.627297      -425.2404
   5   2.0000     -15.611841      -424.8198
   6   2.0000     -11.395596      -310.0899
   7   2.0000     -11.386207      -309.8344
   8   2.0000     -11.330655      -308.3228
   9   2.0000     -11.322750      -308.1077
  10   2.0000     -11.319431      -308.0174
  11   2.0000     -11.298670      -307.4525
  12   2.0000     -11.268338      -306.6271
  13   2.0000     -11.263873      -306.5056
  14   2.0000     -11.261474      -306.4403
  15   2.0000     -11.256729      -306.3112
  16   2.0000     -11.252172      -306.1872
  17   2.0000     -11.246711      -306.0386
  18   2.0000     -11.246573      -306.0348
  19   2.0000     -11.231273      -305.6185
  20   2.0000      -8.895684      -242.0639
  21   2.0000      -6.577263      -178.9764
  22   2.0000      -6.575250      -178.9217
  23   2.0000      -6.574666      -178.9058
  24   2.0000      -1.445100       -39.3232
  25   2.0000      -1.423912       -38.7466
  26   2.0000      -1.356872       -36.9224
  27   2.0000      -1.340993       -36.4903
  28   2.0000      -1.241219       -33.7753
  29   2.0000      -1.165575       -31.7169
  30   2.0000      -1.123764       -30.5792
  31   2.0000      -1.050121       -28.5752
  32   2.0000      -1.035434       -28.1756
  33   2.0000      -1.024030       -27.8653
  34   2.0000      -1.003177       -27.2978
  35   2.0000      -0.988811       -26.9069
  36   2.0000      -0.928611       -25.2688
  37   2.0000      -0.894025       -24.3277
  38   2.0000      -0.851654       -23.1747
  39   2.0000      -0.844773       -22.9874
  40   2.0000      -0.842754       -22.9325
  41   2.0000      -0.832145       -22.6438
  42   2.0000      -0.753312       -20.4987
  43   2.0000      -0.738107       -20.0849
  44   2.0000      -0.720176       -19.5970
  45   2.0000      -0.703063       -19.1313
  46   2.0000      -0.692982       -18.8570
  47   2.0000      -0.681673       -18.5493
  48   2.0000      -0.675148       -18.3717
  49   2.0000      -0.665948       -18.1214
  50   2.0000      -0.653521       -17.7832
  51   2.0000      -0.648254       -17.6399
  52   2.0000      -0.636531       -17.3209
  53   2.0000      -0.622319       -16.9342
  54   2.0000      -0.613168       -16.6852
  55   2.0000      -0.607570       -16.5328
  56   2.0000      -0.604369       -16.4457
  57   2.0000      -0.584194       -15.8967
  58   2.0000      -0.578094       -15.7307
  59   2.0000      -0.567325       -15.4377
  60   2.0000      -0.556718       -15.1491
  61   2.0000      -0.548367       -14.9218
  62   2.0000      -0.546948       -14.8832
  63   2.0000      -0.531807       -14.4712
  64   2.0000      -0.528650       -14.3853
  65   2.0000      -0.518616       -14.1123
  66   2.0000      -0.506480       -13.7820
  67   2.0000      -0.502888       -13.6843
  68   2.0000      -0.482459       -13.1284
  69   2.0000      -0.467864       -12.7312
  70   2.0000      -0.453592       -12.3429
  71   2.0000      -0.448892       -12.2150
  72   2.0000      -0.357990        -9.7414
  73   2.0000      -0.355637        -9.6774
  74   2.0000      -0.332009        -9.0344
  75   2.0000      -0.329220        -8.9585
  76   2.0000      -0.319094        -8.6830
  77   0.0000       0.081351         2.2137
  78   0.0000       0.099566         2.7093
  79   0.0000       0.119172         3.2428
  80   0.0000       0.126323         3.4374
  81   0.0000       0.130636         3.5548

MULLIKEN ATOMIC CHARGES
-----------------------
   0 C :   -0.318336
   1 C :    0.038865
   2 O :   -0.338548
   3 C :    0.400605
   4 O :   -0.367463
   5 C :   -0.209845
   6 C :    0.151694
   7 C :   -0.299119
   8 N :   -0.128498
   9 C :    0.198264
  10 S :   -0.437257
  11 N :   -0.200846
  12 C :    0.035513
  13 C :    0.029783
  14 C :   -0.188669
  15 C :   -0.133521
  16 C :   -0.271834
  17 C :    0.301011
  18 O :   -0.353970
  19 C :   -0.244386
  20 H :    0.092950
  21 H :    0.109148
  22 H :    0.117544
  23 H :    0.103390
  24 H :    0.120980
  25 H :    0.122738
  26 H :    0.147735
  27 H :    0.103309
  28 H :    0.197744
  29 H :    0.194061
  30 H :    0.158081
  31 H :    0.153097
  32 H :    0.164911
  33 H :    0.135304
  34 H :    0.241533
  35 H :    0.174031
Sum of atomic charges:    0.0000000

LOEWDIN ATOMIC CHARGES
----------------------
   0 C :    0.104114
   1 C :   -0.017353
   2 O :    0.295979
   3 C :   -0.421968
   4 O :    0.131441
   5 C :   -0.088749
   6 C :   -0.082705
   7 C :    0.127869
   8 N :    0.404942
   9 C :   -0.457945
  10 S :   -0.034725
  11 N :    0.396759
  12 C :   -0.051287
  13 C :   -0.046343
  14 C :    0.016977
  15 C :    0.044452
  16 C :    0.000872
  17 C :   -0.191955
  18 O :    0.397770
  19 C :    0.030168
  20 H :   -0.034846
  21 H :   -0.023725
  22 H :   -0.022588
  23 H :   -0.039765
  24 H :   -0.020425
  25 H :   -0.011282
  26 H :   -0.004243
  27 H :   -0.020119
  28 H :   -0.056875
  29 H :   -0.064295
  30 H :   -0.006770
  31 H :   -0.027531
  32 H :   -0.018425
  33 H :   -0.033505
  34 H :   -0.152272
  35 H :   -0.021647

  Mayer bond orders larger than 0.100000
B(  0-C ,  1-C ) :   0.9663 B(  0-C , 20-H ) :   0.9766 B(  0-C , 21-H ) :   0.9780
B(  0-C , 22-H ) :   0.9746 B(  1-C ,  2-O ) :   0.8923 B(  1-C , 23-H ) :   0.9598
B(  1-C , 24-H ) :   0.9827 B(  2-O ,  3-C ) :   1.1682 B(  3-C ,  4-O ) :   2.1138
B(  3-C ,  5-C ) :   0.9202 B(  5-C ,  6-C ) :   1.7085 B(  5-C , 12-C ) :   0.9615
B(  6-C ,  7-C ) :   0.9558 B(  6-C ,  8-N ) :   1.1267 B(  7-C , 25-H ) :   0.9753
B(  7-C , 26-H ) :   0.9589 B(  7-C , 27-H ) :   0.9786 B(  8-N ,  9-C ) :   1.1937
B(  8-N , 28-H ) :   0.9508 B(  9-C , 10-S ) :   1.6163 B(  9-C , 11-N ) :   1.2843
B( 11-N , 12-C ) :   0.9972 B( 11-N , 29-H ) :   0.9506 B( 12-C , 13-C ) :   0.9407
B( 12-C , 30-H ) :   1.0097 B( 13-C , 14-C ) :   1.3755 B( 13-C , 19-C ) :   1.3598
B( 14-C , 15-C ) :   1.3899 B( 14-C , 31-H ) :   0.9696 B( 15-C , 16-C ) :   1.3674
B( 15-C , 32-H ) :   0.9694 B( 16-C , 17-C ) :   1.3272 B( 16-C , 33-H ) :   0.9830
B( 17-C , 18-O ) :   1.1156 B( 17-C , 19-C ) :   1.3686 B( 18-O , 34-H ) :   0.9788
B( 19-C , 35-H ) :   0.9580

MP2 TOTAL ENERGY:    -1274.328471758 Eh
FINAL SINGLE POINT ENERGY     -1274.328471757557

DIPOLE MOMENT
-------------
                                X             Y             Z
Electronic contribution:     10.36958       6.52234       7.08629
Nuclear contribution   :    -11.75857      -8.18911      -6.75309
                        -----------------------------------------
Total Dipole Moment    :     -1.38899      -1.66677       0.33320
                        -----------------------------------------
Magnitude (a.u.)       :      2.19509
Magnitude (Debye)      :      5.57948

Rotational constants in cm-1:     0.011455     0.009722     0.006498
Rotational constants in MHz :   343.409301   291.472355   194.793759

                             ****ORCA TERMINATED NORMALLY****
TOTAL RUN TIME: 0 days 1 hours 51 minutes 11 seconds 244 msec
