                         Program Version 5.0.0 -  RELEASE  -
|  1> ! ri-mp2 cc-pvtz cc-pvtz/c TightSCF NoKeepInts
|  2>
|  3> %scf
|  4>   MaxCore 4096
|  5> end
|  6> *xyz  0  1
|  7>     C       14.9223142   13.9249703   16.0669534
|  8>     C       15.4371032   15.1649847   16.8164105
|  9>     O       16.4752149   15.7564420   16.0155884
| 10>     C       17.7344344   15.7543176   16.5347988
| 11>     O       18.3158788   14.6997563   16.7229310
| 12>     C       17.9766980   16.9427311   17.4146402
| 13>     C       17.5319278   18.1905796   17.1251964
| 14>     C       16.7701189   18.6278281   15.8916797
| 15>     N       17.8372445   19.2531236   17.9808879
| 16>     C       18.6856858   19.1720432   19.0542423
| 17>     S       19.0831359   20.5028638   19.9518924
| 18>     N       19.1872742   17.9282260   19.3475984
| 19>     C       18.7692768   16.6719276   18.6960101
| 20>     C       17.9508403   15.8132226   19.6565598
| 21>     C       18.3061515   14.4727691   19.8938695
| 22>     C       17.5421599   13.6711710   20.7583906
| 23>     C       16.4109333   14.2132687   21.3916007
| 24>     C       16.0508716   15.5466232   21.1549219
| 25>     O       14.9522589   16.0700979   21.7546429
| 26>     C       16.8125003   16.3416886   20.2928838
| 27>     H       15.7310236   13.1946025   15.9350385
| 28>     H       14.5396891   14.2004931   15.0764767
| 29>     H       14.1132749   13.4428312   16.6287173
| 30>     H       14.6166618   15.8811971   16.9518709
| 31>     H       15.8092657   14.8735464   17.8091924
| 32>     H       17.1546984   18.1283398   14.9934605
| 33>     H       16.8476067   19.7074269   15.7136704
| 34>     H       15.7060101   18.3776977   15.9834293
| 35>     H       17.4811174   20.1743488   17.7808505
| 36>     H       19.7883458   17.8923989   20.1610235
| 37>     H       19.6778672   16.1168205   18.4206439
| 38>     H       19.1685689   14.0446859   19.3881576
| 39>     H       17.8249784   12.6336766   20.9281454
| 40>     H       15.8168341   13.5964859   22.0578295
| 41>     H       14.6026422   15.3972064   22.3582975
| 42>     H       16.5163924   17.3716074   20.1254972
| 43> *
| 44>
| 45>                          ****END OF INPUT****

CARTESIAN COORDINATES (ANGSTROEM)
---------------------------------
  C     14.922314   13.924970   16.066953
  C     15.437103   15.164985   16.816410
  O     16.475215   15.756442   16.015588
  C     17.734434   15.754318   16.534799
  O     18.315879   14.699756   16.722931
  C     17.976698   16.942731   17.414640
  C     17.531928   18.190580   17.125196
  C     16.770119   18.627828   15.891680
  N     17.837244   19.253124   17.980888
  C     18.685686   19.172043   19.054242
  S     19.083136   20.502864   19.951892
  N     19.187274   17.928226   19.347598
  C     18.769277   16.671928   18.696010
  C     17.950840   15.813223   19.656560
  C     18.306151   14.472769   19.893870
  C     17.542160   13.671171   20.758391
  C     16.410933   14.213269   21.391601
  C     16.050872   15.546623   21.154922
  O     14.952259   16.070098   21.754643
  C     16.812500   16.341689   20.292884
  H     15.731024   13.194602   15.935038
  H     14.539689   14.200493   15.076477
  H     14.113275   13.442831   16.628717
  H     14.616662   15.881197   16.951871
  H     15.809266   14.873546   17.809192
  H     17.154698   18.128340   14.993460
  H     16.847607   19.707427   15.713670
  H     15.706010   18.377698   15.983429
  H     17.481117   20.174349   17.780850
  H     19.788346   17.892399   20.161023
  H     19.677867   16.116820   18.420644
  H     19.168569   14.044686   19.388158
  H     17.824978   12.633677   20.928145
  H     15.816834   13.596486   22.057829
  H     14.602642   15.397206   22.358297
  H     16.516392   17.371607   20.125497

 Total Charge           Charge          ....    0
 Multiplicity           Mult            ....    1
 Number of Electrons    NEL             ....  154
 Basis Dimension        Dim             ....  828

ORBITAL ENERGIES
----------------

  NO   OCC          E(Eh)            E(eV)
   0   2.0000     -91.889876     -2500.4506
   1   2.0000     -20.597281      -560.4805
   2   2.0000     -20.580292      -560.0182
   3   2.0000     -20.557592      -559.4005
   4   2.0000     -15.629582      -425.3026
   5   2.0000     -15.609340      -424.7517
   6   2.0000     -11.394669      -310.0647
   7   2.0000     -11.385390      -309.8122
   8   2.0000     -11.334386      -308.4243
   9   2.0000     -11.313726      -307.8621
  10   2.0000     -11.309726      -307.7533
  11   2.0000     -11.299373      -307.4716
  12   2.0000     -11.261611      -306.4440
  13   2.0000     -11.260048      -306.4015
  14   2.0000     -11.259158      -306.3773
  15   2.0000     -11.253882      -306.2337
  16   2.0000     -11.243583      -305.9534
  17   2.0000     -11.239260      -305.8358
  18   2.0000     -11.236520      -305.7612
  19   2.0000     -11.222944      -305.3918
  20   2.0000      -8.894943      -242.0437
  21   2.0000      -6.576520      -178.9562
  22   2.0000      -6.574511      -178.9016
  23   2.0000      -6.573925      -178.8856
  24   2.0000      -1.452755       -39.5315
  25   2.0000      -1.417095       -38.5611
  26   2.0000      -1.357051       -36.9272
  27   2.0000      -1.340633       -36.4805
  28   2.0000      -1.238878       -33.7116
  29   2.0000      -1.157906       -31.5082
  30   2.0000      -1.122360       -30.5410
  31   2.0000      -1.045700       -28.4549
  32   2.0000      -1.031588       -28.0709
  33   2.0000      -1.015343       -27.6289
  34   2.0000      -1.000349       -27.2209
  35   2.0000      -0.985678       -26.8217
  36   2.0000      -0.924594       -25.1595
  37   2.0000      -0.879270       -23.9261
  38   2.0000      -0.850523       -23.1439
  39   2.0000      -0.840619       -22.8744
  40   2.0000      -0.833896       -22.6915
  41   2.0000      -0.829777       -22.5794
  42   2.0000      -0.754020       -20.5179
  43   2.0000      -0.734326       -19.9820
  44   2.0000      -0.729641       -19.8545
  45   2.0000      -0.695493       -18.9253
  46   2.0000      -0.687567       -18.7096
  47   2.0000      -0.680372       -18.5139
  48   2.0000      -0.674096       -18.3431
  49   2.0000      -0.663091       -18.0436
  50   2.0000      -0.648190       -17.6381
  51   2.0000      -0.644551       -17.5391
  52   2.0000      -0.636979       -17.3331
  53   2.0000      -0.607053       -16.5188
  54   2.0000      -0.604983       -16.4624
  55   2.0000      -0.601230       -16.3603
  56   2.0000      -0.597164       -16.2496
  57   2.0000      -0.583185       -15.8693
  58   2.0000      -0.577625       -15.7180
  59   2.0000      -0.567292       -15.4368
  60   2.0000      -0.563544       -15.3348
  61   2.0000      -0.551557       -15.0086
  62   2.0000      -0.535895       -14.5824
  63   2.0000      -0.523151       -14.2357
  64   2.0000      -0.513828       -13.9820
  65   2.0000      -0.509523       -13.8648
  66   2.0000      -0.504141       -13.7184
  67   2.0000      -0.498880       -13.5752
  68   2.0000      -0.482029       -13.1167
  69   2.0000      -0.466640       -12.6979
  70   2.0000      -0.454973       -12.3805
  71   2.0000      -0.452018       -12.3000
  72   2.0000      -0.355650        -9.6777
  73   2.0000      -0.349408        -9.5079
  74   2.0000      -0.329162        -8.9570
  75   2.0000      -0.321131        -8.7384
  76   2.0000      -0.316922        -8.6239
  77   0.0000       0.069376         1.8878
  78   0.0000       0.103604         2.8192
  79   0.0000       0.118497         3.2245
  80   0.0000       0.131115         3.5678
  81   0.0000       0.134520         3.6605

MULLIKEN ATOMIC CHARGES
-----------------------
   0 C :   -0.258698
   1 C :    0.043297
   2 O :   -0.379751
   3 C :    0.453507
   4 O :   -0.394577
   5 C :   -0.195316
   6 C :    0.131111
   7 C :   -0.279745
   8 N :   -0.123753
   9 C :    0.200648
  10 S :   -0.438009
  11 N :   -0.201133
  12 C :    0.057543
  13 C :    0.018116
  14 C :   -0.152958
  15 C :   -0.136783
  16 C :   -0.278131
  17 C :    0.310797
  18 O :   -0.358746
  19 C :   -0.269066
  20 H :    0.109529
  21 H :    0.093053
  22 H :    0.085478
  23 H :    0.092809
  24 H :    0.104785
  25 H :    0.125223
  26 H :    0.105863
  27 H :    0.123732
  28 H :    0.197307
  29 H :    0.194209
  30 H :    0.156122
  31 H :    0.159085
  32 H :    0.161696
  33 H :    0.131855
  34 H :    0.241171
  35 H :    0.169730
Sum of atomic charges:    0.0000000

LOEWDIN ATOMIC CHARGES
----------------------
   0 C :    0.107170
   1 C :   -0.014728
   2 O :    0.287291
   3 C :   -0.421710
   4 O :    0.132884
   5 C :   -0.094597
   6 C :   -0.074635
   7 C :    0.127004
   8 N :    0.404315
   9 C :   -0.457709
  10 S :   -0.035135
  11 N :    0.396993
  12 C :   -0.045473
  13 C :   -0.042789
  14 C :    0.020799
  15 C :    0.041936
  16 C :   -0.001925
  17 C :   -0.194909
  18 O :    0.393923
  19 C :    0.027949
  20 H :   -0.021973
  21 H :   -0.028440
  22 H :   -0.028956
  23 H :   -0.032116
  24 H :   -0.024830
  25 H :   -0.007215
  26 H :   -0.018921
  27 H :   -0.010286
  28 H :   -0.058479
  29 H :   -0.064044
  30 H :   -0.004292
  31 H :   -0.024036
  32 H :   -0.019800
  33 H :   -0.035181
  34 H :   -0.153651
  35 H :   -0.024432

  Mayer bond orders larger than 0.100000
B(  0-C ,  1-C ) :   0.9845 B(  0-C , 20-H ) :   0.9755 B(  0-C , 21-H ) :   0.9793
B(  0-C , 22-H ) :   0.9760 B(  1-C ,  2-O ) :   0.8790 B(  1-C , 23-H ) :   0.9789
B(  1-C , 24-H ) :   0.9668 B(  2-O ,  3-C ) :   1.0840 B(  3-C ,  4-O ) :   2.0273
B(  3-C ,  5-C ) :   1.0279 B(  5-C ,  6-C ) :   1.6679 B(  5-C , 12-C ) :   0.9609
B(  6-C ,  7-C ) :   0.9517 B(  6-C ,  8-N ) :   1.1377 B(  7-C , 25-H ) :   0.9704
B(  7-C , 26-H ) :   0.9876 B(  7-C , 27-H ) :   0.9637 B(  8-N ,  9-C ) :   1.1835
B(  8-N , 28-H ) :   0.9498 B(  9-C , 10-S ) :   1.6131 B(  9-C , 11-N ) :   1.2988
B( 11-N , 12-C ) :   0.9928 B( 11-N , 29-H ) :   0.9518 B( 12-C , 13-C ) :   0.9428
B( 12-C , 30-H ) :   0.9985 B( 13-C , 14-C ) :   1.3814 B( 13-C , 19-C ) :   1.3670
B( 14-C , 15-C ) :   1.3946 B( 14-C , 31-H ) :   0.9625 B( 15-C , 16-C ) :   1.3640
B( 15-C , 32-H ) :   0.9709 B( 16-C , 17-C ) :   1.3297 B( 16-C , 33-H ) :   0.9846
B( 17-C , 18-O ) :   1.1112 B( 17-C , 19-C ) :   1.3743 B( 18-O , 34-H ) :   0.9795
B( 19-C , 35-H ) :   0.9579

MP2 TOTAL ENERGY:    -1274.321502975 Eh
FINAL SINGLE POINT ENERGY     -1274.321502975085

DIPOLE MOMENT
-------------
                                X             Y             Z
Electronic contribution:     10.91401      10.14727       7.54589
Nuclear contribution   :    -12.28872     -11.23977      -7.97859
                        -----------------------------------------
Total Dipole Moment    :     -1.37471      -1.09250      -0.43271
                        -----------------------------------------
Magnitude (a.u.)       :      1.80848
Magnitude (Debye)      :      4.59679

Rotational constants in cm-1:     0.011885     0.009099     0.006491
Rotational constants in MHz :   356.305712   272.793270   194.581876

                             ****ORCA TERMINATED NORMALLY****
TOTAL RUN TIME: 0 days 2 hours 4 minutes 49 seconds 958 msec
