                         Program Version 5.0.0 -  RELEASE  -
|  1> ! ri-mp2 cc-pvtz cc-pvtz/c TightSCF NoKeepInts
|  2>
|  3> %scf
|  4>   MaxCore 4096
|  5> end
|  6> *xyz  0  1
|  7>     C       14.4716551   14.6544212   16.2095142
|  8>     C       15.6276779   15.3271618   16.9667919
|  9>     O       16.8214355   15.1313870   16.1839207
| 10>     C       18.0431470   15.5289965   16.6571672
| 11>     O       18.9645835   14.7357971   16.7149658
| 12>     C       18.0548348   16.8038838   17.4397427
| 13>     C       17.5147865   17.9576201   16.9795911
| 14>     C       16.8648142   18.1897870   15.6313246
| 15>     N       17.6037670   19.1209446   17.7475762
| 16>     C       18.3115053   19.2313742   18.9164271
| 17>     S       18.4277303   20.6668791   19.7285763
| 18>     N       18.9150889   18.0888743   19.3822362
| 19>     C       18.7664038   16.7444367   18.7903400
| 20>     C       18.0206574   15.8044478   19.7324332
| 21>     C       18.4971773   14.4996971   19.9546686
| 22>     C       17.7993243   13.6155714   20.7941183
| 23>     C       16.6114873   14.0374330   21.4150638
| 24>     C       16.1293586   15.3337977   21.1909209
| 25>     O       14.9744767   15.7397666   21.7754411
| 26>     C       16.8254569   16.2116812   20.3540166
| 27>     H       14.6779454   13.5866712   16.0621982
| 28>     H       14.3309228   15.1179719   15.2252421
| 29>     H       13.5351218   14.7483519   16.7725904
| 30>     H       15.3977133   16.3875381   17.1175767
| 31>     H       15.7433758   14.8524379   17.9509651
| 32>     H       17.1177140   17.4024333   14.9104254
| 33>     H       17.2000385   19.1359028   15.1876945
| 34>     H       15.7722975   18.2278754   15.7172697
| 35>     H       17.1786558   19.9732093   17.4171727
| 36>     H       19.4123046   18.1957199   20.2575145
| 37>     H       19.7746298   16.3375481   18.6222323
| 38>     H       19.4048905   14.1632450   19.4579412
| 39>     H       18.1768631   12.6068165   20.9534480
| 40>     H       16.0680001   13.3558463   22.0611910
| 41>     H       14.6790180   15.0264363   22.3616418
| 42>     H       16.4321405   17.2100381   20.1940600
| 43> *
| 44>
| 45>                          ****END OF INPUT****

CARTESIAN COORDINATES (ANGSTROEM)
---------------------------------
  C     14.471655   14.654421   16.209514
  C     15.627678   15.327162   16.966792
  O     16.821435   15.131387   16.183921
  C     18.043147   15.528996   16.657167
  O     18.964583   14.735797   16.714966
  C     18.054835   16.803884   17.439743
  C     17.514786   17.957620   16.979591
  C     16.864814   18.189787   15.631325
  N     17.603767   19.120945   17.747576
  C     18.311505   19.231374   18.916427
  S     18.427730   20.666879   19.728576
  N     18.915089   18.088874   19.382236
  C     18.766404   16.744437   18.790340
  C     18.020657   15.804448   19.732433
  C     18.497177   14.499697   19.954669
  C     17.799324   13.615571   20.794118
  C     16.611487   14.037433   21.415064
  C     16.129359   15.333798   21.190921
  O     14.974477   15.739767   21.775441
  C     16.825457   16.211681   20.354017
  H     14.677945   13.586671   16.062198
  H     14.330923   15.117972   15.225242
  H     13.535122   14.748352   16.772590
  H     15.397713   16.387538   17.117577
  H     15.743376   14.852438   17.950965
  H     17.117714   17.402433   14.910425
  H     17.200038   19.135903   15.187694
  H     15.772297   18.227875   15.717270
  H     17.178656   19.973209   17.417173
  H     19.412305   18.195720   20.257514
  H     19.774630   16.337548   18.622232
  H     19.404891   14.163245   19.457941
  H     18.176863   12.606817   20.953448
  H     16.068000   13.355846   22.061191
  H     14.679018   15.026436   22.361642
  H     16.432140   17.210038   20.194060

 Total Charge           Charge          ....    0
 Multiplicity           Mult            ....    1
 Number of Electrons    NEL             ....  154
 Basis Dimension        Dim             ....  828

ORBITAL ENERGIES
----------------

  NO   OCC          E(Eh)            E(eV)
   0   2.0000     -91.890825     -2500.4765
   1   2.0000     -20.599598      -560.5436
   2   2.0000     -20.594557      -560.4064
   3   2.0000     -20.553032      -559.2764
   4   2.0000     -15.629179      -425.2916
   5   2.0000     -15.611370      -424.8070
   6   2.0000     -11.395902      -310.0982
   7   2.0000     -11.387222      -309.8621
   8   2.0000     -11.333226      -308.3927
   9   2.0000     -11.316222      -307.9301
  10   2.0000     -11.312901      -307.8397
  11   2.0000     -11.302886      -307.5672
  12   2.0000     -11.267315      -306.5992
  13   2.0000     -11.263457      -306.4942
  14   2.0000     -11.262259      -306.4616
  15   2.0000     -11.256289      -306.2992
  16   2.0000     -11.245897      -306.0164
  17   2.0000     -11.241681      -305.9017
  18   2.0000     -11.238764      -305.8223
  19   2.0000     -11.233514      -305.6794
  20   2.0000      -8.895922      -242.0703
  21   2.0000      -6.577503      -178.9830
  22   2.0000      -6.575485      -178.9281
  23   2.0000      -6.574904      -178.9122
  24   2.0000      -1.449100       -39.4320
  25   2.0000      -1.419427       -38.6246
  26   2.0000      -1.360010       -37.0078
  27   2.0000      -1.341472       -36.5033
  28   2.0000      -1.240430       -33.7538
  29   2.0000      -1.160906       -31.5898
  30   2.0000      -1.125276       -30.6203
  31   2.0000      -1.048428       -28.5292
  32   2.0000      -1.039247       -28.2794
  33   2.0000      -1.018248       -27.7079
  34   2.0000      -1.004620       -27.3371
  35   2.0000      -0.989343       -26.9214
  36   2.0000      -0.927481       -25.2380
  37   2.0000      -0.878830       -23.9142
  38   2.0000      -0.855312       -23.2742
  39   2.0000      -0.842943       -22.9377
  40   2.0000      -0.836911       -22.7735
  41   2.0000      -0.835868       -22.7451
  42   2.0000      -0.757446       -20.6111
  43   2.0000      -0.739352       -20.1188
  44   2.0000      -0.731917       -19.9165
  45   2.0000      -0.697228       -18.9726
  46   2.0000      -0.688184       -18.7264
  47   2.0000      -0.682896       -18.5825
  48   2.0000      -0.676586       -18.4109
  49   2.0000      -0.663140       -18.0449
  50   2.0000      -0.652589       -17.7579
  51   2.0000      -0.648495       -17.6465
  52   2.0000      -0.641310       -17.4509
  53   2.0000      -0.611880       -16.6501
  54   2.0000      -0.607835       -16.5400
  55   2.0000      -0.604118       -16.4389
  56   2.0000      -0.603226       -16.4146
  57   2.0000      -0.585431       -15.9304
  58   2.0000      -0.577766       -15.7218
  59   2.0000      -0.567214       -15.4347
  60   2.0000      -0.559970       -15.2376
  61   2.0000      -0.557405       -15.1678
  62   2.0000      -0.544631       -14.8202
  63   2.0000      -0.525540       -14.3007
  64   2.0000      -0.523990       -14.2585
  65   2.0000      -0.515894       -14.0382
  66   2.0000      -0.502511       -13.6740
  67   2.0000      -0.499480       -13.5915
  68   2.0000      -0.490876       -13.3574
  69   2.0000      -0.468740       -12.7551
  70   2.0000      -0.459123       -12.4934
  71   2.0000      -0.450952       -12.2710
  72   2.0000      -0.357938        -9.7400
  73   2.0000      -0.351515        -9.5652
  74   2.0000      -0.330316        -8.9883
  75   2.0000      -0.324136        -8.8202
  76   2.0000      -0.318950        -8.6791
  77   0.0000       0.077517         2.1093
  78   0.0000       0.104324         2.8388
  79   0.0000       0.114288         3.1099
  80   0.0000       0.129101         3.5130
  81   0.0000       0.132547         3.6068

MULLIKEN ATOMIC CHARGES
-----------------------
   0 C :   -0.259698
   1 C :    0.017454
   2 O :   -0.328823
   3 C :    0.418343
   4 O :   -0.378884
   5 C :   -0.201434
   6 C :    0.132751
   7 C :   -0.313155
   8 N :   -0.131192
   9 C :    0.200822
  10 S :   -0.438543
  11 N :   -0.207875
  12 C :    0.059364
  13 C :    0.024028
  14 C :   -0.181814
  15 C :   -0.133523
  16 C :   -0.276984
  17 C :    0.317566
  18 O :   -0.358865
  19 C :   -0.278664
  20 H :    0.107901
  21 H :    0.094601
  22 H :    0.091042
  23 H :    0.088371
  24 H :    0.119166
  25 H :    0.136345
  26 H :    0.129269
  27 H :    0.119476
  28 H :    0.196953
  29 H :    0.196522
  30 H :    0.161973
  31 H :    0.166972
  32 H :    0.163466
  33 H :    0.132658
  34 H :    0.241732
  35 H :    0.172682
Sum of atomic charges:   -0.0000000

LOEWDIN ATOMIC CHARGES
----------------------
   0 C :    0.111988
   1 C :   -0.023785
   2 O :    0.297416
   3 C :   -0.417075
   4 O :    0.129208
   5 C :   -0.087481
   6 C :   -0.092066
   7 C :    0.126929
   8 N :    0.402634
   9 C :   -0.456871
  10 S :   -0.035684
  11 N :    0.397118
  12 C :   -0.045180
  13 C :   -0.044636
  14 C :    0.021678
  15 C :    0.044302
  16 C :   -0.000965
  17 C :   -0.195350
  18 O :    0.394294
  19 C :    0.027766
  20 H :   -0.022204
  21 H :   -0.028256
  22 H :   -0.024312
  23 H :   -0.039890
  24 H :   -0.026281
  25 H :   -0.007125
  26 H :   -0.012390
  27 H :   -0.016959
  28 H :   -0.057386
  29 H :   -0.063638
  30 H :   -0.002899
  31 H :   -0.022139
  32 H :   -0.018686
  33 H :   -0.034632
  34 H :   -0.152984
  35 H :   -0.024459

  Mayer bond orders larger than 0.100000
B(  0-C ,  1-C ) :   0.9818 B(  0-C , 20-H ) :   0.9787 B(  0-C , 21-H ) :   0.9787
B(  0-C , 22-H ) :   0.9765 B(  1-C ,  2-O ) :   0.8996 B(  1-C , 23-H ) :   0.9675
B(  1-C , 24-H ) :   0.9718 B(  2-O ,  3-C ) :   1.1658 B(  3-C ,  4-O ) :   2.0983
B(  3-C ,  5-C ) :   0.9354 B(  5-C ,  6-C ) :   1.6769 B(  5-C , 12-C ) :   0.9632
B(  6-C ,  7-C ) :   0.9446 B(  6-C ,  8-N ) :   1.1241 B(  7-C , 25-H ) :   0.9749
B(  7-C , 26-H ) :   0.9767 B(  7-C , 27-H ) :   0.9643 B(  8-N ,  9-C ) :   1.1887
B(  8-N , 28-H ) :   0.9513 B(  9-C , 10-S ) :   1.6134 B(  9-C , 11-N ) :   1.2923
B( 11-N , 12-C ) :   0.9976 B( 11-N , 29-H ) :   0.9504 B( 12-C , 13-C ) :   0.9416
B( 12-C , 30-H ) :   0.9978 B( 13-C , 14-C ) :   1.3867 B( 13-C , 19-C ) :   1.3536
B( 14-C , 15-C ) :   1.3953 B( 14-C , 31-H ) :   0.9604 B( 15-C , 16-C ) :   1.3643
B( 15-C , 32-H ) :   0.9703 B( 16-C , 17-C ) :   1.3277 B( 16-C , 33-H ) :   0.9844
B( 17-C , 18-O ) :   1.1107 B( 17-C , 19-C ) :   1.3695 B( 18-O , 34-H ) :   0.9791
B( 19-C , 35-H ) :   0.9586

MP2 TOTAL ENERGY:    -1274.334058138 Eh
FINAL SINGLE POINT ENERGY     -1274.334058137638

DIPOLE MOMENT
-------------
                                X             Y             Z
Electronic contribution:     11.02708       8.25594       7.52281
Nuclear contribution   :    -12.48039      -9.29409      -7.82190
                        -----------------------------------------
Total Dipole Moment    :     -1.45331      -1.03815      -0.29910
                        -----------------------------------------
Magnitude (a.u.)       :      1.81089
Magnitude (Debye)      :      4.60292

Rotational constants in cm-1:     0.011414     0.009220     0.006764
Rotational constants in MHz :   342.195191   276.418403   202.776024

                             ****ORCA TERMINATED NORMALLY****
TOTAL RUN TIME: 0 days 2 hours 5 minutes 58 seconds 563 msec
