                         Program Version 5.0.0 -  RELEASE  -
|  1> ! ri-mp2 cc-pvtz cc-pvtz/c TightSCF NoKeepInts
|  2>
|  3> %scf
|  4>   MaxCore 4096
|  5> end
|  6> *xyz  0  1
|  7>     C       14.7389654   16.0492153   17.1907378
|  8>     C       15.7108043   14.8995083   16.8627062
|  9>     O       16.7376947   15.2947133   15.9256220
| 10>     C       17.9599352   15.7486387   16.3482721
| 11>     O       18.9050929   14.9812974   16.3270402
| 12>     C       17.9213775   16.8738529   17.3307389
| 13>     C       17.3325135   18.0601273   17.0483457
| 14>     C       16.6503163   18.4668301   15.7590605
| 15>     N       17.4021036   19.1077946   17.9693164
| 16>     C       18.1478051   19.0872712   19.1190948
| 17>     S       18.2433183   20.4025936   20.1165498
| 18>     N       18.8119062   17.9190254   19.4019234
| 19>     C       18.6841568   16.6606733   18.6402167
| 20>     C       18.0198197   15.5741238   19.4801287
| 21>     C       18.5400431   14.2669407   19.4850395
| 22>     C       17.9175558   13.2506688   20.2287054
| 23>     C       16.7621426   13.5419710   20.9734394
| 24>     C       16.2380569   14.8414717   20.9687311
| 25>     O       15.1144276   15.1234671   21.6745005
| 26>     C       16.8596097   15.8510547   20.2273146
| 27>     H       15.1799825   16.7688806   17.8873283
| 28>     H       13.8391563   15.6478273   17.6729392
| 29>     H       14.4256847   16.5692477   16.2777447
| 30>     H       16.1504523   14.4861366   17.7796685
| 31>     H       15.1275357   14.0944036   16.3974473
| 32>     H       16.6611847   17.6731433   15.0034096
| 33>     H       17.1519675   19.3347017   15.3126133
| 34>     H       15.6026412   18.7381602   15.9361194
| 35>     H       16.9363911   19.9794166   17.7707236
| 36>     H       19.3386667   17.9266148   20.2662222
| 37>     H       19.6990502   16.3217007   18.3848509
| 38>     H       19.4229615   14.0341401   18.8931908
| 39>     H       18.3287124   12.2424824   20.2200138
| 40>     H       16.2769231   12.7588756   21.5468401
| 41>     H       14.8744306   14.3262359   22.1708855
| 42>     H       16.4336145   16.8487935   20.2365193
| 43> *
| 44>
| 45>                          ****END OF INPUT****

CARTESIAN COORDINATES (ANGSTROEM)
---------------------------------
  C     14.738965   16.049215   17.190738
  C     15.710804   14.899508   16.862706
  O     16.737695   15.294713   15.925622
  C     17.959935   15.748639   16.348272
  O     18.905093   14.981297   16.327040
  C     17.921377   16.873853   17.330739
  C     17.332514   18.060127   17.048346
  C     16.650316   18.466830   15.759061
  N     17.402104   19.107795   17.969316
  C     18.147805   19.087271   19.119095
  S     18.243318   20.402594   20.116550
  N     18.811906   17.919025   19.401923
  C     18.684157   16.660673   18.640217
  C     18.019820   15.574124   19.480129
  C     18.540043   14.266941   19.485039
  C     17.917556   13.250669   20.228705
  C     16.762143   13.541971   20.973439
  C     16.238057   14.841472   20.968731
  O     15.114428   15.123467   21.674501
  C     16.859610   15.851055   20.227315
  H     15.179982   16.768881   17.887328
  H     13.839156   15.647827   17.672939
  H     14.425685   16.569248   16.277745
  H     16.150452   14.486137   17.779668
  H     15.127536   14.094404   16.397447
  H     16.661185   17.673143   15.003410
  H     17.151968   19.334702   15.312613
  H     15.602641   18.738160   15.936119
  H     16.936391   19.979417   17.770724
  H     19.338667   17.926615   20.266222
  H     19.699050   16.321701   18.384851
  H     19.422961   14.034140   18.893191
  H     18.328712   12.242482   20.220014
  H     16.276923   12.758876   21.546840
  H     14.874431   14.326236   22.170886
  H     16.433615   16.848793   20.236519

 Total Charge           Charge          ....    0
 Multiplicity           Mult            ....    1
 Number of Electrons    NEL             ....  154
 Basis Dimension        Dim             ....  828

ORBITAL ENERGIES
----------------

  NO   OCC          E(Eh)            E(eV)
   0   2.0000     -91.890945     -2500.4797
   1   2.0000     -20.600841      -560.5774
   2   2.0000     -20.581605      -560.0539
   3   2.0000     -20.555976      -559.3566
   4   2.0000     -15.628832      -425.2821
   5   2.0000     -15.611623      -424.8139
   6   2.0000     -11.395267      -310.0810
   7   2.0000     -11.387271      -309.8634
   8   2.0000     -11.332148      -308.3634
   9   2.0000     -11.317933      -307.9766
  10   2.0000     -11.313846      -307.8654
  11   2.0000     -11.301526      -307.5301
  12   2.0000     -11.263867      -306.5054
  13   2.0000     -11.263753      -306.5023
  14   2.0000     -11.262830      -306.4772
  15   2.0000     -11.258025      -306.3464
  16   2.0000     -11.247645      -306.0640
  17   2.0000     -11.243051      -305.9390
  18   2.0000     -11.240043      -305.8571
  19   2.0000     -11.230825      -305.6063
  20   2.0000      -8.896027      -242.0732
  21   2.0000      -6.577608      -178.9858
  22   2.0000      -6.575592      -178.9309
  23   2.0000      -6.575009      -178.9151
  24   2.0000      -1.446183       -39.3526
  25   2.0000      -1.420649       -38.6578
  26   2.0000      -1.354313       -36.8527
  27   2.0000      -1.341583       -36.5063
  28   2.0000      -1.240718       -33.7617
  29   2.0000      -1.162078       -31.6217
  30   2.0000      -1.124931       -30.6109
  31   2.0000      -1.048739       -28.5376
  32   2.0000      -1.034597       -28.1528
  33   2.0000      -1.019540       -27.7431
  34   2.0000      -1.004259       -27.3273
  35   2.0000      -0.989946       -26.9378
  36   2.0000      -0.927913       -25.2498
  37   2.0000      -0.888319       -24.1724
  38   2.0000      -0.852039       -23.1852
  39   2.0000      -0.842412       -22.9232
  40   2.0000      -0.838023       -22.8038
  41   2.0000      -0.830591       -22.6015
  42   2.0000      -0.753900       -20.5147
  43   2.0000      -0.735629       -20.0175
  44   2.0000      -0.731012       -19.8918
  45   2.0000      -0.699012       -19.0211
  46   2.0000      -0.688889       -18.7456
  47   2.0000      -0.678887       -18.4734
  48   2.0000      -0.674954       -18.3664
  49   2.0000      -0.661767       -18.0076
  50   2.0000      -0.654927       -17.8215
  51   2.0000      -0.643790       -17.5184
  52   2.0000      -0.638966       -17.3872
  53   2.0000      -0.612176       -16.6582
  54   2.0000      -0.608519       -16.5587
  55   2.0000      -0.605226       -16.4690
  56   2.0000      -0.601366       -16.3640
  57   2.0000      -0.588061       -16.0020
  58   2.0000      -0.580030       -15.7834
  59   2.0000      -0.576721       -15.6934
  60   2.0000      -0.565472       -15.3873
  61   2.0000      -0.554976       -15.1017
  62   2.0000      -0.541061       -14.7230
  63   2.0000      -0.527840       -14.3633
  64   2.0000      -0.521204       -14.1827
  65   2.0000      -0.513419       -13.9709
  66   2.0000      -0.503361       -13.6972
  67   2.0000      -0.493625       -13.4322
  68   2.0000      -0.486999       -13.2519
  69   2.0000      -0.466254       -12.6874
  70   2.0000      -0.455915       -12.4061
  71   2.0000      -0.449369       -12.2280
  72   2.0000      -0.357038        -9.7155
  73   2.0000      -0.353110        -9.6086
  74   2.0000      -0.330441        -8.9917
  75   2.0000      -0.325875        -8.8675
  76   2.0000      -0.319443        -8.6925
  77   0.0000       0.077743         2.1155
  78   0.0000       0.100984         2.7479
  79   0.0000       0.118045         3.2122
  80   0.0000       0.127016         3.4563
  81   0.0000       0.129918         3.5353

MULLIKEN ATOMIC CHARGES
-----------------------
   0 C :   -0.329973
   1 C :    0.033769
   2 O :   -0.364517
   3 C :    0.423785
   4 O :   -0.372688
   5 C :   -0.177441
   6 C :    0.111151
   7 C :   -0.325059
   8 N :   -0.126737
   9 C :    0.196035
  10 S :   -0.438116
  11 N :   -0.209995
  12 C :    0.068537
  13 C :    0.013078
  14 C :   -0.183939
  15 C :   -0.133748
  16 C :   -0.277417
  17 C :    0.316036
  18 O :   -0.357753
  19 C :   -0.276730
  20 H :    0.103435
  21 H :    0.124137
  22 H :    0.108009
  23 H :    0.106602
  24 H :    0.125582
  25 H :    0.132897
  26 H :    0.143075
  27 H :    0.119231
  28 H :    0.197875
  29 H :    0.196875
  30 H :    0.164205
  31 H :    0.168664
  32 H :    0.164155
  33 H :    0.133485
  34 H :    0.241789
  35 H :    0.181706
Sum of atomic charges:    0.0000000

LOEWDIN ATOMIC CHARGES
----------------------
   0 C :    0.103410
   1 C :   -0.011260
   2 O :    0.276532
   3 C :   -0.417684
   4 O :    0.136964
   5 C :   -0.087508
   6 C :   -0.088863
   7 C :    0.126237
   8 N :    0.404060
   9 C :   -0.457388
  10 S :   -0.035548
  11 N :    0.397324
  12 C :   -0.044404
  13 C :   -0.045237
  14 C :    0.020115
  15 C :    0.043395
  16 C :   -0.000948
  17 C :   -0.194601
  18 O :    0.395508
  19 C :    0.028773
  20 H :   -0.036567
  21 H :   -0.021421
  22 H :   -0.029472
  23 H :   -0.027787
  24 H :   -0.020606
  25 H :   -0.010123
  26 H :   -0.011097
  27 H :   -0.016494
  28 H :   -0.056256
  29 H :   -0.063677
  30 H :   -0.003088
  31 H :   -0.022102
  32 H :   -0.018495
  33 H :   -0.034288
  34 H :   -0.152833
  35 H :   -0.024570

  Mayer bond orders larger than 0.100000
B(  0-C ,  1-C ) :   0.9603 B(  0-C , 20-H ) :   0.9730 B(  0-C , 21-H ) :   0.9780
B(  0-C , 22-H ) :   0.9748 B(  1-C ,  2-O ) :   0.8916 B(  1-C , 23-H ) :   0.9701
B(  1-C , 24-H ) :   0.9851 B(  2-O ,  3-C ) :   1.1231 B(  3-C ,  4-O ) :   2.0879
B(  3-C ,  5-C ) :   0.9457 B(  5-C ,  6-C ) :   1.6791 B(  5-C , 12-C ) :   0.9541
B(  6-C ,  7-C ) :   0.9549 B(  6-C ,  8-N ) :   1.1172 B(  7-C , 25-H ) :   0.9749
B(  7-C , 26-H ) :   0.9690 B(  7-C , 27-H ) :   0.9647 B(  8-N ,  9-C ) :   1.1896
B(  8-N , 28-H ) :   0.9513 B(  9-C , 10-S ) :   1.6158 B(  9-C , 11-N ) :   1.2890
B( 11-N , 12-C ) :   0.9942 B( 11-N , 29-H ) :   0.9504 B( 12-C , 13-C ) :   0.9420
B( 12-C , 30-H ) :   0.9982 B( 13-C , 14-C ) :   1.3898 B( 13-C , 19-C ) :   1.3452
B( 14-C , 15-C ) :   1.3967 B( 14-C , 31-H ) :   0.9602 B( 15-C , 16-C ) :   1.3618
B( 15-C , 32-H ) :   0.9702 B( 16-C , 17-C ) :   1.3297 B( 16-C , 33-H ) :   0.9840
B( 17-C , 18-O ) :   1.1121 B( 17-C , 19-C ) :   1.3701 B( 18-O , 34-H ) :   0.9792
B( 19-C , 35-H ) :   0.9527

MP2 TOTAL ENERGY:    -1274.322259868 Eh
FINAL SINGLE POINT ENERGY     -1274.322259868187

DIPOLE MOMENT
-------------
                                X             Y             Z
Electronic contribution:     10.12167       5.64280       5.58000
Nuclear contribution   :    -11.43080      -6.81670      -5.87731
                        -----------------------------------------
Total Dipole Moment    :     -1.30912      -1.17389      -0.29731
                        -----------------------------------------
Magnitude (a.u.)       :      1.78332
Magnitude (Debye)      :      4.53283

Rotational constants in cm-1:     0.012241     0.009446     0.007119
Rotational constants in MHz :   366.986097   283.169133   213.428659

                             ****ORCA TERMINATED NORMALLY****
TOTAL RUN TIME: 0 days 2 hours 23 minutes 7 seconds 588 msec
