                         Program Version 5.0.0 -  RELEASE  -
|  1> ! ri-mp2 cc-pvtz cc-pvtz/c TightSCF NoKeepInts
|  2>
|  3> %scf
|  4>   MaxCore 4096
|  5> end
|  6> *xyz  0  1
|  7>     C       15.2909749   14.1418719   17.1492770
|  8>     C       16.4755385   14.0130410   16.1703631
|  9>     O       17.4741247   15.0087836   16.4694934
| 10>     C       17.1977241   16.3264850   16.2319075
| 11>     O       16.4382779   16.6674763   15.3408553
| 12>     C       17.6735160   17.2338435   17.3336990
| 13>     C       17.4066329   18.5651760   17.3461450
| 14>     C       16.5917994   19.3488241   16.3393189
| 15>     N       17.9463665   19.3782480   18.3476115
| 16>     C       18.8790047   18.9724135   19.2646159
| 17>     S       19.5774352   20.0278674   20.3295789
| 18>     N       19.2131956   17.6423069   19.2472603
| 19>     C       18.5233380   16.6092956   18.4532937
| 20>     C       17.7057058   15.7213376   19.3860998
| 21>     C       18.1192279   14.4029033   19.6550914
| 22>     C       17.3826076   13.5868234   20.5303118
| 23>     C       16.2240146   14.0934934   21.1436365
| 24>     C       15.8120722   15.4074678   20.8817744
| 25>     O       14.6942430   15.8996529   21.4724313
| 26>     C       16.5476098   16.2175212   20.0111997
| 27>     H       15.6220505   13.9927738   18.1826121
| 28>     H       14.5298635   13.3846386   16.9265288
| 29>     H       14.8164886   15.1281680   17.0738027
| 30>     H       16.9175306   13.0138404   16.2731201
| 31>     H       16.1229672   14.1215261   15.1354625
| 32>     H       17.0234896   19.2531741   15.3348710
| 33>     H       16.5332091   20.4182067   16.5733700
| 34>     H       15.5650802   18.9638642   16.2919121
| 35>     H       17.7173010   20.3591304   18.3690908
| 36>     H       19.8795163   17.3661579   19.9568324
| 37>     H       19.2965755   15.9901468   17.9770634
| 38>     H       19.0141524   14.0083916   19.1813810
| 39>     H       17.7104464   12.5683796   20.7314647
| 40>     H       15.6520259   13.4674170   21.8205561
| 41>     H       14.3545329   15.2161381   22.0693734
| 42>     H       16.2183608   17.2352143   19.8325943
| 43> *
| 44>
| 45>                          ****END OF INPUT****

CARTESIAN COORDINATES (ANGSTROEM)
---------------------------------
  C     15.290975   14.141872   17.149277
  C     16.475538   14.013041   16.170363
  O     17.474125   15.008784   16.469493
  C     17.197724   16.326485   16.231907
  O     16.438278   16.667476   15.340855
  C     17.673516   17.233843   17.333699
  C     17.406633   18.565176   17.346145
  C     16.591799   19.348824   16.339319
  N     17.946366   19.378248   18.347611
  C     18.879005   18.972413   19.264616
  S     19.577435   20.027867   20.329579
  N     19.213196   17.642307   19.247260
  C     18.523338   16.609296   18.453294
  C     17.705706   15.721338   19.386100
  C     18.119228   14.402903   19.655091
  C     17.382608   13.586823   20.530312
  C     16.224015   14.093493   21.143636
  C     15.812072   15.407468   20.881774
  O     14.694243   15.899653   21.472431
  C     16.547610   16.217521   20.011200
  H     15.622051   13.992774   18.182612
  H     14.529863   13.384639   16.926529
  H     14.816489   15.128168   17.073803
  H     16.917531   13.013840   16.273120
  H     16.122967   14.121526   15.135462
  H     17.023490   19.253174   15.334871
  H     16.533209   20.418207   16.573370
  H     15.565080   18.963864   16.291912
  H     17.717301   20.359130   18.369091
  H     19.879516   17.366158   19.956832
  H     19.296575   15.990147   17.977063
  H     19.014152   14.008392   19.181381
  H     17.710446   12.568380   20.731465
  H     15.652026   13.467417   21.820556
  H     14.354533   15.216138   22.069373
  H     16.218361   17.235214   19.832594

 Total Charge           Charge          ....    0
 Multiplicity           Mult            ....    1
 Number of Electrons    NEL             ....  154
 Basis Dimension        Dim             ....  828

ORBITAL ENERGIES
----------------

  NO   OCC          E(Eh)            E(eV)
   0   2.0000     -91.889623     -2500.4438
   1   2.0000     -20.598505      -560.5138
   2   2.0000     -20.594413      -560.4025
   3   2.0000     -20.542797      -558.9979
   4   2.0000     -15.630120      -425.3172
   5   2.0000     -15.608699      -424.7343
   6   2.0000     -11.394509      -310.0603
   7   2.0000     -11.384499      -309.7880
   8   2.0000     -11.336957      -308.4943
   9   2.0000     -11.315907      -307.9215
  10   2.0000     -11.309946      -307.7593
  11   2.0000     -11.295540      -307.3673
  12   2.0000     -11.261243      -306.4340
  13   2.0000     -11.259698      -306.3920
  14   2.0000     -11.257435      -306.3304
  15   2.0000     -11.252693      -306.2013
  16   2.0000     -11.245103      -305.9948
  17   2.0000     -11.239839      -305.8516
  18   2.0000     -11.239795      -305.8504
  19   2.0000     -11.220483      -305.3249
  20   2.0000      -8.894666      -242.0362
  21   2.0000      -6.576236      -178.9485
  22   2.0000      -6.574237      -178.8941
  23   2.0000      -6.573646      -178.8780
  24   2.0000      -1.449253       -39.4362
  25   2.0000      -1.418183       -38.5907
  26   2.0000      -1.352574       -36.8054
  27   2.0000      -1.341067       -36.4923
  28   2.0000      -1.239408       -33.7260
  29   2.0000      -1.159242       -31.5446
  30   2.0000      -1.120955       -30.5027
  31   2.0000      -1.043777       -28.4026
  32   2.0000      -1.032667       -28.1003
  33   2.0000      -1.017027       -27.6747
  34   2.0000      -0.996535       -27.1171
  35   2.0000      -0.984996       -26.8031
  36   2.0000      -0.923666       -25.1342
  37   2.0000      -0.893858       -24.3231
  38   2.0000      -0.847728       -23.0679
  39   2.0000      -0.839818       -22.8526
  40   2.0000      -0.835577       -22.7372
  41   2.0000      -0.814796       -22.1717
  42   2.0000      -0.753321       -20.4989
  43   2.0000      -0.733746       -19.9662
  44   2.0000      -0.723020       -19.6744
  45   2.0000      -0.697756       -18.9869
  46   2.0000      -0.689862       -18.7721
  47   2.0000      -0.677358       -18.4318
  48   2.0000      -0.669566       -18.2198
  49   2.0000      -0.664419       -18.0798
  50   2.0000      -0.648866       -17.6566
  51   2.0000      -0.642755       -17.4903
  52   2.0000      -0.634791       -17.2736
  53   2.0000      -0.609539       -16.5864
  54   2.0000      -0.609095       -16.5743
  55   2.0000      -0.601239       -16.3605
  56   2.0000      -0.599792       -16.3212
  57   2.0000      -0.579265       -15.7626
  58   2.0000      -0.571133       -15.5413
  59   2.0000      -0.566396       -15.4124
  60   2.0000      -0.554747       -15.0954
  61   2.0000      -0.543870       -14.7995
  62   2.0000      -0.533756       -14.5242
  63   2.0000      -0.530871       -14.4457
  64   2.0000      -0.526823       -14.3356
  65   2.0000      -0.514173       -13.9913
  66   2.0000      -0.502991       -13.6871
  67   2.0000      -0.500481       -13.6188
  68   2.0000      -0.477145       -12.9838
  69   2.0000      -0.465073       -12.6553
  70   2.0000      -0.453179       -12.3316
  71   2.0000      -0.445006       -12.1092
  72   2.0000      -0.355816        -9.6823
  73   2.0000      -0.351437        -9.5631
  74   2.0000      -0.329099        -8.9552
  75   2.0000      -0.323864        -8.8128
  76   2.0000      -0.316804        -8.6207
  77   0.0000       0.073064         1.9882
  78   0.0000       0.105299         2.8653
  79   0.0000       0.123229         3.3532
  80   0.0000       0.131053         3.5661
  81   0.0000       0.136682         3.7193

MULLIKEN ATOMIC CHARGES
-----------------------
   0 C :   -0.314728
   1 C :    0.026854
   2 O :   -0.372610
   3 C :    0.458075
   4 O :   -0.427915
   5 C :   -0.221932
   6 C :    0.152262
   7 C :   -0.270277
   8 N :   -0.123414
   9 C :    0.212088
  10 S :   -0.438465
  11 N :   -0.203144
  12 C :    0.051606
  13 C :    0.055238
  14 C :   -0.185627
  15 C :   -0.131639
  16 C :   -0.278648
  17 C :    0.305402
  18 O :   -0.358260
  19 C :   -0.244898
  20 H :    0.107676
  21 H :    0.108480
  22 H :    0.108567
  23 H :    0.112569
  24 H :    0.119806
  25 H :    0.132639
  26 H :    0.095107
  27 H :    0.130996
  28 H :    0.198207
  29 H :    0.193786
  30 H :    0.151037
  31 H :    0.151498
  32 H :    0.160808
  33 H :    0.131304
  34 H :    0.241194
  35 H :    0.166356
Sum of atomic charges:   -0.0000000

LOEWDIN ATOMIC CHARGES
----------------------
   0 C :    0.106077
   1 C :   -0.016520
   2 O :    0.296952
   3 C :   -0.416220
   4 O :    0.101324
   5 C :   -0.095603
   6 C :   -0.058047
   7 C :    0.131393
   8 N :    0.406936
   9 C :   -0.456361
  10 S :   -0.034182
  11 N :    0.396661
  12 C :   -0.052326
  13 C :   -0.037933
  14 C :    0.012698
  15 C :    0.039385
  16 C :   -0.002712
  17 C :   -0.190094
  18 O :    0.396372
  19 C :    0.032638
  20 H :   -0.026957
  21 H :   -0.026372
  22 H :   -0.027009
  23 H :   -0.024822
  24 H :   -0.028398
  25 H :   -0.003458
  26 H :   -0.023337
  27 H :   -0.005132
  28 H :   -0.057487
  29 H :   -0.064935
  30 H :   -0.008775
  31 H :   -0.029671
  32 H :   -0.020813
  33 H :   -0.035301
  34 H :   -0.153411
  35 H :   -0.024556

  Mayer bond orders larger than 0.100000
B(  0-C ,  1-C ) :   0.9582 B(  0-C , 20-H ) :   0.9712 B(  0-C , 21-H ) :   0.9782
B(  0-C , 22-H ) :   0.9745 B(  1-C ,  2-O ) :   0.8865 B(  1-C , 23-H ) :   0.9840
B(  1-C , 24-H ) :   0.9819 B(  2-O ,  3-C ) :   1.1371 B(  3-C ,  4-O ) :   1.9800
B(  3-C ,  5-C ) :   1.0648 B(  5-C ,  6-C ) :   1.6532 B(  5-C , 12-C ) :   0.9727
B(  6-C ,  7-C ) :   0.9679 B(  6-C ,  8-N ) :   1.1605 B(  7-C , 25-H ) :   0.9592
B(  7-C , 26-H ) :   0.9901 B(  7-C , 27-H ) :   0.9613 B(  8-N ,  9-C ) :   1.1809
B(  8-N , 28-H ) :   0.9478 B(  9-C , 10-S ) :   1.6090 B(  9-C , 11-N ) :   1.3055
B( 11-N , 12-C ) :   0.9782 B( 11-N , 29-H ) :   0.9528 B( 12-C , 13-C ) :   0.9378
B( 12-C , 30-H ) :   1.0029 B( 13-C , 14-C ) :   1.3547 B( 13-C , 19-C ) :   1.3814
B( 14-C , 15-C ) :   1.3891 B( 14-C , 31-H ) :   0.9719 B( 15-C , 16-C ) :   1.3601
B( 15-C , 32-H ) :   0.9718 B( 16-C , 17-C ) :   1.3314 B( 16-C , 33-H ) :   0.9853
B( 17-C , 18-O ) :   1.1124 B( 17-C , 19-C ) :   1.3740 B( 18-O , 34-H ) :   0.9795
B( 19-C , 35-H ) :   0.9567

MP2 TOTAL ENERGY:    -1274.346350898 Eh
FINAL SINGLE POINT ENERGY     -1274.346350897594

DIPOLE MOMENT
-------------
                                X             Y             Z
Electronic contribution:      9.34177      10.03155       5.86458
Nuclear contribution   :    -10.23510     -11.74189      -6.04207
                        -----------------------------------------
Total Dipole Moment    :     -0.89333      -1.71034      -0.17749
                        -----------------------------------------
Magnitude (a.u.)       :      1.93773
Magnitude (Debye)      :      4.92532

Rotational constants in cm-1:     0.012317     0.009093     0.006495
Rotational constants in MHz :   369.250067   272.590428   194.715206

                             ****ORCA TERMINATED NORMALLY****
TOTAL RUN TIME: 0 days 2 hours 6 minutes 7 seconds 341 msec
