                         Program Version 5.0.0 -  RELEASE  -
|  1> ! ri-mp2 cc-pvtz cc-pvtz/c TightSCF NoKeepInts
|  2>
|  3> %scf
|  4>   MaxCore 4096
|  5> end
|  6> *xyz  0  1
|  7>     C       14.6941965   14.2476225   15.3313572
|  8>     C       15.4767894   14.7183084   16.5684344
|  9>     O       16.4773972   15.6470955   16.1152257
| 10>     C       17.7005088   15.6291269   16.7177922
| 11>     O       18.2657735   14.5780768   16.9698637
| 12>     C       17.9580076   16.8685740   17.5210619
| 13>     C       17.5120357   18.1031395   17.1762440
| 14>     C       16.7252463   18.4875370   15.9403563
| 15>     N       17.8409135   19.2072123   17.9687732
| 16>     C       18.7127540   19.1796954   19.0255369
| 17>     S       19.1361545   20.5546725   19.8413344
| 18>     N       19.2167459   17.9512485   19.3723657
| 19>     C       18.7793251   16.6647355   18.7977651
| 20>     C       17.9879062   15.8607483   19.8259987
| 21>     C       18.3758957   14.5496994   20.1582645
| 22>     C       17.6438042   13.8015634   21.0953912
| 23>     C       16.5122511   14.3681512   21.7063062
| 24>     C       16.1198136   15.6720757   21.3750833
| 25>     O       15.0226070   16.2190799   21.9564911
| 26>     C       16.8500625   16.4139757   20.4414392
| 27>     H       15.3644772   13.7513429   14.6182243
| 28>     H       14.2181873   15.0974482   14.8268233
| 29>     H       13.9116562   13.5351226   15.6191839
| 30>     H       14.8078049   15.2023468   17.2918395
| 31>     H       15.9304632   13.8418060   17.0517460
| 32>     H       17.1185867   17.9793582   15.0509596
| 33>     H       16.7635837   19.5644694   15.7360141
| 34>     H       15.6708461   18.2045309   16.0491691
| 35>     H       17.4822299   20.1178900   17.7295193
| 36>     H       19.8337630   17.9552008   20.1744318
| 37>     H       19.6803001   16.0937633   18.5303297
| 38>     H       19.2398725   14.1024449   19.6725764
| 39>     H       17.9516898   12.7863103   21.3392480
| 40>     H       15.9430297   13.7930214   22.4289906
| 41>     H       14.6914946   15.5820462   22.6073480
| 42>     H       16.5308268   17.4225596   20.2025115
| 43> *
| 44>
| 45>                          ****END OF INPUT****

CARTESIAN COORDINATES (ANGSTROEM)
---------------------------------
  C     14.694197   14.247623   15.331357
  C     15.476789   14.718308   16.568434
  O     16.477397   15.647095   16.115226
  C     17.700509   15.629127   16.717792
  O     18.265774   14.578077   16.969864
  C     17.958008   16.868574   17.521062
  C     17.512036   18.103139   17.176244
  C     16.725246   18.487537   15.940356
  N     17.840913   19.207212   17.968773
  C     18.712754   19.179695   19.025537
  S     19.136154   20.554672   19.841334
  N     19.216746   17.951248   19.372366
  C     18.779325   16.664735   18.797765
  C     17.987906   15.860748   19.825999
  C     18.375896   14.549699   20.158265
  C     17.643804   13.801563   21.095391
  C     16.512251   14.368151   21.706306
  C     16.119814   15.672076   21.375083
  O     15.022607   16.219080   21.956491
  C     16.850062   16.413976   20.441439
  H     15.364477   13.751343   14.618224
  H     14.218187   15.097448   14.826823
  H     13.911656   13.535123   15.619184
  H     14.807805   15.202347   17.291839
  H     15.930463   13.841806   17.051746
  H     17.118587   17.979358   15.050960
  H     16.763584   19.564469   15.736014
  H     15.670846   18.204531   16.049169
  H     17.482230   20.117890   17.729519
  H     19.833763   17.955201   20.174432
  H     19.680300   16.093763   18.530330
  H     19.239873   14.102445   19.672576
  H     17.951690   12.786310   21.339248
  H     15.943030   13.793021   22.428991
  H     14.691495   15.582046   22.607348
  H     16.530827   17.422560   20.202511

 Total Charge           Charge          ....    0
 Multiplicity           Mult            ....    1
 Number of Electrons    NEL             ....  154
 Basis Dimension        Dim             ....  828

ORBITAL ENERGIES
----------------

  NO   OCC          E(Eh)            E(eV)
   0   2.0000     -91.888546     -2500.4145
   1   2.0000     -20.594659      -560.4092
   2   2.0000     -20.589250      -560.2620
   3   2.0000     -20.553216      -559.2814
   4   2.0000     -15.628353      -425.2691
   5   2.0000     -15.607791      -424.7096
   6   2.0000     -11.395163      -310.0782
   7   2.0000     -11.383878      -309.7711
   8   2.0000     -11.333892      -308.4109
   9   2.0000     -11.310693      -307.7796
  10   2.0000     -11.307719      -307.6987
  11   2.0000     -11.298487      -307.4475
  12   2.0000     -11.259969      -306.3993
  13   2.0000     -11.259755      -306.3935
  14   2.0000     -11.256357      -306.3010
  15   2.0000     -11.250816      -306.1503
  16   2.0000     -11.240414      -305.8672
  17   2.0000     -11.236429      -305.7588
  18   2.0000     -11.233604      -305.6819
  19   2.0000     -11.229458      -305.5691
  20   2.0000      -8.893618      -242.0076
  21   2.0000      -6.575196      -178.9202
  22   2.0000      -6.573187      -178.8655
  23   2.0000      -6.572603      -178.8496
  24   2.0000      -1.453041       -39.5393
  25   2.0000      -1.414413       -38.4881
  26   2.0000      -1.357246       -36.9325
  27   2.0000      -1.339410       -36.4472
  28   2.0000      -1.237515       -33.6745
  29   2.0000      -1.154917       -31.4269
  30   2.0000      -1.120770       -30.4977
  31   2.0000      -1.044205       -28.4143
  32   2.0000      -1.035521       -28.1780
  33   2.0000      -1.012356       -27.5476
  34   2.0000      -0.998634       -27.1742
  35   2.0000      -0.984037       -26.7770
  36   2.0000      -0.922591       -25.1050
  37   2.0000      -0.883024       -24.0283
  38   2.0000      -0.848085       -23.0776
  39   2.0000      -0.837662       -22.7939
  40   2.0000      -0.830914       -22.6103
  41   2.0000      -0.824263       -22.4293
  42   2.0000      -0.758045       -20.6275
  43   2.0000      -0.735799       -20.0221
  44   2.0000      -0.727313       -19.7912
  45   2.0000      -0.692810       -18.8523
  46   2.0000      -0.685915       -18.6647
  47   2.0000      -0.680886       -18.5279
  48   2.0000      -0.673845       -18.3363
  49   2.0000      -0.656956       -17.8767
  50   2.0000      -0.647791       -17.6273
  51   2.0000      -0.641137       -17.4462
  52   2.0000      -0.627896       -17.0859
  53   2.0000      -0.622048       -16.9268
  54   2.0000      -0.603092       -16.4110
  55   2.0000      -0.602221       -16.3873
  56   2.0000      -0.598015       -16.2728
  57   2.0000      -0.578991       -15.7551
  58   2.0000      -0.575493       -15.6600
  59   2.0000      -0.562854       -15.3160
  60   2.0000      -0.560948       -15.2642
  61   2.0000      -0.548010       -14.9121
  62   2.0000      -0.533881       -14.5276
  63   2.0000      -0.522080       -14.2065
  64   2.0000      -0.519947       -14.1485
  65   2.0000      -0.511194       -13.9103
  66   2.0000      -0.501516       -13.6470
  67   2.0000      -0.496827       -13.5193
  68   2.0000      -0.482193       -13.1211
  69   2.0000      -0.464510       -12.6400
  70   2.0000      -0.460234       -12.5236
  71   2.0000      -0.451633       -12.2896
  72   2.0000      -0.354005        -9.6330
  73   2.0000      -0.346674        -9.4335
  74   2.0000      -0.327807        -8.9201
  75   2.0000      -0.317795        -8.6477
  76   2.0000      -0.315425        -8.5832
  77   0.0000       0.072188         1.9643
  78   0.0000       0.106888         2.9086
  79   0.0000       0.119023         3.2388
  80   0.0000       0.133603         3.6355
  81   0.0000       0.136632         3.7179

MULLIKEN ATOMIC CHARGES
-----------------------
   0 C :   -0.259442
   1 C :    0.036715
   2 O :   -0.371845
   3 C :    0.458421
   4 O :   -0.405289
   5 C :   -0.195014
   6 C :    0.140432
   7 C :   -0.282222
   8 N :   -0.124780
   9 C :    0.202920
  10 S :   -0.439818
  11 N :   -0.200297
  12 C :    0.050162
  13 C :    0.052493
  14 C :   -0.164039
  15 C :   -0.133222
  16 C :   -0.280340
  17 C :    0.312885
  18 O :   -0.358908
  19 C :   -0.280384
  20 H :    0.101804
  21 H :    0.090013
  22 H :    0.088141
  23 H :    0.094320
  24 H :    0.114212
  25 H :    0.124957
  26 H :    0.104242
  27 H :    0.124829
  28 H :    0.197171
  29 H :    0.194160
  30 H :    0.154576
  31 H :    0.155541
  32 H :    0.160422
  33 H :    0.129523
  34 H :    0.240662
  35 H :    0.167001
Sum of atomic charges:   -0.0000000

LOEWDIN ATOMIC CHARGES
----------------------
   0 C :    0.106758
   1 C :   -0.013611
   2 O :    0.295496
   3 C :   -0.415531
   4 O :    0.121741
   5 C :   -0.093388
   6 C :   -0.072487
   7 C :    0.125696
   8 N :    0.404238
   9 C :   -0.457779
  10 S :   -0.036387
  11 N :    0.397200
  12 C :   -0.045674
  13 C :   -0.039822
  14 C :    0.021465
  15 C :    0.041167
  16 C :   -0.002173
  17 C :   -0.193524
  18 O :    0.393139
  19 C :    0.028115
  20 H :   -0.023616
  21 H :   -0.030063
  22 H :   -0.026098
  23 H :   -0.033047
  24 H :   -0.025683
  25 H :   -0.008004
  26 H :   -0.019828
  27 H :   -0.010164
  28 H :   -0.058806
  29 H :   -0.063996
  30 H :   -0.004773
  31 H :   -0.024903
  32 H :   -0.020684
  33 H :   -0.035953
  34 H :   -0.154336
  35 H :   -0.024683

  Mayer bond orders larger than 0.100000
B(  0-C ,  1-C ) :   0.9786 B(  0-C , 20-H ) :   0.9777 B(  0-C , 21-H ) :   0.9798
B(  0-C , 22-H ) :   0.9760 B(  1-C ,  2-O ) :   0.8839 B(  1-C , 23-H ) :   0.9743
B(  1-C , 24-H ) :   0.9723 B(  2-O ,  3-C ) :   1.0976 B(  3-C ,  4-O ) :   2.0203
B(  3-C ,  5-C ) :   1.0343 B(  5-C ,  6-C ) :   1.6653 B(  5-C , 12-C ) :   0.9646
B(  6-C ,  7-C ) :   0.9520 B(  6-C ,  8-N ) :   1.1403 B(  7-C , 25-H ) :   0.9698
B(  7-C , 26-H ) :   0.9885 B(  7-C , 27-H ) :   0.9638 B(  8-N ,  9-C ) :   1.1833
B(  8-N , 28-H ) :   0.9496 B(  9-C , 10-S ) :   1.6105 B(  9-C , 11-N ) :   1.3010
B( 11-N , 12-C ) :   0.9917 B( 11-N , 29-H ) :   0.9517 B( 12-C , 13-C ) :   0.9453
B( 12-C , 30-H ) :   0.9985 B( 13-C , 14-C ) :   1.3768 B( 13-C , 19-C ) :   1.3682
B( 14-C , 15-C ) :   1.3940 B( 14-C , 31-H ) :   0.9641 B( 15-C , 16-C ) :   1.3636
B( 15-C , 32-H ) :   0.9710 B( 16-C , 17-C ) :   1.3313 B( 16-C , 33-H ) :   0.9854
B( 17-C , 18-O ) :   1.1089 B( 17-C , 19-C ) :   1.3753 B( 18-O , 34-H ) :   0.9801
B( 19-C , 35-H ) :   0.9581

MP2 TOTAL ENERGY:    -1274.329328006 Eh
FINAL SINGLE POINT ENERGY     -1274.329328005918

DIPOLE MOMENT
-------------
                                X             Y             Z
Electronic contribution:     11.29922      10.00306       9.43199
Nuclear contribution   :    -12.73772     -11.28243     -10.04777
                        -----------------------------------------
Total Dipole Moment    :     -1.43849      -1.27937      -0.61578
                        -----------------------------------------
Magnitude (a.u.)       :      2.02120
Magnitude (Debye)      :      5.13747

Rotational constants in cm-1:     0.010946     0.009070     0.006198
Rotational constants in MHz :   328.155135   271.923596   185.818892

                             ****ORCA TERMINATED NORMALLY****
TOTAL RUN TIME: 0 days 1 hours 58 minutes 7 seconds 548 msec
