                         Program Version 5.0.0 -  RELEASE  -
|  1> ! ri-mp2 cc-pvtz cc-pvtz/c TightSCF NoKeepInts
|  2>
|  3> %scf
|  4>   MaxCore 4096
|  5> end
|  6> *xyz  0  1
|  7>     C       15.0586148   15.6051385   17.5177793
|  8>     C       15.6219296   15.2398984   16.1284147
|  9>     O       17.0195561   14.8729352   16.1674830
| 10>     C       18.1278190   15.6288575   16.4768129
| 11>     O       19.2138319   15.0806198   16.4370531
| 12>     C       17.9454182   16.8031578   17.3801417
| 13>     C       17.4055420   17.9668804   16.9485958
| 14>     C       16.8954047   18.2773183   15.5583274
| 15>     N       17.3670497   19.0747811   17.7980321
| 16>     C       17.9866904   19.1415395   19.0184792
| 17>     S       17.9683779   20.5230433   19.9268688
| 18>     N       18.6268588   18.0049391   19.4471939
| 19>     C       18.5824645   16.6935508   18.7687012
| 20>     C       17.8872589   15.6370379   19.6250871
| 21>     C       18.3286046   14.3014916   19.5815147
| 22>     C       17.6977145   13.3106256   20.3516228
| 23>     C       16.6141270   13.6558708   21.1764003
| 24>     C       16.1690574   14.9835390   21.2234139
| 25>     O       15.1154071   15.3181730   22.0098041
| 26>     C       16.7980529   15.9682927   20.4548110
| 27>     H       15.3768812   14.8656763   18.2628964
| 28>     H       13.9623341   15.5919886   17.4901085
| 29>     H       15.3568416   16.6004022   17.8568305
| 30>     H       15.0623024   14.3706901   15.7588281
| 31>     H       15.4458711   16.0531106   15.4165851
| 32>     H       17.1931562   17.5164883   14.8265972
| 33>     H       17.3032748   19.2302898   15.1971376
| 34>     H       15.8015760   18.3567970   15.5477584
| 35>     H       16.9207028   19.9255045   17.4931422
| 36>     H       19.0662644   18.0789681   20.3560628
| 37>     H       19.6230657   16.3658338   18.6264198
| 38>     H       19.1604647   14.0277044   18.9355451
| 39>     H       18.0479862   12.2809672   20.3027984
| 40>     H       16.1228009   12.8928965   21.7710493
| 41>     H       14.8474416   14.5207789   22.4909743
| 42>     H       16.4262565   16.9862131   20.5047291
| 43> *
| 44>
| 45>                          ****END OF INPUT****

CARTESIAN COORDINATES (ANGSTROEM)
---------------------------------
  C     15.058615   15.605139   17.517779
  C     15.621930   15.239898   16.128415
  O     17.019556   14.872935   16.167483
  C     18.127819   15.628858   16.476813
  O     19.213832   15.080620   16.437053
  C     17.945418   16.803158   17.380142
  C     17.405542   17.966880   16.948596
  C     16.895405   18.277318   15.558327
  N     17.367050   19.074781   17.798032
  C     17.986690   19.141539   19.018479
  S     17.968378   20.523043   19.926869
  N     18.626859   18.004939   19.447194
  C     18.582465   16.693551   18.768701
  C     17.887259   15.637038   19.625087
  C     18.328605   14.301492   19.581515
  C     17.697715   13.310626   20.351623
  C     16.614127   13.655871   21.176400
  C     16.169057   14.983539   21.223414
  O     15.115407   15.318173   22.009804
  C     16.798053   15.968293   20.454811
  H     15.376881   14.865676   18.262896
  H     13.962334   15.591989   17.490108
  H     15.356842   16.600402   17.856831
  H     15.062302   14.370690   15.758828
  H     15.445871   16.053111   15.416585
  H     17.193156   17.516488   14.826597
  H     17.303275   19.230290   15.197138
  H     15.801576   18.356797   15.547758
  H     16.920703   19.925504   17.493142
  H     19.066264   18.078968   20.356063
  H     19.623066   16.365834   18.626420
  H     19.160465   14.027704   18.935545
  H     18.047986   12.280967   20.302798
  H     16.122801   12.892896   21.771049
  H     14.847442   14.520779   22.490974
  H     16.426257   16.986213   20.504729

 Total Charge           Charge          ....    0
 Multiplicity           Mult            ....    1
 Number of Electrons    NEL             ....  154
 Basis Dimension        Dim             ....  828

ORBITAL ENERGIES
----------------

  NO   OCC          E(Eh)            E(eV)
   0   2.0000     -91.889975     -2500.4533
   1   2.0000     -20.599672      -560.5456
   2   2.0000     -20.597208      -560.4785
   3   2.0000     -20.550269      -559.2012
   4   2.0000     -15.627177      -425.2371
   5   2.0000     -15.611179      -424.8018
   6   2.0000     -11.400068      -310.2116
   7   2.0000     -11.386546      -309.8437
   8   2.0000     -11.328567      -308.2660
   9   2.0000     -11.314736      -307.8896
  10   2.0000     -11.313714      -307.8618
  11   2.0000     -11.309871      -307.7572
  12   2.0000     -11.272232      -306.7330
  13   2.0000     -11.266355      -306.5731
  14   2.0000     -11.261543      -306.4422
  15   2.0000     -11.254350      -306.2464
  16   2.0000     -11.243516      -305.9516
  17   2.0000     -11.238959      -305.8276
  18   2.0000     -11.236051      -305.7485
  19   2.0000     -11.229729      -305.5765
  20   2.0000      -8.895084      -242.0475
  21   2.0000      -6.576674      -178.9604
  22   2.0000      -6.574646      -178.9052
  23   2.0000      -6.574072      -178.8896
  24   2.0000      -1.446515       -39.3617
  25   2.0000      -1.417036       -38.5595
  26   2.0000      -1.357236       -36.9323
  27   2.0000      -1.340584       -36.4791
  28   2.0000      -1.239944       -33.7406
  29   2.0000      -1.158753       -31.5313
  30   2.0000      -1.125271       -30.6202
  31   2.0000      -1.047934       -28.5157
  32   2.0000      -1.039063       -28.2744
  33   2.0000      -1.016936       -27.6722
  34   2.0000      -1.005546       -27.3623
  35   2.0000      -0.990030       -26.9401
  36   2.0000      -0.927851       -25.2481
  37   2.0000      -0.897125       -24.4120
  38   2.0000      -0.854631       -23.2557
  39   2.0000      -0.840458       -22.8700
  40   2.0000      -0.834100       -22.6970
  41   2.0000      -0.829641       -22.5757
  42   2.0000      -0.748735       -20.3741
  43   2.0000      -0.739188       -20.1143
  44   2.0000      -0.730361       -19.8741
  45   2.0000      -0.694907       -18.9094
  46   2.0000      -0.687291       -18.7021
  47   2.0000      -0.679243       -18.4832
  48   2.0000      -0.674853       -18.3637
  49   2.0000      -0.663838       -18.0639
  50   2.0000      -0.652058       -17.7434
  51   2.0000      -0.648368       -17.6430
  52   2.0000      -0.640604       -17.4317
  53   2.0000      -0.614883       -16.7318
  54   2.0000      -0.609829       -16.5943
  55   2.0000      -0.605442       -16.4749
  56   2.0000      -0.601892       -16.3783
  57   2.0000      -0.591246       -16.0886
  58   2.0000      -0.580686       -15.8013
  59   2.0000      -0.573647       -15.6097
  60   2.0000      -0.565411       -15.3856
  61   2.0000      -0.557425       -15.1683
  62   2.0000      -0.541525       -14.7357
  63   2.0000      -0.528847       -14.3907
  64   2.0000      -0.517815       -14.0905
  65   2.0000      -0.512917       -13.9572
  66   2.0000      -0.503717       -13.7068
  67   2.0000      -0.501034       -13.6338
  68   2.0000      -0.483998       -13.1702
  69   2.0000      -0.463349       -12.6084
  70   2.0000      -0.454309       -12.3624
  71   2.0000      -0.451805       -12.2942
  72   2.0000      -0.356435        -9.6991
  73   2.0000      -0.348169        -9.4742
  74   2.0000      -0.329623        -8.9695
  75   2.0000      -0.322543        -8.7768
  76   2.0000      -0.318173        -8.6579
  77   0.0000       0.086076         2.3423
  78   0.0000       0.106018         2.8849
  79   0.0000       0.112394         3.0584
  80   0.0000       0.129775         3.5314
  81   0.0000       0.131096         3.5673

MULLIKEN ATOMIC CHARGES
-----------------------
   0 C :   -0.323846
   1 C :    0.015957
   2 O :   -0.320620
   3 C :    0.405589
   4 O :   -0.379443
   5 C :   -0.179605
   6 C :    0.132597
   7 C :   -0.334369
   8 N :   -0.136390
   9 C :    0.204814
  10 S :   -0.441138
  11 N :   -0.226818
  12 C :    0.081751
  13 C :    0.026514
  14 C :   -0.207976
  15 C :   -0.135550
  16 C :   -0.277129
  17 C :    0.315234
  18 O :   -0.358748
  19 C :   -0.272415
  20 H :    0.127333
  21 H :    0.114328
  22 H :    0.106839
  23 H :    0.133735
  24 H :    0.088188
  25 H :    0.124284
  26 H :    0.138706
  27 H :    0.123316
  28 H :    0.196297
  29 H :    0.202301
  30 H :    0.169290
  31 H :    0.172998
  32 H :    0.163526
  33 H :    0.131938
  34 H :    0.241033
  35 H :    0.177478
Sum of atomic charges:   -0.0000000

LOEWDIN ATOMIC CHARGES
----------------------
   0 C :    0.104119
   1 C :   -0.020005
   2 O :    0.303194
   3 C :   -0.416614
   4 O :    0.126472
   5 C :   -0.077275
   6 C :   -0.103998
   7 C :    0.122958
   8 N :    0.401661
   9 C :   -0.457329
  10 S :   -0.038106
  11 N :    0.398616
  12 C :   -0.041879
  13 C :   -0.041733
  14 C :    0.021655
  15 C :    0.043944
  16 C :   -0.002171
  17 C :   -0.194300
  18 O :    0.395346
  19 C :    0.028683
  20 H :   -0.019057
  21 H :   -0.025018
  22 H :   -0.037738
  23 H :   -0.017120
  24 H :   -0.040412
  25 H :   -0.009621
  26 H :   -0.009054
  27 H :   -0.017388
  28 H :   -0.058256
  29 H :   -0.063475
  30 H :   -0.001299
  31 H :   -0.021734
  32 H :   -0.018629
  33 H :   -0.035094
  34 H :   -0.153651
  35 H :   -0.025690

  Mayer bond orders larger than 0.100000
B(  0-C ,  1-C ) :   0.9539 B(  0-C , 20-H ) :   0.9692 B(  0-C , 21-H ) :   0.9769
B(  0-C , 22-H ) :   0.9730 B(  1-C ,  2-O ) :   0.9129 B(  1-C , 23-H ) :   0.9824
B(  1-C , 24-H ) :   0.9756 B(  2-O ,  3-C ) :   1.1555 B(  3-C ,  4-O ) :   2.0797
B(  3-C ,  5-C ) :   0.9188 B(  5-C ,  6-C ) :   1.7024 B(  5-C , 12-C ) :   0.9552
B(  6-C ,  7-C ) :   0.9436 B(  6-C ,  8-N ) :   1.1000 B(  7-C , 25-H ) :   0.9814
B(  7-C , 26-H ) :   0.9723 B(  7-C , 27-H ) :   0.9651 B(  8-N ,  9-C ) :   1.1964
B(  8-N , 28-H ) :   0.9529 B(  9-C , 10-S ) :   1.6084 B(  9-C , 11-N ) :   1.2872
B( 11-N , 12-C ) :   0.9857 B( 11-N , 29-H ) :   0.9477 B( 12-C , 13-C ) :   0.9503
B( 12-C , 30-H ) :   0.9949 B( 13-C , 14-C ) :   1.3884 B( 13-C , 19-C ) :   1.3396
B( 14-C , 15-C ) :   1.4023 B( 14-C , 31-H ) :   0.9594 B( 15-C , 16-C ) :   1.3578
B( 15-C , 32-H ) :   0.9702 B( 16-C , 17-C ) :   1.3308 B( 16-C , 33-H ) :   0.9850
B( 17-C , 18-O ) :   1.1098 B( 17-C , 19-C ) :   1.3703 B( 18-O , 34-H ) :   0.9797
B( 19-C , 35-H ) :   0.9571

MP2 TOTAL ENERGY:    -1274.323238877 Eh
FINAL SINGLE POINT ENERGY     -1274.323238876730

DIPOLE MOMENT
-------------
                                X             Y             Z
Electronic contribution:      9.27106       5.98614       6.40679
Nuclear contribution   :    -10.82762      -7.05525      -7.17713
                        -----------------------------------------
Total Dipole Moment    :     -1.55657      -1.06911      -0.77035
                        -----------------------------------------
Magnitude (a.u.)       :      2.03944
Magnitude (Debye)      :      5.18385

Rotational constants in cm-1:     0.011900     0.009594     0.006858
Rotational constants in MHz :   356.756815   287.624757   205.603775

                             ****ORCA TERMINATED NORMALLY****
TOTAL RUN TIME: 0 days 2 hours 14 minutes 36 seconds 748 msec
