                         Program Version 5.0.0 -  RELEASE  -
|  1> ! ri-mp2 cc-pvtz cc-pvtz/c TightSCF NoKeepInts
|  2>
|  3> %scf
|  4>   MaxCore 4096
|  5> end
|  6> *xyz  0  1
|  7>     C       14.5444712   14.3907995   16.1870633
|  8>     C       15.8667366   14.9480006   16.7441203
|  9>     O       16.5235433   15.6997130   15.7119017
| 10>     C       17.7243124   16.2891579   15.9878062
| 11>     O       18.7312399   15.7426331   15.5802172
| 12>     C       17.7713956   17.0581623   17.2693600
| 13>     C       17.1826261   18.2706494   17.4029478
| 14>     C       16.3275709   18.9748053   16.3755585
| 15>     N       17.5176387   19.0668939   18.5154107
| 16>     C       18.6183525   18.8395893   19.3128274
| 17>     S       19.1393240   19.9296634   20.4509786
| 18>     N       19.2777058   17.6497678   19.1095091
| 19>     C       18.6873184   16.5234004   18.3664716
| 20>     C       17.9528350   15.6146392   19.3509280
| 21>     C       18.4218694   14.3134004   19.6289775
| 22>     C       17.8153514   13.5301071   20.6304855
| 23>     C       16.7316436   14.0461338   21.3594293
| 24>     C       16.2519147   15.3305659   21.0725576
| 25>     O       15.2113560   15.8502974   21.7749913
| 26>     C       16.8485630   16.0990893   20.0742305
| 27>     H       13.9642298   13.9205269   16.9906717
| 28>     H       14.7299998   13.6101379   15.4373695
| 29>     H       13.9209329   15.1673969   15.7303817
| 30>     H       15.6325275   15.5794825   17.6068130
| 31>     H       16.5123500   14.1206436   17.0739569
| 32>     H       15.8406014   18.2679892   15.6899122
| 33>     H       16.9502536   19.6484832   15.7728490
| 34>     H       15.5341590   19.5775091   16.8399766
| 35>     H       17.0610548   19.9501475   18.6571381
| 36>     H       20.0877461   17.5060066   19.6948612
| 37>     H       19.4977566   15.9562287   17.8996498
| 38>     H       19.2762997   13.9133914   19.0882743
| 39>     H       18.1962695   12.5365586   20.8515931
| 40>     H       16.2767324   13.4621333   22.1540035
| 41>     H       15.0534453   15.2724575   22.5384782
| 42>     H       16.4668731   17.0954379   19.9022991
| 43> *
| 44>
| 45>                          ****END OF INPUT****

CARTESIAN COORDINATES (ANGSTROEM)
---------------------------------
  C     14.544471   14.390799   16.187063
  C     15.866737   14.948001   16.744120
  O     16.523543   15.699713   15.711902
  C     17.724312   16.289158   15.987806
  O     18.731240   15.742633   15.580217
  C     17.771396   17.058162   17.269360
  C     17.182626   18.270649   17.402948
  C     16.327571   18.974805   16.375559
  N     17.517639   19.066894   18.515411
  C     18.618353   18.839589   19.312827
  S     19.139324   19.929663   20.450979
  N     19.277706   17.649768   19.109509
  C     18.687318   16.523400   18.366472
  C     17.952835   15.614639   19.350928
  C     18.421869   14.313400   19.628978
  C     17.815351   13.530107   20.630485
  C     16.731644   14.046134   21.359429
  C     16.251915   15.330566   21.072558
  O     15.211356   15.850297   21.774991
  C     16.848563   16.099089   20.074230
  H     13.964230   13.920527   16.990672
  H     14.730000   13.610138   15.437369
  H     13.920933   15.167397   15.730382
  H     15.632528   15.579482   17.606813
  H     16.512350   14.120644   17.073957
  H     15.840601   18.267989   15.689912
  H     16.950254   19.648483   15.772849
  H     15.534159   19.577509   16.839977
  H     17.061055   19.950147   18.657138
  H     20.087746   17.506007   19.694861
  H     19.497757   15.956229   17.899650
  H     19.276300   13.913391   19.088274
  H     18.196269   12.536559   20.851593
  H     16.276732   13.462133   22.154003
  H     15.053445   15.272457   22.538478
  H     16.466873   17.095438   19.902299

 Total Charge           Charge          ....    0
 Multiplicity           Mult            ....    1
 Number of Electrons    NEL             ....  154
 Basis Dimension        Dim             ....  828

ORBITAL ENERGIES
----------------

  NO   OCC          E(Eh)            E(eV)
   0   2.0000     -91.889749     -2500.4472
   1   2.0000     -20.600759      -560.5752
   2   2.0000     -20.584661      -560.1371
   3   2.0000     -20.558785      -559.4330
   4   2.0000     -15.628108      -425.2625
   5   2.0000     -15.608196      -424.7206
   6   2.0000     -11.395567      -310.0891
   7   2.0000     -11.385499      -309.8152
   8   2.0000     -11.329708      -308.2970
   9   2.0000     -11.317722      -307.9709
  10   2.0000     -11.312778      -307.8363
  11   2.0000     -11.298633      -307.4514
  12   2.0000     -11.265705      -306.5554
  13   2.0000     -11.264942      -306.5347
  14   2.0000     -11.262654      -306.4724
  15   2.0000     -11.260617      -306.4170
  16   2.0000     -11.248424      -306.0852
  17   2.0000     -11.245279      -305.9996
  18   2.0000     -11.240872      -305.8797
  19   2.0000     -11.230809      -305.6058
  20   2.0000      -8.894511      -242.0319
  21   2.0000      -6.576051      -178.9434
  22   2.0000      -6.574083      -178.8899
  23   2.0000      -6.573492      -178.8738
  24   2.0000      -1.452902       -39.5355
  25   2.0000      -1.419306       -38.6213
  26   2.0000      -1.358252       -36.9599
  27   2.0000      -1.338297       -36.4169
  28   2.0000      -1.238028       -33.6885
  29   2.0000      -1.161954       -31.6184
  30   2.0000      -1.124566       -30.6010
  31   2.0000      -1.049537       -28.5594
  32   2.0000      -1.033440       -28.1213
  33   2.0000      -1.020587       -27.7716
  34   2.0000      -1.004683       -27.3388
  35   2.0000      -0.985305       -26.8115
  36   2.0000      -0.926652       -25.2155
  37   2.0000      -0.877412       -23.8756
  38   2.0000      -0.853214       -23.2171
  39   2.0000      -0.846590       -23.0369
  40   2.0000      -0.838947       -22.8289
  41   2.0000      -0.833284       -22.6748
  42   2.0000      -0.757810       -20.6211
  43   2.0000      -0.733775       -19.9670
  44   2.0000      -0.728198       -19.8153
  45   2.0000      -0.701277       -19.0827
  46   2.0000      -0.692043       -18.8314
  47   2.0000      -0.682009       -18.5584
  48   2.0000      -0.675121       -18.3710
  49   2.0000      -0.665025       -18.0962
  50   2.0000      -0.654491       -17.8096
  51   2.0000      -0.641999       -17.4697
  52   2.0000      -0.640353       -17.4249
  53   2.0000      -0.614449       -16.7200
  54   2.0000      -0.613313       -16.6891
  55   2.0000      -0.607125       -16.5207
  56   2.0000      -0.604672       -16.4540
  57   2.0000      -0.584804       -15.9133
  58   2.0000      -0.578503       -15.7419
  59   2.0000      -0.564758       -15.3679
  60   2.0000      -0.553791       -15.0694
  61   2.0000      -0.547811       -14.9067
  62   2.0000      -0.539657       -14.6848
  63   2.0000      -0.530163       -14.4265
  64   2.0000      -0.526495       -14.3267
  65   2.0000      -0.518046       -14.0967
  66   2.0000      -0.505030       -13.7426
  67   2.0000      -0.493907       -13.4399
  68   2.0000      -0.487762       -13.2727
  69   2.0000      -0.463833       -12.6215
  70   2.0000      -0.454276       -12.3615
  71   2.0000      -0.451528       -12.2867
  72   2.0000      -0.362295        -9.8585
  73   2.0000      -0.352663        -9.5964
  74   2.0000      -0.330147        -8.9837
  75   2.0000      -0.326381        -8.8813
  76   2.0000      -0.316025        -8.5995
  77   0.0000       0.076711         2.0874
  78   0.0000       0.101255         2.7553
  79   0.0000       0.116041         3.1576
  80   0.0000       0.122885         3.3439
  81   0.0000       0.128474         3.4960

MULLIKEN ATOMIC CHARGES
-----------------------
   0 C :   -0.267059
   1 C :    0.047396
   2 O :   -0.348269
   3 C :    0.426988
   4 O :   -0.367987
   5 C :   -0.182889
   6 C :    0.139183
   7 C :   -0.304491
   8 N :   -0.151971
   9 C :    0.207083
  10 S :   -0.437089
  11 N :   -0.182231
  12 C :    0.009662
  13 C :    0.069425
  14 C :   -0.196118
  15 C :   -0.128432
  16 C :   -0.272238
  17 C :    0.303362
  18 O :   -0.358457
  19 C :   -0.281783
  20 H :    0.090706
  21 H :    0.103277
  22 H :    0.097779
  23 H :    0.086711
  24 H :    0.096408
  25 H :    0.123133
  26 H :    0.136925
  27 H :    0.103895
  28 H :    0.196775
  29 H :    0.190274
  30 H :    0.173693
  31 H :    0.158797
  32 H :    0.164432
  33 H :    0.133906
  34 H :    0.242503
  35 H :    0.176701
Sum of atomic charges:    0.0000000

LOEWDIN ATOMIC CHARGES
----------------------
   0 C :    0.112397
   1 C :   -0.024678
   2 O :    0.286023
   3 C :   -0.417501
   4 O :    0.142443
   5 C :   -0.081913
   6 C :   -0.091574
   7 C :    0.124414
   8 N :    0.402322
   9 C :   -0.446436
  10 S :   -0.040786
  11 N :    0.399214
  12 C :   -0.044829
  13 C :   -0.035183
  14 C :    0.012538
  15 C :    0.043814
  16 C :    0.002007
  17 C :   -0.190945
  18 O :    0.392885
  19 C :    0.030923
  20 H :   -0.023275
  21 H :   -0.024692
  22 H :   -0.027894
  23 H :   -0.039580
  24 H :   -0.028164
  25 H :   -0.009530
  26 H :   -0.008285
  27 H :   -0.015529
  28 H :   -0.065194
  29 H :   -0.068446
  30 H :   -0.001893
  31 H :   -0.028532
  32 H :   -0.020577
  33 H :   -0.033334
  34 H :   -0.151520
  35 H :   -0.028689

  Mayer bond orders larger than 0.100000
B(  0-C ,  1-C ) :   0.9763 B(  0-C , 20-H ) :   0.9768 B(  0-C , 21-H ) :   0.9826
B(  0-C , 22-H ) :   0.9776 B(  1-C ,  2-O ) :   0.9021 B(  1-C , 23-H ) :   0.9638
B(  1-C , 24-H ) :   0.9722 B(  2-O ,  3-C ) :   1.1270 B(  3-C ,  4-O ) :   2.0961
B(  3-C ,  5-C ) :   0.9340 B(  5-C ,  6-C ) :   1.7050 B(  5-C , 12-C ) :   0.9649
B(  6-C ,  7-C ) :   0.9502 B(  6-C ,  8-N ) :   1.0975 B(  7-C , 25-H ) :   0.9768
B(  7-C , 26-H ) :   0.9639 B(  7-C , 27-H ) :   0.9754 B(  8-N ,  9-C ) :   1.1808
B(  8-N , 28-H ) :   0.9531 B(  9-C , 10-S ) :   1.6148 B(  9-C , 11-N ) :   1.2919
B( 11-N , 12-C ) :   0.9749 B( 11-N , 29-H ) :   0.9539 B( 12-C , 13-C ) :   0.9652
B( 12-C , 30-H ) :   0.9882 B( 13-C , 14-C ) :   1.3649 B( 13-C , 19-C ) :   1.3431
B( 14-C , 15-C ) :   1.3777 B( 14-C , 31-H ) :   0.9683 B( 15-C , 16-C ) :   1.3790
B( 15-C , 32-H ) :   0.9695 B( 16-C , 17-C ) :   1.3265 B( 16-C , 33-H ) :   0.9827
B( 17-C , 18-O ) :   1.1177 B( 17-C , 19-C ) :   1.3889 B( 18-O , 34-H ) :   0.9789
B( 19-C , 35-H ) :   0.9508

MP2 TOTAL ENERGY:    -1274.314695220 Eh
FINAL SINGLE POINT ENERGY     -1274.314695220476

DIPOLE MOMENT
-------------
                                X             Y             Z
Electronic contribution:     11.44223       8.71212       6.06412
Nuclear contribution   :    -13.05583      -9.90377      -5.83454
                        -----------------------------------------
Total Dipole Moment    :     -1.61360      -1.19165       0.22958
                        -----------------------------------------
Magnitude (a.u.)       :      2.01902
Magnitude (Debye)      :      5.13194

Rotational constants in cm-1:     0.010867     0.009890     0.006754
Rotational constants in MHz :   325.794808   296.497631   202.465943

                             ****ORCA TERMINATED NORMALLY****
TOTAL RUN TIME: 0 days 2 hours 10 minutes 36 seconds 560 msec
