                         Program Version 5.0.0 -  RELEASE  -
|  1> ! ri-mp2 cc-pvtz cc-pvtz/c TightSCF NoKeepInts
|  2>
|  3> %scf
|  4>   MaxCore 4096
|  5> end
|  6> *xyz  0  1
|  7>     C       15.3627116   13.7368947   15.7178894
|  8>     C       15.4638089   15.1471575   15.0947829
|  9>     O       16.2907067   16.0922587   15.8233835
| 10>     C       17.2495407   15.7983037   16.7565557
| 11>     O       17.7790600   14.7050526   16.8606481
| 12>     C       17.6743262   16.9636860   17.6095540
| 13>     C       17.2809408   18.2558579   17.4448583
| 14>     C       16.3439705   18.8316678   16.4020795
| 15>     N       17.8047758   19.2521128   18.2764311
| 16>     C       18.8178955   19.0700368   19.1797496
| 17>     S       19.4692557   20.3329041   20.0263116
| 18>     N       19.2620215   17.7836748   19.3456946
| 19>     C       18.6268249   16.5920480   18.7535336
| 20>     C       17.9050202   15.7819709   19.8278109
| 21>     C       18.1919993   14.4154431   20.0022537
| 22>     C       17.5287238   13.6634538   20.9863458
| 23>     C       16.5689334   14.2823613   21.8050523
| 24>     C       16.2772195   15.6422037   21.6325374
| 25>     O       15.3463674   16.2413407   22.4173733
| 26>     C       16.9385880   16.3878885   20.6516842
| 27>     H       16.2902006   13.1690337   15.5734131
| 28>     H       14.5556895   13.1693799   15.2392731
| 29>     H       15.1448919   13.7933879   16.7919370
| 30>     H       15.8619014   15.0408175   14.0773168
| 31>     H       14.4545217   15.5684619   15.0030661
| 32>     H       15.3387008   18.4051069   16.5068404
| 33>     H       16.7051562   18.6090338   15.3902951
| 34>     H       16.2435146   19.9212636   16.4760242
| 35>     H       17.4922774   20.2038128   18.1698955
| 36>     H       19.9880387   17.6690942   20.0411009
| 37>     H       19.4281682   15.9674339   18.3327739
| 38>     H       18.9212841   13.9301950   19.3579861
| 39>     H       17.7557676   12.6056813   21.1060929
| 40>     H       16.0529621   13.7049165   22.5647871
| 41>     H       15.0315563   15.5784682   23.0500084
| 42>     H       16.6996786   17.4395958   20.5386598
| 43> *
| 44>
| 45>                          ****END OF INPUT****

CARTESIAN COORDINATES (ANGSTROEM)
---------------------------------
  C     15.362712   13.736895   15.717889
  C     15.463809   15.147158   15.094783
  O     16.290707   16.092259   15.823383
  C     17.249541   15.798304   16.756556
  O     17.779060   14.705053   16.860648
  C     17.674326   16.963686   17.609554
  C     17.280941   18.255858   17.444858
  C     16.343971   18.831668   16.402079
  N     17.804776   19.252113   18.276431
  C     18.817895   19.070037   19.179750
  S     19.469256   20.332904   20.026312
  N     19.262021   17.783675   19.345695
  C     18.626825   16.592048   18.753534
  C     17.905020   15.781971   19.827811
  C     18.191999   14.415443   20.002254
  C     17.528724   13.663454   20.986346
  C     16.568933   14.282361   21.805052
  C     16.277220   15.642204   21.632537
  O     15.346367   16.241341   22.417373
  C     16.938588   16.387888   20.651684
  H     16.290201   13.169034   15.573413
  H     14.555689   13.169380   15.239273
  H     15.144892   13.793388   16.791937
  H     15.861901   15.040817   14.077317
  H     14.454522   15.568462   15.003066
  H     15.338701   18.405107   16.506840
  H     16.705156   18.609034   15.390295
  H     16.243515   19.921264   16.476024
  H     17.492277   20.203813   18.169895
  H     19.988039   17.669094   20.041101
  H     19.428168   15.967434   18.332774
  H     18.921284   13.930195   19.357986
  H     17.755768   12.605681   21.106093
  H     16.052962   13.704916   22.564787
  H     15.031556   15.578468   23.050008
  H     16.699679   17.439596   20.538660

 Total Charge           Charge          ....    0
 Multiplicity           Mult            ....    1
 Number of Electrons    NEL             ....  154
 Basis Dimension        Dim             ....  828

ORBITAL ENERGIES
----------------

  NO   OCC          E(Eh)            E(eV)
   0   2.0000     -91.887434     -2500.3842
   1   2.0000     -20.600638      -560.5719
   2   2.0000     -20.591056      -560.3111
   3   2.0000     -20.543073      -559.0054
   4   2.0000     -15.627736      -425.2523
   5   2.0000     -15.605887      -424.6578
   6   2.0000     -11.398261      -310.1624
   7   2.0000     -11.382018      -309.7205
   8   2.0000     -11.336207      -308.4739
   9   2.0000     -11.307060      -307.6808
  10   2.0000     -11.306787      -307.6733
  11   2.0000     -11.304059      -307.5991
  12   2.0000     -11.260066      -306.4020
  13   2.0000     -11.258019      -306.3463
  14   2.0000     -11.252590      -306.1985
  15   2.0000     -11.246901      -306.0437
  16   2.0000     -11.236584      -305.7630
  17   2.0000     -11.232680      -305.6568
  18   2.0000     -11.229478      -305.5696
  19   2.0000     -11.225873      -305.4715
  20   2.0000      -8.892500      -241.9772
  21   2.0000      -6.574079      -178.8898
  22   2.0000      -6.572072      -178.8352
  23   2.0000      -6.571487      -178.8192
  24   2.0000      -1.446193       -39.3529
  25   2.0000      -1.410796       -38.3897
  26   2.0000      -1.356023       -36.8993
  27   2.0000      -1.338757       -36.4294
  28   2.0000      -1.236254       -33.6402
  29   2.0000      -1.151179       -31.3252
  30   2.0000      -1.117897       -30.4195
  31   2.0000      -1.041498       -28.3406
  32   2.0000      -1.034389       -28.1472
  33   2.0000      -1.008704       -27.4482
  34   2.0000      -0.996553       -27.1176
  35   2.0000      -0.981812       -26.7165
  36   2.0000      -0.920802       -25.0563
  37   2.0000      -0.897725       -24.4283
  38   2.0000      -0.847536       -23.0626
  39   2.0000      -0.835158       -22.7258
  40   2.0000      -0.827106       -22.5067
  41   2.0000      -0.816666       -22.2226
  42   2.0000      -0.743096       -20.2207
  43   2.0000      -0.727988       -19.8096
  44   2.0000      -0.723771       -19.6948
  45   2.0000      -0.689300       -18.7568
  46   2.0000      -0.683995       -18.6125
  47   2.0000      -0.677565       -18.4375
  48   2.0000      -0.672705       -18.3052
  49   2.0000      -0.662461       -18.0265
  50   2.0000      -0.647678       -17.6242
  51   2.0000      -0.643302       -17.5051
  52   2.0000      -0.633078       -17.2269
  53   2.0000      -0.610421       -16.6104
  54   2.0000      -0.600000       -16.3268
  55   2.0000      -0.598705       -16.2916
  56   2.0000      -0.594565       -16.1789
  57   2.0000      -0.579180       -15.7603
  58   2.0000      -0.572755       -15.5855
  59   2.0000      -0.567042       -15.4300
  60   2.0000      -0.557549       -15.1717
  61   2.0000      -0.541228       -14.7276
  62   2.0000      -0.538353       -14.6493
  63   2.0000      -0.524802       -14.2806
  64   2.0000      -0.516154       -14.0453
  65   2.0000      -0.510872       -13.9015
  66   2.0000      -0.500374       -13.6159
  67   2.0000      -0.494596       -13.4586
  68   2.0000      -0.478588       -13.0230
  69   2.0000      -0.462927       -12.5969
  70   2.0000      -0.453493       -12.3402
  71   2.0000      -0.447745       -12.1838
  72   2.0000      -0.353377        -9.6159
  73   2.0000      -0.343302        -9.3417
  74   2.0000      -0.326577        -8.8866
  75   2.0000      -0.315029        -8.5724
  76   2.0000      -0.312834        -8.5126
  77   0.0000       0.076270         2.0754
  78   0.0000       0.114030         3.1029
  79   0.0000       0.121999         3.3198
  80   0.0000       0.136412         3.7120
  81   0.0000       0.139735         3.8024

MULLIKEN ATOMIC CHARGES
-----------------------
   0 C :   -0.297972
   1 C :    0.049332
   2 O :   -0.354747
   3 C :    0.454944
   4 O :   -0.431212
   5 C :   -0.175903
   6 C :    0.142981
   7 C :   -0.282318
   8 N :   -0.120790
   9 C :    0.200820
  10 S :   -0.439946
  11 N :   -0.196919
  12 C :    0.035230
  13 C :    0.058732
  14 C :   -0.162752
  15 C :   -0.134371
  16 C :   -0.279285
  17 C :    0.311633
  18 O :   -0.359240
  19 C :   -0.274583
  20 H :    0.123703
  21 H :    0.096447
  22 H :    0.104061
  23 H :    0.092048
  24 H :    0.094761
  25 H :    0.124921
  26 H :    0.128445
  27 H :    0.102034
  28 H :    0.196440
  29 H :    0.193521
  30 H :    0.154439
  31 H :    0.154038
  32 H :    0.158948
  33 H :    0.127888
  34 H :    0.239967
  35 H :    0.164705
Sum of atomic charges:   -0.0000000

LOEWDIN ATOMIC CHARGES
----------------------
   0 C :    0.103885
   1 C :   -0.008348
   2 O :    0.294592
   3 C :   -0.414676
   4 O :    0.110767
   5 C :   -0.090735
   6 C :   -0.063849
   7 C :    0.124361
   8 N :    0.404826
   9 C :   -0.459578
  10 S :   -0.036574
  11 N :    0.398205
  12 C :   -0.046923
  13 C :   -0.038805
  14 C :    0.022087
  15 C :    0.040331
  16 C :   -0.002703
  17 C :   -0.192870
  18 O :    0.392861
  19 C :    0.028053
  20 H :   -0.024101
  21 H :   -0.027557
  22 H :   -0.025101
  23 H :   -0.028877
  24 H :   -0.027245
  25 H :   -0.010100
  26 H :   -0.008138
  27 H :   -0.021677
  28 H :   -0.059525
  29 H :   -0.063598
  30 H :   -0.005631
  31 H :   -0.025242
  32 H :   -0.021368
  33 H :   -0.036537
  34 H :   -0.155000
  35 H :   -0.025209

  Mayer bond orders larger than 0.100000
B(  0-C ,  1-C ) :   0.9723 B(  0-C , 20-H ) :   0.9718 B(  0-C , 21-H ) :   0.9742
B(  0-C , 22-H ) :   0.9749 B(  1-C ,  2-O ) :   0.9004 B(  1-C , 23-H ) :   0.9799
B(  1-C , 24-H ) :   0.9810 B(  2-O ,  3-C ) :   1.1587 B(  3-C ,  4-O ) :   1.9709
B(  3-C ,  5-C ) :   1.0555 B(  5-C ,  6-C ) :   1.6452 B(  5-C , 12-C ) :   0.9670
B(  6-C ,  7-C ) :   0.9557 B(  6-C ,  8-N ) :   1.1504 B(  7-C , 25-H ) :   0.9652
B(  7-C , 26-H ) :   0.9638 B(  7-C , 27-H ) :   0.9923 B(  8-N ,  9-C ) :   1.1777
B(  8-N , 28-H ) :   0.9486 B(  9-C , 10-S ) :   1.6101 B(  9-C , 11-N ) :   1.3056
B( 11-N , 12-C ) :   0.9918 B( 11-N , 29-H ) :   0.9521 B( 12-C , 13-C ) :   0.9455
B( 12-C , 30-H ) :   1.0010 B( 13-C , 14-C ) :   1.3749 B( 13-C , 19-C ) :   1.3692
B( 14-C , 15-C ) :   1.3946 B( 14-C , 31-H ) :   0.9646 B( 15-C , 16-C ) :   1.3619
B( 15-C , 32-H ) :   0.9715 B( 16-C , 17-C ) :   1.3318 B( 16-C , 33-H ) :   0.9860
B( 17-C , 18-O ) :   1.1079 B( 17-C , 19-C ) :   1.3789 B( 18-O , 34-H ) :   0.9807
B( 19-C , 35-H ) :   0.9583

MP2 TOTAL ENERGY:    -1274.338764445 Eh
FINAL SINGLE POINT ENERGY     -1274.338764445458

DIPOLE MOMENT
-------------
                                X             Y             Z
Electronic contribution:     10.13499      10.32328      10.26482
Nuclear contribution   :    -11.78355     -11.53054     -11.34966
                        -----------------------------------------
Total Dipole Moment    :     -1.64857      -1.20727      -1.08484
                        -----------------------------------------
Magnitude (a.u.)       :      2.31347
Magnitude (Debye)      :      5.88037

Rotational constants in cm-1:     0.010638     0.009021     0.005874
Rotational constants in MHz :   318.932102   270.442947   176.084730

                             ****ORCA TERMINATED NORMALLY****
TOTAL RUN TIME: 0 days 1 hours 54 minutes 3 seconds 568 msec
