                         Program Version 5.0.0 -  RELEASE  -
|  1> ! ri-mp2 cc-pvtz cc-pvtz/c TightSCF NoKeepInts
|  2>
|  3> %scf
|  4>   MaxCore 4096
|  5> end
|  6> *xyz  0  1
|  7>     C       15.4195968   13.7134502   16.2910376
|  8>     C       15.1752866   15.2358850   16.2291176
|  9>     O       16.3624983   15.9955989   15.9015756
| 10>     C       17.5468379   15.8312419   16.5651373
| 11>     O       18.0968574   14.7499982   16.6851925
| 12>     C       17.8895602   16.9928805   17.4500175
| 13>     C       17.5142831   18.2764808   17.2156523
| 14>     C       16.7370286   18.8132550   16.0314739
| 15>     N       17.9174538   19.2889843   18.0919779
| 16>     C       18.7898597   19.1215308   19.1350361
| 17>     S       19.2963258   20.3958380   20.0596855
| 18>     N       19.2203256   17.8408699   19.3740888
| 19>     C       18.7107305   16.6358183   18.6927402
| 20>     C       17.8859510   15.7832634   19.6535404
| 21>     C       18.1956839   14.4243834   19.8466756
| 22>     C       17.4289143   13.6312364   20.7165603
| 23>     C       16.3411635   14.2007199   21.3999826
| 24>     C       16.0265092   15.5526684   21.2072286
| 25>     O       14.9710489   16.1034079   21.8582254
| 26>     C       16.7910719   16.3394165   20.3401211
| 27>     H       15.9842151   13.3723981   15.4140993
| 28>     H       14.4648352   13.1747333   16.3131615
| 29>     H       15.9756667   13.4371098   17.1958786
| 30>     H       14.4075214   15.4427197   15.4725897
| 31>     H       14.7828136   15.5695349   17.1989445
| 32>     H       17.0997288   18.3739531   15.0935915
| 33>     H       16.8263514   19.9015943   15.9284822
| 34>     H       15.6709193   18.5731236   16.1258926
| 35>     H       17.6141328   20.2365094   17.9327387
| 36>     H       19.8397055   17.7406278   20.1680400
| 37>     H       19.5786311   16.0459313   18.3637866
| 38>     H       19.0243060   13.9766468   19.3031260
| 39>     H       17.6758902   12.5797559   20.8521110
| 40>     H       15.7451123   13.5910637   22.0708618
| 41>     H       14.6085760   15.4252528   22.4479786
| 42>     H       16.5316076   17.3841177   20.2076508
| 43> *
| 44>
| 45>                          ****END OF INPUT****

CARTESIAN COORDINATES (ANGSTROEM)
---------------------------------
  C     15.419597   13.713450   16.291038
  C     15.175287   15.235885   16.229118
  O     16.362498   15.995599   15.901576
  C     17.546838   15.831242   16.565137
  O     18.096857   14.749998   16.685192
  C     17.889560   16.992880   17.450017
  C     17.514283   18.276481   17.215652
  C     16.737029   18.813255   16.031474
  N     17.917454   19.288984   18.091978
  C     18.789860   19.121531   19.135036
  S     19.296326   20.395838   20.059685
  N     19.220326   17.840870   19.374089
  C     18.710731   16.635818   18.692740
  C     17.885951   15.783263   19.653540
  C     18.195684   14.424383   19.846676
  C     17.428914   13.631236   20.716560
  C     16.341164   14.200720   21.399983
  C     16.026509   15.552668   21.207229
  O     14.971049   16.103408   21.858225
  C     16.791072   16.339416   20.340121
  H     15.984215   13.372398   15.414099
  H     14.464835   13.174733   16.313161
  H     15.975667   13.437110   17.195879
  H     14.407521   15.442720   15.472590
  H     14.782814   15.569535   17.198944
  H     17.099729   18.373953   15.093591
  H     16.826351   19.901594   15.928482
  H     15.670919   18.573124   16.125893
  H     17.614133   20.236509   17.932739
  H     19.839706   17.740628   20.168040
  H     19.578631   16.045931   18.363787
  H     19.024306   13.976647   19.303126
  H     17.675890   12.579756   20.852111
  H     15.745112   13.591064   22.070862
  H     14.608576   15.425253   22.447979
  H     16.531608   17.384118   20.207651

 Total Charge           Charge          ....    0
 Multiplicity           Mult            ....    1
 Number of Electrons    NEL             ....  154
 Basis Dimension        Dim             ....  828

ORBITAL ENERGIES
----------------

  NO   OCC          E(Eh)            E(eV)
   0   2.0000     -91.888650     -2500.4173
   1   2.0000     -20.595284      -560.4262
   2   2.0000     -20.587593      -560.2169
   3   2.0000     -20.552357      -559.2581
   4   2.0000     -15.628415      -425.2708
   5   2.0000     -15.607845      -424.7111
   6   2.0000     -11.396594      -310.1171
   7   2.0000     -11.383900      -309.7717
   8   2.0000     -11.334623      -308.4308
   9   2.0000     -11.311454      -307.8003
  10   2.0000     -11.307260      -307.6862
  11   2.0000     -11.305171      -307.6293
  12   2.0000     -11.259415      -306.3843
  13   2.0000     -11.259128      -306.3764
  14   2.0000     -11.256988      -306.3182
  15   2.0000     -11.251562      -306.1706
  16   2.0000     -11.241154      -305.8873
  17   2.0000     -11.237170      -305.7789
  18   2.0000     -11.234188      -305.6978
  19   2.0000     -11.221078      -305.3411
  20   2.0000      -8.893722      -242.0105
  21   2.0000      -6.575301      -178.9230
  22   2.0000      -6.573292      -178.8684
  23   2.0000      -6.572707      -178.8525
  24   2.0000      -1.446966       -39.3739
  25   2.0000      -1.415054       -38.5056
  26   2.0000      -1.357362       -36.9357
  27   2.0000      -1.339529       -36.4505
  28   2.0000      -1.237634       -33.6777
  29   2.0000      -1.155548       -31.4441
  30   2.0000      -1.120433       -30.4885
  31   2.0000      -1.043470       -28.3943
  32   2.0000      -1.031974       -28.0815
  33   2.0000      -1.013056       -27.5667
  34   2.0000      -0.998620       -27.1738
  35   2.0000      -0.983853       -26.7720
  36   2.0000      -0.923034       -25.1170
  37   2.0000      -0.890449       -24.2303
  38   2.0000      -0.849093       -23.1050
  39   2.0000      -0.838291       -22.8111
  40   2.0000      -0.831631       -22.6298
  41   2.0000      -0.823098       -22.3976
  42   2.0000      -0.745203       -20.2780
  43   2.0000      -0.728121       -19.8132
  44   2.0000      -0.727205       -19.7883
  45   2.0000      -0.693456       -18.8699
  46   2.0000      -0.685097       -18.6424
  47   2.0000      -0.680256       -18.5107
  48   2.0000      -0.672572       -18.3016
  49   2.0000      -0.666752       -18.1432
  50   2.0000      -0.647117       -17.6089
  51   2.0000      -0.645143       -17.5552
  52   2.0000      -0.636001       -17.3065
  53   2.0000      -0.606554       -16.5052
  54   2.0000      -0.603586       -16.4244
  55   2.0000      -0.601070       -16.3559
  56   2.0000      -0.598790       -16.2939
  57   2.0000      -0.576809       -15.6958
  58   2.0000      -0.573083       -15.5944
  59   2.0000      -0.571876       -15.5615
  60   2.0000      -0.559625       -15.2282
  61   2.0000      -0.547718       -14.9042
  62   2.0000      -0.535927       -14.5833
  63   2.0000      -0.524093       -14.2613
  64   2.0000      -0.519328       -14.1316
  65   2.0000      -0.511444       -13.9171
  66   2.0000      -0.499441       -13.5905
  67   2.0000      -0.493910       -13.4400
  68   2.0000      -0.480521       -13.0756
  69   2.0000      -0.464590       -12.6421
  70   2.0000      -0.456175       -12.4132
  71   2.0000      -0.447015       -12.1639
  72   2.0000      -0.354172        -9.6375
  73   2.0000      -0.347332        -9.4514
  74   2.0000      -0.327937        -8.9236
  75   2.0000      -0.318550        -8.6682
  76   2.0000      -0.315686        -8.5902
  77   0.0000       0.072910         1.9840
  78   0.0000       0.106098         2.8871
  79   0.0000       0.120592         3.2815
  80   0.0000       0.132867         3.6155
  81   0.0000       0.138278         3.7627

MULLIKEN ATOMIC CHARGES
-----------------------
   0 C :   -0.277570
   1 C :    0.039265
   2 O :   -0.381060
   3 C :    0.456977
   4 O :   -0.403402
   5 C :   -0.188444
   6 C :    0.145312
   7 C :   -0.283142
   8 N :   -0.124186
   9 C :    0.202444
  10 S :   -0.439735
  11 N :   -0.201753
  12 C :    0.053545
  13 C :    0.050493
  14 C :   -0.171280
  15 C :   -0.133479
  16 C :   -0.280212
  17 C :    0.313121
  18 O :   -0.358751
  19 C :   -0.280869
  20 H :    0.106388
  21 H :    0.092607
  22 H :    0.113331
  23 H :    0.103734
  24 H :    0.086654
  25 H :    0.128070
  26 H :    0.104241
  27 H :    0.122670
  28 H :    0.197121
  29 H :    0.194447
  30 H :    0.155026
  31 H :    0.157802
  32 H :    0.161753
  33 H :    0.130159
  34 H :    0.240764
  35 H :    0.167958
Sum of atomic charges:   -0.0000000

LOEWDIN ATOMIC CHARGES
----------------------
   0 C :    0.105337
   1 C :   -0.015380
   2 O :    0.284651
   3 C :   -0.412316
   4 O :    0.129272
   5 C :   -0.094043
   6 C :   -0.070705
   7 C :    0.125475
   8 N :    0.404390
   9 C :   -0.458053
  10 S :   -0.036324
  11 N :    0.397304
  12 C :   -0.046145
  13 C :   -0.040563
  14 C :    0.021334
  15 C :    0.040873
  16 C :   -0.002253
  17 C :   -0.193691
  18 O :    0.393274
  19 C :    0.027901
  20 H :   -0.023077
  21 H :   -0.029103
  22 H :   -0.026145
  23 H :   -0.023517
  24 H :   -0.033048
  25 H :   -0.007182
  26 H :   -0.020151
  27 H :   -0.010480
  28 H :   -0.058811
  29 H :   -0.063953
  30 H :   -0.005099
  31 H :   -0.024719
  32 H :   -0.020553
  33 H :   -0.035800
  34 H :   -0.154212
  35 H :   -0.024485

  Mayer bond orders larger than 0.100000
B(  0-C ,  1-C ) :   0.9822 B(  0-C , 20-H ) :   0.9741 B(  0-C , 21-H ) :   0.9739
B(  0-C , 22-H ) :   0.9706 B(  1-C ,  2-O ) :   0.9031 B(  1-C , 23-H ) :   0.9802
B(  1-C , 24-H ) :   0.9727 B(  2-O ,  3-C ) :   1.0801 B(  3-C ,  4-O ) :   2.0230
B(  3-C ,  5-C ) :   1.0306 B(  5-C ,  6-C ) :   1.6648 B(  5-C , 12-C ) :   0.9634
B(  6-C ,  7-C ) :   0.9523 B(  6-C ,  8-N ) :   1.1415 B(  7-C , 25-H ) :   0.9680
B(  7-C , 26-H ) :   0.9891 B(  7-C , 27-H ) :   0.9649 B(  8-N ,  9-C ) :   1.1833
B(  8-N , 28-H ) :   0.9492 B(  9-C , 10-S ) :   1.6104 B(  9-C , 11-N ) :   1.3014
B( 11-N , 12-C ) :   0.9917 B( 11-N , 29-H ) :   0.9516 B( 12-C , 13-C ) :   0.9433
B( 12-C , 30-H ) :   0.9989 B( 13-C , 14-C ) :   1.3756 B( 13-C , 19-C ) :   1.3669
B( 14-C , 15-C ) :   1.3932 B( 14-C , 31-H ) :   0.9636 B( 15-C , 16-C ) :   1.3630
B( 15-C , 32-H ) :   0.9704 B( 16-C , 17-C ) :   1.3315 B( 16-C , 33-H ) :   0.9852
B( 17-C , 18-O ) :   1.1092 B( 17-C , 19-C ) :   1.3738 B( 18-O , 34-H ) :   0.9800
B( 19-C , 35-H ) :   0.9580

MP2 TOTAL ENERGY:    -1274.329025353 Eh
FINAL SINGLE POINT ENERGY     -1274.329025353301

DIPOLE MOMENT
-------------
                                X             Y             Z
Electronic contribution:     10.23872      10.35504       7.77425
Nuclear contribution   :    -11.81183     -11.49602      -8.43304
                        -----------------------------------------
Total Dipole Moment    :     -1.57311      -1.14098      -0.65880
                        -----------------------------------------
Magnitude (a.u.)       :      2.05195
Magnitude (Debye)      :      5.21565

Rotational constants in cm-1:     0.011757     0.009071     0.006352
Rotational constants in MHz :   352.473436   271.956346   190.434511

                             ****ORCA TERMINATED NORMALLY****
TOTAL RUN TIME: 0 days 1 hours 59 minutes 25 seconds 807 msec
