                         Program Version 5.0.0 -  RELEASE  -
|  1> ! ri-mp2 cc-pvtz cc-pvtz/c TightSCF NoKeepInts
|  2>
|  3> %scf
|  4>   MaxCore 4096
|  5> end
|  6> *xyz  0  1
|  7>     C       14.9110024   14.2747547   16.2320258
|  8>     C       16.3710676   13.9618217   16.6246530
|  9>     O       17.2859608   15.0879234   16.5751095
| 10>     C       16.9270979   16.4056943   16.4557447
| 11>     O       16.1102459   16.8039313   15.6441605
| 12>     C       17.6387899   17.2876773   17.4461501
| 13>     C       17.4867996   18.6369091   17.4601761
| 14>     C       16.6266602   19.4742667   16.5376706
| 15>     N       18.1898869   19.4134346   18.3858848
| 16>     C       19.1192182   18.9332831   19.2688507
| 17>     S       19.9617510   19.9324932   20.2826409
| 18>     N       19.3195551   17.5769390   19.2693461
| 19>     C       18.5457709   16.6004757   18.4819351
| 20>     C       17.7658194   15.6894319   19.4256326
| 21>     C       18.2158148   14.3799761   19.6790464
| 22>     C       17.4986000   13.5313602   20.5390353
| 23>     C       16.3237176   13.9968206   21.1537131
| 24>     C       15.8777003   15.3031886   20.9106920
| 25>     O       14.7454359   15.7564972   21.5049243
| 26>     C       16.5935207   16.1454776   20.0544848
| 27>     H       14.4835962   15.0518047   16.8782661
| 28>     H       14.2906995   13.3764653   16.3351210
| 29>     H       14.8462948   14.6056969   15.1877675
| 30>     H       16.3646577   13.5680030   17.6491939
| 31>     H       16.7539031   13.1636468   15.9759416
| 32>     H       15.5708082   19.1898400   16.6318897
| 33>     H       16.9154301   19.3151564   15.4908448
| 34>     H       16.6992900   20.5492116   16.7400869
| 35>     H       18.0572817   20.4120677   18.3989760
| 36>     H       19.9830418   17.2496648   19.9595659
| 37>     H       19.2675625   15.9847149   17.9268664
| 38>     H       19.1226335   14.0169903   19.2024465
| 39>     H       17.8543381   12.5199499   20.7285883
| 40>     H       15.7668014   13.3458207   21.8197374
| 41>     H       14.4209698   15.0550834   22.0895378
| 42>     H       16.2352764   17.1555273   19.8872940
| 43> *
| 44>
| 45>                          ****END OF INPUT****

CARTESIAN COORDINATES (ANGSTROEM)
---------------------------------
  C     14.911002   14.274755   16.232026
  C     16.371068   13.961822   16.624653
  O     17.285961   15.087923   16.575109
  C     16.927098   16.405694   16.455745
  O     16.110246   16.803931   15.644160
  C     17.638790   17.287677   17.446150
  C     17.486800   18.636909   17.460176
  C     16.626660   19.474267   16.537671
  N     18.189887   19.413435   18.385885
  C     19.119218   18.933283   19.268851
  S     19.961751   19.932493   20.282641
  N     19.319555   17.576939   19.269346
  C     18.545771   16.600476   18.481935
  C     17.765819   15.689432   19.425633
  C     18.215815   14.379976   19.679046
  C     17.498600   13.531360   20.539035
  C     16.323718   13.996821   21.153713
  C     15.877700   15.303189   20.910692
  O     14.745436   15.756497   21.504924
  C     16.593521   16.145478   20.054485
  H     14.483596   15.051805   16.878266
  H     14.290700   13.376465   16.335121
  H     14.846295   14.605697   15.187767
  H     16.364658   13.568003   17.649194
  H     16.753903   13.163647   15.975942
  H     15.570808   19.189840   16.631890
  H     16.915430   19.315156   15.490845
  H     16.699290   20.549212   16.740087
  H     18.057282   20.412068   18.398976
  H     19.983042   17.249665   19.959566
  H     19.267563   15.984715   17.926866
  H     19.122633   14.016990   19.202447
  H     17.854338   12.519950   20.728588
  H     15.766801   13.345821   21.819737
  H     14.420970   15.055083   22.089538
  H     16.235276   17.155527   19.887294

 Total Charge           Charge          ....    0
 Multiplicity           Mult            ....    1
 Number of Electrons    NEL             ....  154
 Basis Dimension        Dim             ....  828

ORBITAL ENERGIES
----------------

  NO   OCC          E(Eh)            E(eV)
   0   2.0000     -91.888750     -2500.4200
   1   2.0000     -20.600079      -560.5566
   2   2.0000     -20.590338      -560.2916
   3   2.0000     -20.541555      -558.9641
   4   2.0000     -15.628806      -425.2814
   5   2.0000     -15.608284      -424.7230
   6   2.0000     -11.395299      -310.0818
   7   2.0000     -11.383885      -309.7713
   8   2.0000     -11.335651      -308.4588
   9   2.0000     -11.317706      -307.9704
  10   2.0000     -11.309062      -307.7352
  11   2.0000     -11.299293      -307.4694
  12   2.0000     -11.262968      -306.4809
  13   2.0000     -11.259033      -306.3739
  14   2.0000     -11.257738      -306.3386
  15   2.0000     -11.251912      -306.1801
  16   2.0000     -11.246454      -306.0316
  17   2.0000     -11.241394      -305.8939
  18   2.0000     -11.241203      -305.8887
  19   2.0000     -11.222143      -305.3700
  20   2.0000      -8.893822      -242.0132
  21   2.0000      -6.575398      -178.9257
  22   2.0000      -6.573391      -178.8711
  23   2.0000      -6.572807      -178.8552
  24   2.0000      -1.440985       -39.2112
  25   2.0000      -1.419719       -38.6325
  26   2.0000      -1.351693       -36.7814
  27   2.0000      -1.339981       -36.4627
  28   2.0000      -1.238749       -33.7081
  29   2.0000      -1.160514       -31.5792
  30   2.0000      -1.120167       -30.4813
  31   2.0000      -1.044391       -28.4193
  32   2.0000      -1.033298       -28.1175
  33   2.0000      -1.018614       -27.7179
  34   2.0000      -0.996086       -27.1049
  35   2.0000      -0.984132       -26.7796
  36   2.0000      -0.923450       -25.1284
  37   2.0000      -0.895368       -24.3642
  38   2.0000      -0.847939       -23.0736
  39   2.0000      -0.840271       -22.8649
  40   2.0000      -0.836881       -22.7727
  41   2.0000      -0.819323       -22.2949
  42   2.0000      -0.744305       -20.2536
  43   2.0000      -0.732814       -19.9409
  44   2.0000      -0.717620       -19.5274
  45   2.0000      -0.698489       -19.0069
  46   2.0000      -0.688215       -18.7273
  47   2.0000      -0.674236       -18.3469
  48   2.0000      -0.669077       -18.2065
  49   2.0000      -0.662264       -18.0211
  50   2.0000      -0.651903       -17.7392
  51   2.0000      -0.644940       -17.5497
  52   2.0000      -0.636986       -17.3333
  53   2.0000      -0.610906       -16.6236
  54   2.0000      -0.610227       -16.6051
  55   2.0000      -0.602662       -16.3993
  56   2.0000      -0.599956       -16.3256
  57   2.0000      -0.579867       -15.7790
  58   2.0000      -0.571159       -15.5420
  59   2.0000      -0.568083       -15.4583
  60   2.0000      -0.557354       -15.1664
  61   2.0000      -0.539376       -14.6772
  62   2.0000      -0.534519       -14.5450
  63   2.0000      -0.527786       -14.3618
  64   2.0000      -0.522595       -14.2205
  65   2.0000      -0.513830       -13.9820
  66   2.0000      -0.502398       -13.6710
  67   2.0000      -0.494474       -13.4553
  68   2.0000      -0.488159       -13.2835
  69   2.0000      -0.463030       -12.5997
  70   2.0000      -0.451568       -12.2878
  71   2.0000      -0.440598       -11.9893
  72   2.0000      -0.354003        -9.6329
  73   2.0000      -0.352278        -9.5860
  74   2.0000      -0.328895        -8.9497
  75   2.0000      -0.324744        -8.8367
  76   2.0000      -0.316568        -8.6143
  77   0.0000       0.075435         2.0527
  78   0.0000       0.102393         2.7863
  79   0.0000       0.123571         3.3625
  80   0.0000       0.131348         3.5742
  81   0.0000       0.135322         3.6823

MULLIKEN ATOMIC CHARGES
-----------------------
   0 C :   -0.294359
   1 C :    0.041474
   2 O :   -0.378933
   3 C :    0.460307
   4 O :   -0.416663
   5 C :   -0.247433
   6 C :    0.164453
   7 C :   -0.269036
   8 N :   -0.123552
   9 C :    0.215670
  10 S :   -0.442127
  11 N :   -0.210725
  12 C :    0.082102
  13 C :    0.055007
  14 C :   -0.204167
  15 C :   -0.127893
  16 C :   -0.279075
  17 C :    0.314548
  18 O :   -0.355752
  19 C :   -0.263127
  20 H :    0.100712
  21 H :    0.098132
  22 H :    0.119474
  23 H :    0.101258
  24 H :    0.103789
  25 H :    0.129976
  26 H :    0.132415
  27 H :    0.095128
  28 H :    0.197031
  29 H :    0.195962
  30 H :    0.148685
  31 H :    0.151444
  32 H :    0.163274
  33 H :    0.132312
  34 H :    0.241462
  35 H :    0.168227
Sum of atomic charges:   -0.0000000

LOEWDIN ATOMIC CHARGES
----------------------
   0 C :    0.103625
   1 C :   -0.010525
   2 O :    0.290656
   3 C :   -0.415260
   4 O :    0.111019
   5 C :   -0.096696
   6 C :   -0.059061
   7 C :    0.131169
   8 N :    0.406753
   9 C :   -0.455361
  10 S :   -0.036616
  11 N :    0.396022
  12 C :   -0.052331
  13 C :   -0.036554
  14 C :    0.013601
  15 C :    0.039625
  16 C :   -0.002830
  17 C :   -0.189516
  18 O :    0.396063
  19 C :    0.030303
  20 H :   -0.027760
  21 H :   -0.026816
  22 H :   -0.024327
  23 H :   -0.029792
  24 H :   -0.027123
  25 H :   -0.005260
  26 H :   -0.003608
  27 H :   -0.023542
  28 H :   -0.057620
  29 H :   -0.065040
  30 H :   -0.010818
  31 H :   -0.029596
  32 H :   -0.020530
  33 H :   -0.035072
  34 H :   -0.153157
  35 H :   -0.024022

  Mayer bond orders larger than 0.100000
B(  0-C ,  1-C ) :   0.9778 B(  0-C , 20-H ) :   0.9748 B(  0-C , 21-H ) :   0.9733
B(  0-C , 22-H ) :   0.9726 B(  1-C ,  2-O ) :   0.8935 B(  1-C , 23-H ) :   0.9700
B(  1-C , 24-H ) :   0.9814 B(  2-O ,  3-C ) :   1.1271 B(  3-C ,  4-O ) :   2.0027
B(  3-C ,  5-C ) :   1.0525 B(  5-C ,  6-C ) :   1.6486 B(  5-C , 12-C ) :   0.9722
B(  6-C ,  7-C ) :   0.9655 B(  6-C ,  8-N ) :   1.1615 B(  7-C , 25-H ) :   0.9605
B(  7-C , 26-H ) :   0.9598 B(  7-C , 27-H ) :   0.9907 B(  8-N ,  9-C ) :   1.1854
B(  8-N , 28-H ) :   0.9477 B(  9-C , 10-S ) :   1.6022 B(  9-C , 11-N ) :   1.3088
B( 11-N , 12-C ) :   0.9763 B( 11-N , 29-H ) :   0.9511 B( 12-C , 13-C ) :   0.9385
B( 12-C , 30-H ) :   1.0013 B( 13-C , 14-C ) :   1.3506 B( 13-C , 19-C ) :   1.3775
B( 14-C , 15-C ) :   1.3906 B( 14-C , 31-H ) :   0.9740 B( 15-C , 16-C ) :   1.3603
B( 15-C , 32-H ) :   0.9703 B( 16-C , 17-C ) :   1.3308 B( 16-C , 33-H ) :   0.9845
B( 17-C , 18-O ) :   1.1118 B( 17-C , 19-C ) :   1.3682 B( 18-O , 34-H ) :   0.9792
B( 19-C , 35-H ) :   0.9580

MP2 TOTAL ENERGY:    -1274.337231092 Eh
FINAL SINGLE POINT ENERGY     -1274.337231092486

DIPOLE MOMENT
-------------
                                X             Y             Z
Electronic contribution:     10.11879       9.78534       7.21857
Nuclear contribution   :    -11.10095     -11.54262      -7.32747
                        -----------------------------------------
Total Dipole Moment    :     -0.98216      -1.75728      -0.10889
                        -----------------------------------------
Magnitude (a.u.)       :      2.01607
Magnitude (Debye)      :      5.12444

Rotational constants in cm-1:     0.012424     0.008659     0.006320
Rotational constants in MHz :   372.470160   259.593258   189.468574

                             ****ORCA TERMINATED NORMALLY****
TOTAL RUN TIME: 0 days 2 hours 6 minutes 44 seconds 947 msec
