                         Program Version 5.0.0 -  RELEASE  -
|  1> ! ri-mp2 cc-pvtz cc-pvtz/c TightSCF NoKeepInts
|  2>
|  3> %scf
|  4>   MaxCore 4096
|  5> end
|  6> *xyz  0  1
|  7>     C       15.6379085   13.2786388   16.0419185
|  8>     C       15.6171058   14.5875424   16.8480088
|  9>     O       16.7943116   15.3325472   16.4856555
| 10>     C       16.6951578   16.6900145   16.3897184
| 11>     O       15.7927582   17.2083060   15.7555256
| 12>     C       17.5139298   17.4112032   17.4270186
| 13>     C       17.4615750   18.7589078   17.5856182
| 14>     C       16.6026041   19.7419177   16.8188798
| 15>     N       18.2952221   19.3884947   18.5149132
| 16>     C       19.2990914   18.7695693   19.2106035
| 17>     S       20.3258899   19.6085299   20.1993119
| 18>     N       19.4164702   17.4142685   19.0374173
| 19>     C       18.4578537   16.5688544   18.3033467
| 20>     C       17.7070569   15.6837250   19.2934206
| 21>     C       18.0108982   14.3125948   19.3903891
| 22>     C       17.3196690   13.4894360   20.2951771
| 23>     C       16.3202228   14.0423426   21.1138696
| 24>     C       16.0217942   15.4090243   21.0268533
| 25>     O       15.0586107   15.9461923   21.8168814
| 26>     C       16.7096774   16.2254172   20.1238659
| 27>     H       14.7555776   12.6699894   16.2737002
| 28>     H       16.5337078   12.6922257   16.2805602
| 29>     H       15.6369337   13.4896019   14.9650863
| 30>     H       14.7023439   15.1406188   16.5939099
| 31>     H       15.6044286   14.3793153   17.9252604
| 32>     H       15.5378056   19.5305218   16.9806098
| 33>     H       16.7914510   19.6614875   15.7407615
| 34>     H       16.7809387   20.7844164   17.1074073
| 35>     H       18.2270575   20.3847425   18.6491123
| 36>     H       20.1460110   16.9812137   19.5888600
| 37>     H       19.0381197   15.9196122   17.6324149
| 38>     H       18.7807478   13.8816596   18.7556143
| 39>     H       17.5603141   12.4296111   20.3610811
| 40>     H       15.7847167   13.4109388   21.8154277
| 41>     H       14.7401653   15.2464980   22.4069835
| 42>     H       16.4688738   17.2820206   20.0788177
| 43> *
| 44>
| 45>                          ****END OF INPUT****

CARTESIAN COORDINATES (ANGSTROEM)
---------------------------------
  C     15.637908   13.278639   16.041919
  C     15.617106   14.587542   16.848009
  O     16.794312   15.332547   16.485656
  C     16.695158   16.690015   16.389718
  O     15.792758   17.208306   15.755526
  C     17.513930   17.411203   17.427019
  C     17.461575   18.758908   17.585618
  C     16.602604   19.741918   16.818880
  N     18.295222   19.388495   18.514913
  C     19.299091   18.769569   19.210603
  S     20.325890   19.608530   20.199312
  N     19.416470   17.414268   19.037417
  C     18.457854   16.568854   18.303347
  C     17.707057   15.683725   19.293421
  C     18.010898   14.312595   19.390389
  C     17.319669   13.489436   20.295177
  C     16.320223   14.042343   21.113870
  C     16.021794   15.409024   21.026853
  O     15.058611   15.946192   21.816881
  C     16.709677   16.225417   20.123866
  H     14.755578   12.669989   16.273700
  H     16.533708   12.692226   16.280560
  H     15.636934   13.489602   14.965086
  H     14.702344   15.140619   16.593910
  H     15.604429   14.379315   17.925260
  H     15.537806   19.530522   16.980610
  H     16.791451   19.661487   15.740761
  H     16.780939   20.784416   17.107407
  H     18.227057   20.384742   18.649112
  H     20.146011   16.981214   19.588860
  H     19.038120   15.919612   17.632415
  H     18.780748   13.881660   18.755614
  H     17.560314   12.429611   20.361081
  H     15.784717   13.410939   21.815428
  H     14.740165   15.246498   22.406983
  H     16.468874   17.282021   20.078818

 Total Charge           Charge          ....    0
 Multiplicity           Mult            ....    1
 Number of Electrons    NEL             ....  154
 Basis Dimension        Dim             ....  828

ORBITAL ENERGIES
----------------

  NO   OCC          E(Eh)            E(eV)
   0   2.0000     -91.890084     -2500.4563
   1   2.0000     -20.600621      -560.5714
   2   2.0000     -20.587796      -560.2224
   3   2.0000     -20.545366      -559.0678
   4   2.0000     -15.630451      -425.3262
   5   2.0000     -15.609457      -424.7549
   6   2.0000     -11.393506      -310.0331
   7   2.0000     -11.385043      -309.8028
   8   2.0000     -11.336980      -308.4949
   9   2.0000     -11.318506      -307.9922
  10   2.0000     -11.311048      -307.7893
  11   2.0000     -11.292082      -307.2732
  12   2.0000     -11.263275      -306.4893
  13   2.0000     -11.259757      -306.3936
  14   2.0000     -11.259419      -306.3844
  15   2.0000     -11.253038      -306.2107
  16   2.0000     -11.247314      -306.0550
  17   2.0000     -11.242203      -305.9159
  18   2.0000     -11.241832      -305.9058
  19   2.0000     -11.224738      -305.4406
  20   2.0000      -8.895135      -242.0489
  21   2.0000      -6.576706      -178.9613
  22   2.0000      -6.574704      -178.9068
  23   2.0000      -6.574114      -178.8907
  24   2.0000      -1.449081       -39.4315
  25   2.0000      -1.420286       -38.6480
  26   2.0000      -1.352854       -36.8130
  27   2.0000      -1.341519       -36.5046
  28   2.0000      -1.240110       -33.7451
  29   2.0000      -1.161327       -31.6013
  30   2.0000      -1.121313       -30.5125
  31   2.0000      -1.045349       -28.4454
  32   2.0000      -1.035104       -28.1666
  33   2.0000      -1.019387       -27.7389
  34   2.0000      -0.997030       -27.1306
  35   2.0000      -0.985281       -26.8109
  36   2.0000      -0.924723       -25.1630
  37   2.0000      -0.881429       -23.9849
  38   2.0000      -0.848623       -23.0922
  39   2.0000      -0.841079       -22.8869
  40   2.0000      -0.837593       -22.7921
  41   2.0000      -0.824363       -22.4320
  42   2.0000      -0.761684       -20.7265
  43   2.0000      -0.735543       -20.0151
  44   2.0000      -0.724372       -19.7112
  45   2.0000      -0.699516       -19.0348
  46   2.0000      -0.689988       -18.7755
  47   2.0000      -0.678613       -18.4660
  48   2.0000      -0.672806       -18.3080
  49   2.0000      -0.655484       -17.8366
  50   2.0000      -0.647945       -17.6315
  51   2.0000      -0.643269       -17.5042
  52   2.0000      -0.625948       -17.0329
  53   2.0000      -0.622928       -16.9507
  54   2.0000      -0.611168       -16.6307
  55   2.0000      -0.603109       -16.4114
  56   2.0000      -0.600682       -16.3454
  57   2.0000      -0.580950       -15.8085
  58   2.0000      -0.572029       -15.5657
  59   2.0000      -0.566045       -15.4029
  60   2.0000      -0.560154       -15.2426
  61   2.0000      -0.539953       -14.6929
  62   2.0000      -0.533610       -14.5203
  63   2.0000      -0.528766       -14.3885
  64   2.0000      -0.518529       -14.1099
  65   2.0000      -0.515340       -14.0231
  66   2.0000      -0.504050       -13.7159
  67   2.0000      -0.495790       -13.4911
  68   2.0000      -0.489083       -13.3086
  69   2.0000      -0.464443       -12.6381
  70   2.0000      -0.455371       -12.3913
  71   2.0000      -0.446113       -12.1394
  72   2.0000      -0.355896        -9.6844
  73   2.0000      -0.353531        -9.6201
  74   2.0000      -0.329996        -8.9796
  75   2.0000      -0.325772        -8.8647
  76   2.0000      -0.317463        -8.6386
  77   0.0000       0.070900         1.9293
  78   0.0000       0.102564         2.7909
  79   0.0000       0.123009         3.3472
  80   0.0000       0.128964         3.5093
  81   0.0000       0.133581         3.6349

MULLIKEN ATOMIC CHARGES
-----------------------
   0 C :   -0.260864
   1 C :    0.015753
   2 O :   -0.382598
   3 C :    0.499426
   4 O :   -0.416589
   5 C :   -0.277057
   6 C :    0.162477
   7 C :   -0.268911
   8 N :   -0.124224
   9 C :    0.213811
  10 S :   -0.438889
  11 N :   -0.205677
  12 C :    0.066366
  13 C :    0.025237
  14 C :   -0.173723
  15 C :   -0.132963
  16 C :   -0.277269
  17 C :    0.307466
  18 O :   -0.355921
  19 C :   -0.242280
  20 H :    0.086391
  21 H :    0.089715
  22 H :    0.102712
  23 H :    0.115739
  24 H :    0.116814
  25 H :    0.131390
  26 H :    0.131743
  27 H :    0.095172
  28 H :    0.197987
  29 H :    0.194562
  30 H :    0.149151
  31 H :    0.150544
  32 H :    0.162377
  33 H :    0.132884
  34 H :    0.241562
  35 H :    0.167689
Sum of atomic charges:    0.0000000

LOEWDIN ATOMIC CHARGES
----------------------
   0 C :    0.107253
   1 C :   -0.015560
   2 O :    0.296781
   3 C :   -0.417246
   4 O :    0.109615
   5 C :   -0.097997
   6 C :   -0.058356
   7 C :    0.131442
   8 N :    0.406966
   9 C :   -0.456114
  10 S :   -0.034322
  11 N :    0.396205
  12 C :   -0.052745
  13 C :   -0.037893
  14 C :    0.013310
  15 C :    0.040162
  16 C :   -0.002633
  17 C :   -0.190081
  18 O :    0.396537
  19 C :    0.030686
  20 H :   -0.026805
  21 H :   -0.030452
  22 H :   -0.024142
  23 H :   -0.028874
  24 H :   -0.031508
  25 H :   -0.004845
  26 H :   -0.003611
  27 H :   -0.023250
  28 H :   -0.057371
  29 H :   -0.064954
  30 H :   -0.008921
  31 H :   -0.029641
  32 H :   -0.020119
  33 H :   -0.034729
  34 H :   -0.152916
  35 H :   -0.023870

  Mayer bond orders larger than 0.100000
B(  0-C ,  1-C ) :   0.9821 B(  0-C , 20-H ) :   0.9766 B(  0-C , 21-H ) :   0.9796
B(  0-C , 22-H ) :   0.9790 B(  1-C ,  2-O ) :   0.8697 B(  1-C , 23-H ) :   0.9744
B(  1-C , 24-H ) :   0.9657 B(  2-O ,  3-C ) :   1.1149 B(  3-C ,  4-O ) :   2.0038
B(  3-C ,  5-C ) :   1.0715 B(  5-C ,  6-C ) :   1.6488 B(  5-C , 12-C ) :   0.9707
B(  6-C ,  7-C ) :   0.9669 B(  6-C ,  8-N ) :   1.1600 B(  7-C , 25-H ) :   0.9601
B(  7-C , 26-H ) :   0.9600 B(  7-C , 27-H ) :   0.9903 B(  8-N ,  9-C ) :   1.1823
B(  8-N , 28-H ) :   0.9477 B(  9-C , 10-S ) :   1.6074 B(  9-C , 11-N ) :   1.3063
B( 11-N , 12-C ) :   0.9755 B( 11-N , 29-H ) :   0.9524 B( 12-C , 13-C ) :   0.9396
B( 12-C , 30-H ) :   1.0020 B( 13-C , 14-C ) :   1.3540 B( 13-C , 19-C ) :   1.3811
B( 14-C , 15-C ) :   1.3938 B( 14-C , 31-H ) :   0.9735 B( 15-C , 16-C ) :   1.3608
B( 15-C , 32-H ) :   0.9706 B( 16-C , 17-C ) :   1.3293 B( 16-C , 33-H ) :   0.9844
B( 17-C , 18-O ) :   1.1139 B( 17-C , 19-C ) :   1.3737 B( 18-O , 34-H ) :   0.9790
B( 19-C , 35-H ) :   0.9571

MP2 TOTAL ENERGY:    -1274.336824961 Eh
FINAL SINGLE POINT ENERGY     -1274.336824961044

DIPOLE MOMENT
-------------
                                X             Y             Z
Electronic contribution:      9.65324      10.85610       6.92811
Nuclear contribution   :    -10.72546     -12.35611      -6.91140
                        -----------------------------------------
Total Dipole Moment    :     -1.07221      -1.50000       0.01671
                        -----------------------------------------
Magnitude (a.u.)       :      1.84389
Magnitude (Debye)      :      4.68679

Rotational constants in cm-1:     0.012387     0.008574     0.006295
Rotational constants in MHz :   371.351073   257.037682   188.732137

                             ****ORCA TERMINATED NORMALLY****
TOTAL RUN TIME: 0 days 1 hours 44 minutes 7 seconds 705 msec
