                         Program Version 5.0.0 -  RELEASE  -
|  1> ! ri-mp2 cc-pvtz cc-pvtz/c TightSCF NoKeepInts
|  2>
|  3> %scf
|  4>   MaxCore 4096
|  5> end
|  6> *xyz  0  1
|  7>     C       15.0533643   13.9308205   16.4485871
|  8>     C       15.4210073   15.4027726   16.7009276
|  9>     O       16.5631036   15.7173059   15.8838899
| 10>     C       17.7822992   15.7428347   16.4926262
| 11>     O       18.4125981   14.7119185   16.6464633
| 12>     C       17.9768235   16.9303814   17.3869073
| 13>     C       17.5157579   18.1726003   17.0981742
| 14>     C       16.7783944   18.6106969   15.8501254
| 15>     N       17.7833947   19.2325164   17.9695768
| 16>     C       18.6157963   19.1587675   19.0559393
| 17>     S       18.9711600   20.4891341   19.9714987
| 18>     N       19.1365752   17.9223863   19.3471970
| 19>     C       18.7508343   16.6636819   18.6802940
| 20>     C       17.9311546   15.7816232   19.6188684
| 21>     C       18.2699202   14.4282112   19.8003263
| 22>     C       17.5049867   13.6042103   20.6425702
| 23>     C       16.3890909   14.1366619   21.3100710
| 24>     C       16.0453223   15.4829476   21.1294618
| 25>     O       14.9610612   15.9977126   21.7618790
| 26>     C       16.8079941   16.3005498   20.2896134
| 27>     H       15.8767015   13.2714940   16.7527380
| 28>     H       14.8485760   13.7585164   15.3846689
| 29>     H       14.1616342   13.6514645   17.0224283
| 30>     H       14.5742339   16.0364486   16.4080927
| 31>     H       15.6228961   15.5674689   17.7680871
| 32>     H       17.1771285   18.1091140   14.9591433
| 33>     H       16.8677443   19.6894068   15.6716301
| 34>     H       15.7110205   18.3699141   15.9215683
| 35>     H       17.4145320   20.1489991   17.7704833
| 36>     H       19.7268158   17.8911790   20.1688083
| 37>     H       19.6738786   16.1264197   18.4173955
| 38>     H       19.1203684   14.0079326   19.2681415
| 39>     H       17.7751672   12.5571280   20.7684134
| 40>     H       15.7940494   13.5025616   21.9589712
| 41>     H       14.6082422   15.3063291   22.3423827
| 42>     H       16.5233727   17.3398903   20.1660507
| 43> *
| 44>
| 45>                          ****END OF INPUT****

CARTESIAN COORDINATES (ANGSTROEM)
---------------------------------
  C     15.053364   13.930820   16.448587
  C     15.421007   15.402773   16.700928
  O     16.563104   15.717306   15.883890
  C     17.782299   15.742835   16.492626
  O     18.412598   14.711918   16.646463
  C     17.976823   16.930381   17.386907
  C     17.515758   18.172600   17.098174
  C     16.778394   18.610697   15.850125
  N     17.783395   19.232516   17.969577
  C     18.615796   19.158767   19.055939
  S     18.971160   20.489134   19.971499
  N     19.136575   17.922386   19.347197
  C     18.750834   16.663682   18.680294
  C     17.931155   15.781623   19.618868
  C     18.269920   14.428211   19.800326
  C     17.504987   13.604210   20.642570
  C     16.389091   14.136662   21.310071
  C     16.045322   15.482948   21.129462
  O     14.961061   15.997713   21.761879
  C     16.807994   16.300550   20.289613
  H     15.876701   13.271494   16.752738
  H     14.848576   13.758516   15.384669
  H     14.161634   13.651464   17.022428
  H     14.574234   16.036449   16.408093
  H     15.622896   15.567469   17.768087
  H     17.177128   18.109114   14.959143
  H     16.867744   19.689407   15.671630
  H     15.711021   18.369914   15.921568
  H     17.414532   20.148999   17.770483
  H     19.726816   17.891179   20.168808
  H     19.673879   16.126420   18.417396
  H     19.120368   14.007933   19.268141
  H     17.775167   12.557128   20.768413
  H     15.794049   13.502562   21.958971
  H     14.608242   15.306329   22.342383
  H     16.523373   17.339890   20.166051

 Total Charge           Charge          ....    0
 Multiplicity           Mult            ....    1
 Number of Electrons    NEL             ....  154
 Basis Dimension        Dim             ....  828

ORBITAL ENERGIES
----------------

  NO   OCC          E(Eh)            E(eV)
   0   2.0000     -91.890866     -2500.4776
   1   2.0000     -20.597778      -560.4940
   2   2.0000     -20.582274      -560.0722
   3   2.0000     -20.556841      -559.3801
   4   2.0000     -15.630764      -425.3347
   5   2.0000     -15.610152      -424.7738
   6   2.0000     -11.394923      -310.0716
   7   2.0000     -11.386383      -309.8392
   8   2.0000     -11.336427      -308.4799
   9   2.0000     -11.314300      -307.8778
  10   2.0000     -11.310212      -307.7665
  11   2.0000     -11.301454      -307.5282
  12   2.0000     -11.263202      -306.4873
  13   2.0000     -11.261059      -306.4290
  14   2.0000     -11.259964      -306.3992
  15   2.0000     -11.254179      -306.2418
  16   2.0000     -11.243783      -305.9589
  17   2.0000     -11.239899      -305.8532
  18   2.0000     -11.236608      -305.7636
  19   2.0000     -11.222401      -305.3771
  20   2.0000      -8.895931      -242.0706
  21   2.0000      -6.577505      -178.9830
  22   2.0000      -6.575498      -178.9284
  23   2.0000      -6.574909      -178.9124
  24   2.0000      -1.451541       -39.4984
  25   2.0000      -1.417611       -38.5752
  26   2.0000      -1.358403       -36.9640
  27   2.0000      -1.341807       -36.5124
  28   2.0000      -1.239869       -33.7385
  29   2.0000      -1.158460       -31.5233
  30   2.0000      -1.123168       -30.5630
  31   2.0000      -1.046156       -28.4673
  32   2.0000      -1.031574       -28.0706
  33   2.0000      -1.016016       -27.6472
  34   2.0000      -1.001766       -27.2594
  35   2.0000      -0.987176       -26.8624
  36   2.0000      -0.925547       -25.1854
  37   2.0000      -0.880226       -23.9522
  38   2.0000      -0.852740       -23.2042
  39   2.0000      -0.841890       -22.9090
  40   2.0000      -0.834416       -22.7056
  41   2.0000      -0.831845       -22.6357
  42   2.0000      -0.752072       -20.4649
  43   2.0000      -0.734397       -19.9840
  44   2.0000      -0.730209       -19.8700
  45   2.0000      -0.696134       -18.9428
  46   2.0000      -0.687820       -18.7165
  47   2.0000      -0.679739       -18.4966
  48   2.0000      -0.675246       -18.3744
  49   2.0000      -0.665083       -18.0978
  50   2.0000      -0.649899       -17.6846
  51   2.0000      -0.648395       -17.6437
  52   2.0000      -0.639454       -17.4004
  53   2.0000      -0.607493       -16.5307
  54   2.0000      -0.605923       -16.4880
  55   2.0000      -0.601732       -16.3740
  56   2.0000      -0.589897       -16.0519
  57   2.0000      -0.583371       -15.8743
  58   2.0000      -0.578541       -15.7429
  59   2.0000      -0.572322       -15.5737
  60   2.0000      -0.563260       -15.3271
  61   2.0000      -0.554044       -15.0763
  62   2.0000      -0.538335       -14.6489
  63   2.0000      -0.523747       -14.2519
  64   2.0000      -0.515320       -14.0226
  65   2.0000      -0.512860       -13.9556
  66   2.0000      -0.502261       -13.6672
  67   2.0000      -0.498008       -13.5515
  68   2.0000      -0.482800       -13.1377
  69   2.0000      -0.468314       -12.7435
  70   2.0000      -0.456302       -12.4166
  71   2.0000      -0.450366       -12.2551
  72   2.0000      -0.357169        -9.7191
  73   2.0000      -0.349831        -9.5194
  74   2.0000      -0.330097        -8.9824
  75   2.0000      -0.321603        -8.7513
  76   2.0000      -0.318305        -8.6615
  77   0.0000       0.069767         1.8985
  78   0.0000       0.104056         2.8315
  79   0.0000       0.118922         3.2360
  80   0.0000       0.130655         3.5553
  81   0.0000       0.134774         3.6674

MULLIKEN ATOMIC CHARGES
-----------------------
   0 C :   -0.256845
   1 C :    0.023176
   2 O :   -0.373176
   3 C :    0.470536
   4 O :   -0.389942
   5 C :   -0.229442
   6 C :    0.146648
   7 C :   -0.287554
   8 N :   -0.124131
   9 C :    0.197598
  10 S :   -0.436204
  11 N :   -0.202321
  12 C :    0.059837
  13 C :    0.035023
  14 C :   -0.168774
  15 C :   -0.134392
  16 C :   -0.277084
  17 C :    0.320550
  18 O :   -0.359522
  19 C :   -0.292455
  20 H :    0.110657
  21 H :    0.096328
  22 H :    0.086154
  23 H :    0.098960
  24 H :    0.103994
  25 H :    0.130889
  26 H :    0.109901
  27 H :    0.121521
  28 H :    0.197450
  29 H :    0.194709
  30 H :    0.157681
  31 H :    0.162500
  32 H :    0.162458
  33 H :    0.131882
  34 H :    0.241222
  35 H :    0.172170
Sum of atomic charges:    0.0000000

LOEWDIN ATOMIC CHARGES
----------------------
   0 C :    0.108288
   1 C :   -0.018487
   2 O :    0.288414
   3 C :   -0.421187
   4 O :    0.133884
   5 C :   -0.095884
   6 C :   -0.074517
   7 C :    0.127615
   8 N :    0.404558
   9 C :   -0.458272
  10 S :   -0.033894
  11 N :    0.397066
  12 C :   -0.045805
  13 C :   -0.042729
  14 C :    0.021675
  15 C :    0.043297
  16 C :   -0.001324
  17 C :   -0.195177
  18 O :    0.393934
  19 C :    0.026463
  20 H :   -0.022621
  21 H :   -0.026491
  22 H :   -0.029127
  23 H :   -0.030801
  24 H :   -0.030687
  25 H :   -0.006185
  26 H :   -0.018026
  27 H :   -0.011810
  28 H :   -0.058242
  29 H :   -0.063840
  30 H :   -0.003726
  31 H :   -0.023461
  32 H :   -0.019545
  33 H :   -0.035119
  34 H :   -0.153441
  35 H :   -0.024798

  Mayer bond orders larger than 0.100000
B(  0-C ,  1-C ) :   0.9891 B(  0-C , 20-H ) :   0.9740 B(  0-C , 21-H ) :   0.9782
B(  0-C , 22-H ) :   0.9758 B(  1-C ,  2-O ) :   0.8841 B(  1-C , 23-H ) :   0.9802
B(  1-C , 24-H ) :   0.9622 B(  2-O ,  3-C ) :   1.1025 B(  3-C ,  4-O ) :   2.0468
B(  3-C ,  5-C ) :   0.9992 B(  5-C ,  6-C ) :   1.6649 B(  5-C , 12-C ) :   0.9587
B(  6-C ,  7-C ) :   0.9522 B(  6-C ,  8-N ) :   1.1393 B(  7-C , 25-H ) :   0.9687
B(  7-C , 26-H ) :   0.9867 B(  7-C , 27-H ) :   0.9651 B(  8-N ,  9-C ) :   1.1819
B(  8-N , 28-H ) :   0.9495 B(  9-C , 10-S ) :   1.6154 B(  9-C , 11-N ) :   1.2981
B( 11-N , 12-C ) :   0.9935 B( 11-N , 29-H ) :   0.9517 B( 12-C , 13-C ) :   0.9437
B( 12-C , 30-H ) :   0.9988 B( 13-C , 14-C ) :   1.3833 B( 13-C , 19-C ) :   1.3526
B( 14-C , 15-C ) :   1.3958 B( 14-C , 31-H ) :   0.9608 B( 15-C , 16-C ) :   1.3640
B( 15-C , 32-H ) :   0.9704 B( 16-C , 17-C ) :   1.3308 B( 16-C , 33-H ) :   0.9843
B( 17-C , 18-O ) :   1.1105 B( 17-C , 19-C ) :   1.3689 B( 18-O , 34-H ) :   0.9796
B( 19-C , 35-H ) :   0.9596

MP2 TOTAL ENERGY:    -1274.326152879 Eh
FINAL SINGLE POINT ENERGY     -1274.326152878643

DIPOLE MOMENT
-------------
                                X             Y             Z
Electronic contribution:     10.65907       9.76834       6.90391
Nuclear contribution   :    -12.07424     -10.75114      -7.30315
                        -----------------------------------------
Total Dipole Moment    :     -1.41518      -0.98280      -0.39923
                        -----------------------------------------
Magnitude (a.u.)       :      1.76862
Magnitude (Debye)      :      4.49547

Rotational constants in cm-1:     0.011975     0.009236     0.006593
Rotational constants in MHz :   359.004558   276.896177   197.655209

                             ****ORCA TERMINATED NORMALLY****
TOTAL RUN TIME: 0 days 2 hours 2 minutes 21 seconds 759 msec
