                         Program Version 5.0.0 -  RELEASE  -
|  1> ! ri-mp2 cc-pvtz cc-pvtz/c TightSCF NoKeepInts
|  2>
|  3> %scf
|  4>   MaxCore 4096
|  5> end
|  6> *xyz  0  1
|  7>     C       14.2244700   14.9252066   16.4022866
|  8>     C       15.4404321   15.5949810   17.0620846
|  9>     O       16.5832174   15.3073405   16.2327040
| 10>     C       17.8377169   15.8152711   16.4605610
| 11>     O       18.8169435   15.1437047   16.1937852
| 12>     C       17.9298855   16.9562325   17.4205442
| 13>     C       17.3704627   18.1639091   17.1752745
| 14>     C       16.6074299   18.5819260   15.9357973
| 15>     N       17.5499865   19.2101714   18.0824792
| 16>     C       18.3572016   19.1519075   19.1891131
| 17>     S       18.5637108   20.4576425   20.1821280
| 18>     N       18.9831083   17.9539316   19.4347758
| 19>     C       18.7768178   16.7091891   18.6672375
| 20>     C       18.1446126   15.6189693   19.5268056
| 21>     C       18.6025633   14.2922569   19.4311751
| 22>     C       18.0079766   13.2724554   20.1925125
| 23>     C       16.9427093   13.5798884   21.0556738
| 24>     C       16.4784042   14.8985884   21.1488204
| 25>     O       15.4395728   15.1966344   21.9686989
| 26>     C       17.0712381   15.9120144   20.3889469
| 27>     H       13.3202767   15.0913274   17.0004375
| 28>     H       14.3828663   13.8429431   16.3131480
| 29>     H       14.0541827   15.3328962   15.3981036
| 30>     H       15.2451090   16.6681240   17.1482588
| 31>     H       15.5906168   15.1824742   18.0686995
| 32>     H       16.5682695   17.7890891   15.1788006
| 33>     H       17.0855338   19.4479143   15.4602303
| 34>     H       15.5747114   18.8595736   16.1801074
| 35>     H       17.1149989   20.1032404   17.9105228
| 36>     H       19.5575007   17.9355929   20.2681883
| 37>     H       19.7636987   16.3536171   18.3353027
| 38>     H       19.4138903   14.0477019   18.7484136
| 39>     H       18.3694817   12.2491188   20.1051636
| 40>     H       16.4787986   12.7939416   21.6426015
| 41>     H       15.2072749   14.3875729   22.4495101
| 42>     H       16.6913303   16.9246518   20.4751073
| 43> *
| 44>
| 45>                          ****END OF INPUT****

CARTESIAN COORDINATES (ANGSTROEM)
---------------------------------
  C     14.224470   14.925207   16.402287
  C     15.440432   15.594981   17.062085
  O     16.583217   15.307340   16.232704
  C     17.837717   15.815271   16.460561
  O     18.816944   15.143705   16.193785
  C     17.929886   16.956232   17.420544
  C     17.370463   18.163909   17.175275
  C     16.607430   18.581926   15.935797
  N     17.549986   19.210171   18.082479
  C     18.357202   19.151908   19.189113
  S     18.563711   20.457642   20.182128
  N     18.983108   17.953932   19.434776
  C     18.776818   16.709189   18.667237
  C     18.144613   15.618969   19.526806
  C     18.602563   14.292257   19.431175
  C     18.007977   13.272455   20.192512
  C     16.942709   13.579888   21.055674
  C     16.478404   14.898588   21.148820
  O     15.439573   15.196634   21.968699
  C     17.071238   15.912014   20.388947
  H     13.320277   15.091327   17.000438
  H     14.382866   13.842943   16.313148
  H     14.054183   15.332896   15.398104
  H     15.245109   16.668124   17.148259
  H     15.590617   15.182474   18.068700
  H     16.568269   17.789089   15.178801
  H     17.085534   19.447914   15.460230
  H     15.574711   18.859574   16.180107
  H     17.114999   20.103240   17.910523
  H     19.557501   17.935593   20.268188
  H     19.763699   16.353617   18.335303
  H     19.413890   14.047702   18.748414
  H     18.369482   12.249119   20.105164
  H     16.478799   12.793942   21.642602
  H     15.207275   14.387573   22.449510
  H     16.691330   16.924652   20.475107

 Total Charge           Charge          ....    0
 Multiplicity           Mult            ....    1
 Number of Electrons    NEL             ....  154
 Basis Dimension        Dim             ....  828

ORBITAL ENERGIES
----------------

  NO   OCC          E(Eh)            E(eV)
   0   2.0000     -91.890456     -2500.4664
   1   2.0000     -20.600180      -560.5594
   2   2.0000     -20.599364      -560.5372
   3   2.0000     -20.551021      -559.2217
   4   2.0000     -15.627736      -425.2523
   5   2.0000     -15.611816      -424.8191
   6   2.0000     -11.397434      -310.1399
   7   2.0000     -11.387213      -309.8618
   8   2.0000     -11.330698      -308.3240
   9   2.0000     -11.317060      -307.9528
  10   2.0000     -11.314689      -307.8883
  11   2.0000     -11.302490      -307.5564
  12   2.0000     -11.269479      -306.6581
  13   2.0000     -11.264637      -306.5263
  14   2.0000     -11.263684      -306.5004
  15   2.0000     -11.257225      -306.3247
  16   2.0000     -11.246548      -306.0341
  17   2.0000     -11.242343      -305.9197
  18   2.0000     -11.239571      -305.8443
  19   2.0000     -11.233400      -305.6763
  20   2.0000      -8.895566      -242.0607
  21   2.0000      -6.577152      -178.9734
  22   2.0000      -6.575128      -178.9183
  23   2.0000      -6.574551      -178.9026
  24   2.0000      -1.448327       -39.4110
  25   2.0000      -1.420015       -38.6406
  26   2.0000      -1.359855       -37.0035
  27   2.0000      -1.340822       -36.4856
  28   2.0000      -1.240381       -33.7525
  29   2.0000      -1.161778       -31.6136
  30   2.0000      -1.125987       -30.6397
  31   2.0000      -1.049380       -28.5551
  32   2.0000      -1.040260       -28.3069
  33   2.0000      -1.019277       -27.7359
  34   2.0000      -1.005521       -27.3616
  35   2.0000      -0.989727       -26.9318
  36   2.0000      -0.928195       -25.2575
  37   2.0000      -0.880155       -23.9502
  38   2.0000      -0.855832       -23.2884
  39   2.0000      -0.842652       -22.9297
  40   2.0000      -0.837657       -22.7938
  41   2.0000      -0.836678       -22.7672
  42   2.0000      -0.757443       -20.6111
  43   2.0000      -0.740058       -20.1380
  44   2.0000      -0.732364       -19.9286
  45   2.0000      -0.697687       -18.9850
  46   2.0000      -0.688460       -18.7340
  47   2.0000      -0.681946       -18.5567
  48   2.0000      -0.677141       -18.4259
  49   2.0000      -0.664802       -18.0902
  50   2.0000      -0.653775       -17.7901
  51   2.0000      -0.650479       -17.7004
  52   2.0000      -0.640344       -17.4246
  53   2.0000      -0.612113       -16.6564
  54   2.0000      -0.608172       -16.5492
  55   2.0000      -0.604125       -16.4391
  56   2.0000      -0.598360       -16.2822
  57   2.0000      -0.587084       -15.9754
  58   2.0000      -0.578367       -15.7382
  59   2.0000      -0.569006       -15.4834
  60   2.0000      -0.562595       -15.3090
  61   2.0000      -0.558231       -15.1902
  62   2.0000      -0.548554       -14.9269
  63   2.0000      -0.526729       -14.3330
  64   2.0000      -0.523616       -14.2483
  65   2.0000      -0.515901       -14.0384
  66   2.0000      -0.503304       -13.6956
  67   2.0000      -0.502742       -13.6803
  68   2.0000      -0.489801       -13.3282
  69   2.0000      -0.469531       -12.7766
  70   2.0000      -0.455759       -12.4018
  71   2.0000      -0.450263       -12.2523
  72   2.0000      -0.357840        -9.7373
  73   2.0000      -0.352039        -9.5795
  74   2.0000      -0.330088        -8.9822
  75   2.0000      -0.325101        -8.8465
  76   2.0000      -0.318922        -8.6783
  77   0.0000       0.083326         2.2674
  78   0.0000       0.104597         2.8462
  79   0.0000       0.112782         3.0689
  80   0.0000       0.128341         3.4923
  81   0.0000       0.130603         3.5539

MULLIKEN ATOMIC CHARGES
-----------------------
   0 C :   -0.259189
   1 C :    0.017190
   2 O :   -0.312798
   3 C :    0.399290
   4 O :   -0.381135
   5 C :   -0.185796
   6 C :    0.129283
   7 C :   -0.322300
   8 N :   -0.134071
   9 C :    0.202795
  10 S :   -0.440078
  11 N :   -0.214184
  12 C :    0.069042
  13 C :    0.020726
  14 C :   -0.193358
  15 C :   -0.132987
  16 C :   -0.274815
  17 C :    0.321653
  18 O :   -0.358969
  19 C :   -0.282349
  20 H :    0.089952
  21 H :    0.107512
  22 H :    0.096136
  23 H :    0.086816
  24 H :    0.120985
  25 H :    0.128548
  26 H :    0.141127
  27 H :    0.118626
  28 H :    0.195990
  29 H :    0.198350
  30 H :    0.164345
  31 H :    0.169678
  32 H :    0.164107
  33 H :    0.132933
  34 H :    0.241676
  35 H :    0.175266
Sum of atomic charges:    0.0000000

LOEWDIN ATOMIC CHARGES
----------------------
   0 C :    0.111401
   1 C :   -0.023081
   2 O :    0.303593
   3 C :   -0.415505
   4 O :    0.125320
   5 C :   -0.082933
   6 C :   -0.101330
   7 C :    0.124124
   8 N :    0.401811
   9 C :   -0.456099
  10 S :   -0.036990
  11 N :    0.397251
  12 C :   -0.044378
  13 C :   -0.044585
  14 C :    0.021816
  15 C :    0.045410
  16 C :   -0.000497
  17 C :   -0.195044
  18 O :    0.394797
  19 C :    0.026987
  20 H :   -0.024763
  21 H :   -0.022831
  22 H :   -0.027580
  23 H :   -0.038955
  24 H :   -0.027875
  25 H :   -0.008035
  26 H :   -0.009478
  27 H :   -0.017634
  28 H :   -0.057350
  29 H :   -0.063665
  30 H :   -0.002401
  31 H :   -0.021664
  32 H :   -0.018273
  33 H :   -0.034483
  34 H :   -0.152848
  35 H :   -0.024234

  Mayer bond orders larger than 0.100000
B(  0-C ,  1-C ) :   0.9838 B(  0-C , 20-H ) :   0.9769 B(  0-C , 21-H ) :   0.9787
B(  0-C , 22-H ) :   0.9785 B(  1-C ,  2-O ) :   0.9064 B(  1-C , 23-H ) :   0.9667
B(  1-C , 24-H ) :   0.9684 B(  2-O ,  3-C ) :   1.1871 B(  3-C ,  4-O ) :   2.0976
B(  3-C ,  5-C ) :   0.9212 B(  5-C ,  6-C ) :   1.6884 B(  5-C , 12-C ) :   0.9612
B(  6-C ,  7-C ) :   0.9425 B(  6-C ,  8-N ) :   1.1178 B(  7-C , 25-H ) :   0.9795
B(  7-C , 26-H ) :   0.9686 B(  7-C , 27-H ) :   0.9667 B(  8-N ,  9-C ) :   1.1935
B(  8-N , 28-H ) :   0.9521 B(  9-C , 10-S ) :   1.6119 B(  9-C , 11-N ) :   1.2891
B( 11-N , 12-C ) :   0.9965 B( 11-N , 29-H ) :   0.9491 B( 12-C , 13-C ) :   0.9415
B( 12-C , 30-H ) :   0.9975 B( 13-C , 14-C ) :   1.3877 B( 13-C , 19-C ) :   1.3488
B( 14-C , 15-C ) :   1.3961 B( 14-C , 31-H ) :   0.9602 B( 15-C , 16-C ) :   1.3641
B( 15-C , 32-H ) :   0.9699 B( 16-C , 17-C ) :   1.3283 B( 16-C , 33-H ) :   0.9843
B( 17-C , 18-O ) :   1.1093 B( 17-C , 19-C ) :   1.3656 B( 18-O , 34-H ) :   0.9790
B( 19-C , 35-H ) :   0.9588

MP2 TOTAL ENERGY:    -1274.334180793 Eh
FINAL SINGLE POINT ENERGY     -1274.334180793093

DIPOLE MOMENT
-------------
                                X             Y             Z
Electronic contribution:     11.81807       7.05549       7.37824
Nuclear contribution   :    -13.36764      -8.05016      -7.66541
                        -----------------------------------------
Total Dipole Moment    :     -1.54957      -0.99467      -0.28717
                        -----------------------------------------
Magnitude (a.u.)       :      1.86360
Magnitude (Debye)      :      4.73689

Rotational constants in cm-1:     0.011508     0.009155     0.006733
Rotational constants in MHz :   345.011784   274.465769   201.860150

                             ****ORCA TERMINATED NORMALLY****
TOTAL RUN TIME: 0 days 2 hours 12 minutes 42 seconds 605 msec
