                         Program Version 5.0.0 -  RELEASE  -
|  1> ! ri-mp2 cc-pvtz cc-pvtz/c TightSCF NoKeepInts
|  2>
|  3> %scf
|  4>   MaxCore 4096
|  5> end
|  6> *xyz  0  1
|  7>     C       15.0606153   14.0979344   15.5424789
|  8>     C       16.0634400   14.0502584   16.7150644
|  9>     O       17.0551883   15.1030716   16.6692221
| 10>     C       16.7580290   16.4362405   16.5497206
| 11>     O       15.8239418   16.8615463   15.8941644
| 12>     C       17.5621532   17.2810067   17.5018046
| 13>     C       17.4524099   18.6337505   17.5453040
| 14>     C       16.5582850   19.5108447   16.6947658
| 15>     N       18.2473159   19.3747690   18.4249090
| 16>     C       19.2401388   18.8559471   19.2119603
| 17>     S       20.1983568   19.8158100   20.1587598
| 18>     N       19.4036380   17.4950965   19.1727131
| 19>     C       18.5234230   16.5531988   18.4579674
| 20>     C       17.7796578   15.6823677   19.4670575
| 21>     C       18.1097082   14.3216805   19.6126059
| 22>     C       17.4211694   13.5133683   20.5327287
| 23>     C       16.3968009   14.0707148   21.3169038
| 24>     C       16.0703840   15.4269299   21.1797411
| 25>     O       15.0833146   15.9683887   21.9368813
| 26>     C       16.7564765   16.2284466   20.2622188
| 27>     H       14.3067781   14.8804166   15.6923527
| 28>     H       14.5286627   13.1427588   15.4589142
| 29>     H       15.5777742   14.2848920   14.5930674
| 30>     H       15.5096147   14.1092508   17.6616268
| 31>     H       16.5829745   13.0837708   16.6986304
| 32>     H       15.5017965   19.2858032   16.8894966
| 33>     H       16.7396329   19.3287070   15.6278652
| 34>     H       16.7086163   20.5815199   16.8759508
| 35>     H       18.1421970   20.3759223   18.4659696
| 36>     H       20.1192069   17.1387153   19.7929820
| 37>     H       19.1676797   15.9041715   17.8482214
| 38>     H       18.8992154   13.8877944   19.0047051
| 39>     H       17.6832833   12.4619130   20.6377760
| 40>     H       15.8631616   13.4511971   22.0302829
| 41>     H       14.7591784   15.2766938   22.5330249
| 42>     H       16.4927814   17.2771023   20.1761628
| 43> *
| 44>
| 45>                          ****END OF INPUT****

CARTESIAN COORDINATES (ANGSTROEM)
---------------------------------
  C     15.060615   14.097934   15.542479
  C     16.063440   14.050258   16.715064
  O     17.055188   15.103072   16.669222
  C     16.758029   16.436241   16.549721
  O     15.823942   16.861546   15.894164
  C     17.562153   17.281007   17.501805
  C     17.452410   18.633751   17.545304
  C     16.558285   19.510845   16.694766
  N     18.247316   19.374769   18.424909
  C     19.240139   18.855947   19.211960
  S     20.198357   19.815810   20.158760
  N     19.403638   17.495096   19.172713
  C     18.523423   16.553199   18.457967
  C     17.779658   15.682368   19.467057
  C     18.109708   14.321680   19.612606
  C     17.421169   13.513368   20.532729
  C     16.396801   14.070715   21.316904
  C     16.070384   15.426930   21.179741
  O     15.083315   15.968389   21.936881
  C     16.756477   16.228447   20.262219
  H     14.306778   14.880417   15.692353
  H     14.528663   13.142759   15.458914
  H     15.577774   14.284892   14.593067
  H     15.509615   14.109251   17.661627
  H     16.582974   13.083771   16.698630
  H     15.501796   19.285803   16.889497
  H     16.739633   19.328707   15.627865
  H     16.708616   20.581520   16.875951
  H     18.142197   20.375922   18.465970
  H     20.119207   17.138715   19.792982
  H     19.167680   15.904171   17.848221
  H     18.899215   13.887794   19.004705
  H     17.683283   12.461913   20.637776
  H     15.863162   13.451197   22.030283
  H     14.759178   15.276694   22.533025
  H     16.492781   17.277102   20.176163

 Total Charge           Charge          ....    0
 Multiplicity           Mult            ....    1
 Number of Electrons    NEL             ....  154
 Basis Dimension        Dim             ....  828

ORBITAL ENERGIES
----------------

  NO   OCC          E(Eh)            E(eV)
   0   2.0000     -91.888665     -2500.4177
   1   2.0000     -20.598239      -560.5066
   2   2.0000     -20.592737      -560.3569
   3   2.0000     -20.543293      -559.0114
   4   2.0000     -15.628758      -425.2801
   5   2.0000     -15.608021      -424.7158
   6   2.0000     -11.396415      -310.1122
   7   2.0000     -11.383718      -309.7667
   8   2.0000     -11.335334      -308.4501
   9   2.0000     -11.315667      -307.9150
  10   2.0000     -11.308841      -307.7292
  11   2.0000     -11.300028      -307.4894
  12   2.0000     -11.261085      -306.4297
  13   2.0000     -11.258124      -306.3491
  14   2.0000     -11.257031      -306.3194
  15   2.0000     -11.252004      -306.1826
  16   2.0000     -11.244628      -305.9819
  17   2.0000     -11.239786      -305.8501
  18   2.0000     -11.239455      -305.8411
  19   2.0000     -11.218576      -305.2730
  20   2.0000      -8.893733      -242.0108
  21   2.0000      -6.575310      -178.9233
  22   2.0000      -6.573304      -178.8687
  23   2.0000      -6.572718      -178.8527
  24   2.0000      -1.444339       -39.3025
  25   2.0000      -1.417888       -38.5827
  26   2.0000      -1.354459       -36.8567
  27   2.0000      -1.339854       -36.4593
  28   2.0000      -1.238429       -33.6994
  29   2.0000      -1.158794       -31.5324
  30   2.0000      -1.119783       -30.4708
  31   2.0000      -1.043230       -28.3877
  32   2.0000      -1.033566       -28.1248
  33   2.0000      -1.016688       -27.6655
  34   2.0000      -0.995114       -27.0784
  35   2.0000      -0.983492       -26.7622
  36   2.0000      -0.922770       -25.1099
  37   2.0000      -0.892449       -24.2848
  38   2.0000      -0.847430       -23.0597
  39   2.0000      -0.839075       -22.8324
  40   2.0000      -0.835412       -22.7327
  41   2.0000      -0.820506       -22.3271
  42   2.0000      -0.748593       -20.3702
  43   2.0000      -0.731879       -19.9155
  44   2.0000      -0.719081       -19.5672
  45   2.0000      -0.696923       -18.9642
  46   2.0000      -0.688393       -18.7321
  47   2.0000      -0.678870       -18.4730
  48   2.0000      -0.668718       -18.1967
  49   2.0000      -0.658007       -17.9053
  50   2.0000      -0.650258       -17.6944
  51   2.0000      -0.645550       -17.5663
  52   2.0000      -0.635140       -17.2831
  53   2.0000      -0.608494       -16.5580
  54   2.0000      -0.602025       -16.3819
  55   2.0000      -0.599476       -16.3126
  56   2.0000      -0.595811       -16.2128
  57   2.0000      -0.581734       -15.8298
  58   2.0000      -0.575840       -15.6694
  59   2.0000      -0.570713       -15.5299
  60   2.0000      -0.562900       -15.3173
  61   2.0000      -0.538805       -14.6616
  62   2.0000      -0.534672       -14.5492
  63   2.0000      -0.525725       -14.3057
  64   2.0000      -0.520525       -14.1642
  65   2.0000      -0.513101       -13.9622
  66   2.0000      -0.501315       -13.6415
  67   2.0000      -0.497845       -13.5470
  68   2.0000      -0.484297       -13.1784
  69   2.0000      -0.463607       -12.6154
  70   2.0000      -0.454738       -12.3741
  71   2.0000      -0.439186       -11.9509
  72   2.0000      -0.353727        -9.6254
  73   2.0000      -0.350834        -9.5467
  74   2.0000      -0.328301        -8.9335
  75   2.0000      -0.323064        -8.7910
  76   2.0000      -0.316082        -8.6010
  77   0.0000       0.074585         2.0296
  78   0.0000       0.104968         2.8563
  79   0.0000       0.124539         3.3889
  80   0.0000       0.131815         3.5869
  81   0.0000       0.137240         3.7345

MULLIKEN ATOMIC CHARGES
-----------------------
   0 C :   -0.278560
   1 C :    0.043698
   2 O :   -0.378783
   3 C :    0.465292
   4 O :   -0.424691
   5 C :   -0.223124
   6 C :    0.155139
   7 C :   -0.271404
   8 N :   -0.121936
   9 C :    0.213617
  10 S :   -0.441045
  11 N :   -0.206787
  12 C :    0.069402
  13 C :    0.046048
  14 C :   -0.180202
  15 C :   -0.131761
  16 C :   -0.280930
  17 C :    0.313857
  18 O :   -0.355845
  19 C :   -0.263292
  20 H :    0.113817
  21 H :    0.092055
  22 H :    0.099674
  23 H :    0.096776
  24 H :    0.100016
  25 H :    0.131820
  26 H :    0.130255
  27 H :    0.095301
  28 H :    0.197270
  29 H :    0.194866
  30 H :    0.149092
  31 H :    0.150068
  32 H :    0.161401
  33 H :    0.131502
  34 H :    0.240996
  35 H :    0.166396
Sum of atomic charges:    0.0000000

LOEWDIN ATOMIC CHARGES
----------------------
   0 C :    0.103099
   1 C :   -0.013746
   2 O :    0.291907
   3 C :   -0.412348
   4 O :    0.112513
   5 C :   -0.095510
   6 C :   -0.059288
   7 C :    0.130892
   8 N :    0.406524
   9 C :   -0.456257
  10 S :   -0.036166
  11 N :    0.396204
  12 C :   -0.052384
  13 C :   -0.037682
  14 C :    0.014606
  15 C :    0.039079
  16 C :   -0.002921
  17 C :   -0.189993
  18 O :    0.395763
  19 C :    0.030495
  20 H :   -0.027230
  21 H :   -0.030259
  22 H :   -0.024725
  23 H :   -0.028811
  24 H :   -0.024530
  25 H :   -0.004959
  26 H :   -0.004182
  27 H :   -0.023440
  28 H :   -0.057646
  29 H :   -0.064806
  30 H :   -0.010606
  31 H :   -0.029970
  32 H :   -0.021049
  33 H :   -0.035401
  34 H :   -0.153589
  35 H :   -0.023586

  Mayer bond orders larger than 0.100000
B(  0-C ,  1-C ) :   0.9810 B(  0-C , 20-H ) :   0.9725 B(  0-C , 21-H ) :   0.9767
B(  0-C , 22-H ) :   0.9760 B(  1-C ,  2-O ) :   0.8888 B(  1-C , 23-H ) :   0.9707
B(  1-C , 24-H ) :   0.9821 B(  2-O ,  3-C ) :   1.1134 B(  3-C ,  4-O ) :   1.9850
B(  3-C ,  5-C ) :   1.0729 B(  5-C ,  6-C ) :   1.6528 B(  5-C , 12-C ) :   0.9732
B(  6-C ,  7-C ) :   0.9666 B(  6-C ,  8-N ) :   1.1607 B(  7-C , 25-H ) :   0.9595
B(  7-C , 26-H ) :   0.9611 B(  7-C , 27-H ) :   0.9909 B(  8-N ,  9-C ) :   1.1836
B(  8-N , 28-H ) :   0.9478 B(  9-C , 10-S ) :   1.6054 B(  9-C , 11-N ) :   1.3066
B( 11-N , 12-C ) :   0.9812 B( 11-N , 29-H ) :   0.9515 B( 12-C , 13-C ) :   0.9355
B( 12-C , 30-H ) :   1.0017 B( 13-C , 14-C ) :   1.3555 B( 13-C , 19-C ) :   1.3841
B( 14-C , 15-C ) :   1.3918 B( 14-C , 31-H ) :   0.9734 B( 15-C , 16-C ) :   1.3629
B( 15-C , 32-H ) :   0.9706 B( 16-C , 17-C ) :   1.3308 B( 16-C , 33-H ) :   0.9846
B( 17-C , 18-O ) :   1.1118 B( 17-C , 19-C ) :   1.3706 B( 18-O , 34-H ) :   0.9796
B( 19-C , 35-H ) :   0.9580

MP2 TOTAL ENERGY:    -1274.337671648 Eh
FINAL SINGLE POINT ENERGY     -1274.337671648346

DIPOLE MOMENT
-------------
                                X             Y             Z
Electronic contribution:     10.39030       9.89678       8.50919
Nuclear contribution   :    -11.40668     -11.59528      -8.71466
                        -----------------------------------------
Total Dipole Moment    :     -1.01638      -1.69850      -0.20547
                        -----------------------------------------
Magnitude (a.u.)       :      1.99002
Magnitude (Debye)      :      5.05822

Rotational constants in cm-1:     0.011907     0.008690     0.006167
Rotational constants in MHz :   356.962133   260.520707   184.877268

                             ****ORCA TERMINATED NORMALLY****
TOTAL RUN TIME: 0 days 1 hours 41 minutes 34 seconds 909 msec
