                         Program Version 5.0.0 -  RELEASE  -
|  1> ! ri-mp2 cc-pvtz cc-pvtz/c TightSCF NoKeepInts
|  2>
|  3> %scf
|  4>   MaxCore 4096
|  5> end
|  6> *xyz  0  1
|  7>     C       14.9232057   14.2756972   16.6430595
|  8>     C       16.4142822   13.9225103   16.4408342
|  9>     O       17.3157109   15.0495791   16.5679264
| 10>     C       16.9444362   16.3630674   16.4557819
| 11>     O       16.1288798   16.7505634   15.6373969
| 12>     C       17.6795805   17.2538575   17.4190853
| 13>     C       17.5645063   18.6060442   17.3943874
| 14>     C       16.7361146   19.4384610   16.4392086
| 15>     N       18.2788952   19.3880549   18.3067034
| 16>     C       19.1736213   18.9052789   19.2236290
| 17>     S       20.0242927   19.9075777   20.2275043
| 18>     N       19.3299297   17.5436968   19.2692428
| 19>     C       18.5515313   16.5684764   18.4844790
| 20>     C       17.7242228   15.6945712   19.4231487
| 21>     C       18.0772508   14.3491589   19.6387314
| 22>     C       17.3092045   13.5359633   20.4889581
| 23>     C       16.1805828   14.0729631   21.1313847
| 24>     C       15.8303687   15.4142612   20.9244288
| 25>     O       14.7417044   15.9358069   21.5436726
| 26>     C       16.5967264   16.2211746   20.0779790
| 27>     H       14.7788580   14.8647896   17.5576889
| 28>     H       14.3291551   13.3588573   16.7369840
| 29>     H       14.5226373   14.8374510   15.7903944
| 30>     H       16.7049097   13.1568213   17.1715537
| 31>     H       16.5311516   13.4832305   15.4416596
| 32>     H       17.0209641   19.2311294   15.3998026
| 33>     H       16.8462380   20.5168523   16.6025750
| 34>     H       15.6708534   19.1943523   16.5405891
| 35>     H       18.1770667   20.3902222   18.2886698
| 36>     H       19.9664873   17.2161086   19.9842764
| 37>     H       19.2713557   15.9265182   17.9573613
| 38>     H       18.9466378   13.9305261   19.1387688
| 39>     H       17.5894783   12.4961803   20.6486928
| 40>     H       15.5843126   13.4492307   21.7892886
| 41>     H       14.3697212   15.2447055   22.1119592
| 42>     H       16.3121261   17.2582607   19.9361941
| 43> *
| 44>
| 45>                          ****END OF INPUT****

CARTESIAN COORDINATES (ANGSTROEM)
---------------------------------
  C     14.923206   14.275697   16.643059
  C     16.414282   13.922510   16.440834
  O     17.315711   15.049579   16.567926
  C     16.944436   16.363067   16.455782
  O     16.128880   16.750563   15.637397
  C     17.679581   17.253857   17.419085
  C     17.564506   18.606044   17.394387
  C     16.736115   19.438461   16.439209
  N     18.278895   19.388055   18.306703
  C     19.173621   18.905279   19.223629
  S     20.024293   19.907578   20.227504
  N     19.329930   17.543697   19.269243
  C     18.551531   16.568476   18.484479
  C     17.724223   15.694571   19.423149
  C     18.077251   14.349159   19.638731
  C     17.309204   13.535963   20.488958
  C     16.180583   14.072963   21.131385
  C     15.830369   15.414261   20.924429
  O     14.741704   15.935807   21.543673
  C     16.596726   16.221175   20.077979
  H     14.778858   14.864790   17.557689
  H     14.329155   13.358857   16.736984
  H     14.522637   14.837451   15.790394
  H     16.704910   13.156821   17.171554
  H     16.531152   13.483230   15.441660
  H     17.020964   19.231129   15.399803
  H     16.846238   20.516852   16.602575
  H     15.670853   19.194352   16.540589
  H     18.177067   20.390222   18.288670
  H     19.966487   17.216109   19.984276
  H     19.271356   15.926518   17.957361
  H     18.946638   13.930526   19.138769
  H     17.589478   12.496180   20.648693
  H     15.584313   13.449231   21.789289
  H     14.369721   15.244705   22.111959
  H     16.312126   17.258261   19.936194

 Total Charge           Charge          ....    0
 Multiplicity           Mult            ....    1
 Number of Electrons    NEL             ....  154
 Basis Dimension        Dim             ....  828

ORBITAL ENERGIES
----------------

  NO   OCC          E(Eh)            E(eV)
   0   2.0000     -91.888747     -2500.4199
   1   2.0000     -20.599123      -560.5306
   2   2.0000     -20.592471      -560.3496
   3   2.0000     -20.541262      -558.9562
   4   2.0000     -15.628752      -425.2800
   5   2.0000     -15.608302      -424.7235
   6   2.0000     -11.394843      -310.0694
   7   2.0000     -11.383970      -309.7736
   8   2.0000     -11.335555      -308.4561
   9   2.0000     -11.316534      -307.9386
  10   2.0000     -11.308875      -307.7301
  11   2.0000     -11.300068      -307.4905
  12   2.0000     -11.262182      -306.4595
  13   2.0000     -11.258174      -306.3505
  14   2.0000     -11.257925      -306.3437
  15   2.0000     -11.251849      -306.1784
  16   2.0000     -11.245664      -306.0101
  17   2.0000     -11.240687      -305.8746
  18   2.0000     -11.240618      -305.8728
  19   2.0000     -11.223151      -305.3975
  20   2.0000      -8.893817      -242.0131
  21   2.0000      -6.575394      -178.9256
  22   2.0000      -6.573387      -178.8709
  23   2.0000      -6.572802      -178.8550
  24   2.0000      -1.443241       -39.2726
  25   2.0000      -1.418801       -38.6075
  26   2.0000      -1.351904       -36.7872
  27   2.0000      -1.339826       -36.4585
  28   2.0000      -1.238563       -33.7030
  29   2.0000      -1.159881       -31.5620
  30   2.0000      -1.120354       -30.4864
  31   2.0000      -1.043997       -28.4086
  32   2.0000      -1.033784       -28.1307
  33   2.0000      -1.017750       -27.6944
  34   2.0000      -0.995971       -27.1018
  35   2.0000      -0.984344       -26.7854
  36   2.0000      -0.923162       -25.1205
  37   2.0000      -0.897452       -24.4209
  38   2.0000      -0.847555       -23.0632
  39   2.0000      -0.839577       -22.8461
  40   2.0000      -0.836389       -22.7593
  41   2.0000      -0.817594       -22.2479
  42   2.0000      -0.744528       -20.2596
  43   2.0000      -0.732765       -19.9395
  44   2.0000      -0.720644       -19.6097
  45   2.0000      -0.697792       -18.9879
  46   2.0000      -0.688396       -18.7322
  47   2.0000      -0.674465       -18.3531
  48   2.0000      -0.671664       -18.2769
  49   2.0000      -0.658821       -17.9274
  50   2.0000      -0.652257       -17.7488
  51   2.0000      -0.642541       -17.4844
  52   2.0000      -0.636282       -17.3141
  53   2.0000      -0.616861       -16.7857
  54   2.0000      -0.609317       -16.5804
  55   2.0000      -0.602092       -16.3838
  56   2.0000      -0.599628       -16.3167
  57   2.0000      -0.579203       -15.7609
  58   2.0000      -0.570995       -15.5376
  59   2.0000      -0.567154       -15.4331
  60   2.0000      -0.555476       -15.1153
  61   2.0000      -0.541188       -14.7265
  62   2.0000      -0.534823       -14.5533
  63   2.0000      -0.526898       -14.3376
  64   2.0000      -0.520877       -14.1738
  65   2.0000      -0.514006       -13.9868
  66   2.0000      -0.501765       -13.6537
  67   2.0000      -0.498038       -13.5523
  68   2.0000      -0.487502       -13.2656
  69   2.0000      -0.463832       -12.6215
  70   2.0000      -0.453726       -12.3465
  71   2.0000      -0.441532       -12.0147
  72   2.0000      -0.353785        -9.6270
  73   2.0000      -0.351461        -9.5637
  74   2.0000      -0.328581        -8.9411
  75   2.0000      -0.323990        -8.8162
  76   2.0000      -0.316398        -8.6096
  77   0.0000       0.075937         2.0663
  78   0.0000       0.102668         2.7937
  79   0.0000       0.123902         3.3715
  80   0.0000       0.131712         3.5841
  81   0.0000       0.136990         3.7277

MULLIKEN ATOMIC CHARGES
-----------------------
   0 C :   -0.313609
   1 C :    0.040545
   2 O :   -0.373368
   3 C :    0.463901
   4 O :   -0.423794
   5 C :   -0.242316
   6 C :    0.161152
   7 C :   -0.271449
   8 N :   -0.121763
   9 C :    0.213997
  10 S :   -0.441458
  11 N :   -0.209301
  12 C :    0.078569
  13 C :    0.059796
  14 C :   -0.204286
  15 C :   -0.124567
  16 C :   -0.280389
  17 C :    0.321754
  18 O :   -0.357948
  19 C :   -0.277265
  20 H :    0.104224
  21 H :    0.098470
  22 H :    0.126447
  23 H :    0.103091
  24 H :    0.111544
  25 H :    0.131869
  26 H :    0.095179
  27 H :    0.130873
  28 H :    0.196911
  29 H :    0.195842
  30 H :    0.149364
  31 H :    0.154069
  32 H :    0.163616
  33 H :    0.131673
  34 H :    0.241219
  35 H :    0.167407
Sum of atomic charges:   -0.0000000

LOEWDIN ATOMIC CHARGES
----------------------
   0 C :    0.104860
   1 C :   -0.010599
   2 O :    0.294881
   3 C :   -0.416376
   4 O :    0.105514
   5 C :   -0.095891
   6 C :   -0.059339
   7 C :    0.131463
   8 N :    0.406623
   9 C :   -0.455599
  10 S :   -0.036381
  11 N :    0.396128
  12 C :   -0.051956
  13 C :   -0.038104
  14 C :    0.015435
  15 C :    0.039277
  16 C :   -0.002142
  17 C :   -0.189901
  18 O :    0.395942
  19 C :    0.030830
  20 H :   -0.027550
  21 H :   -0.026339
  22 H :   -0.025178
  23 H :   -0.028298
  24 H :   -0.028640
  25 H :   -0.003687
  26 H :   -0.023497
  27 H :   -0.004941
  28 H :   -0.057617
  29 H :   -0.064792
  30 H :   -0.011211
  31 H :   -0.029629
  32 H :   -0.020939
  33 H :   -0.035210
  34 H :   -0.153375
  35 H :   -0.023763

  Mayer bond orders larger than 0.100000
B(  0-C ,  1-C ) :   0.9628 B(  0-C , 20-H ) :   0.9726 B(  0-C , 21-H ) :   0.9761
B(  0-C , 22-H ) :   0.9723 B(  1-C ,  2-O ) :   0.8915 B(  1-C , 23-H ) :   0.9775
B(  1-C , 24-H ) :   0.9846 B(  2-O ,  3-C ) :   1.1464 B(  3-C ,  4-O ) :   1.9908
B(  3-C ,  5-C ) :   1.0460 B(  5-C ,  6-C ) :   1.6503 B(  5-C , 12-C ) :   0.9697
B(  6-C ,  7-C ) :   0.9658 B(  6-C ,  8-N ) :   1.1638 B(  7-C , 25-H ) :   0.9604
B(  7-C , 26-H ) :   0.9904 B(  7-C , 27-H ) :   0.9603 B(  8-N ,  9-C ) :   1.1849
B(  8-N , 28-H ) :   0.9478 B(  9-C , 10-S ) :   1.6042 B(  9-C , 11-N ) :   1.3075
B( 11-N , 12-C ) :   0.9832 B( 11-N , 29-H ) :   0.9511 B( 12-C , 13-C ) :   0.9376
B( 12-C , 30-H ) :   1.0016 B( 13-C , 14-C ) :   1.3497 B( 13-C , 19-C ) :   1.3781
B( 14-C , 15-C ) :   1.3858 B( 14-C , 31-H ) :   0.9721 B( 15-C , 16-C ) :   1.3639
B( 15-C , 32-H ) :   0.9698 B( 16-C , 17-C ) :   1.3311 B( 16-C , 33-H ) :   0.9844
B( 17-C , 18-O ) :   1.1090 B( 17-C , 19-C ) :   1.3663 B( 18-O , 34-H ) :   0.9794
B( 19-C , 35-H ) :   0.9590

MP2 TOTAL ENERGY:    -1274.341314439 Eh
FINAL SINGLE POINT ENERGY     -1274.341314438791

DIPOLE MOMENT
-------------
                                X             Y             Z
Electronic contribution:     10.18598       9.76987       6.78172
Nuclear contribution   :    -11.20140     -11.53381      -6.97373
                        -----------------------------------------
Total Dipole Moment    :     -1.01542      -1.76394      -0.19201
                        -----------------------------------------
Magnitude (a.u.)       :      2.04437
Magnitude (Debye)      :      5.19637

Rotational constants in cm-1:     0.012618     0.008646     0.006372
Rotational constants in MHz :   378.274057   259.185770   191.013860

                             ****ORCA TERMINATED NORMALLY****
TOTAL RUN TIME: 0 days 2 hours 5 minutes 18 seconds 193 msec
