                         Program Version 5.0.0 -  RELEASE  -
|  1> ! ri-mp2 cc-pvtz cc-pvtz/c TightSCF NoKeepInts
|  2>
|  3> %scf
|  4>   MaxCore 4096
|  5> end
|  6> *xyz  0  1
|  7>     C       15.5079290   14.1776506   14.5228397
|  8>     C       15.0733436   14.7821678   15.8708533
|  9>     O       15.9723292   15.8582061   16.1956032
| 10>     C       17.1008533   15.6025259   16.9216758
| 11>     O       17.5080819   14.4684548   17.1160361
| 12>     C       17.6518334   16.7902635   17.6591285
| 13>     C       17.3611273   18.0885535   17.3799924
| 14>     C       16.4568297   18.6322191   16.2925916
| 15>     N       17.9891149   19.1105309   18.1000787
| 16>     C       19.0156116   18.9276027   18.9884698
| 17>     S       19.7935564   20.2036801   19.6970498
| 18>     N       19.3646190   17.6290678   19.2587903
| 19>     C       18.6186074   16.4433606   18.7975840
| 20>     C       17.8822300   15.7893536   19.9640834
| 21>     C       18.0778106   14.4266741   20.2556746
| 22>     C       17.4015490   13.8185309   21.3265443
| 23>     C       16.5208946   14.5788910   22.1145012
| 24>     C       16.3201685   15.9354371   21.8254407
| 25>     O       15.4657956   16.6709552   22.5807355
| 26>     C       16.9943011   16.5377980   20.7585706
| 27>     H       15.5274321   14.9460821   13.7402880
| 28>     H       14.8115106   13.3889163   14.2136361
| 29>     H       16.5093048   13.7353911   14.6005145
| 30>     H       14.0558744   15.1802669   15.7671568
| 31>     H       15.0601654   14.0163828   16.6590258
| 32>     H       16.7078584   18.1907390   15.3200307
| 33>     H       16.5353540   19.7203755   16.1805477
| 34>     H       15.4070838   18.3983999   16.5096115
| 35>     H       17.7471371   20.0708782   17.9154353
| 36>     H       20.1031171   17.5195797   19.9418261
| 37>     H       19.3514173   15.7226777   18.4066416
| 38>     H       18.7452508   13.8320947   19.6365805
| 39>     H       17.5572713   12.7620559   21.5372493
| 40>     H       15.9952047   14.1127873   22.9411087
| 41>     H       15.1295858   16.0936038   23.2824161
| 42>     H       16.8268464   17.5898456   20.5556877
| 43> *
| 44>
| 45>                          ****END OF INPUT****

CARTESIAN COORDINATES (ANGSTROEM)
---------------------------------
  C     15.507929   14.177651   14.522840
  C     15.073344   14.782168   15.870853
  O     15.972329   15.858206   16.195603
  C     17.100853   15.602526   16.921676
  O     17.508082   14.468455   17.116036
  C     17.651833   16.790263   17.659128
  C     17.361127   18.088553   17.379992
  C     16.456830   18.632219   16.292592
  N     17.989115   19.110531   18.100079
  C     19.015612   18.927603   18.988470
  S     19.793556   20.203680   19.697050
  N     19.364619   17.629068   19.258790
  C     18.618607   16.443361   18.797584
  C     17.882230   15.789354   19.964083
  C     18.077811   14.426674   20.255675
  C     17.401549   13.818531   21.326544
  C     16.520895   14.578891   22.114501
  C     16.320169   15.935437   21.825441
  O     15.465796   16.670955   22.580735
  C     16.994301   16.537798   20.758571
  H     15.527432   14.946082   13.740288
  H     14.811511   13.388916   14.213636
  H     16.509305   13.735391   14.600514
  H     14.055874   15.180267   15.767157
  H     15.060165   14.016383   16.659026
  H     16.707858   18.190739   15.320031
  H     16.535354   19.720375   16.180548
  H     15.407084   18.398400   16.509611
  H     17.747137   20.070878   17.915435
  H     20.103117   17.519580   19.941826
  H     19.351417   15.722678   18.406642
  H     18.745251   13.832095   19.636581
  H     17.557271   12.762056   21.537249
  H     15.995205   14.112787   22.941109
  H     15.129586   16.093604   23.282416
  H     16.826846   17.589846   20.555688

 Total Charge           Charge          ....    0
 Multiplicity           Mult            ....    1
 Number of Electrons    NEL             ....  154
 Basis Dimension        Dim             ....  828

ORBITAL ENERGIES
----------------

  NO   OCC          E(Eh)            E(eV)
   0   2.0000     -91.888036     -2500.4006
   1   2.0000     -20.602773      -560.6300
   2   2.0000     -20.591324      -560.3184
   3   2.0000     -20.546681      -559.1036
   4   2.0000     -15.628397      -425.2703
   5   2.0000     -15.606666      -424.6790
   6   2.0000     -11.396869      -310.1246
   7   2.0000     -11.382910      -309.7447
   8   2.0000     -11.336364      -308.4782
   9   2.0000     -11.307164      -307.6836
  10   2.0000     -11.305552      -307.6397
  11   2.0000     -11.300322      -307.4974
  12   2.0000     -11.260698      -306.4192
  13   2.0000     -11.258872      -306.3695
  14   2.0000     -11.253163      -306.2141
  15   2.0000     -11.247339      -306.0557
  16   2.0000     -11.236971      -305.7735
  17   2.0000     -11.233094      -305.6680
  18   2.0000     -11.230107      -305.5868
  19   2.0000     -11.226368      -305.4850
  20   2.0000      -8.893099      -241.9935
  21   2.0000      -6.574676      -178.9060
  22   2.0000      -6.572670      -178.8514
  23   2.0000      -6.572084      -178.8355
  24   2.0000      -1.454390       -39.5760
  25   2.0000      -1.411057       -38.3968
  26   2.0000      -1.357696       -36.9448
  27   2.0000      -1.339338       -36.4452
  28   2.0000      -1.236923       -33.6584
  29   2.0000      -1.151864       -31.3438
  30   2.0000      -1.119481       -30.4626
  31   2.0000      -1.042332       -28.3633
  32   2.0000      -1.034759       -28.1572
  33   2.0000      -1.009179       -27.4611
  34   2.0000      -0.997153       -27.1339
  35   2.0000      -0.982635       -26.7389
  36   2.0000      -0.921123       -25.0650
  37   2.0000      -0.891614       -24.2621
  38   2.0000      -0.847586       -23.0640
  39   2.0000      -0.835223       -22.7276
  40   2.0000      -0.827564       -22.5192
  41   2.0000      -0.818039       -22.2600
  42   2.0000      -0.756017       -20.5723
  43   2.0000      -0.735116       -20.0035
  44   2.0000      -0.724757       -19.7217
  45   2.0000      -0.690466       -18.7885
  46   2.0000      -0.685197       -18.6452
  47   2.0000      -0.680037       -18.5048
  48   2.0000      -0.671503       -18.2725
  49   2.0000      -0.658214       -17.9109
  50   2.0000      -0.646489       -17.5919
  51   2.0000      -0.641598       -17.4588
  52   2.0000      -0.629432       -17.1277
  53   2.0000      -0.613016       -16.6810
  54   2.0000      -0.600005       -16.3270
  55   2.0000      -0.599324       -16.3084
  56   2.0000      -0.594555       -16.1787
  57   2.0000      -0.585026       -15.9194
  58   2.0000      -0.572816       -15.5871
  59   2.0000      -0.565526       -15.3888
  60   2.0000      -0.560644       -15.2559
  61   2.0000      -0.545851       -14.8534
  62   2.0000      -0.534384       -14.5413
  63   2.0000      -0.526880       -14.3371
  64   2.0000      -0.516834       -14.0638
  65   2.0000      -0.510080       -13.8800
  66   2.0000      -0.500421       -13.6172
  67   2.0000      -0.495259       -13.4767
  68   2.0000      -0.480134       -13.0651
  69   2.0000      -0.462628       -12.5887
  70   2.0000      -0.456463       -12.4210
  71   2.0000      -0.455942       -12.4068
  72   2.0000      -0.354189        -9.6380
  73   2.0000      -0.343721        -9.3531
  74   2.0000      -0.327148        -8.9021
  75   2.0000      -0.315525        -8.5859
  76   2.0000      -0.313519        -8.5313
  77   0.0000       0.075919         2.0659
  78   0.0000       0.113486         3.0881
  79   0.0000       0.121612         3.3092
  80   0.0000       0.136167         3.7053
  81   0.0000       0.140802         3.8314

MULLIKEN ATOMIC CHARGES
-----------------------
   0 C :   -0.286648
   1 C :    0.035288
   2 O :   -0.346525
   3 C :    0.441165
   4 O :   -0.433675
   5 C :   -0.164244
   6 C :    0.144795
   7 C :   -0.284429
   8 N :   -0.121520
   9 C :    0.201200
  10 S :   -0.439261
  11 N :   -0.196595
  12 C :    0.034663
  13 C :    0.056900
  14 C :   -0.161392
  15 C :   -0.134141
  16 C :   -0.278918
  17 C :    0.311588
  18 O :   -0.359069
  19 C :   -0.271740
  20 H :    0.090707
  21 H :    0.094314
  22 H :    0.113364
  23 H :    0.104001
  24 H :    0.105910
  25 H :    0.126055
  26 H :    0.101734
  27 H :    0.128229
  28 H :    0.196755
  29 H :    0.193501
  30 H :    0.153382
  31 H :    0.153332
  32 H :    0.158962
  33 H :    0.127926
  34 H :    0.239984
  35 H :    0.164400
Sum of atomic charges:   -0.0000000

LOEWDIN ATOMIC CHARGES
----------------------
   0 C :    0.104241
   1 C :   -0.015896
   2 O :    0.305733
   3 C :   -0.413532
   4 O :    0.103718
   5 C :   -0.090650
   6 C :   -0.065676
   7 C :    0.125030
   8 N :    0.404838
   9 C :   -0.458953
  10 S :   -0.035961
  11 N :    0.397853
  12 C :   -0.046351
  13 C :   -0.038867
  14 C :    0.021892
  15 C :    0.040694
  16 C :   -0.002313
  17 C :   -0.192508
  18 O :    0.393027
  19 C :    0.028630
  20 H :   -0.030309
  21 H :   -0.027215
  22 H :   -0.024007
  23 H :   -0.026993
  24 H :   -0.026170
  25 H :   -0.008832
  26 H :   -0.021019
  27 H :   -0.009362
  28 H :   -0.059138
  29 H :   -0.063658
  30 H :   -0.005083
  31 H :   -0.025394
  32 H :   -0.021303
  33 H :   -0.036437
  34 H :   -0.154944
  35 H :   -0.025084

  Mayer bond orders larger than 0.100000
B(  0-C ,  1-C ) :   0.9670 B(  0-C , 20-H ) :   0.9776 B(  0-C , 21-H ) :   0.9764
B(  0-C , 22-H ) :   0.9752 B(  1-C ,  2-O ) :   0.8964 B(  1-C , 23-H ) :   0.9847
B(  1-C , 24-H ) :   0.9747 B(  2-O ,  3-C ) :   1.1500 B(  3-C ,  4-O ) :   1.9579
B(  3-C ,  5-C ) :   1.0664 B(  5-C ,  6-C ) :   1.6475 B(  5-C , 12-C ) :   0.9653
B(  6-C ,  7-C ) :   0.9549 B(  6-C ,  8-N ) :   1.1478 B(  7-C , 25-H ) :   0.9661
B(  7-C , 26-H ) :   0.9912 B(  7-C , 27-H ) :   0.9634 B(  8-N ,  9-C ) :   1.1784
B(  8-N , 28-H ) :   0.9488 B(  9-C , 10-S ) :   1.6108 B(  9-C , 11-N ) :   1.3041
B( 11-N , 12-C ) :   0.9931 B( 11-N , 29-H ) :   0.9519 B( 12-C , 13-C ) :   0.9473
B( 12-C , 30-H ) :   1.0000 B( 13-C , 14-C ) :   1.3751 B( 13-C , 19-C ) :   1.3698
B( 14-C , 15-C ) :   1.3945 B( 14-C , 31-H ) :   0.9651 B( 15-C , 16-C ) :   1.3626
B( 15-C , 32-H ) :   0.9715 B( 16-C , 17-C ) :   1.3314 B( 16-C , 33-H ) :   0.9860
B( 17-C , 18-O ) :   1.1080 B( 17-C , 19-C ) :   1.3791 B( 18-O , 34-H ) :   0.9807
B( 19-C , 35-H ) :   0.9585

MP2 TOTAL ENERGY:    -1274.346548039 Eh
FINAL SINGLE POINT ENERGY     -1274.346548038736

DIPOLE MOMENT
-------------
                                X             Y             Z
Electronic contribution:     10.21788       9.47275      11.80508
Nuclear contribution   :    -11.90621     -10.59829     -12.64729
                        -----------------------------------------
Total Dipole Moment    :     -1.68833      -1.12554      -0.84221
                        -----------------------------------------
Magnitude (a.u.)       :      2.19696
Magnitude (Debye)      :      5.58422

Rotational constants in cm-1:     0.010559     0.008811     0.005761
Rotational constants in MHz :   316.543177   264.159865   172.702633

                             ****ORCA TERMINATED NORMALLY****
TOTAL RUN TIME: 0 days 1 hours 50 minutes 52 seconds 649 msec
