                         Program Version 5.0.0 -  RELEASE  -
|  1> ! ri-mp2 cc-pvtz cc-pvtz/c TightSCF NoKeepInts
|  2>
|  3> %scf
|  4>   MaxCore 4096
|  5> end
|  6> *xyz  0  1
|  7>     C       15.0816988   15.4164476   17.5752152
|  8>     C       15.6154581   15.3307381   16.1326565
|  9>     O       17.0002753   14.9229315   16.1053069
| 10>     C       18.1210099   15.6273023   16.4828133
| 11>     O       19.1932258   15.0513148   16.4713442
| 12>     C       17.9333935   16.8166137   17.3683796
| 13>     C       17.4108992   17.9839192   16.9236195
| 14>     C       16.9661131   18.3128987   15.5149239
| 15>     N       17.3643187   19.0943503   17.7692642
| 16>     C       17.9575522   19.1607919   19.0024284
| 17>     S       17.9281616   20.5447189   19.9067619
| 18>     N       18.5838300   18.0227248   19.4460903
| 19>     C       18.5521636   16.7112297   18.7676620
| 20>     C       17.8629372   15.6494080   19.6240139
| 21>     C       18.3119470   14.3161941   19.5804773
| 22>     C       17.6884775   13.3215624   20.3517508
| 23>     C       16.6052261   13.6603824   21.1794412
| 24>     C       16.1544072   14.9858852   21.2294541
| 25>     O       15.1023846   15.3150783   22.0202804
| 26>     C       16.7766961   15.9744694   20.4603488
| 27>     H       15.4368009   14.5662239   18.1716581
| 28>     H       13.9852989   15.3917755   17.5752949
| 29>     H       15.3856503   16.3458797   18.0669656
| 30>     H       15.0360773   14.5573632   15.6116192
| 31>     H       15.4430699   16.2655219   15.5940030
| 32>     H       17.2094802   17.5150831   14.8026358
| 33>     H       17.4729578   19.2161867   15.1511700
| 34>     H       15.8858042   18.4977726   15.4717085
| 35>     H       16.9319925   19.9478589   17.4521034
| 36>     H       19.0052463   18.0968243   20.3634892
| 37>     H       19.5967035   16.3915703   18.6361128
| 38>     H       19.1449837   14.0465067   18.9344557
| 39>     H       18.0446467   12.2939587   20.3018969
| 40>     H       16.1195267   12.8944850   21.7749711
| 41>     H       14.8379947   14.5153761   22.4996165
| 42>     H       16.4005906   16.9906521   20.5140669
| 43> *
| 44>
| 45>                          ****END OF INPUT****

CARTESIAN COORDINATES (ANGSTROEM)
---------------------------------
  C     15.081699   15.416448   17.575215
  C     15.615458   15.330738   16.132656
  O     17.000275   14.922932   16.105307
  C     18.121010   15.627302   16.482813
  O     19.193226   15.051315   16.471344
  C     17.933394   16.816614   17.368380
  C     17.410899   17.983919   16.923620
  C     16.966113   18.312899   15.514924
  N     17.364319   19.094350   17.769264
  C     17.957552   19.160792   19.002428
  S     17.928162   20.544719   19.906762
  N     18.583830   18.022725   19.446090
  C     18.552164   16.711230   18.767662
  C     17.862937   15.649408   19.624014
  C     18.311947   14.316194   19.580477
  C     17.688478   13.321562   20.351751
  C     16.605226   13.660382   21.179441
  C     16.154407   14.985885   21.229454
  O     15.102385   15.315078   22.020280
  C     16.776696   15.974469   20.460349
  H     15.436801   14.566224   18.171658
  H     13.985299   15.391775   17.575295
  H     15.385650   16.345880   18.066966
  H     15.036077   14.557363   15.611619
  H     15.443070   16.265522   15.594003
  H     17.209480   17.515083   14.802636
  H     17.472958   19.216187   15.151170
  H     15.885804   18.497773   15.471708
  H     16.931992   19.947859   17.452103
  H     19.005246   18.096824   20.363489
  H     19.596704   16.391570   18.636113
  H     19.144984   14.046507   18.934456
  H     18.044647   12.293959   20.301897
  H     16.119527   12.894485   21.774971
  H     14.837995   14.515376   22.499616
  H     16.400591   16.990652   20.514067

 Total Charge           Charge          ....    0
 Multiplicity           Mult            ....    1
 Number of Electrons    NEL             ....  154
 Basis Dimension        Dim             ....  828

ORBITAL ENERGIES
----------------

  NO   OCC          E(Eh)            E(eV)
   0   2.0000     -91.890279     -2500.4616
   1   2.0000     -20.600706      -560.5737
   2   2.0000     -20.597201      -560.4783
   3   2.0000     -20.550270      -559.2013
   4   2.0000     -15.627441      -425.2443
   5   2.0000     -15.611447      -424.8091
   6   2.0000     -11.400729      -310.2296
   7   2.0000     -11.386830      -309.8514
   8   2.0000     -11.330406      -308.3160
   9   2.0000     -11.315205      -307.9024
  10   2.0000     -11.313714      -307.8618
  11   2.0000     -11.308023      -307.7070
  12   2.0000     -11.272426      -306.7383
  13   2.0000     -11.268037      -306.6189
  14   2.0000     -11.261797      -306.4491
  15   2.0000     -11.254258      -306.2439
  16   2.0000     -11.243551      -305.9526
  17   2.0000     -11.239058      -305.8303
  18   2.0000     -11.235908      -305.7446
  19   2.0000     -11.228096      -305.5320
  20   2.0000      -8.895391      -242.0559
  21   2.0000      -6.576982      -178.9688
  22   2.0000      -6.574952      -178.9135
  23   2.0000      -6.574378      -178.8979
  24   2.0000      -1.446997       -39.3748
  25   2.0000      -1.417028       -38.5593
  26   2.0000      -1.358440       -36.9650
  27   2.0000      -1.341165       -36.4950
  28   2.0000      -1.240481       -33.7552
  29   2.0000      -1.158726       -31.5305
  30   2.0000      -1.125446       -30.6249
  31   2.0000      -1.047942       -28.5159
  32   2.0000      -1.038663       -28.2635
  33   2.0000      -1.017102       -27.6767
  34   2.0000      -1.005916       -27.3724
  35   2.0000      -0.990145       -26.9432
  36   2.0000      -0.928005       -25.2523
  37   2.0000      -0.895446       -24.3663
  38   2.0000      -0.855275       -23.2732
  39   2.0000      -0.840645       -22.8751
  40   2.0000      -0.834092       -22.6968
  41   2.0000      -0.830447       -22.5976
  42   2.0000      -0.749738       -20.4014
  43   2.0000      -0.740392       -20.1471
  44   2.0000      -0.730368       -19.8743
  45   2.0000      -0.695193       -18.9172
  46   2.0000      -0.687487       -18.7075
  47   2.0000      -0.679891       -18.5008
  48   2.0000      -0.675383       -18.3781
  49   2.0000      -0.663666       -18.0593
  50   2.0000      -0.652407       -17.7529
  51   2.0000      -0.645511       -17.5652
  52   2.0000      -0.639859       -17.4114
  53   2.0000      -0.617897       -16.8138
  54   2.0000      -0.611250       -16.6330
  55   2.0000      -0.605902       -16.4874
  56   2.0000      -0.601679       -16.3725
  57   2.0000      -0.590923       -16.0798
  58   2.0000      -0.579277       -15.7629
  59   2.0000      -0.572119       -15.5681
  60   2.0000      -0.565672       -15.3927
  61   2.0000      -0.556745       -15.1498
  62   2.0000      -0.539155       -14.6712
  63   2.0000      -0.531363       -14.4591
  64   2.0000      -0.518289       -14.1033
  65   2.0000      -0.512654       -13.9500
  66   2.0000      -0.504039       -13.7156
  67   2.0000      -0.501161       -13.6373
  68   2.0000      -0.483438       -13.1550
  69   2.0000      -0.464680       -12.6446
  70   2.0000      -0.454394       -12.3647
  71   2.0000      -0.451469       -12.2851
  72   2.0000      -0.357764        -9.7353
  73   2.0000      -0.347899        -9.4668
  74   2.0000      -0.329938        -8.9781
  75   2.0000      -0.322689        -8.7808
  76   2.0000      -0.318865        -8.6768
  77   0.0000       0.085578         2.3287
  78   0.0000       0.106877         2.9083
  79   0.0000       0.111787         3.0419
  80   0.0000       0.129968         3.5366
  81   0.0000       0.131103         3.5675

MULLIKEN ATOMIC CHARGES
-----------------------
   0 C :   -0.317501
   1 C :    0.009973
   2 O :   -0.317719
   3 C :    0.413035
   4 O :   -0.382775
   5 C :   -0.207476
   6 C :    0.146935
   7 C :   -0.332999
   8 N :   -0.137685
   9 C :    0.205564
  10 S :   -0.441144
  11 N :   -0.229068
  12 C :    0.094459
  13 C :    0.020594
  14 C :   -0.210560
  15 C :   -0.136030
  16 C :   -0.278732
  17 C :    0.320765
  18 O :   -0.358596
  19 C :   -0.274029
  20 H :    0.126384
  21 H :    0.113281
  22 H :    0.105581
  23 H :    0.131910
  24 H :    0.089375
  25 H :    0.123991
  26 H :    0.141834
  27 H :    0.121213
  28 H :    0.196145
  29 H :    0.203158
  30 H :    0.168616
  31 H :    0.175239
  32 H :    0.163841
  33 H :    0.131859
  34 H :    0.241012
  35 H :    0.179551
Sum of atomic charges:   -0.0000000

LOEWDIN ATOMIC CHARGES
----------------------
   0 C :    0.103679
   1 C :   -0.021427
   2 O :    0.304712
   3 C :   -0.415226
   4 O :    0.124669
   5 C :   -0.076681
   6 C :   -0.102844
   7 C :    0.121140
   8 N :    0.401748
   9 C :   -0.457851
  10 S :   -0.037958
  11 N :    0.398554
  12 C :   -0.041661
  13 C :   -0.041656
  14 C :    0.021193
  15 C :    0.043340
  16 C :   -0.001935
  17 C :   -0.193598
  18 O :    0.395376
  19 C :    0.028547
  20 H :   -0.017852
  21 H :   -0.025678
  22 H :   -0.036206
  23 H :   -0.018487
  24 H :   -0.040362
  25 H :   -0.009350
  26 H :   -0.008281
  27 H :   -0.018066
  28 H :   -0.057864
  29 H :   -0.063285
  30 H :   -0.001459
  31 H :   -0.021947
  32 H :   -0.018628
  33 H :   -0.035054
  34 H :   -0.153609
  35 H :   -0.025994

  Mayer bond orders larger than 0.100000
B(  0-C ,  1-C ) :   0.9541 B(  0-C , 20-H ) :   0.9687 B(  0-C , 21-H ) :   0.9766
B(  0-C , 22-H ) :   0.9721 B(  1-C ,  2-O ) :   0.9095 B(  1-C , 23-H ) :   0.9844
B(  1-C , 24-H ) :   0.9745 B(  2-O ,  3-C ) :   1.1688 B(  3-C ,  4-O ) :   2.0786
B(  3-C ,  5-C ) :   0.9220 B(  5-C ,  6-C ) :   1.6977 B(  5-C , 12-C ) :   0.9477
B(  6-C ,  7-C ) :   0.9443 B(  6-C ,  8-N ) :   1.1042 B(  7-C , 25-H ) :   0.9819
B(  7-C , 26-H ) :   0.9690 B(  7-C , 27-H ) :   0.9668 B(  8-N ,  9-C ) :   1.1972
B(  8-N , 28-H ) :   0.9529 B(  9-C , 10-S ) :   1.6079 B(  9-C , 11-N ) :   1.2880
B( 11-N , 12-C ) :   0.9865 B( 11-N , 29-H ) :   0.9473 B( 12-C , 13-C ) :   0.9538
B( 12-C , 30-H ) :   0.9945 B( 13-C , 14-C ) :   1.3895 B( 13-C , 19-C ) :   1.3361
B( 14-C , 15-C ) :   1.4031 B( 14-C , 31-H ) :   0.9583 B( 15-C , 16-C ) :   1.3570
B( 15-C , 32-H ) :   0.9702 B( 16-C , 17-C ) :   1.3317 B( 16-C , 33-H ) :   0.9850
B( 17-C , 18-O ) :   1.1087 B( 17-C , 19-C ) :   1.3683 B( 18-O , 34-H ) :   0.9796
B( 19-C , 35-H ) :   0.9563

MP2 TOTAL ENERGY:    -1274.326374469 Eh
FINAL SINGLE POINT ENERGY     -1274.326374469293

DIPOLE MOMENT
-------------
                                X             Y             Z
Electronic contribution:      8.94616       6.26154       6.26137
Nuclear contribution   :    -10.44016      -7.28266      -7.02280
                        -----------------------------------------
Total Dipole Moment    :     -1.49400      -1.02112      -0.76143
                        -----------------------------------------
Magnitude (a.u.)       :      1.96328
Magnitude (Debye)      :      4.99027

Rotational constants in cm-1:     0.011963     0.009551     0.006807
Rotational constants in MHz :   358.627677   286.322073   204.063771

                             ****ORCA TERMINATED NORMALLY****
TOTAL RUN TIME: 0 days 1 hours 41 minutes 12 seconds 559 msec
