                         Program Version 5.0.0 -  RELEASE  -
|  1> ! ri-mp2 cc-pvtz cc-pvtz/c TightSCF NoKeepInts
|  2>
|  3> %scf
|  4>   MaxCore 4096
|  5> end
|  6> *xyz  0  1
|  7>     C       15.0971233   14.8370060   17.4026338
|  8>     C       15.5087490   15.5485559   16.1023928
|  9>     O       16.8776641   15.2160389   15.7852492
| 10>     C       18.0063899   15.6408428   16.4464517
| 11>     O       18.9913970   14.9258293   16.4599688
| 12>     C       17.9043043   16.8208021   17.3648965
| 13>     C       17.4382328   18.0297815   16.9637988
| 14>     C       16.9861621   18.4342713   15.5746628
| 15>     N       17.4975111   19.1236039   17.8304770
| 16>     C       18.1752229   19.1397617   19.0205772
| 17>     S       18.2933794   20.5118485   19.9356102
| 18>     N       18.7607020   17.9610423   19.4084847
| 19>     C       18.5816106   16.6601437   18.7333019
| 20>     C       17.8470639   15.6644437   19.6289544
| 21>     C       18.1931040   14.3007222   19.5912785
| 22>     C       17.5231854   13.3664758   20.3982676
| 23>     C       16.4973642   13.7973536   21.2558463
| 24>     C       16.1492077   15.1537191   21.3000819
| 25>     O       15.1526574   15.5717012   22.1202156
| 26>     C       16.8166573   16.0821914   20.4945472
| 27>     H       15.5185537   15.3414969   18.2745899
| 28>     H       15.4373585   13.7934616   17.4042160
| 29>     H       14.0060310   14.8412548   17.5129532
| 30>     H       14.8695972   15.1783335   15.2902647
| 31>     H       15.3309354   16.6220133   16.1954085
| 32>     H       17.1308413   17.6379748   14.8348836
| 33>     H       17.5667142   19.2943099   15.2163196
| 34>     H       15.9278228   18.7220123   15.5651517
| 35>     H       17.0995383   20.0061063   17.5497287
| 36>     H       19.2482361   17.9977487   20.2948823
| 37>     H       19.5870828   16.2514128   18.5528023
| 38>     H       18.9819707   13.9604949   18.9234523
| 39>     H       17.7998374   12.3143856   20.3539997
| 40>     H       15.9764783   13.0784648   21.8796366
| 41>     H       14.8484424   14.8017773   22.6240843
| 42>     H       16.5198712   17.1246175   20.5439299
| 43> *
| 44>
| 45>                          ****END OF INPUT****

CARTESIAN COORDINATES (ANGSTROEM)
---------------------------------
  C     15.097123   14.837006   17.402634
  C     15.508749   15.548556   16.102393
  O     16.877664   15.216039   15.785249
  C     18.006390   15.640843   16.446452
  O     18.991397   14.925829   16.459969
  C     17.904304   16.820802   17.364897
  C     17.438233   18.029781   16.963799
  C     16.986162   18.434271   15.574663
  N     17.497511   19.123604   17.830477
  C     18.175223   19.139762   19.020577
  S     18.293379   20.511848   19.935610
  N     18.760702   17.961042   19.408485
  C     18.581611   16.660144   18.733302
  C     17.847064   15.664444   19.628954
  C     18.193104   14.300722   19.591279
  C     17.523185   13.366476   20.398268
  C     16.497364   13.797354   21.255846
  C     16.149208   15.153719   21.300082
  O     15.152657   15.571701   22.120216
  C     16.816657   16.082191   20.494547
  H     15.518554   15.341497   18.274590
  H     15.437358   13.793462   17.404216
  H     14.006031   14.841255   17.512953
  H     14.869597   15.178333   15.290265
  H     15.330935   16.622013   16.195408
  H     17.130841   17.637975   14.834884
  H     17.566714   19.294310   15.216320
  H     15.927823   18.722012   15.565152
  H     17.099538   20.006106   17.549729
  H     19.248236   17.997749   20.294882
  H     19.587083   16.251413   18.552802
  H     18.981971   13.960495   18.923452
  H     17.799837   12.314386   20.354000
  H     15.976478   13.078465   21.879637
  H     14.848442   14.801777   22.624084
  H     16.519871   17.124617   20.543930

 Total Charge           Charge          ....    0
 Multiplicity           Mult            ....    1
 Number of Electrons    NEL             ....  154
 Basis Dimension        Dim             ....  828

ORBITAL ENERGIES
----------------

  NO   OCC          E(Eh)            E(eV)
   0   2.0000     -91.891187     -2500.4863
   1   2.0000     -20.600042      -560.5556
   2   2.0000     -20.597901      -560.4974
   3   2.0000     -20.549359      -559.1765
   4   2.0000     -15.629225      -425.2928
   5   2.0000     -15.611405      -424.8079
   6   2.0000     -11.400694      -310.2287
   7   2.0000     -11.387291      -309.8639
   8   2.0000     -11.335896      -308.4654
   9   2.0000     -11.314948      -307.8954
  10   2.0000     -11.313930      -307.8677
  11   2.0000     -11.307137      -307.6828
  12   2.0000     -11.270107      -306.6752
  13   2.0000     -11.269146      -306.6491
  14   2.0000     -11.262421      -306.4660
  15   2.0000     -11.255182      -306.2691
  16   2.0000     -11.244094      -305.9674
  17   2.0000     -11.239895      -305.8531
  18   2.0000     -11.236109      -305.7501
  19   2.0000     -11.225585      -305.4637
  20   2.0000      -8.896278      -242.0800
  21   2.0000      -6.577864      -178.9928
  22   2.0000      -6.575840      -178.9377
  23   2.0000      -6.575261      -178.9220
  24   2.0000      -1.446707       -39.3669
  25   2.0000      -1.417705       -38.5777
  26   2.0000      -1.359005       -36.9804
  27   2.0000      -1.342635       -36.5350
  28   2.0000      -1.241285       -33.7771
  29   2.0000      -1.159204       -31.5436
  30   2.0000      -1.125438       -30.6247
  31   2.0000      -1.047764       -28.5111
  32   2.0000      -1.037610       -28.2348
  33   2.0000      -1.017768       -27.6949
  34   2.0000      -1.005766       -27.3683
  35   2.0000      -0.990167       -26.9438
  36   2.0000      -0.928017       -25.2526
  37   2.0000      -0.893085       -24.3021
  38   2.0000      -0.855889       -23.2899
  39   2.0000      -0.841789       -22.9062
  40   2.0000      -0.834670       -22.7125
  41   2.0000      -0.831395       -22.6234
  42   2.0000      -0.748832       -20.3768
  43   2.0000      -0.740864       -20.1599
  44   2.0000      -0.730390       -19.8749
  45   2.0000      -0.695721       -18.9315
  46   2.0000      -0.688088       -18.7238
  47   2.0000      -0.681106       -18.5338
  48   2.0000      -0.675581       -18.3835
  49   2.0000      -0.661864       -18.0102
  50   2.0000      -0.654359       -17.8060
  51   2.0000      -0.646975       -17.6051
  52   2.0000      -0.639008       -17.3883
  53   2.0000      -0.622785       -16.9468
  54   2.0000      -0.610546       -16.6138
  55   2.0000      -0.606000       -16.4901
  56   2.0000      -0.601657       -16.3719
  57   2.0000      -0.588314       -16.0088
  58   2.0000      -0.576854       -15.6970
  59   2.0000      -0.566440       -15.4136
  60   2.0000      -0.565779       -15.3956
  61   2.0000      -0.550737       -14.9863
  62   2.0000      -0.542192       -14.7538
  63   2.0000      -0.534736       -14.5509
  64   2.0000      -0.519457       -14.1352
  65   2.0000      -0.513106       -13.9623
  66   2.0000      -0.502835       -13.6828
  67   2.0000      -0.501009       -13.6331
  68   2.0000      -0.481987       -13.1155
  69   2.0000      -0.469342       -12.7715
  70   2.0000      -0.456562       -12.4237
  71   2.0000      -0.449151       -12.2220
  72   2.0000      -0.359886        -9.7930
  73   2.0000      -0.349415        -9.5081
  74   2.0000      -0.330722        -8.9994
  75   2.0000      -0.323406        -8.8003
  76   2.0000      -0.319875        -8.7042
  77   0.0000       0.080800         2.1987
  78   0.0000       0.106590         2.9005
  79   0.0000       0.114353         3.1117
  80   0.0000       0.129080         3.5124
  81   0.0000       0.131077         3.5668

MULLIKEN ATOMIC CHARGES
-----------------------
   0 C :   -0.302476
   1 C :    0.023659
   2 O :   -0.327561
   3 C :    0.428991
   4 O :   -0.385790
   5 C :   -0.225353
   6 C :    0.147547
   7 C :   -0.325580
   8 N :   -0.136286
   9 C :    0.199645
  10 S :   -0.438819
  11 N :   -0.224922
  12 C :    0.084732
  13 C :    0.009022
  14 C :   -0.206428
  15 C :   -0.142477
  16 C :   -0.267816
  17 C :    0.310703
  18 O :   -0.357181
  19 C :   -0.252530
  20 H :    0.107806
  21 H :    0.114774
  22 H :    0.103645
  23 H :    0.122845
  24 H :    0.087157
  25 H :    0.132242
  26 H :    0.140323
  27 H :    0.120413
  28 H :    0.196302
  29 H :    0.202328
  30 H :    0.167450
  31 H :    0.178560
  32 H :    0.164890
  33 H :    0.132300
  34 H :    0.240749
  35 H :    0.177140
Sum of atomic charges:   -0.0000000

LOEWDIN ATOMIC CHARGES
----------------------
   0 C :    0.108752
   1 C :   -0.022415
   2 O :    0.300514
   3 C :   -0.413617
   4 O :    0.121569
   5 C :   -0.081575
   6 C :   -0.094511
   7 C :    0.122258
   8 N :    0.403025
   9 C :   -0.459096
  10 S :   -0.036107
  11 N :    0.397949
  12 C :   -0.042755
  13 C :   -0.043687
  14 C :    0.020276
  15 C :    0.044855
  16 C :   -0.000929
  17 C :   -0.192666
  18 O :    0.395779
  19 C :    0.024947
  20 H :   -0.032698
  21 H :   -0.021206
  22 H :   -0.026008
  23 H :   -0.020942
  24 H :   -0.039698
  25 H :   -0.008063
  26 H :   -0.008835
  27 H :   -0.018647
  28 H :   -0.056868
  29 H :   -0.063169
  30 H :   -0.001892
  31 H :   -0.022358
  32 H :   -0.018649
  33 H :   -0.034976
  34 H :   -0.153401
  35 H :   -0.025154

  Mayer bond orders larger than 0.100000
B(  0-C ,  1-C ) :   0.9684 B(  0-C , 20-H ) :   0.9695 B(  0-C , 21-H ) :   0.9733
B(  0-C , 22-H ) :   0.9781 B(  1-C ,  2-O ) :   0.8986 B(  1-C , 23-H ) :   0.9828
B(  1-C , 24-H ) :   0.9682 B(  2-O ,  3-C ) :   1.1739 B(  3-C ,  4-O ) :   2.0751
B(  3-C ,  5-C ) :   0.9344 B(  5-C ,  6-C ) :   1.6895 B(  5-C , 12-C ) :   0.9463
B(  6-C ,  7-C ) :   0.9393 B(  6-C ,  8-N ) :   1.1144 B(  7-C , 25-H ) :   0.9782
B(  7-C , 26-H ) :   0.9697 B(  7-C , 27-H ) :   0.9665 B(  8-N ,  9-C ) :   1.1935
B(  8-N , 28-H ) :   0.9520 B(  9-C , 10-S ) :   1.6107 B(  9-C , 11-N ) :   1.2910
B( 11-N , 12-C ) :   0.9847 B( 11-N , 29-H ) :   0.9481 B( 12-C , 13-C ) :   0.9541
B( 12-C , 30-H ) :   0.9945 B( 13-C , 14-C ) :   1.3919 B( 13-C , 19-C ) :   1.3423
B( 14-C , 15-C ) :   1.3997 B( 14-C , 31-H ) :   0.9564 B( 15-C , 16-C ) :   1.3588
B( 15-C , 32-H ) :   0.9696 B( 16-C , 17-C ) :   1.3318 B( 16-C , 33-H ) :   0.9843
B( 17-C , 18-O ) :   1.1106 B( 17-C , 19-C ) :   1.3669 B( 18-O , 34-H ) :   0.9797
B( 19-C , 35-H ) :   0.9594

MP2 TOTAL ENERGY:    -1274.334302773 Eh
FINAL SINGLE POINT ENERGY     -1274.334302772672

DIPOLE MOMENT
-------------
                                X             Y             Z
Electronic contribution:      9.37077       7.25681       6.29397
Nuclear contribution   :    -10.93693      -8.17850      -6.86942
                        -----------------------------------------
Total Dipole Moment    :     -1.56615      -0.92169      -0.57545
                        -----------------------------------------
Magnitude (a.u.)       :      1.90617
Magnitude (Debye)      :      4.84510

Rotational constants in cm-1:     0.011583     0.009621     0.006632
Rotational constants in MHz :   347.245791   288.442539   198.814702

                             ****ORCA TERMINATED NORMALLY****
TOTAL RUN TIME: 0 days 1 hours 36 minutes 4 seconds 982 msec
