                         Program Version 5.0.0 -  RELEASE  -
|  1> ! ri-mp2 cc-pvtz cc-pvtz/c TightSCF NoKeepInts
|  2>
|  3> %scf
|  4>   MaxCore 4096
|  5> end
|  6> *xyz  0  1
|  7>     C       14.3049477   14.9842682   14.8187575
|  8>     C       15.6123677   14.5736846   15.5167186
|  9>     O       16.1892770   15.7607914   16.0835218
| 10>     C       17.3109408   15.6421011   16.8504261
| 11>     O       17.9261138   14.5916706   16.9398396
| 12>     C       17.6572098   16.8564416   17.6661693
| 13>     C       17.1099032   18.0916717   17.5111678
| 14>     C       16.0562051   18.5336855   16.5158420
| 15>     N       17.5690066   19.1566988   18.2939204
| 16>     C       18.6559152   19.1077405   19.1260822
| 17>     S       19.2144644   20.4519199   19.9114844
| 18>     N       19.2567379   17.8837822   19.2731949
| 19>     C       18.7236594   16.6157751   18.7414705
| 20>     C       18.1779016   15.7498352   19.8741909
| 21>     C       18.6390863   14.4318559   20.0486750
| 22>     C       18.1396069   13.6293500   21.0881228
| 23>     C       17.1696696   14.1482039   21.9625222
| 24>     C       16.7048194   15.4590468   21.7903423
| 25>     O       15.7639245   15.9610649   22.6294561
| 26>     C       17.2035375   16.2552290   20.7545451
| 27>     H       13.6070004   15.4318548   15.5371910
| 28>     H       13.8196649   14.1102153   14.3675522
| 29>     H       14.5031702   15.7151231   14.0249562
| 30>     H       15.3977936   13.8392521   16.3051804
| 31>     H       16.3031772   14.1193068   14.7935774
| 32>     H       16.3580720   18.2813896   15.4916633
| 33>     H       15.8748095   19.6149625   16.5410012
| 34>     H       15.0993359   18.0366124   16.7188984
| 35>     H       17.1411728   20.0638983   18.2000315
| 36>     H       20.0364576   17.8664052   19.9178985
| 37>     H       19.5589663   16.0779307   18.2700777
| 38>     H       19.3766666   14.0222362   19.3628004
| 39>     H       18.5002749   12.6093743   21.2078845
| 40>     H       16.7797903   13.5312525   22.7651686
| 41>     H       15.5728917   15.2793334   23.2908679
| 42>     H       16.8324619   17.2680359   20.6428013
| 43> *
| 44>
| 45>                          ****END OF INPUT****

CARTESIAN COORDINATES (ANGSTROEM)
---------------------------------
  C     14.304948   14.984268   14.818757
  C     15.612368   14.573685   15.516719
  O     16.189277   15.760791   16.083522
  C     17.310941   15.642101   16.850426
  O     17.926114   14.591671   16.939840
  C     17.657210   16.856442   17.666169
  C     17.109903   18.091672   17.511168
  C     16.056205   18.533686   16.515842
  N     17.569007   19.156699   18.293920
  C     18.655915   19.107740   19.126082
  S     19.214464   20.451920   19.911484
  N     19.256738   17.883782   19.273195
  C     18.723659   16.615775   18.741470
  C     18.177902   15.749835   19.874191
  C     18.639086   14.431856   20.048675
  C     18.139607   13.629350   21.088123
  C     17.169670   14.148204   21.962522
  C     16.704819   15.459047   21.790342
  O     15.763924   15.961065   22.629456
  C     17.203537   16.255229   20.754545
  H     13.607000   15.431855   15.537191
  H     13.819665   14.110215   14.367552
  H     14.503170   15.715123   14.024956
  H     15.397794   13.839252   16.305180
  H     16.303177   14.119307   14.793577
  H     16.358072   18.281390   15.491663
  H     15.874809   19.614963   16.541001
  H     15.099336   18.036612   16.718898
  H     17.141173   20.063898   18.200032
  H     20.036458   17.866405   19.917898
  H     19.558966   16.077931   18.270078
  H     19.376667   14.022236   19.362800
  H     18.500275   12.609374   21.207884
  H     16.779790   13.531252   22.765169
  H     15.572892   15.279333   23.290868
  H     16.832462   17.268036   20.642801

 Total Charge           Charge          ....    0
 Multiplicity           Mult            ....    1
 Number of Electrons    NEL             ....  154
 Basis Dimension        Dim             ....  828

ORBITAL ENERGIES
----------------

  NO   OCC          E(Eh)            E(eV)
   0   2.0000     -91.888054     -2500.4011
   1   2.0000     -20.605175      -560.6953
   2   2.0000     -20.590913      -560.3072
   3   2.0000     -20.544997      -559.0578
   4   2.0000     -15.628603      -425.2759
   5   2.0000     -15.606498      -424.6744
   6   2.0000     -11.395006      -310.0739
   7   2.0000     -11.382819      -309.7422
   8   2.0000     -11.337092      -308.4980
   9   2.0000     -11.306641      -307.6693
  10   2.0000     -11.305016      -307.6251
  11   2.0000     -11.299619      -307.4783
  12   2.0000     -11.260769      -306.4211
  13   2.0000     -11.259058      -306.3745
  14   2.0000     -11.252614      -306.1992
  15   2.0000     -11.246714      -306.0386
  16   2.0000     -11.236414      -305.7584
  17   2.0000     -11.235913      -305.7447
  18   2.0000     -11.232612      -305.6549
  19   2.0000     -11.229460      -305.5691
  20   2.0000      -8.893114      -241.9939
  21   2.0000      -6.574691      -178.9064
  22   2.0000      -6.572685      -178.8519
  23   2.0000      -6.572099      -178.8359
  24   2.0000      -1.456014       -39.6201
  25   2.0000      -1.410646       -38.3856
  26   2.0000      -1.357210       -36.9316
  27   2.0000      -1.339437       -36.4479
  28   2.0000      -1.236896       -33.6577
  29   2.0000      -1.151387       -31.3308
  30   2.0000      -1.119289       -30.4574
  31   2.0000      -1.045140       -28.4397
  32   2.0000      -1.036936       -28.2165
  33   2.0000      -1.008733       -27.4490
  34   2.0000      -0.997493       -27.1432
  35   2.0000      -0.983172       -26.7535
  36   2.0000      -0.920700       -25.0535
  37   2.0000      -0.889080       -24.1931
  38   2.0000      -0.846941       -23.0464
  39   2.0000      -0.834352       -22.7039
  40   2.0000      -0.826965       -22.5029
  41   2.0000      -0.817405       -22.2427
  42   2.0000      -0.762579       -20.7508
  43   2.0000      -0.735858       -20.0237
  44   2.0000      -0.724207       -19.7067
  45   2.0000      -0.690301       -18.7840
  46   2.0000      -0.684126       -18.6160
  47   2.0000      -0.681818       -18.5532
  48   2.0000      -0.675936       -18.3931
  49   2.0000      -0.659527       -17.9466
  50   2.0000      -0.649258       -17.6672
  51   2.0000      -0.643309       -17.5053
  52   2.0000      -0.634741       -17.2722
  53   2.0000      -0.600473       -16.3397
  54   2.0000      -0.599722       -16.3193
  55   2.0000      -0.594772       -16.1846
  56   2.0000      -0.593173       -16.1410
  57   2.0000      -0.583059       -15.8659
  58   2.0000      -0.572317       -15.5735
  59   2.0000      -0.564639       -15.3646
  60   2.0000      -0.562348       -15.3023
  61   2.0000      -0.554006       -15.0753
  62   2.0000      -0.540117       -14.6973
  63   2.0000      -0.519646       -14.1403
  64   2.0000      -0.516496       -14.0546
  65   2.0000      -0.511444       -13.9171
  66   2.0000      -0.505575       -13.7574
  67   2.0000      -0.495179       -13.4745
  68   2.0000      -0.480933       -13.0868
  69   2.0000      -0.464311       -12.6346
  70   2.0000      -0.459993       -12.5171
  71   2.0000      -0.455294       -12.3892
  72   2.0000      -0.354304        -9.6411
  73   2.0000      -0.343304        -9.3418
  74   2.0000      -0.327130        -8.9017
  75   2.0000      -0.315410        -8.5827
  76   2.0000      -0.312957        -8.5160
  77   0.0000       0.076108         2.0710
  78   0.0000       0.114204         3.1077
  79   0.0000       0.120295         3.2734
  80   0.0000       0.136077         3.7028
  81   0.0000       0.138565         3.7706

MULLIKEN ATOMIC CHARGES
-----------------------
   0 C :   -0.273704
   1 C :    0.046330
   2 O :   -0.332205
   3 C :    0.429836
   4 O :   -0.430658
   5 C :   -0.166470
   6 C :    0.144087
   7 C :   -0.288693
   8 N :   -0.120634
   9 C :    0.201122
  10 S :   -0.438954
  11 N :   -0.196537
  12 C :    0.033189
  13 C :    0.059889
  14 C :   -0.159803
  15 C :   -0.134030
  16 C :   -0.278876
  17 C :    0.311587
  18 O :   -0.359343
  19 C :   -0.273285
  20 H :    0.095170
  21 H :    0.101864
  22 H :    0.094884
  23 H :    0.093228
  24 H :    0.095829
  25 H :    0.127169
  26 H :    0.104251
  27 H :    0.127943
  28 H :    0.196584
  29 H :    0.193431
  30 H :    0.153291
  31 H :    0.152882
  32 H :    0.158763
  33 H :    0.127727
  34 H :    0.239979
  35 H :    0.164154
Sum of atomic charges:   -0.0000000

LOEWDIN ATOMIC CHARGES
----------------------
   0 C :    0.107189
   1 C :   -0.018305
   2 O :    0.307648
   3 C :   -0.414849
   4 O :    0.102385
   5 C :   -0.091266
   6 C :   -0.064736
   7 C :    0.124930
   8 N :    0.404943
   9 C :   -0.459087
  10 S :   -0.035749
  11 N :    0.398008
  12 C :   -0.046651
  13 C :   -0.038704
  14 C :    0.022572
  15 C :    0.040958
  16 C :   -0.002356
  17 C :   -0.192646
  18 O :    0.392863
  19 C :    0.028240
  20 H :   -0.027938
  21 H :   -0.022626
  22 H :   -0.027972
  23 H :   -0.027045
  24 H :   -0.028453
  25 H :   -0.008867
  26 H :   -0.021151
  27 H :   -0.009978
  28 H :   -0.059260
  29 H :   -0.063592
  30 H :   -0.005055
  31 H :   -0.025318
  32 H :   -0.021299
  33 H :   -0.036500
  34 H :   -0.154998
  35 H :   -0.025333

  Mayer bond orders larger than 0.100000
B(  0-C ,  1-C ) :   0.9700 B(  0-C , 20-H ) :   0.9776 B(  0-C , 21-H ) :   0.9790
B(  0-C , 22-H ) :   0.9775 B(  1-C ,  2-O ) :   0.9048 B(  1-C , 23-H ) :   0.9754
B(  1-C , 24-H ) :   0.9792 B(  2-O ,  3-C ) :   1.1763 B(  3-C ,  4-O ) :   1.9745
B(  3-C ,  5-C ) :   1.0637 B(  5-C ,  6-C ) :   1.6402 B(  5-C , 12-C ) :   0.9671
B(  6-C ,  7-C ) :   0.9547 B(  6-C ,  8-N ) :   1.1506 B(  7-C , 25-H ) :   0.9648
B(  7-C , 26-H ) :   0.9925 B(  7-C , 27-H ) :   0.9635 B(  8-N ,  9-C ) :   1.1768
B(  8-N , 28-H ) :   0.9487 B(  9-C , 10-S ) :   1.6111 B(  9-C , 11-N ) :   1.3051
B( 11-N , 12-C ) :   0.9928 B( 11-N , 29-H ) :   0.9520 B( 12-C , 13-C ) :   0.9480
B( 12-C , 30-H ) :   1.0004 B( 13-C , 14-C ) :   1.3755 B( 13-C , 19-C ) :   1.3690
B( 14-C , 15-C ) :   1.3947 B( 14-C , 31-H ) :   0.9651 B( 15-C , 16-C ) :   1.3623
B( 15-C , 32-H ) :   0.9715 B( 16-C , 17-C ) :   1.3316 B( 16-C , 33-H ) :   0.9861
B( 17-C , 18-O ) :   1.1078 B( 17-C , 19-C ) :   1.3796 B( 18-O , 34-H ) :   0.9807
B( 19-C , 35-H ) :   0.9586

MP2 TOTAL ENERGY:    -1274.350409217 Eh
FINAL SINGLE POINT ENERGY     -1274.350409217002

DIPOLE MOMENT
-------------
                                X             Y             Z
Electronic contribution:     11.86467       8.56493      11.53322
Nuclear contribution   :    -13.38703      -9.87742     -12.50363
                        -----------------------------------------
Total Dipole Moment    :     -1.52236      -1.31249      -0.97041
                        -----------------------------------------
Magnitude (a.u.)       :      2.23202
Magnitude (Debye)      :      5.67333

Rotational constants in cm-1:     0.010362     0.008710     0.005774
Rotational constants in MHz :   310.631623   261.112392   173.086562

                             ****ORCA TERMINATED NORMALLY****
TOTAL RUN TIME: 0 days 1 hours 52 minutes 12 seconds 240 msec
