                         Program Version 5.0.0 -  RELEASE  -
|  1> ! ri-mp2 cc-pvtz cc-pvtz/c TightSCF NoKeepInts
|  2>
|  3> %scf
|  4>   MaxCore 4096
|  5> end
|  6> *xyz  0  1
|  7>     C       15.1529330   14.6255280   17.0328351
|  8>     C       16.4346689   13.9957009   16.4407196
|  9>     O       17.5645163   14.8994895   16.4428339
| 10>     C       17.4096686   16.2248762   16.1532435
| 11>     O       16.7757878   16.5789156   15.1742825
| 12>     C       17.7655230   17.1257375   17.3057166
| 13>     C       17.4787479   18.4529895   17.3074467
| 14>     C       16.7158458   19.2306233   16.2564151
| 15>     N       17.9550894   19.2695767   18.3382506
| 16>     C       18.8779857   18.8819718   19.2735812
| 17>     S       19.5303112   19.9487321   20.3561130
| 18>     N       19.2390815   17.5583818   19.2607024
| 19>     C       18.5617919   16.5129514   18.4711605
| 20>     C       17.6974934   15.6601322   19.3954575
| 21>     C       17.9606383   14.2857314   19.5491160
| 22>     C       17.1715780   13.4968594   20.4029755
| 23>     C       16.1147190   14.0878255   21.1160336
| 24>     C       15.8561754   15.4580311   20.9746958
| 25>     O       14.8361920   16.0315256   21.6611236
| 26>     C       16.6416172   16.2400900   20.1222291
| 27>     H       15.3269565   15.0057850   18.0437989
| 28>     H       14.3591520   13.8715099   17.0938140
| 29>     H       14.7782797   15.4456918   16.4083570
| 30>     H       16.6946680   13.0920073   17.0065760
| 31>     H       16.2236825   13.6914478   15.4069290
| 32>     H       17.2388917   19.1912881   15.2923396
| 33>     H       16.5803699   20.2865639   16.5178971
| 34>     H       15.7186537   18.7979935   16.1051378
| 35>     H       17.7072041   20.2460345   18.3538232
| 36>     H       19.8999048   17.2942818   19.9800682
| 37>     H       19.3426513   15.8707055   18.0400397
| 38>     H       18.7762266   13.8255548   18.9974207
| 39>     H       17.3817063   12.4342508   20.5122445
| 40>     H       15.5031339   13.4830579   21.7776036
| 41>     H       14.4478764   15.3507354   22.2309611
| 42>     H       16.4272782   17.2994226   20.0320576
| 43> *
| 44>
| 45>                          ****END OF INPUT****

CARTESIAN COORDINATES (ANGSTROEM)
---------------------------------
  C     15.152933   14.625528   17.032835
  C     16.434669   13.995701   16.440720
  O     17.564516   14.899489   16.442834
  C     17.409669   16.224876   16.153243
  O     16.775788   16.578916   15.174283
  C     17.765523   17.125737   17.305717
  C     17.478748   18.452990   17.307447
  C     16.715846   19.230623   16.256415
  N     17.955089   19.269577   18.338251
  C     18.877986   18.881972   19.273581
  S     19.530311   19.948732   20.356113
  N     19.239082   17.558382   19.260702
  C     18.561792   16.512951   18.471160
  C     17.697493   15.660132   19.395457
  C     17.960638   14.285731   19.549116
  C     17.171578   13.496859   20.402976
  C     16.114719   14.087825   21.116034
  C     15.856175   15.458031   20.974696
  O     14.836192   16.031526   21.661124
  C     16.641617   16.240090   20.122229
  H     15.326956   15.005785   18.043799
  H     14.359152   13.871510   17.093814
  H     14.778280   15.445692   16.408357
  H     16.694668   13.092007   17.006576
  H     16.223682   13.691448   15.406929
  H     17.238892   19.191288   15.292340
  H     16.580370   20.286564   16.517897
  H     15.718654   18.797993   16.105138
  H     17.707204   20.246034   18.353823
  H     19.899905   17.294282   19.980068
  H     19.342651   15.870705   18.040040
  H     18.776227   13.825555   18.997421
  H     17.381706   12.434251   20.512244
  H     15.503134   13.483058   21.777604
  H     14.447876   15.350735   22.230961
  H     16.427278   17.299423   20.032058

 Total Charge           Charge          ....    0
 Multiplicity           Mult            ....    1
 Number of Electrons    NEL             ....  154
 Basis Dimension        Dim             ....  828

ORBITAL ENERGIES
----------------

  NO   OCC          E(Eh)            E(eV)
   0   2.0000     -91.890640     -2500.4714
   1   2.0000     -20.599199      -560.5327
   2   2.0000     -20.586069      -560.1754
   3   2.0000     -20.545060      -559.0595
   4   2.0000     -15.630951      -425.3398
   5   2.0000     -15.609256      -424.7494
   6   2.0000     -11.394217      -310.0524
   7   2.0000     -11.385217      -309.8075
   8   2.0000     -11.337282      -308.5031
   9   2.0000     -11.316744      -307.9443
  10   2.0000     -11.310987      -307.7876
  11   2.0000     -11.299324      -307.4702
  12   2.0000     -11.262174      -306.4593
  13   2.0000     -11.259810      -306.3950
  14   2.0000     -11.258479      -306.3588
  15   2.0000     -11.253175      -306.2145
  16   2.0000     -11.246314      -306.0278
  17   2.0000     -11.241013      -305.8835
  18   2.0000     -11.240813      -305.8781
  19   2.0000     -11.222153      -305.3703
  20   2.0000      -8.895664      -242.0633
  21   2.0000      -6.577230      -178.9755
  22   2.0000      -6.575236      -178.9213
  23   2.0000      -6.574640      -178.9050
  24   2.0000      -1.446185       -39.3527
  25   2.0000      -1.418948       -38.6115
  26   2.0000      -1.350983       -36.7621
  27   2.0000      -1.341828       -36.5130
  28   2.0000      -1.239951       -33.7408
  29   2.0000      -1.160003       -31.5653
  30   2.0000      -1.121060       -30.5056
  31   2.0000      -1.044521       -28.4229
  32   2.0000      -1.031650       -28.0726
  33   2.0000      -1.018252       -27.7080
  34   2.0000      -0.997657       -27.1476
  35   2.0000      -0.986077       -26.8325
  36   2.0000      -0.924356       -25.1530
  37   2.0000      -0.896511       -24.3953
  38   2.0000      -0.848247       -23.0820
  39   2.0000      -0.841590       -22.9008
  40   2.0000      -0.837003       -22.7760
  41   2.0000      -0.816802       -22.2263
  42   2.0000      -0.747089       -20.3293
  43   2.0000      -0.734117       -19.9763
  44   2.0000      -0.722434       -19.6584
  45   2.0000      -0.698449       -19.0058
  46   2.0000      -0.691247       -18.8098
  47   2.0000      -0.674494       -18.3539
  48   2.0000      -0.669525       -18.2187
  49   2.0000      -0.663166       -18.0457
  50   2.0000      -0.650805       -17.7093
  51   2.0000      -0.643327       -17.5058
  52   2.0000      -0.636000       -17.3064
  53   2.0000      -0.621745       -16.9186
  54   2.0000      -0.609424       -16.5833
  55   2.0000      -0.602304       -16.3895
  56   2.0000      -0.600230       -16.3331
  57   2.0000      -0.579971       -15.7818
  58   2.0000      -0.571522       -15.5519
  59   2.0000      -0.565526       -15.3888
  60   2.0000      -0.549377       -14.9493
  61   2.0000      -0.544434       -14.8148
  62   2.0000      -0.533342       -14.5130
  63   2.0000      -0.530698       -14.4410
  64   2.0000      -0.526989       -14.3401
  65   2.0000      -0.515310       -14.0223
  66   2.0000      -0.503286       -13.6951
  67   2.0000      -0.500071       -13.6076
  68   2.0000      -0.479607       -13.0508
  69   2.0000      -0.464197       -12.6314
  70   2.0000      -0.454144       -12.3579
  71   2.0000      -0.443569       -12.0701
  72   2.0000      -0.356614        -9.7040
  73   2.0000      -0.351574        -9.5668
  74   2.0000      -0.329914        -8.9774
  75   2.0000      -0.325062        -8.8454
  76   2.0000      -0.317488        -8.6393
  77   0.0000       0.069685         1.8962
  78   0.0000       0.104027         2.8307
  79   0.0000       0.122800         3.3415
  80   0.0000       0.129757         3.5309
  81   0.0000       0.135223         3.6796

MULLIKEN ATOMIC CHARGES
-----------------------
   0 C :   -0.333739
   1 C :    0.033603
   2 O :   -0.392259
   3 C :    0.494193
   4 O :   -0.422814
   5 C :   -0.226445
   6 C :    0.146351
   7 C :   -0.271296
   8 N :   -0.123065
   9 C :    0.201550
  10 S :   -0.434577
  11 N :   -0.196119
  12 C :    0.037370
  13 C :    0.038877
  14 C :   -0.177195
  15 C :   -0.136601
  16 C :   -0.270042
  17 C :    0.304127
  18 O :   -0.359001
  19 C :   -0.254385
  20 H :    0.114069
  21 H :    0.106926
  22 H :    0.119699
  23 H :    0.112411
  24 H :    0.121614
  25 H :    0.134312
  26 H :    0.094972
  27 H :    0.129852
  28 H :    0.198493
  29 H :    0.191916
  30 H :    0.152741
  31 H :    0.160017
  32 H :    0.163161
  33 H :    0.132652
  34 H :    0.240838
  35 H :    0.167795
Sum of atomic charges:    0.0000000

LOEWDIN ATOMIC CHARGES
----------------------
   0 C :    0.107204
   1 C :   -0.013072
   2 O :    0.285507
   3 C :   -0.419114
   4 O :    0.110103
   5 C :   -0.096758
   6 C :   -0.057516
   7 C :    0.131348
   8 N :    0.406787
   9 C :   -0.458460
  10 S :   -0.032166
  11 N :    0.396678
  12 C :   -0.052230
  13 C :   -0.040041
  14 C :    0.016993
  15 C :    0.039498
  16 C :   -0.001522
  17 C :   -0.191456
  18 O :    0.396551
  19 C :    0.031247
  20 H :   -0.030041
  21 H :   -0.024076
  22 H :   -0.027597
  23 H :   -0.026034
  24 H :   -0.028381
  25 H :   -0.003127
  26 H :   -0.023279
  27 H :   -0.005658
  28 H :   -0.057581
  29 H :   -0.064871
  30 H :   -0.007320
  31 H :   -0.028525
  32 H :   -0.020764
  33 H :   -0.034925
  34 H :   -0.153337
  35 H :   -0.024065

  Mayer bond orders larger than 0.100000
B(  0-C ,  1-C ) :   0.9555 B(  0-C , 20-H ) :   0.9681 B(  0-C , 21-H ) :   0.9778
B(  0-C , 22-H ) :   0.9731 B(  1-C ,  2-O ) :   0.8824 B(  1-C , 23-H ) :   0.9800
B(  1-C , 24-H ) :   0.9864 B(  2-O ,  3-C ) :   1.1116 B(  3-C ,  4-O ) :   1.9941
B(  3-C ,  5-C ) :   1.0636 B(  5-C ,  6-C ) :   1.6542 B(  5-C , 12-C ) :   0.9685
B(  6-C ,  7-C ) :   0.9692 B(  6-C ,  8-N ) :   1.1515 B(  7-C , 25-H ) :   0.9579
B(  7-C , 26-H ) :   0.9894 B(  7-C , 27-H ) :   0.9632 B(  8-N ,  9-C ) :   1.1785
B(  8-N , 28-H ) :   0.9482 B(  9-C , 10-S ) :   1.6175 B(  9-C , 11-N ) :   1.3004
B( 11-N , 12-C ) :   0.9864 B( 11-N , 29-H ) :   0.9535 B( 12-C , 13-C ) :   0.9373
B( 12-C , 30-H ) :   1.0030 B( 13-C , 14-C ) :   1.3629 B( 13-C , 19-C ) :   1.3754
B( 14-C , 15-C ) :   1.3819 B( 14-C , 31-H ) :   0.9685 B( 15-C , 16-C ) :   1.3663
B( 15-C , 32-H ) :   0.9703 B( 16-C , 17-C ) :   1.3305 B( 16-C , 33-H ) :   0.9839
B( 17-C , 18-O ) :   1.1127 B( 17-C , 19-C ) :   1.3761 B( 18-O , 34-H ) :   0.9796
B( 19-C , 35-H ) :   0.9581

MP2 TOTAL ENERGY:    -1274.336328450 Eh
FINAL SINGLE POINT ENERGY     -1274.336328450444

DIPOLE MOMENT
-------------
                                X             Y             Z
Electronic contribution:     10.07616       8.92925       5.93957
Nuclear contribution   :    -11.14974     -10.57510      -5.96590
                        -----------------------------------------
Total Dipole Moment    :     -1.07358      -1.64585      -0.02633
                        -----------------------------------------
Magnitude (a.u.)       :      1.96522
Magnitude (Debye)      :      4.99519

Rotational constants in cm-1:     0.012104     0.009478     0.006569
Rotational constants in MHz :   362.869992   284.136145   196.938853

                             ****ORCA TERMINATED NORMALLY****
TOTAL RUN TIME: 0 days 2 hours 23 minutes 20 seconds 541 msec
