                         Program Version 5.0.0 -  RELEASE  -
|  1> ! ri-mp2 cc-pvtz cc-pvtz/c TightSCF NoKeepInts
|  2>
|  3> %scf
|  4>   MaxCore 4096
|  5> end
|  6> *xyz  0  1
|  7>     C       15.0383758   15.1424664   17.5619818
|  8>     C       15.5498247   15.4794865   16.1512853
|  9>     O       16.9130672   15.0317061   16.0013526
| 10>     C       18.0614791   15.6367812   16.4570227
| 11>     O       19.1015036   15.0048028   16.4380539
| 12>     C       17.9217118   16.8218748   17.3586448
| 13>     C       17.4592895   18.0187767   16.9244200
| 14>     C       17.0500764   18.3890332   15.5137604
| 15>     N       17.4723901   19.1237494   17.7782487
| 16>     C       18.0793201   19.1533671   19.0059927
| 17>     S       18.1271171   20.5313696   19.9185330
| 18>     N       18.6555876   17.9840651   19.4354009
| 19>     C       18.5533708   16.6797123   18.7502178
| 20>     C       17.8371897   15.6418833   19.6146766
| 21>     C       18.2119602   14.2873521   19.5355791
| 22>     C       17.5641586   13.3144370   20.3143826
| 23>     C       16.5318198   13.6964625   21.1869138
| 24>     C       16.1567575   15.0433368   21.2749651
| 25>     O       15.1547842   15.4149816   22.1106713
| 26>     C       16.8035134   16.0104745   20.4986726
| 27>     H       15.3450042   15.9117574   18.2764774
| 28>     H       15.4208642   14.1709137   17.9011047
| 29>     H       13.9425281   15.1015977   17.5727130
| 30>     H       14.9374305   14.9178964   15.4337830
| 31>     H       15.4077193   16.5385703   15.9303617
| 32>     H       17.1895720   17.5637356   14.8048716
| 33>     H       17.6612499   19.2221587   15.1428665
| 34>     H       15.9997634   18.7027135   15.4714587
| 35>     H       17.0817144   20.0000664   17.4692857
| 36>     H       19.0910741   18.0323615   20.3479704
| 37>     H       19.5809237   16.3157236   18.6008528
| 38>     H       19.0070241   13.9840419   18.8575365
| 39>     H       17.8629101   12.2703820   20.2365427
| 40>     H       16.0274731   12.9476478   21.7886607
| 41>     H       14.8637935   14.6222071   22.5861000
| 42>     H       16.4846581   17.0441074   20.5826389
| 43> *
| 44>
| 45>                          ****END OF INPUT****

CARTESIAN COORDINATES (ANGSTROEM)
---------------------------------
  C     15.038376   15.142466   17.561982
  C     15.549825   15.479487   16.151285
  O     16.913067   15.031706   16.001353
  C     18.061479   15.636781   16.457023
  O     19.101504   15.004803   16.438054
  C     17.921712   16.821875   17.358645
  C     17.459290   18.018777   16.924420
  C     17.050076   18.389033   15.513760
  N     17.472390   19.123749   17.778249
  C     18.079320   19.153367   19.005993
  S     18.127117   20.531370   19.918533
  N     18.655588   17.984065   19.435401
  C     18.553371   16.679712   18.750218
  C     17.837190   15.641883   19.614677
  C     18.211960   14.287352   19.535579
  C     17.564159   13.314437   20.314383
  C     16.531820   13.696463   21.186914
  C     16.156758   15.043337   21.274965
  O     15.154784   15.414982   22.110671
  C     16.803513   16.010475   20.498673
  H     15.345004   15.911757   18.276477
  H     15.420864   14.170914   17.901105
  H     13.942528   15.101598   17.572713
  H     14.937430   14.917896   15.433783
  H     15.407719   16.538570   15.930362
  H     17.189572   17.563736   14.804872
  H     17.661250   19.222159   15.142866
  H     15.999763   18.702714   15.471459
  H     17.081714   20.000066   17.469286
  H     19.091074   18.032362   20.347970
  H     19.580924   16.315724   18.600853
  H     19.007024   13.984042   18.857536
  H     17.862910   12.270382   20.236543
  H     16.027473   12.947648   21.788661
  H     14.863793   14.622207   22.586100
  H     16.484658   17.044107   20.582639

 Total Charge           Charge          ....    0
 Multiplicity           Mult            ....    1
 Number of Electrons    NEL             ....  154
 Basis Dimension        Dim             ....  828

ORBITAL ENERGIES
----------------

  NO   OCC          E(Eh)            E(eV)
   0   2.0000     -91.890686     -2500.4727
   1   2.0000     -20.601618      -560.5985
   2   2.0000     -20.597575      -560.4885
   3   2.0000     -20.549928      -559.1920
   4   2.0000     -15.627923      -425.2574
   5   2.0000     -15.611691      -424.8157
   6   2.0000     -11.401010      -310.2372
   7   2.0000     -11.387181      -309.8610
   8   2.0000     -11.332632      -308.3766
   9   2.0000     -11.315451      -307.9091
  10   2.0000     -11.314326      -307.8785
  11   2.0000     -11.306487      -307.6652
  12   2.0000     -11.272284      -306.7345
  13   2.0000     -11.269016      -306.6455
  14   2.0000     -11.262626      -306.4716
  15   2.0000     -11.254666      -306.2550
  16   2.0000     -11.243695      -305.9565
  17   2.0000     -11.239447      -305.8409
  18   2.0000     -11.235885      -305.7440
  19   2.0000     -11.225732      -305.4677
  20   2.0000      -8.895791      -242.0668
  21   2.0000      -6.577381      -178.9796
  22   2.0000      -6.575352      -178.9244
  23   2.0000      -6.574777      -178.9088
  24   2.0000      -1.447567       -39.3903
  25   2.0000      -1.417378       -38.5688
  26   2.0000      -1.359351       -36.9898
  27   2.0000      -1.341690       -36.5092
  28   2.0000      -1.240908       -33.7668
  29   2.0000      -1.158936       -31.5363
  30   2.0000      -1.125760       -30.6335
  31   2.0000      -1.048085       -28.5198
  32   2.0000      -1.038331       -28.2544
  33   2.0000      -1.017638       -27.6913
  34   2.0000      -1.005911       -27.3722
  35   2.0000      -0.990324       -26.9481
  36   2.0000      -0.928129       -25.2557
  37   2.0000      -0.893145       -24.3037
  38   2.0000      -0.855749       -23.2861
  39   2.0000      -0.841163       -22.8892
  40   2.0000      -0.834265       -22.7015
  41   2.0000      -0.831692       -22.6315
  42   2.0000      -0.751016       -20.4362
  43   2.0000      -0.741087       -20.1660
  44   2.0000      -0.730443       -19.8764
  45   2.0000      -0.695476       -18.9249
  46   2.0000      -0.688072       -18.7234
  47   2.0000      -0.680636       -18.5211
  48   2.0000      -0.675640       -18.3851
  49   2.0000      -0.663426       -18.0527
  50   2.0000      -0.653082       -17.7713
  51   2.0000      -0.642708       -17.4890
  52   2.0000      -0.638970       -17.3872
  53   2.0000      -0.621988       -16.9251
  54   2.0000      -0.611588       -16.6422
  55   2.0000      -0.606057       -16.4916
  56   2.0000      -0.601521       -16.3682
  57   2.0000      -0.590269       -16.0620
  58   2.0000      -0.578032       -15.7291
  59   2.0000      -0.569660       -15.5012
  60   2.0000      -0.566050       -15.4030
  61   2.0000      -0.554768       -15.0960
  62   2.0000      -0.537241       -14.6191
  63   2.0000      -0.535626       -14.5751
  64   2.0000      -0.518009       -14.0957
  65   2.0000      -0.512534       -13.9468
  66   2.0000      -0.504148       -13.7186
  67   2.0000      -0.501492       -13.6463
  68   2.0000      -0.482955       -13.1419
  69   2.0000      -0.467676       -12.7261
  70   2.0000      -0.454570       -12.3695
  71   2.0000      -0.449909       -12.2427
  72   2.0000      -0.359048        -9.7702
  73   2.0000      -0.348336        -9.4787
  74   2.0000      -0.330323        -8.9885
  75   2.0000      -0.323032        -8.7901
  76   2.0000      -0.319440        -8.6924
  77   0.0000       0.085130         2.3165
  78   0.0000       0.107019         2.9121
  79   0.0000       0.111521         3.0347
  80   0.0000       0.128746         3.5034
  81   0.0000       0.131154         3.5689

MULLIKEN ATOMIC CHARGES
-----------------------
   0 C :   -0.310653
   1 C :    0.014454
   2 O :   -0.316711
   3 C :    0.415732
   4 O :   -0.384780
   5 C :   -0.224802
   6 C :    0.152167
   7 C :   -0.325869
   8 N :   -0.138931
   9 C :    0.205896
  10 S :   -0.440881
  11 N :   -0.232185
  12 C :    0.102445
  13 C :    0.020040
  14 C :   -0.217527
  15 C :   -0.140050
  16 C :   -0.274616
  17 C :    0.326085
  18 O :   -0.357327
  19 C :   -0.277191
  20 H :    0.104704
  21 H :    0.122553
  22 H :    0.109266
  23 H :    0.126167
  24 H :    0.088629
  25 H :    0.124658
  26 H :    0.143673
  27 H :    0.119719
  28 H :    0.195612
  29 H :    0.204167
  30 H :    0.167963
  31 H :    0.177864
  32 H :    0.165158
  33 H :    0.131899
  34 H :    0.240998
  35 H :    0.181676
Sum of atomic charges:    0.0000000

LOEWDIN ATOMIC CHARGES
----------------------
   0 C :    0.106246
   1 C :   -0.023228
   2 O :    0.306335
   3 C :   -0.415087
   4 O :    0.122643
   5 C :   -0.077616
   6 C :   -0.102057
   7 C :    0.120824
   8 N :    0.401957
   9 C :   -0.457793
  10 S :   -0.037494
  11 N :    0.398259
  12 C :   -0.041522
  13 C :   -0.041233
  14 C :    0.020620
  15 C :    0.043751
  16 C :   -0.001461
  17 C :   -0.192276
  18 O :    0.395632
  19 C :    0.026923
  20 H :   -0.034602
  21 H :   -0.018976
  22 H :   -0.026350
  23 H :   -0.020799
  24 H :   -0.039532
  25 H :   -0.008771
  26 H :   -0.007905
  27 H :   -0.018361
  28 H :   -0.057582
  29 H :   -0.063326
  30 H :   -0.001726
  31 H :   -0.022288
  32 H :   -0.018634
  33 H :   -0.035076
  34 H :   -0.153456
  35 H :   -0.026038

  Mayer bond orders larger than 0.100000
B(  0-C ,  1-C ) :   0.9581 B(  0-C , 20-H ) :   0.9724 B(  0-C , 21-H ) :   0.9692
B(  0-C , 22-H ) :   0.9779 B(  1-C ,  2-O ) :   0.9049 B(  1-C , 23-H ) :   0.9859
B(  1-C , 24-H ) :   0.9718 B(  2-O ,  3-C ) :   1.1755 B(  3-C ,  4-O ) :   2.0784
B(  3-C ,  5-C ) :   0.9259 B(  5-C ,  6-C ) :   1.6939 B(  5-C , 12-C ) :   0.9419
B(  6-C ,  7-C ) :   0.9411 B(  6-C ,  8-N ) :   1.1100 B(  7-C , 25-H ) :   0.9813
B(  7-C , 26-H ) :   0.9671 B(  7-C , 27-H ) :   0.9678 B(  8-N ,  9-C ) :   1.1980
B(  8-N , 28-H ) :   0.9527 B(  9-C , 10-S ) :   1.6073 B(  9-C , 11-N ) :   1.2891
B( 11-N , 12-C ) :   0.9838 B( 11-N , 29-H ) :   0.9467 B( 12-C , 13-C ) :   0.9573
B( 12-C , 30-H ) :   0.9934 B( 13-C , 14-C ) :   1.3871 B( 13-C , 19-C ) :   1.3355
B( 14-C , 15-C ) :   1.4043 B( 14-C , 31-H ) :   0.9573 B( 15-C , 16-C ) :   1.3563
B( 15-C , 32-H ) :   0.9695 B( 16-C , 17-C ) :   1.3322 B( 16-C , 33-H ) :   0.9848
B( 17-C , 18-O ) :   1.1090 B( 17-C , 19-C ) :   1.3628 B( 18-O , 34-H ) :   0.9796
B( 19-C , 35-H ) :   0.9576

MP2 TOTAL ENERGY:    -1274.329370845 Eh
FINAL SINGLE POINT ENERGY     -1274.329370845159

DIPOLE MOMENT
-------------
                                X             Y             Z
Electronic contribution:      9.17487       6.63435       6.20307
Nuclear contribution   :    -10.69430      -7.57998      -6.90367
                        -----------------------------------------
Total Dipole Moment    :     -1.51943      -0.94563      -0.70060
                        -----------------------------------------
Magnitude (a.u.)       :      1.92191
Magnitude (Debye)      :      4.88510

Rotational constants in cm-1:     0.011880     0.009518     0.006692
Rotational constants in MHz :   356.168227   285.335237   200.625356

                             ****ORCA TERMINATED NORMALLY****
TOTAL RUN TIME: 0 days 1 hours 38 minutes 11 seconds 781 msec
