                         Program Version 5.0.0 -  RELEASE  -
|  1> ! ri-mp2 cc-pvtz cc-pvtz/c TightSCF NoKeepInts
|  2>
|  3> %scf
|  4>   MaxCore 4096
|  5> end
|  6> *xyz  0  1
|  7>     C       15.4506060   13.8186668   17.1956184
|  8>     C       16.4309651   14.0982539   16.0422741
|  9>     O       17.3654539   15.1069802   16.4711737
| 10>     C       17.0614958   16.4273767   16.2839253
| 11>     O       16.2657787   16.7938912   15.4357158
| 12>     C       17.6203053   17.3148446   17.3625723
| 13>     C       17.3925340   18.6531288   17.3936747
| 14>     C       16.5634433   19.4670179   16.4230397
| 15>     N       17.9858581   19.4425771   18.3833238
| 16>     C       18.9149710   18.9988068   19.2857559
| 17>     S       19.6607190   20.0223395   20.3499226
| 18>     N       19.2047576   17.6588266   19.2552606
| 19>     C       18.4886949   16.6550310   18.4476251
| 20>     C       17.6882448   15.7446382   19.3742145
| 21>     C       18.1811832   14.4697442   19.7105448
| 22>     C       17.4622590   13.6307757   20.5787840
| 23>     C       16.2396046   14.0696109   21.1149240
| 24>     C       15.7485477   15.3406709   20.7865438
| 25>     O       14.5696349   15.7681481   21.3044020
| 26>     C       16.4683598   16.1753427   19.9262120
| 27>     H       15.9853472   13.4525266   18.0793549
| 28>     H       14.7181922   13.0577999   16.9006693
| 29>     H       14.9044881   14.7292292   17.4725736
| 30>     H       16.9774729   13.1740371   15.8153265
| 31>     H       15.8909859   14.3999400   15.1343399
| 32>     H       15.5213961   19.1223669   16.4238287
| 33>     H       16.9444410   19.3538000   15.4001002
| 34>     H       16.5576718   20.5381768   16.6562818
| 35>     H       17.7885417   20.4299808   18.4164834
| 36>     H       19.8673629   17.3556525   19.9571545
| 37>     H       19.2459016   16.0438036   17.9365854
| 38>     H       19.1253100   14.1272379   19.2956372
| 39>     H       17.8521204   12.6465325   20.8326279
| 40>     H       15.6799723   13.4251394   21.7848315
| 41>     H       14.2479037   15.0787726   21.9045645
| 42>     H       16.0764751   17.1603322   19.6981339
| 43> *
| 44>
| 45>                          ****END OF INPUT****

CARTESIAN COORDINATES (ANGSTROEM)
---------------------------------
  C     15.450606   13.818667   17.195618
  C     16.430965   14.098254   16.042274
  O     17.365454   15.106980   16.471174
  C     17.061496   16.427377   16.283925
  O     16.265779   16.793891   15.435716
  C     17.620305   17.314845   17.362572
  C     17.392534   18.653129   17.393675
  C     16.563443   19.467018   16.423040
  N     17.985858   19.442577   18.383324
  C     18.914971   18.998807   19.285756
  S     19.660719   20.022340   20.349923
  N     19.204758   17.658827   19.255261
  C     18.488695   16.655031   18.447625
  C     17.688245   15.744638   19.374215
  C     18.181183   14.469744   19.710545
  C     17.462259   13.630776   20.578784
  C     16.239605   14.069611   21.114924
  C     15.748548   15.340671   20.786544
  O     14.569635   15.768148   21.304402
  C     16.468360   16.175343   19.926212
  H     15.985347   13.452527   18.079355
  H     14.718192   13.057800   16.900669
  H     14.904488   14.729229   17.472574
  H     16.977473   13.174037   15.815326
  H     15.890986   14.399940   15.134340
  H     15.521396   19.122367   16.423829
  H     16.944441   19.353800   15.400100
  H     16.557672   20.538177   16.656282
  H     17.788542   20.429981   18.416483
  H     19.867363   17.355652   19.957155
  H     19.245902   16.043804   17.936585
  H     19.125310   14.127238   19.295637
  H     17.852120   12.646532   20.832628
  H     15.679972   13.425139   21.784831
  H     14.247904   15.078773   21.904564
  H     16.076475   17.160332   19.698134

 Total Charge           Charge          ....    0
 Multiplicity           Mult            ....    1
 Number of Electrons    NEL             ....  154
 Basis Dimension        Dim             ....  828

ORBITAL ENERGIES
----------------

  NO   OCC          E(Eh)            E(eV)
   0   2.0000     -91.889103     -2500.4296
   1   2.0000     -20.598592      -560.5162
   2   2.0000     -20.597583      -560.4887
   3   2.0000     -20.541950      -558.9749
   4   2.0000     -15.629574      -425.3023
   5   2.0000     -15.608463      -424.7279
   6   2.0000     -11.394749      -310.0669
   7   2.0000     -11.384147      -309.7784
   8   2.0000     -11.336733      -308.4882
   9   2.0000     -11.315714      -307.9162
  10   2.0000     -11.309649      -307.7512
  11   2.0000     -11.293442      -307.3102
  12   2.0000     -11.261404      -306.4384
  13   2.0000     -11.259435      -306.3848
  14   2.0000     -11.257176      -306.3233
  15   2.0000     -11.252438      -306.1944
  16   2.0000     -11.244542      -305.9796
  17   2.0000     -11.239475      -305.8417
  18   2.0000     -11.239266      -305.8360
  19   2.0000     -11.220530      -305.3261
  20   2.0000      -8.894157      -242.0223
  21   2.0000      -6.575730      -178.9347
  22   2.0000      -6.573727      -178.8802
  23   2.0000      -6.573140      -178.8642
  24   2.0000      -1.449759       -39.4500
  25   2.0000      -1.418214       -38.5916
  26   2.0000      -1.353428       -36.8287
  27   2.0000      -1.340615       -36.4800
  28   2.0000      -1.239134       -33.7185
  29   2.0000      -1.158991       -31.5378
  30   2.0000      -1.120778       -30.4979
  31   2.0000      -1.043557       -28.3966
  32   2.0000      -1.034092       -28.1391
  33   2.0000      -1.016838       -27.6696
  34   2.0000      -0.996153       -27.1067
  35   2.0000      -0.984510       -26.7899
  36   2.0000      -0.923384       -25.1266
  37   2.0000      -0.891535       -24.2599
  38   2.0000      -0.847562       -23.0633
  39   2.0000      -0.839234       -22.8367
  40   2.0000      -0.835066       -22.7233
  41   2.0000      -0.814279       -22.1576
  42   2.0000      -0.757725       -20.6187
  43   2.0000      -0.733536       -19.9605
  44   2.0000      -0.722853       -19.6698
  45   2.0000      -0.697546       -18.9812
  46   2.0000      -0.689021       -18.7492
  47   2.0000      -0.678493       -18.4627
  48   2.0000      -0.669551       -18.2194
  49   2.0000      -0.664786       -18.0898
  50   2.0000      -0.648486       -17.6462
  51   2.0000      -0.642915       -17.4946
  52   2.0000      -0.634435       -17.2639
  53   2.0000      -0.609450       -16.5840
  54   2.0000      -0.602859       -16.4046
  55   2.0000      -0.600000       -16.3268
  56   2.0000      -0.599220       -16.3056
  57   2.0000      -0.579137       -15.7591
  58   2.0000      -0.570979       -15.5371
  59   2.0000      -0.566699       -15.4207
  60   2.0000      -0.558482       -15.1971
  61   2.0000      -0.545936       -14.8557
  62   2.0000      -0.535444       -14.5702
  63   2.0000      -0.528462       -14.3802
  64   2.0000      -0.526903       -14.3377
  65   2.0000      -0.513253       -13.9663
  66   2.0000      -0.502754       -13.6806
  67   2.0000      -0.498382       -13.5617
  68   2.0000      -0.479590       -13.0503
  69   2.0000      -0.463860       -12.6223
  70   2.0000      -0.452693       -12.3184
  71   2.0000      -0.446263       -12.1434
  72   2.0000      -0.355062        -9.6617
  73   2.0000      -0.351250        -9.5580
  74   2.0000      -0.328743        -8.9456
  75   2.0000      -0.323358        -8.7990
  76   2.0000      -0.316684        -8.6174
  77   0.0000       0.075362         2.0507
  78   0.0000       0.104572         2.8455
  79   0.0000       0.123505         3.3608
  80   0.0000       0.131845         3.5877
  81   0.0000       0.135989         3.7005

MULLIKEN ATOMIC CHARGES
-----------------------
   0 C :   -0.308073
   1 C :    0.024512
   2 O :   -0.362796
   3 C :    0.460431
   4 O :   -0.430090
   5 C :   -0.241049
   6 C :    0.157289
   7 C :   -0.269840
   8 N :   -0.123071
   9 C :    0.216404
  10 S :   -0.441010
  11 N :   -0.209014
  12 C :    0.064637
  13 C :    0.079811
  14 C :   -0.195657
  15 C :   -0.136811
  16 C :   -0.277997
  17 C :    0.319018
  18 O :   -0.358423
  19 C :   -0.265411
  20 H :    0.104702
  21 H :    0.108803
  22 H :    0.106508
  23 H :    0.105979
  24 H :    0.120504
  25 H :    0.131036
  26 H :    0.131994
  27 H :    0.095156
  28 H :    0.197529
  29 H :    0.195088
  30 H :    0.149307
  31 H :    0.147736
  32 H :    0.162467
  33 H :    0.131402
  34 H :    0.241459
  35 H :    0.167468
Sum of atomic charges:   -0.0000000

LOEWDIN ATOMIC CHARGES
----------------------
   0 C :    0.104161
   1 C :   -0.015538
   2 O :    0.302505
   3 C :   -0.415297
   4 O :    0.098400
   5 C :   -0.095364
   6 C :   -0.058417
   7 C :    0.131356
   8 N :    0.407143
   9 C :   -0.455073
  10 S :   -0.035537
  11 N :    0.396344
  12 C :   -0.052247
  13 C :   -0.035582
  14 C :    0.011087
  15 C :    0.040495
  16 C :   -0.002212
  17 C :   -0.188463
  18 O :    0.396130
  19 C :    0.032478
  20 H :   -0.026659
  21 H :   -0.027277
  22 H :   -0.027070
  23 H :   -0.026838
  24 H :   -0.028800
  25 H :   -0.004948
  26 H :   -0.003629
  27 H :   -0.023370
  28 H :   -0.057478
  29 H :   -0.065203
  30 H :   -0.009702
  31 H :   -0.030442
  32 H :   -0.020857
  33 H :   -0.035438
  34 H :   -0.153313
  35 H :   -0.025346

  Mayer bond orders larger than 0.100000
B(  0-C ,  1-C ) :   0.9632 B(  0-C , 20-H ) :   0.9724 B(  0-C , 21-H ) :   0.9780
B(  0-C , 22-H ) :   0.9751 B(  1-C ,  2-O ) :   0.8863 B(  1-C , 23-H ) :   0.9854
B(  1-C , 24-H ) :   0.9774 B(  2-O ,  3-C ) :   1.1562 B(  3-C ,  4-O ) :   1.9794
B(  3-C ,  5-C ) :   1.0572 B(  5-C ,  6-C ) :   1.6518 B(  5-C , 12-C ) :   0.9747
B(  6-C ,  7-C ) :   0.9673 B(  6-C ,  8-N ) :   1.1638 B(  7-C , 25-H ) :   0.9605
B(  7-C , 26-H ) :   0.9597 B(  7-C , 27-H ) :   0.9904 B(  8-N ,  9-C ) :   1.1832
B(  8-N , 28-H ) :   0.9477 B(  9-C , 10-S ) :   1.6032 B(  9-C , 11-N ) :   1.3085
B( 11-N , 12-C ) :   0.9707 B( 11-N , 29-H ) :   0.9519 B( 12-C , 13-C ) :   0.9411
B( 12-C , 30-H ) :   1.0023 B( 13-C , 14-C ) :   1.3514 B( 13-C , 19-C ) :   1.3714
B( 14-C , 15-C ) :   1.3907 B( 14-C , 31-H ) :   0.9738 B( 15-C , 16-C ) :   1.3598
B( 15-C , 32-H ) :   0.9713 B( 16-C , 17-C ) :   1.3319 B( 16-C , 33-H ) :   0.9850
B( 17-C , 18-O ) :   1.1103 B( 17-C , 19-C ) :   1.3686 B( 18-O , 34-H ) :   0.9794
B( 19-C , 35-H ) :   0.9584

MP2 TOTAL ENERGY:    -1274.349010100 Eh
FINAL SINGLE POINT ENERGY     -1274.349010099935

DIPOLE MOMENT
-------------
                                X             Y             Z
Electronic contribution:      8.78736      10.63131       5.83546
Nuclear contribution   :     -9.63250     -12.35098      -6.08668
                        -----------------------------------------
Total Dipole Moment    :     -0.84514      -1.71967      -0.25122
                        -----------------------------------------
Magnitude (a.u.)       :      1.93253
Magnitude (Debye)      :      4.91209

Rotational constants in cm-1:     0.012518     0.008831     0.006431
Rotational constants in MHz :   375.275111   264.754911   192.799600

                             ****ORCA TERMINATED NORMALLY****
TOTAL RUN TIME: 0 days 1 hours 37 minutes 36 seconds 494 msec
