                         Program Version 5.0.0 -  RELEASE  -
|  1> ! ri-mp2 cc-pvtz cc-pvtz/c TightSCF NoKeepInts
|  2>
|  3> %scf
|  4>   MaxCore 4096
|  5> end
|  6> *xyz  0  1
|  7>     C       15.4789223   13.3796869   16.0285903
|  8>     C       16.1998430   14.4691059   16.8386763
|  9>     O       16.7420142   15.4041976   15.8945202
| 10>     C       16.6974271   16.7564038   16.1009838
| 11>     O       16.1647075   17.4497833   15.2554560
| 12>     C       17.4117727   17.3208960   17.3092231
| 13>     C       17.3603641   18.6487189   17.6046998
| 14>     C       16.5321520   19.7195744   16.9263154
| 15>     N       18.1881540   19.1760059   18.6024808
| 16>     C       19.2742603   18.5214364   19.1212029
| 17>     S       20.3823052   19.2767614   20.0894395
| 18>     N       19.4068512   17.2037708   18.7643899
| 19>     C       18.3214693   16.4127650   18.1587780
| 20>     C       17.5966669   15.6807004   19.2894841
| 21>     C       18.1124466   14.4578047   19.7610790
| 22>     C       17.4727989   13.7602760   20.7991326
| 23>     C       16.3107787   14.2931461   21.3811601
| 24>     C       15.8023417   15.5176934   20.9290181
| 25>     O       14.6840485   16.0395470   21.4921535
| 26>     C       16.4384862   16.2083506   19.8927799
| 27>     H       15.0448634   12.6256959   16.6963723
| 28>     H       16.1773549   12.8766820   15.3481319
| 29>     H       14.6692295   13.8165526   15.4303152
| 30>     H       15.4830263   14.9560245   17.5137715
| 31>     H       16.9985334   13.9997916   17.4219577
| 32>     H       15.4841398   19.4057863   16.8399073
| 33>     H       16.9024165   19.9048040   15.9095618
| 34>     H       16.5429985   20.6745599   17.4645907
| 35>     H       18.1108512   20.1496632   18.8499479
| 36>     H       20.2115284   16.7394698   19.1646007
| 37>     H       18.7797023   15.6677399   17.4928422
| 38>     H       19.0158793   14.0449460   19.3195531
| 39>     H       17.8810574   12.8153008   21.1544460
| 40>     H       15.8149300   13.7600079   22.1860360
| 41>     H       14.4267421   15.4586986   22.2244799
| 42>     H       16.0259364   17.1596525   19.5779226
| 43> *
| 44>
| 45>                          ****END OF INPUT****

CARTESIAN COORDINATES (ANGSTROEM)
---------------------------------
  C     15.478922   13.379687   16.028590
  C     16.199843   14.469106   16.838676
  O     16.742014   15.404198   15.894520
  C     16.697427   16.756404   16.100984
  O     16.164707   17.449783   15.255456
  C     17.411773   17.320896   17.309223
  C     17.360364   18.648719   17.604700
  C     16.532152   19.719574   16.926315
  N     18.188154   19.176006   18.602481
  C     19.274260   18.521436   19.121203
  S     20.382305   19.276761   20.089440
  N     19.406851   17.203771   18.764390
  C     18.321469   16.412765   18.158778
  C     17.596667   15.680700   19.289484
  C     18.112447   14.457805   19.761079
  C     17.472799   13.760276   20.799133
  C     16.310779   14.293146   21.381160
  C     15.802342   15.517693   20.929018
  O     14.684048   16.039547   21.492153
  C     16.438486   16.208351   19.892780
  H     15.044863   12.625696   16.696372
  H     16.177355   12.876682   15.348132
  H     14.669229   13.816553   15.430315
  H     15.483026   14.956024   17.513772
  H     16.998533   13.999792   17.421958
  H     15.484140   19.405786   16.839907
  H     16.902417   19.904804   15.909562
  H     16.542998   20.674560   17.464591
  H     18.110851   20.149663   18.849948
  H     20.211528   16.739470   19.164601
  H     18.779702   15.667740   17.492842
  H     19.015879   14.044946   19.319553
  H     17.881057   12.815301   21.154446
  H     15.814930   13.760008   22.186036
  H     14.426742   15.458699   22.224480
  H     16.025936   17.159652   19.577923

 Total Charge           Charge          ....    0
 Multiplicity           Mult            ....    1
 Number of Electrons    NEL             ....  154
 Basis Dimension        Dim             ....  828

ORBITAL ENERGIES
----------------

  NO   OCC          E(Eh)            E(eV)
   0   2.0000     -91.892399     -2500.5193
   1   2.0000     -20.604765      -560.6842
   2   2.0000     -20.588413      -560.2392
   3   2.0000     -20.541343      -558.9584
   4   2.0000     -15.632960      -425.3945
   5   2.0000     -15.611851      -424.8201
   6   2.0000     -11.392589      -310.0081
   7   2.0000     -11.386489      -309.8421
   8   2.0000     -11.339465      -308.5625
   9   2.0000     -11.322502      -308.1009
  10   2.0000     -11.317574      -307.9668
  11   2.0000     -11.298007      -307.4344
  12   2.0000     -11.269454      -306.6574
  13   2.0000     -11.264625      -306.5260
  14   2.0000     -11.261981      -306.4541
  15   2.0000     -11.253404      -306.2207
  16   2.0000     -11.250101      -306.1308
  17   2.0000     -11.246472      -306.0321
  18   2.0000     -11.245503      -306.0057
  19   2.0000     -11.226405      -305.4860
  20   2.0000      -8.897378      -242.1100
  21   2.0000      -6.578935      -179.0219
  22   2.0000      -6.576950      -178.9679
  23   2.0000      -6.576348      -178.9515
  24   2.0000      -1.444824       -39.3157
  25   2.0000      -1.424326       -38.7579
  26   2.0000      -1.352940       -36.8154
  27   2.0000      -1.344849       -36.5952
  28   2.0000      -1.243230       -33.8300
  29   2.0000      -1.165160       -31.7056
  30   2.0000      -1.122197       -30.5365
  31   2.0000      -1.048502       -28.5312
  32   2.0000      -1.035395       -28.1745
  33   2.0000      -1.024006       -27.8646
  34   2.0000      -1.000613       -27.2281
  35   2.0000      -0.987170       -26.8623
  36   2.0000      -0.928029       -25.2529
  37   2.0000      -0.878694       -23.9105
  38   2.0000      -0.852475       -23.1970
  39   2.0000      -0.849150       -23.1066
  40   2.0000      -0.841353       -22.8944
  41   2.0000      -0.833484       -22.6803
  42   2.0000      -0.763387       -20.7728
  43   2.0000      -0.738505       -20.0957
  44   2.0000      -0.719480       -19.5781
  45   2.0000      -0.704740       -19.1769
  46   2.0000      -0.697111       -18.9694
  47   2.0000      -0.676943       -18.4206
  48   2.0000      -0.669191       -18.2096
  49   2.0000      -0.668165       -18.1817
  50   2.0000      -0.653010       -17.7693
  51   2.0000      -0.647162       -17.6102
  52   2.0000      -0.642635       -17.4870
  53   2.0000      -0.617528       -16.8038
  54   2.0000      -0.607706       -16.5365
  55   2.0000      -0.603373       -16.4186
  56   2.0000      -0.593416       -16.1477
  57   2.0000      -0.585030       -15.9195
  58   2.0000      -0.573411       -15.6033
  59   2.0000      -0.567332       -15.4379
  60   2.0000      -0.566412       -15.4129
  61   2.0000      -0.546614       -14.8741
  62   2.0000      -0.538730       -14.6596
  63   2.0000      -0.534569       -14.5464
  64   2.0000      -0.519915       -14.1476
  65   2.0000      -0.514203       -13.9922
  66   2.0000      -0.510409       -13.8889
  67   2.0000      -0.502553       -13.6752
  68   2.0000      -0.484681       -13.1888
  69   2.0000      -0.465361       -12.6631
  70   2.0000      -0.453770       -12.3477
  71   2.0000      -0.443179       -12.0595
  72   2.0000      -0.362178        -9.8554
  73   2.0000      -0.357225        -9.7206
  74   2.0000      -0.333284        -9.0691
  75   2.0000      -0.327901        -8.9226
  76   2.0000      -0.319027        -8.6812
  77   0.0000       0.072361         1.9690
  78   0.0000       0.098578         2.6824
  79   0.0000       0.114874         3.1259
  80   0.0000       0.123309         3.3554
  81   0.0000       0.129493         3.5237

MULLIKEN ATOMIC CHARGES
-----------------------
   0 C :   -0.255616
   1 C :    0.016982
   2 O :   -0.335688
   3 C :    0.466678
   4 O :   -0.388930
   5 C :   -0.277800
   6 C :    0.147460
   7 C :   -0.267420
   8 N :   -0.124492
   9 C :    0.219000
  10 S :   -0.436832
  11 N :   -0.207587
  12 C :    0.049782
  13 C :    0.070408
  14 C :   -0.232002
  15 C :   -0.127149
  16 C :   -0.276588
  17 C :    0.320437
  18 O :   -0.355807
  19 C :   -0.264793
  20 H :    0.087047
  21 H :    0.097859
  22 H :    0.105485
  23 H :    0.097985
  24 H :    0.091035
  25 H :    0.126685
  26 H :    0.140826
  27 H :    0.093802
  28 H :    0.199328
  29 H :    0.189896
  30 H :    0.161003
  31 H :    0.156165
  32 H :    0.162961
  33 H :    0.132811
  34 H :    0.243183
  35 H :    0.173883
Sum of atomic charges:   -0.0000000

LOEWDIN ATOMIC CHARGES
----------------------
   0 C :    0.110421
   1 C :   -0.029576
   2 O :    0.300505
   3 C :   -0.425204
   4 O :    0.118402
   5 C :   -0.098030
   6 C :   -0.054378
   7 C :    0.130023
   8 N :    0.409702
   9 C :   -0.453588
  10 S :   -0.030638
  11 N :    0.396108
  12 C :   -0.052721
  13 C :   -0.036198
  14 C :    0.005820
  15 C :    0.044063
  16 C :   -0.000841
  17 C :   -0.188911
  18 O :    0.396535
  19 C :    0.027451
  20 H :   -0.027166
  21 H :   -0.025846
  22 H :   -0.023353
  23 H :   -0.030483
  24 H :   -0.036369
  25 H :   -0.006081
  26 H :   -0.001507
  27 H :   -0.023319
  28 H :   -0.056672
  29 H :   -0.068123
  30 H :   -0.005333
  31 H :   -0.031911
  32 H :   -0.018573
  33 H :   -0.034077
  34 H :   -0.151374
  35 H :   -0.028757

  Mayer bond orders larger than 0.100000
B(  0-C ,  1-C ) :   0.9860 B(  0-C , 20-H ) :   0.9775 B(  0-C , 21-H ) :   0.9799
B(  0-C , 22-H ) :   0.9796 B(  1-C ,  2-O ) :   0.8907 B(  1-C , 23-H ) :   0.9668
B(  1-C , 24-H ) :   0.9710 B(  2-O ,  3-C ) :   1.1477 B(  3-C ,  4-O ) :   2.0609
B(  3-C ,  5-C ) :   1.0201 B(  5-C ,  6-C ) :   1.6390 B(  5-C , 12-C ) :   0.9638
B(  6-C ,  7-C ) :   0.9755 B(  6-C ,  8-N ) :   1.1527 B(  7-C , 25-H ) :   0.9642
B(  7-C , 26-H ) :   0.9533 B(  7-C , 27-H ) :   0.9879 B(  8-N ,  9-C ) :   1.1876
B(  8-N , 28-H ) :   0.9483 B(  9-C , 10-S ) :   1.6091 B(  9-C , 11-N ) :   1.2967
B( 11-N , 12-C ) :   0.9502 B( 11-N , 29-H ) :   0.9533 B( 12-C , 13-C ) :   0.9599
B( 12-C , 30-H ) :   0.9968 B( 13-C , 14-C ) :   1.3355 B( 13-C , 19-C ) :   1.3685
B( 14-C , 15-C ) :   1.4071 B( 14-C , 31-H ) :   0.9725 B( 15-C , 16-C ) :   1.3604
B( 15-C , 32-H ) :   0.9695 B( 16-C , 17-C ) :   1.3377 B( 16-C , 33-H ) :   0.9840
B( 17-C , 18-O ) :   1.1168 B( 17-C , 19-C ) :   1.3593 B( 18-O , 34-H ) :   0.9781
B( 19-C , 35-H ) :   0.9526

MP2 TOTAL ENERGY:    -1274.331552366 Eh
FINAL SINGLE POINT ENERGY     -1274.331552365892

DIPOLE MOMENT
-------------
                                X             Y             Z
Electronic contribution:      8.98713      10.24499       5.20284
Nuclear contribution   :    -10.04150     -11.78359      -4.34323
                        -----------------------------------------
Total Dipole Moment    :     -1.05437      -1.53860       0.85961
                        -----------------------------------------
Magnitude (a.u.)       :      2.05376
Magnitude (Debye)      :      5.22024

Rotational constants in cm-1:     0.011186     0.009199     0.006478
Rotational constants in MHz :   335.344526   275.778751   194.215879

                             ****ORCA TERMINATED NORMALLY****
TOTAL RUN TIME: 0 days 1 hours 58 minutes 10 seconds 73 msec
