                         Program Version 5.0.0 -  RELEASE  -
|  1> ! ri-mp2 cc-pvtz cc-pvtz/c TightSCF NoKeepInts
|  2>
|  3> %scf
|  4>   MaxCore 4096
|  5> end
|  6> *xyz  0  1
|  7>     C       15.4131334   14.2367614   17.4286434
|  8>     C       16.2591525   14.2942298   16.1477261
|  9>     O       17.5384451   14.9118960   16.4123826
| 10>     C       17.6960739   16.2235628   16.0663545
| 11>     O       17.3404434   16.6077743   14.9655797
| 12>     C       17.7735010   17.1330889   17.2610936
| 13>     C       17.3494987   18.4228840   17.2298565
| 14>     C       16.6037574   19.1217096   16.1133109
| 15>     N       17.6476573   19.2796715   18.2943607
| 16>     C       18.5623750   19.0011525   19.2760140
| 17>     S       19.0331119   20.1354339   20.3838521
| 18>     N       19.0792550   17.7296903   19.2816718
| 19>     C       18.5403664   16.6095011   18.4878597
| 20>     C       17.7230342   15.7083991   19.4071278
| 21>     C       18.1743647   14.4090603   19.7078033
| 22>     C       17.4593920   13.5913874   20.5995355
| 23>     C       16.2839786   14.0768548   21.1976919
| 24>     C       15.8361507   15.3728903   20.9074935
| 25>     O       14.7026287   15.8452436   21.4841363
| 26>     C       16.5524295   16.1862387   20.0239322
| 27>     H       15.9257592   13.6630815   18.2078765
| 28>     H       14.4523953   13.7475930   17.2284063
| 29>     H       15.2053043   15.2457287   17.8028370
| 30>     H       16.4296669   13.2671390   15.8004532
| 31>     H       15.7090619   14.8203199   15.3554388
| 32>     H       15.7445781   18.5223542   15.7868485
| 33>     H       17.2570117   19.2588326   15.2419739
| 34>     H       16.2228949   20.1072589   16.4055521
| 35>     H       17.2910851   20.2220186   18.2897459
| 36>     H       19.7321912   17.5436540   20.0320060
| 37>     H       19.3946741   16.0269675   18.1153062
| 38>     H       19.0838156   14.0307083   19.2486657
| 39>     H       17.8164831   12.5877138   20.8240013
| 40>     H       15.7275417   13.4487189   21.8855768
| 41>     H       14.3879599   15.1704290   22.1043653
| 42>     H       16.1978275   17.1920519   19.8285203
| 43> *
| 44>
| 45>                          ****END OF INPUT****

CARTESIAN COORDINATES (ANGSTROEM)
---------------------------------
  C     15.413133   14.236761   17.428643
  C     16.259152   14.294230   16.147726
  O     17.538445   14.911896   16.412383
  C     17.696074   16.223563   16.066354
  O     17.340443   16.607774   14.965580
  C     17.773501   17.133089   17.261094
  C     17.349499   18.422884   17.229856
  C     16.603757   19.121710   16.113311
  N     17.647657   19.279671   18.294361
  C     18.562375   19.001152   19.276014
  S     19.033112   20.135434   20.383852
  N     19.079255   17.729690   19.281672
  C     18.540366   16.609501   18.487860
  C     17.723034   15.708399   19.407128
  C     18.174365   14.409060   19.707803
  C     17.459392   13.591387   20.599535
  C     16.283979   14.076855   21.197692
  C     15.836151   15.372890   20.907493
  O     14.702629   15.845244   21.484136
  C     16.552429   16.186239   20.023932
  H     15.925759   13.663082   18.207877
  H     14.452395   13.747593   17.228406
  H     15.205304   15.245729   17.802837
  H     16.429667   13.267139   15.800453
  H     15.709062   14.820320   15.355439
  H     15.744578   18.522354   15.786848
  H     17.257012   19.258833   15.241974
  H     16.222895   20.107259   16.405552
  H     17.291085   20.222019   18.289746
  H     19.732191   17.543654   20.032006
  H     19.394674   16.026968   18.115306
  H     19.083816   14.030708   19.248666
  H     17.816483   12.587714   20.824001
  H     15.727542   13.448719   21.885577
  H     14.387960   15.170429   22.104365
  H     16.197827   17.192052   19.828520

 Total Charge           Charge          ....    0
 Multiplicity           Mult            ....    1
 Number of Electrons    NEL             ....  154
 Basis Dimension        Dim             ....  828

ORBITAL ENERGIES
----------------

  NO   OCC          E(Eh)            E(eV)
   0   2.0000     -91.890258     -2500.4610
   1   2.0000     -20.598660      -560.5180
   2   2.0000     -20.586233      -560.1799
   3   2.0000     -20.550580      -559.2097
   4   2.0000     -15.630266      -425.3212
   5   2.0000     -15.608844      -424.7383
   6   2.0000     -11.394720      -310.0661
   7   2.0000     -11.384736      -309.7944
   8   2.0000     -11.336089      -308.4707
   9   2.0000     -11.315622      -307.9137
  10   2.0000     -11.311934      -307.8134
  11   2.0000     -11.295248      -307.3593
  12   2.0000     -11.261130      -306.4309
  13   2.0000     -11.260673      -306.4185
  14   2.0000     -11.256890      -306.3156
  15   2.0000     -11.253793      -306.2313
  16   2.0000     -11.245095      -305.9946
  17   2.0000     -11.239646      -305.8463
  18   2.0000     -11.239428      -305.8404
  19   2.0000     -11.219656      -305.3024
  20   2.0000      -8.895273      -242.0527
  21   2.0000      -6.576837      -178.9648
  22   2.0000      -6.574845      -178.9106
  23   2.0000      -6.574249      -178.8944
  24   2.0000      -1.449979       -39.4559
  25   2.0000      -1.418341       -38.5950
  26   2.0000      -1.352693       -36.8086
  27   2.0000      -1.341522       -36.5047
  28   2.0000      -1.239782       -33.7362
  29   2.0000      -1.158707       -31.5300
  30   2.0000      -1.120774       -30.4978
  31   2.0000      -1.043840       -28.4043
  32   2.0000      -1.033068       -28.1112
  33   2.0000      -1.017024       -27.6746
  34   2.0000      -0.998384       -27.1674
  35   2.0000      -0.985386       -26.8137
  36   2.0000      -0.924341       -25.1526
  37   2.0000      -0.888099       -24.1664
  38   2.0000      -0.847622       -23.0650
  39   2.0000      -0.840905       -22.8822
  40   2.0000      -0.835625       -22.7385
  41   2.0000      -0.817347       -22.2411
  42   2.0000      -0.758093       -20.6288
  43   2.0000      -0.733587       -19.9619
  44   2.0000      -0.722648       -19.6643
  45   2.0000      -0.698053       -18.9950
  46   2.0000      -0.690096       -18.7785
  47   2.0000      -0.679754       -18.4970
  48   2.0000      -0.669981       -18.2311
  49   2.0000      -0.666486       -18.1360
  50   2.0000      -0.649220       -17.6662
  51   2.0000      -0.646284       -17.5863
  52   2.0000      -0.637304       -17.3419
  53   2.0000      -0.609090       -16.5742
  54   2.0000      -0.602680       -16.3997
  55   2.0000      -0.600282       -16.3345
  56   2.0000      -0.587998       -16.0002
  57   2.0000      -0.578993       -15.7552
  58   2.0000      -0.573859       -15.6155
  59   2.0000      -0.568257       -15.4630
  60   2.0000      -0.564674       -15.3656
  61   2.0000      -0.548544       -14.9266
  62   2.0000      -0.539065       -14.6687
  63   2.0000      -0.526581       -14.3290
  64   2.0000      -0.518367       -14.1055
  65   2.0000      -0.514134       -13.9903
  66   2.0000      -0.503105       -13.6902
  67   2.0000      -0.501719       -13.6525
  68   2.0000      -0.478240       -13.0136
  69   2.0000      -0.462935       -12.5971
  70   2.0000      -0.451726       -12.2921
  71   2.0000      -0.446802       -12.1581
  72   2.0000      -0.357585        -9.7304
  73   2.0000      -0.349906        -9.5214
  74   2.0000      -0.329439        -8.9645
  75   2.0000      -0.323878        -8.8132
  76   2.0000      -0.316934        -8.6242
  77   0.0000       0.069069         1.8795
  78   0.0000       0.103826         2.8252
  79   0.0000       0.118960         3.2371
  80   0.0000       0.130532         3.5520
  81   0.0000       0.133686         3.6378

MULLIKEN ATOMIC CHARGES
-----------------------
   0 C :   -0.312687
   1 C :    0.043307
   2 O :   -0.377630
   3 C :    0.471483
   4 O :   -0.407918
   5 C :   -0.225789
   6 C :    0.149788
   7 C :   -0.272122
   8 N :   -0.125322
   9 C :    0.205312
  10 S :   -0.435061
  11 N :   -0.192841
  12 C :    0.025252
  13 C :    0.093287
  14 C :   -0.179490
  15 C :   -0.138531
  16 C :   -0.277140
  17 C :    0.327241
  18 O :   -0.359432
  19 C :   -0.295243
  20 H :    0.109826
  21 H :    0.114306
  22 H :    0.101633
  23 H :    0.103632
  24 H :    0.107808
  25 H :    0.124093
  26 H :    0.137703
  27 H :    0.094259
  28 H :    0.198334
  29 H :    0.191381
  30 H :    0.147420
  31 H :    0.145866
  32 H :    0.163102
  33 H :    0.131836
  34 H :    0.241449
  35 H :    0.170887
Sum of atomic charges:    0.0000000

LOEWDIN ATOMIC CHARGES
----------------------
   0 C :    0.104001
   1 C :   -0.012859
   2 O :    0.284759
   3 C :   -0.417243
   4 O :    0.120665
   5 C :   -0.096699
   6 C :   -0.062902
   7 C :    0.129433
   8 N :    0.406375
   9 C :   -0.457350
  10 S :   -0.032255
  11 N :    0.396667
  12 C :   -0.052702
  13 C :   -0.036672
  14 C :    0.013640
  15 C :    0.040225
  16 C :   -0.001550
  17 C :   -0.189415
  18 O :    0.396176
  19 C :    0.034604
  20 H :   -0.025458
  21 H :   -0.026396
  22 H :   -0.031375
  23 H :   -0.026054
  24 H :   -0.029065
  25 H :   -0.007243
  26 H :   -0.003437
  27 H :   -0.023011
  28 H :   -0.057917
  29 H :   -0.065379
  30 H :   -0.006697
  31 H :   -0.029793
  32 H :   -0.020817
  33 H :   -0.035197
  34 H :   -0.153292
  35 H :   -0.025766

  Mayer bond orders larger than 0.100000
B(  0-C ,  1-C ) :   0.9687 B(  0-C , 20-H ) :   0.9718 B(  0-C , 21-H ) :   0.9772
B(  0-C , 22-H ) :   0.9732 B(  1-C ,  2-O ) :   0.8822 B(  1-C , 23-H ) :   0.9878
B(  1-C , 24-H ) :   0.9752 B(  2-O ,  3-C ) :   1.1117 B(  3-C ,  4-O ) :   2.0066
B(  3-C ,  5-C ) :   1.0505 B(  5-C ,  6-C ) :   1.6609 B(  5-C , 12-C ) :   0.9765
B(  6-C ,  7-C ) :   0.9692 B(  6-C ,  8-N ) :   1.1422 B(  7-C , 25-H ) :   0.9674
B(  7-C , 26-H ) :   0.9568 B(  7-C , 27-H ) :   0.9876 B(  8-N ,  9-C ) :   1.1789
B(  8-N , 28-H ) :   0.9489 B(  9-C , 10-S ) :   1.6169 B(  9-C , 11-N ) :   1.2988
B( 11-N , 12-C ) :   0.9835 B( 11-N , 29-H ) :   0.9542 B( 12-C , 13-C ) :   0.9414
B( 12-C , 30-H ) :   1.0061 B( 13-C , 14-C ) :   1.3579 B( 13-C , 19-C ) :   1.3563
B( 14-C , 15-C ) :   1.3874 B( 14-C , 31-H ) :   0.9735 B( 15-C , 16-C ) :   1.3630
B( 15-C , 32-H ) :   0.9709 B( 16-C , 17-C ) :   1.3300 B( 16-C , 33-H ) :   0.9846
B( 17-C , 18-O ) :   1.1113 B( 17-C , 19-C ) :   1.3680 B( 18-O , 34-H ) :   0.9795
B( 19-C , 35-H ) :   0.9580

MP2 TOTAL ENERGY:    -1274.327273820 Eh
FINAL SINGLE POINT ENERGY     -1274.327273820218

DIPOLE MOMENT
-------------
                                X             Y             Z
Electronic contribution:      9.33044       9.62272       5.30981
Nuclear contribution   :    -10.39618     -11.26207      -5.37464
                        -----------------------------------------
Total Dipole Moment    :     -1.06574      -1.63935      -0.06483
                        -----------------------------------------
Magnitude (a.u.)       :      1.95639
Magnitude (Debye)      :      4.97275

Rotational constants in cm-1:     0.011775     0.009735     0.006545
Rotational constants in MHz :   353.000572   291.838521   196.204093

                             ****ORCA TERMINATED NORMALLY****
TOTAL RUN TIME: 0 days 2 hours 51 minutes 7 seconds 450 msec
