                         Program Version 5.0.0 -  RELEASE  -
|  1> ! ri-mp2 cc-pvtz cc-pvtz/c TightSCF NoKeepInts
|  2>
|  3> %scf
|  4>   MaxCore 4096
|  5> end
|  6> *xyz  0  1
|  7>     C       15.1793770   14.7310221   14.1935648
|  8>     C       15.2706066   14.5834258   15.7217470
|  9>     O       16.0904591   15.6640973   16.2059013
| 10>     C       17.1423652   15.4221305   17.0428657
| 11>     O       17.5298318   14.2946463   17.3029501
| 12>     C       17.7007861   16.6411192   17.7232544
| 13>     C       17.4372709   17.9285379   17.3731157
| 14>     C       16.5533825   18.4344108   16.2509494
| 15>     N       18.0747212   18.9753159   18.0481382
| 16>     C       19.0860265   18.8213366   18.9590150
| 17>     S       19.8793740   20.1188430   19.6092182
| 18>     N       19.4059408   17.5329664   19.3030207
| 19>     C       18.6418601   16.3391390   18.8959221
| 20>     C       17.8740734   15.7662920   20.0846630
| 21>     C       18.0361252   14.4182055   20.4542469
| 22>     C       17.3314149   13.8846313   21.5463207
| 23>     C       16.4558727   14.7056177   22.2770556
| 24>     C       16.2885632   16.0478425   21.9103264
| 25>     O       15.4393445   16.8417209   22.6103338
| 26>     C       16.9910106   16.5759374   20.8225774
| 27>     H       14.7462591   15.7018186   13.9225659
| 28>     H       14.5476303   13.9416612   13.7683294
| 29>     H       16.1750510   14.6550690   13.7388344
| 30>     H       14.2701682   14.6426455   16.1694138
| 31>     H       15.6945403   13.5986192   15.9599657
| 32>     H       16.8349481   17.9736701   15.2958493
| 33>     H       16.6187768   19.5207382   16.1154928
| 34>     H       15.5016032   18.1914654   16.4472885
| 35>     H       17.8539918   19.9288051   17.8094122
| 36>     H       20.1331347   17.4461768   20.0012656
| 37>     H       19.3655973   15.5831933   18.5582974
| 38>     H       18.6997008   13.7764812   19.8796789
| 39>     H       17.4612238   12.8385000   21.8174851
| 40>     H       15.9082122   14.2971085   23.1197054
| 41>     H       15.0785800   16.3104747   23.3358263
| 42>     H       16.8491761   17.6183353   20.5594030
| 43> *
| 44>
| 45>                          ****END OF INPUT****

CARTESIAN COORDINATES (ANGSTROEM)
---------------------------------
  C     15.179377   14.731022   14.193565
  C     15.270607   14.583426   15.721747
  O     16.090459   15.664097   16.205901
  C     17.142365   15.422130   17.042866
  O     17.529832   14.294646   17.302950
  C     17.700786   16.641119   17.723254
  C     17.437271   17.928538   17.373116
  C     16.553383   18.434411   16.250949
  N     18.074721   18.975316   18.048138
  C     19.086026   18.821337   18.959015
  S     19.879374   20.118843   19.609218
  N     19.405941   17.532966   19.303021
  C     18.641860   16.339139   18.895922
  C     17.874073   15.766292   20.084663
  C     18.036125   14.418205   20.454247
  C     17.331415   13.884631   21.546321
  C     16.455873   14.705618   22.277056
  C     16.288563   16.047843   21.910326
  O     15.439345   16.841721   22.610334
  C     16.991011   16.575937   20.822577
  H     14.746259   15.701819   13.922566
  H     14.547630   13.941661   13.768329
  H     16.175051   14.655069   13.738834
  H     14.270168   14.642646   16.169414
  H     15.694540   13.598619   15.959966
  H     16.834948   17.973670   15.295849
  H     16.618777   19.520738   16.115493
  H     15.501603   18.191465   16.447288
  H     17.853992   19.928805   17.809412
  H     20.133135   17.446177   20.001266
  H     19.365597   15.583193   18.558297
  H     18.699701   13.776481   19.879679
  H     17.461224   12.838500   21.817485
  H     15.908212   14.297109   23.119705
  H     15.078580   16.310475   23.335826
  H     16.849176   17.618335   20.559403

 Total Charge           Charge          ....    0
 Multiplicity           Mult            ....    1
 Number of Electrons    NEL             ....  154
 Basis Dimension        Dim             ....  828

ORBITAL ENERGIES
----------------

  NO   OCC          E(Eh)            E(eV)
   0   2.0000     -91.887944     -2500.3981
   1   2.0000     -20.604489      -560.6767
   2   2.0000     -20.590752      -560.3028
   3   2.0000     -20.544680      -559.0492
   4   2.0000     -15.628449      -425.2717
   5   2.0000     -15.606387      -424.6714
   6   2.0000     -11.396614      -310.1176
   7   2.0000     -11.382707      -309.7392
   8   2.0000     -11.336911      -308.4930
   9   2.0000     -11.306499      -307.6655
  10   2.0000     -11.304896      -307.6219
  11   2.0000     -11.298800      -307.4560
  12   2.0000     -11.260708      -306.4194
  13   2.0000     -11.258962      -306.3719
  14   2.0000     -11.252484      -306.1957
  15   2.0000     -11.246604      -306.0357
  16   2.0000     -11.236281      -305.7547
  17   2.0000     -11.233094      -305.6680
  18   2.0000     -11.232460      -305.6508
  19   2.0000     -11.229354      -305.5663
  20   2.0000      -8.893006      -241.9910
  21   2.0000      -6.574583      -178.9035
  22   2.0000      -6.572577      -178.8489
  23   2.0000      -6.571990      -178.8329
  24   2.0000      -1.453577       -39.5538
  25   2.0000      -1.410482       -38.3812
  26   2.0000      -1.357416       -36.9372
  27   2.0000      -1.339321       -36.4448
  28   2.0000      -1.236782       -33.6546
  29   2.0000      -1.151237       -31.3267
  30   2.0000      -1.119085       -30.4518
  31   2.0000      -1.044357       -28.4184
  32   2.0000      -1.036530       -28.2054
  33   2.0000      -1.008590       -27.4451
  34   2.0000      -0.997252       -27.1366
  35   2.0000      -0.982858       -26.7449
  36   2.0000      -0.920643       -25.0520
  37   2.0000      -0.890319       -24.2268
  38   2.0000      -0.847119       -23.0513
  39   2.0000      -0.834393       -22.7050
  40   2.0000      -0.826857       -22.4999
  41   2.0000      -0.817232       -22.2380
  42   2.0000      -0.761694       -20.7267
  43   2.0000      -0.735932       -20.0257
  44   2.0000      -0.724164       -19.7055
  45   2.0000      -0.689624       -18.7656
  46   2.0000      -0.684098       -18.6153
  47   2.0000      -0.679761       -18.4972
  48   2.0000      -0.674111       -18.3435
  49   2.0000      -0.652657       -17.7597
  50   2.0000      -0.651815       -17.7368
  51   2.0000      -0.642322       -17.4785
  52   2.0000      -0.632336       -17.2067
  53   2.0000      -0.607883       -16.5413
  54   2.0000      -0.600033       -16.3277
  55   2.0000      -0.598685       -16.2910
  56   2.0000      -0.594085       -16.1659
  57   2.0000      -0.582077       -15.8391
  58   2.0000      -0.572265       -15.5721
  59   2.0000      -0.563327       -15.3289
  60   2.0000      -0.561836       -15.2883
  61   2.0000      -0.544211       -14.8087
  62   2.0000      -0.542904       -14.7732
  63   2.0000      -0.529835       -14.4175
  64   2.0000      -0.516329       -14.0500
  65   2.0000      -0.508982       -13.8501
  66   2.0000      -0.499437       -13.5904
  67   2.0000      -0.494737       -13.4625
  68   2.0000      -0.481037       -13.0897
  69   2.0000      -0.462712       -12.5910
  70   2.0000      -0.460135       -12.5209
  71   2.0000      -0.453394       -12.3375
  72   2.0000      -0.354226        -9.6390
  73   2.0000      -0.343166        -9.3380
  74   2.0000      -0.327027        -8.8989
  75   2.0000      -0.315325        -8.5804
  76   2.0000      -0.312864        -8.5135
  77   0.0000       0.076057         2.0696
  78   0.0000       0.114292         3.1100
  79   0.0000       0.120948         3.2912
  80   0.0000       0.136236         3.7072
  81   0.0000       0.139355         3.7920

MULLIKEN ATOMIC CHARGES
-----------------------
   0 C :   -0.268715
   1 C :    0.017477
   2 O :   -0.342944
   3 C :    0.458010
   4 O :   -0.433380
   5 C :   -0.183290
   6 C :    0.142515
   7 C :   -0.286697
   8 N :   -0.120691
   9 C :    0.200875
  10 S :   -0.439184
  11 N :   -0.196481
  12 C :    0.032598
  13 C :    0.058643
  14 C :   -0.160164
  15 C :   -0.133869
  16 C :   -0.278678
  17 C :    0.311605
  18 O :   -0.359302
  19 C :   -0.272223
  20 H :    0.090453
  21 H :    0.096868
  22 H :    0.098192
  23 H :    0.099000
  24 H :    0.124597
  25 H :    0.126530
  26 H :    0.103338
  27 H :    0.128023
  28 H :    0.196662
  29 H :    0.193481
  30 H :    0.153516
  31 H :    0.152890
  32 H :    0.158625
  33 H :    0.127651
  34 H :    0.239947
  35 H :    0.164121
Sum of atomic charges:   -0.0000000

LOEWDIN ATOMIC CHARGES
----------------------
   0 C :    0.103771
   1 C :   -0.010689
   2 O :    0.307929
   3 C :   -0.414339
   4 O :    0.101521
   5 C :   -0.090988
   6 C :   -0.064643
   7 C :    0.124665
   8 N :    0.404933
   9 C :   -0.459156
  10 S :   -0.035915
  11 N :    0.398015
  12 C :   -0.046707
  13 C :   -0.038731
  14 C :    0.022401
  15 C :    0.040955
  16 C :   -0.002280
  17 C :   -0.192533
  18 O :    0.392900
  19 C :    0.028393
  20 H :   -0.030247
  21 H :   -0.024759
  22 H :   -0.025867
  23 H :   -0.030093
  24 H :   -0.027187
  25 H :   -0.008930
  26 H :   -0.021190
  27 H :   -0.009673
  28 H :   -0.059267
  29 H :   -0.063589
  30 H :   -0.005183
  31 H :   -0.025378
  32 H :   -0.021343
  33 H :   -0.036503
  34 H :   -0.155008
  35 H :   -0.025287

  Mayer bond orders larger than 0.100000
B(  0-C ,  1-C ) :   0.9715 B(  0-C , 20-H ) :   0.9794 B(  0-C , 21-H ) :   0.9765
B(  0-C , 22-H ) :   0.9780 B(  1-C ,  2-O ) :   0.8826 B(  1-C , 23-H ) :   0.9811
B(  1-C , 24-H ) :   0.9737 B(  2-O ,  3-C ) :   1.1726 B(  3-C ,  4-O ) :   1.9776
B(  3-C ,  5-C ) :   1.0546 B(  5-C ,  6-C ) :   1.6429 B(  5-C , 12-C ) :   0.9662
B(  6-C ,  7-C ) :   0.9548 B(  6-C ,  8-N ) :   1.1520 B(  7-C , 25-H ) :   0.9655
B(  7-C , 26-H ) :   0.9920 B(  7-C , 27-H ) :   0.9638 B(  8-N ,  9-C ) :   1.1771
B(  8-N , 28-H ) :   0.9488 B(  9-C , 10-S ) :   1.6109 B(  9-C , 11-N ) :   1.3051
B( 11-N , 12-C ) :   0.9928 B( 11-N , 29-H ) :   0.9520 B( 12-C , 13-C ) :   0.9481
B( 12-C , 30-H ) :   1.0004 B( 13-C , 14-C ) :   1.3758 B( 13-C , 19-C ) :   1.3691
B( 14-C , 15-C ) :   1.3948 B( 14-C , 31-H ) :   0.9651 B( 15-C , 16-C ) :   1.3625
B( 15-C , 32-H ) :   0.9715 B( 16-C , 17-C ) :   1.3316 B( 16-C , 33-H ) :   0.9861
B( 17-C , 18-O ) :   1.1077 B( 17-C , 19-C ) :   1.3796 B( 18-O , 34-H ) :   0.9807
B( 19-C , 35-H ) :   0.9585

MP2 TOTAL ENERGY:    -1274.347795462 Eh
FINAL SINGLE POINT ENERGY     -1274.347795461637

DIPOLE MOMENT
-------------
                                X             Y             Z
Electronic contribution:     10.84288       8.20162      12.73047
Nuclear contribution   :    -12.53021      -9.32825     -13.66293
                        -----------------------------------------
Total Dipole Moment    :     -1.68733      -1.12663      -0.93246
                        -----------------------------------------
Magnitude (a.u.)       :      2.23291
Magnitude (Debye)      :      5.67559

Rotational constants in cm-1:     0.010527     0.008597     0.005663
Rotational constants in MHz :   315.605432   257.722491   169.766123

                             ****ORCA TERMINATED NORMALLY****
TOTAL RUN TIME: 0 days 1 hours 30 minutes 15 seconds 869 msec
