                         Program Version 5.0.0 -  RELEASE  -
|  1> ! ri-mp2 cc-pvtz cc-pvtz/c TightSCF NoKeepInts
|  2>
|  3> %scf
|  4>   MaxCore 4096
|  5> end
|  6> *xyz  0  1
|  7>     C       14.5238193   14.4630117   16.5168992
|  8>     C       15.5973445   15.4925567   16.9039274
|  9>     O       16.8476600   15.0190245   16.3690965
| 10>     C       18.0638017   15.6098703   16.6076555
| 11>     O       19.0785746   14.9434549   16.5238713
| 12>     C       18.0409750   16.8582650   17.4273351
| 13>     C       17.5386235   18.0253987   16.9625302
| 14>     C       16.9671320   18.2887950   15.5854808
| 15>     N       17.6111267   19.1759975   17.7504013
| 16>     C       18.2627956   19.2564007   18.9539003
| 17>     S       18.3541464   20.6752155   19.7978504
| 18>     N       18.8341689   18.0996043   19.4256071
| 19>     C       18.7148459   16.7690341   18.7957855
| 20>     C       17.9731367   15.7845738   19.6953733
| 21>     C       18.4058401   14.4486734   19.7818740
| 22>     C       17.7164567   13.5220866   20.5813873
| 23>     C       16.5811978   13.9326968   21.3002234
| 24>     C       16.1426024   15.2605129   21.2126041
| 25>     O       15.0381084   15.6570979   21.8931171
| 26>     C       16.8301972   16.1811634   20.4153444
| 27>     H       14.7719949   13.4762379   16.9280777
| 28>     H       14.4478511   14.3731195   15.4260817
| 29>     H       13.5435374   14.7610205   16.9081833
| 30>     H       15.3221088   16.4688241   16.4925968
| 31>     H       15.6485840   15.5661329   17.9977686
| 32>     H       16.9929905   17.4006082   14.9421976
| 33>     H       17.5450053   19.0671085   15.0705532
| 34>     H       15.9256932   18.6282066   15.6454192
| 35>     H       17.2169460   20.0404746   17.4132994
| 36>     H       19.2936278   18.1857528   20.3235768
| 37>     H       19.7332394   16.3831243   18.6391109
| 38>     H       19.2732852   14.1228154   19.2112004
| 39>     H       18.0598491   12.4902395   20.6347591
| 40>     H       16.0441577   13.2187562   21.9160288
| 41>     H       14.7382855   14.9039695   22.4246489
| 42>     H       16.4672906   17.2021757   20.3602336
| 43> *
| 44>
| 45>                          ****END OF INPUT****

CARTESIAN COORDINATES (ANGSTROEM)
---------------------------------
  C     14.523819   14.463012   16.516899
  C     15.597345   15.492557   16.903927
  O     16.847660   15.019025   16.369097
  C     18.063802   15.609870   16.607655
  O     19.078575   14.943455   16.523871
  C     18.040975   16.858265   17.427335
  C     17.538623   18.025399   16.962530
  C     16.967132   18.288795   15.585481
  N     17.611127   19.175998   17.750401
  C     18.262796   19.256401   18.953900
  S     18.354146   20.675215   19.797850
  N     18.834169   18.099604   19.425607
  C     18.714846   16.769034   18.795786
  C     17.973137   15.784574   19.695373
  C     18.405840   14.448673   19.781874
  C     17.716457   13.522087   20.581387
  C     16.581198   13.932697   21.300223
  C     16.142602   15.260513   21.212604
  O     15.038108   15.657098   21.893117
  C     16.830197   16.181163   20.415344
  H     14.771995   13.476238   16.928078
  H     14.447851   14.373119   15.426082
  H     13.543537   14.761021   16.908183
  H     15.322109   16.468824   16.492597
  H     15.648584   15.566133   17.997769
  H     16.992991   17.400608   14.942198
  H     17.545005   19.067108   15.070553
  H     15.925693   18.628207   15.645419
  H     17.216946   20.040475   17.413299
  H     19.293628   18.185753   20.323577
  H     19.733239   16.383124   18.639111
  H     19.273285   14.122815   19.211200
  H     18.059849   12.490239   20.634759
  H     16.044158   13.218756   21.916029
  H     14.738285   14.903970   22.424649
  H     16.467291   17.202176   20.360234

 Total Charge           Charge          ....    0
 Multiplicity           Mult            ....    1
 Number of Electrons    NEL             ....  154
 Basis Dimension        Dim             ....  828

ORBITAL ENERGIES
----------------

  NO   OCC          E(Eh)            E(eV)
   0   2.0000     -91.890275     -2500.4615
   1   2.0000     -20.600876      -560.5783
   2   2.0000     -20.600057      -560.5560
   3   2.0000     -20.550571      -559.2095
   4   2.0000     -15.627105      -425.2352
   5   2.0000     -15.611909      -424.8217
   6   2.0000     -11.397726      -310.1479
   7   2.0000     -11.387088      -309.8584
   8   2.0000     -11.329860      -308.3012
   9   2.0000     -11.317067      -307.9531
  10   2.0000     -11.315423      -307.9083
  11   2.0000     -11.302413      -307.5543
  12   2.0000     -11.270328      -306.6812
  13   2.0000     -11.265189      -306.5414
  14   2.0000     -11.264086      -306.5114
  15   2.0000     -11.257132      -306.3221
  16   2.0000     -11.246270      -306.0266
  17   2.0000     -11.242335      -305.9195
  18   2.0000     -11.239297      -305.8368
  19   2.0000     -11.232589      -305.6543
  20   2.0000      -8.895390      -242.0559
  21   2.0000      -6.576978      -178.9687
  22   2.0000      -6.574952      -178.9135
  23   2.0000      -6.574377      -178.8979
  24   2.0000      -1.448758       -39.4227
  25   2.0000      -1.419883       -38.6370
  26   2.0000      -1.360081       -37.0097
  27   2.0000      -1.340527       -36.4776
  28   2.0000      -1.240301       -33.7503
  29   2.0000      -1.161649       -31.6101
  30   2.0000      -1.125971       -30.6392
  31   2.0000      -1.049448       -28.5569
  32   2.0000      -1.040156       -28.3041
  33   2.0000      -1.019358       -27.7381
  34   2.0000      -1.005634       -27.3647
  35   2.0000      -0.989683       -26.9307
  36   2.0000      -0.928293       -25.2601
  37   2.0000      -0.880078       -23.9481
  38   2.0000      -0.856204       -23.2985
  39   2.0000      -0.842428       -22.9236
  40   2.0000      -0.837570       -22.7914
  41   2.0000      -0.836735       -22.7687
  42   2.0000      -0.757110       -20.6020
  43   2.0000      -0.740095       -20.1390
  44   2.0000      -0.732112       -19.9218
  45   2.0000      -0.697722       -18.9860
  46   2.0000      -0.688543       -18.7362
  47   2.0000      -0.681625       -18.5480
  48   2.0000      -0.677536       -18.4367
  49   2.0000      -0.663856       -18.0644
  50   2.0000      -0.656327       -17.8596
  51   2.0000      -0.651218       -17.7205
  52   2.0000      -0.640011       -17.4156
  53   2.0000      -0.612357       -16.6631
  54   2.0000      -0.608039       -16.5456
  55   2.0000      -0.603905       -16.4331
  56   2.0000      -0.595103       -16.1936
  57   2.0000      -0.584532       -15.9059
  58   2.0000      -0.578087       -15.7306
  59   2.0000      -0.571282       -15.5454
  60   2.0000      -0.564275       -15.3547
  61   2.0000      -0.557598       -15.1730
  62   2.0000      -0.552149       -15.0247
  63   2.0000      -0.526765       -14.3340
  64   2.0000      -0.520081       -14.1521
  65   2.0000      -0.515772       -14.0349
  66   2.0000      -0.505231       -13.7480
  67   2.0000      -0.502693       -13.6790
  68   2.0000      -0.488920       -13.3042
  69   2.0000      -0.469725       -12.7819
  70   2.0000      -0.454546       -12.3688
  71   2.0000      -0.450799       -12.2669
  72   2.0000      -0.357700        -9.7335
  73   2.0000      -0.351858        -9.5745
  74   2.0000      -0.329944        -8.9782
  75   2.0000      -0.324946        -8.8422
  76   2.0000      -0.318962        -8.6794
  77   0.0000       0.085561         2.3282
  78   0.0000       0.104541         2.8447
  79   0.0000       0.112917         3.0726
  80   0.0000       0.128644         3.5006
  81   0.0000       0.130731         3.5574

MULLIKEN ATOMIC CHARGES
-----------------------
   0 C :   -0.261866
   1 C :    0.021280
   2 O :   -0.305751
   3 C :    0.394184
   4 O :   -0.381626
   5 C :   -0.185855
   6 C :    0.140598
   7 C :   -0.326451
   8 N :   -0.139295
   9 C :    0.203975
  10 S :   -0.440636
  11 N :   -0.218421
  12 C :    0.077545
  13 C :    0.022358
  14 C :   -0.198632
  15 C :   -0.132382
  16 C :   -0.274503
  17 C :    0.325161
  18 O :   -0.358185
  19 C :   -0.288854
  20 H :    0.107496
  21 H :    0.100190
  22 H :    0.089105
  23 H :    0.082174
  24 H :    0.113728
  25 H :    0.125009
  26 H :    0.142862
  27 H :    0.118542
  28 H :    0.195793
  29 H :    0.199745
  30 H :    0.165560
  31 H :    0.170388
  32 H :    0.164249
  33 H :    0.132669
  34 H :    0.241521
  35 H :    0.178323
Sum of atomic charges:    0.0000000

LOEWDIN ATOMIC CHARGES
----------------------
   0 C :    0.112217
   1 C :   -0.025029
   2 O :    0.306976
   3 C :   -0.415709
   4 O :    0.124062
   5 C :   -0.081036
   6 C :   -0.102214
   7 C :    0.122568
   8 N :    0.401583
   9 C :   -0.456027
  10 S :   -0.037518
  11 N :    0.397323
  12 C :   -0.043695
  13 C :   -0.043996
  14 C :    0.022303
  15 C :    0.045922
  16 C :   -0.000180
  17 C :   -0.194430
  18 O :    0.394945
  19 C :    0.025978
  20 H :   -0.022542
  21 H :   -0.026443
  22 H :   -0.025033
  23 H :   -0.038696
  24 H :   -0.030916
  25 H :   -0.008478
  26 H :   -0.008939
  27 H :   -0.017975
  28 H :   -0.057630
  29 H :   -0.063661
  30 H :   -0.002119
  31 H :   -0.021521
  32 H :   -0.018196
  33 H :   -0.034549
  34 H :   -0.152874
  35 H :   -0.024468

  Mayer bond orders larger than 0.100000
B(  0-C ,  1-C ) :   0.9858 B(  0-C , 20-H ) :   0.9789 B(  0-C , 21-H ) :   0.9789
B(  0-C , 22-H ) :   0.9770 B(  1-C ,  2-O ) :   0.9106 B(  1-C , 23-H ) :   0.9702
B(  1-C , 24-H ) :   0.9613 B(  2-O ,  3-C ) :   1.1890 B(  3-C ,  4-O ) :   2.0933
B(  3-C ,  5-C ) :   0.9209 B(  5-C ,  6-C ) :   1.6834 B(  5-C , 12-C ) :   0.9572
B(  6-C ,  7-C ) :   0.9436 B(  6-C ,  8-N ) :   1.1183 B(  7-C , 25-H ) :   0.9810
B(  7-C , 26-H ) :   0.9667 B(  7-C , 27-H ) :   0.9677 B(  8-N ,  9-C ) :   1.1963
B(  8-N , 28-H ) :   0.9526 B(  9-C , 10-S ) :   1.6107 B(  9-C , 11-N ) :   1.2875
B( 11-N , 12-C ) :   0.9941 B( 11-N , 29-H ) :   0.9484 B( 12-C , 13-C ) :   0.9435
B( 12-C , 30-H ) :   0.9971 B( 13-C , 14-C ) :   1.3880 B( 13-C , 19-C ) :   1.3435
B( 14-C , 15-C ) :   1.3976 B( 14-C , 31-H ) :   0.9602 B( 15-C , 16-C ) :   1.3633
B( 15-C , 32-H ) :   0.9697 B( 16-C , 17-C ) :   1.3300 B( 16-C , 33-H ) :   0.9843
B( 17-C , 18-O ) :   1.1090 B( 17-C , 19-C ) :   1.3628 B( 18-O , 34-H ) :   0.9792
B( 19-C , 35-H ) :   0.9589

MP2 TOTAL ENERGY:    -1274.333575065 Eh
FINAL SINGLE POINT ENERGY     -1274.333575064513

DIPOLE MOMENT
-------------
                                X             Y             Z
Electronic contribution:     10.72467       8.34043       7.42698
Nuclear contribution   :    -12.24930      -9.37110      -7.82398
                        -----------------------------------------
Total Dipole Moment    :     -1.52463      -1.03067      -0.39700
                        -----------------------------------------
Magnitude (a.u.)       :      1.88266
Magnitude (Debye)      :      4.78533

Rotational constants in cm-1:     0.011717     0.009108     0.006705
Rotational constants in MHz :   351.271723   273.058957   201.014001

                             ****ORCA TERMINATED NORMALLY****
TOTAL RUN TIME: 0 days 2 hours 6 minutes 54 seconds 58 msec
