                         Program Version 5.0.0 -  RELEASE  -
|  1> ! ri-mp2 cc-pvtz cc-pvtz/c TightSCF NoKeepInts
|  2>
|  3> %scf
|  4>   MaxCore 4096
|  5> end
|  6> *xyz  0  1
|  7>     C       15.1079127   15.3447814   16.9218364
|  8>     C       16.2434117   14.2948382   16.8717085
|  9>     O       17.5098586   14.8055911   16.3775487
| 10>     C       17.7307419   16.1215244   16.0820429
| 11>     O       17.5250590   16.5166043   14.9489935
| 12>     C       17.8018886   17.0338913   17.2770250
| 13>     C       17.3718545   18.3202916   17.2309651
| 14>     C       16.6260208   18.9974470   16.1015575
| 15>     N       17.6451440   19.1864868   18.2935769
| 16>     C       18.5285720   18.9152539   19.3048808
| 17>     S       18.9504327   20.0527117   20.4287475
| 18>     N       19.0562113   17.6485810   19.3298831
| 19>     C       18.5748700   16.5230599   18.5070426
| 20>     C       17.7961710   15.5627328   19.3986828
| 21>     C       18.2861215   14.2647032   19.6392935
| 22>     C       17.5839279   13.3788117   20.4738785
| 23>     C       16.3868923   13.7961279   21.0803455
| 24>     C       15.9061138   15.0936310   20.8582911
| 25>     O       14.7525510   15.5014040   21.4439416
| 26>     C       16.6080390   15.9735633   20.0290599
| 27>     H       15.3063578   16.1385742   17.6479164
| 28>     H       14.1685109   14.8620497   17.2173586
| 29>     H       14.9503598   15.7983561   15.9349428
| 30>     H       16.3745908   13.8592285   17.8681907
| 31>     H       15.9259397   13.4767679   16.2123180
| 32>     H       15.8054957   18.3645652   15.7412921
| 33>     H       17.2975108   19.1745534   15.2513791
| 34>     H       16.1920435   19.9606283   16.3943243
| 35>     H       17.2843666   20.1271706   18.2744670
| 36>     H       19.6879860   17.4713823   20.1004244
| 37>     H       19.4596382   15.9898268   18.1314553
| 38>     H       19.2107150   13.9372275   19.1706814
| 39>     H       17.9683314   12.3752060   20.6493454
| 40>     H       15.8409341   13.1151290   21.7252851
| 41>     H       14.4558947   14.7909420   22.0327852
| 42>     H       16.2265307   16.9783562   19.8825330
| 43> *
| 44>
| 45>                          ****END OF INPUT****

CARTESIAN COORDINATES (ANGSTROEM)
---------------------------------
  C     15.107913   15.344781   16.921836
  C     16.243412   14.294838   16.871709
  O     17.509859   14.805591   16.377549
  C     17.730742   16.121524   16.082043
  O     17.525059   16.516604   14.948994
  C     17.801889   17.033891   17.277025
  C     17.371854   18.320292   17.230965
  C     16.626021   18.997447   16.101557
  N     17.645144   19.186487   18.293577
  C     18.528572   18.915254   19.304881
  S     18.950433   20.052712   20.428748
  N     19.056211   17.648581   19.329883
  C     18.574870   16.523060   18.507043
  C     17.796171   15.562733   19.398683
  C     18.286122   14.264703   19.639294
  C     17.583928   13.378812   20.473878
  C     16.386892   13.796128   21.080345
  C     15.906114   15.093631   20.858291
  O     14.752551   15.501404   21.443942
  C     16.608039   15.973563   20.029060
  H     15.306358   16.138574   17.647916
  H     14.168511   14.862050   17.217359
  H     14.950360   15.798356   15.934943
  H     16.374591   13.859229   17.868191
  H     15.925940   13.476768   16.212318
  H     15.805496   18.364565   15.741292
  H     17.297511   19.174553   15.251379
  H     16.192044   19.960628   16.394324
  H     17.284367   20.127171   18.274467
  H     19.687986   17.471382   20.100424
  H     19.459638   15.989827   18.131455
  H     19.210715   13.937228   19.170681
  H     17.968331   12.375206   20.649345
  H     15.840934   13.115129   21.725285
  H     14.455895   14.790942   22.032785
  H     16.226531   16.978356   19.882533

 Total Charge           Charge          ....    0
 Multiplicity           Mult            ....    1
 Number of Electrons    NEL             ....  154
 Basis Dimension        Dim             ....  828

ORBITAL ENERGIES
----------------

  NO   OCC          E(Eh)            E(eV)
   0   2.0000     -91.891371     -2500.4913
   1   2.0000     -20.603210      -560.6418
   2   2.0000     -20.577250      -559.9354
   3   2.0000     -20.551383      -559.2316
   4   2.0000     -15.630633      -425.3311
   5   2.0000     -15.610764      -424.7905
   6   2.0000     -11.393766      -310.0401
   7   2.0000     -11.386092      -309.8313
   8   2.0000     -11.335368      -308.4511
   9   2.0000     -11.321028      -308.0608
  10   2.0000     -11.315028      -307.8976
  11   2.0000     -11.299378      -307.4717
  12   2.0000     -11.265736      -306.5563
  13   2.0000     -11.261701      -306.4465
  14   2.0000     -11.259624      -306.3899
  15   2.0000     -11.254427      -306.2485
  16   2.0000     -11.250389      -306.1387
  17   2.0000     -11.245256      -305.9990
  18   2.0000     -11.244465      -305.9775
  19   2.0000     -11.229070      -305.5585
  20   2.0000      -8.896400      -242.0834
  21   2.0000      -6.577967      -178.9956
  22   2.0000      -6.575971      -178.9413
  23   2.0000      -6.575376      -178.9251
  24   2.0000      -1.442060       -39.2404
  25   2.0000      -1.422930       -38.7199
  26   2.0000      -1.349707       -36.7274
  27   2.0000      -1.342437       -36.5296
  28   2.0000      -1.241411       -33.7805
  29   2.0000      -1.163653       -31.6646
  30   2.0000      -1.122070       -30.5331
  31   2.0000      -1.047825       -28.5128
  32   2.0000      -1.031157       -28.0592
  33   2.0000      -1.022055       -27.8115
  34   2.0000      -1.001518       -27.2527
  35   2.0000      -0.987799       -26.8794
  36   2.0000      -0.926936       -25.2232
  37   2.0000      -0.896554       -24.3965
  38   2.0000      -0.849856       -23.1258
  39   2.0000      -0.845266       -23.0009
  40   2.0000      -0.840662       -22.8756
  41   2.0000      -0.823168       -22.3995
  42   2.0000      -0.746347       -20.3091
  43   2.0000      -0.736919       -20.0526
  44   2.0000      -0.718938       -19.5633
  45   2.0000      -0.702005       -19.1025
  46   2.0000      -0.691814       -18.8252
  47   2.0000      -0.674915       -18.3654
  48   2.0000      -0.672001       -18.2861
  49   2.0000      -0.658173       -17.9098
  50   2.0000      -0.657500       -17.8915
  51   2.0000      -0.648144       -17.6369
  52   2.0000      -0.638247       -17.3676
  53   2.0000      -0.627907       -17.0862
  54   2.0000      -0.613209       -16.6863
  55   2.0000      -0.605316       -16.4715
  56   2.0000      -0.602457       -16.3937
  57   2.0000      -0.582628       -15.8541
  58   2.0000      -0.574537       -15.6339
  59   2.0000      -0.566538       -15.4163
  60   2.0000      -0.546895       -14.8818
  61   2.0000      -0.544488       -14.8163
  62   2.0000      -0.540072       -14.6961
  63   2.0000      -0.533173       -14.5084
  64   2.0000      -0.530526       -14.4363
  65   2.0000      -0.516923       -14.0662
  66   2.0000      -0.506133       -13.7726
  67   2.0000      -0.493413       -13.4265
  68   2.0000      -0.480163       -13.0659
  69   2.0000      -0.471208       -12.8222
  70   2.0000      -0.449932       -12.2433
  71   2.0000      -0.444184       -12.0869
  72   2.0000      -0.358087        -9.7440
  73   2.0000      -0.354246        -9.6395
  74   2.0000      -0.331580        -9.0228
  75   2.0000      -0.328209        -8.9310
  76   2.0000      -0.318635        -8.6705
  77   0.0000       0.068903         1.8750
  78   0.0000       0.101562         2.7637
  79   0.0000       0.120033         3.2663
  80   0.0000       0.126413         3.4399
  81   0.0000       0.131988         3.5916

MULLIKEN ATOMIC CHARGES
-----------------------
   0 C :   -0.350574
   1 C :    0.042571
   2 O :   -0.385221
   3 C :    0.486377
   4 O :   -0.386893
   5 C :   -0.283360
   6 C :    0.164635
   7 C :   -0.275675
   8 N :   -0.124683
   9 C :    0.202946
  10 S :   -0.434502
  11 N :   -0.193214
  12 C :    0.049623
  13 C :    0.047665
  14 C :   -0.162987
  15 C :   -0.134828
  16 C :   -0.275141
  17 C :    0.320158
  18 O :   -0.357006
  19 C :   -0.298751
  20 H :    0.108135
  21 H :    0.120046
  22 H :    0.119918
  23 H :    0.110940
  24 H :    0.123082
  25 H :    0.125075
  26 H :    0.142270
  27 H :    0.094554
  28 H :    0.198018
  29 H :    0.191770
  30 H :    0.148230
  31 H :    0.148662
  32 H :    0.163938
  33 H :    0.134175
  34 H :    0.242144
  35 H :    0.177902
Sum of atomic charges:   -0.0000000

LOEWDIN ATOMIC CHARGES
----------------------
   0 C :    0.104759
   1 C :   -0.006115
   2 O :    0.274306
   3 C :   -0.424248
   4 O :    0.130928
   5 C :   -0.096512
   6 C :   -0.066115
   7 C :    0.130130
   8 N :    0.406360
   9 C :   -0.457746
  10 S :   -0.032051
  11 N :    0.396679
  12 C :   -0.053051
  13 C :   -0.040310
  14 C :    0.015898
  15 C :    0.040992
  16 C :   -0.001056
  17 C :   -0.190932
  18 O :    0.396820
  19 C :    0.034494
  20 H :   -0.037719
  21 H :   -0.020931
  22 H :   -0.027453
  23 H :   -0.031102
  24 H :   -0.025188
  25 H :   -0.008308
  26 H :   -0.002731
  27 H :   -0.022687
  28 H :   -0.057659
  29 H :   -0.064871
  30 H :   -0.006401
  31 H :   -0.028278
  32 H :   -0.019504
  33 H :   -0.033937
  34 H :   -0.152322
  35 H :   -0.024140

  Mayer bond orders larger than 0.100000
B(  0-C ,  1-C ) :   0.9635 B(  0-C , 20-H ) :   0.9674 B(  0-C , 21-H ) :   0.9758
B(  0-C , 22-H ) :   0.9729 B(  1-C ,  2-O ) :   0.8855 B(  1-C , 23-H ) :   0.9692
B(  1-C , 24-H ) :   0.9847 B(  2-O ,  3-C ) :   1.1214 B(  3-C ,  4-O ) :   2.0604
B(  3-C ,  5-C ) :   1.0053 B(  5-C ,  6-C ) :   1.6684 B(  5-C , 12-C ) :   0.9717
B(  6-C ,  7-C ) :   0.9630 B(  6-C ,  8-N ) :   1.1449 B(  7-C , 25-H ) :   0.9682
B(  7-C , 26-H ) :   0.9568 B(  7-C , 27-H ) :   0.9868 B(  8-N ,  9-C ) :   1.1821
B(  8-N , 28-H ) :   0.9490 B(  9-C , 10-S ) :   1.6176 B(  9-C , 11-N ) :   1.2956
B( 11-N , 12-C ) :   0.9863 B( 11-N , 29-H ) :   0.9537 B( 12-C , 13-C ) :   0.9404
B( 12-C , 30-H ) :   1.0059 B( 13-C , 14-C ) :   1.3526 B( 13-C , 19-C ) :   1.3595
B( 14-C , 15-C ) :   1.3940 B( 14-C , 31-H ) :   0.9733 B( 15-C , 16-C ) :   1.3635
B( 15-C , 32-H ) :   0.9704 B( 16-C , 17-C ) :   1.3280 B( 16-C , 33-H ) :   0.9835
B( 17-C , 18-O ) :   1.1138 B( 17-C , 19-C ) :   1.3720 B( 18-O , 34-H ) :   0.9789
B( 19-C , 35-H ) :   0.9537

MP2 TOTAL ENERGY:    -1274.320962214 Eh
FINAL SINGLE POINT ENERGY     -1274.320962214249

DIPOLE MOMENT
-------------
                                X             Y             Z
Electronic contribution:      9.82201       7.12201       5.61106
Nuclear contribution   :    -10.98155      -8.69987      -5.29340
                        -----------------------------------------
Total Dipole Moment    :     -1.15954      -1.57785       0.31765
                        -----------------------------------------
Magnitude (a.u.)       :      1.98370
Magnitude (Debye)      :      5.04217

Rotational constants in cm-1:     0.011942     0.009825     0.006765
Rotational constants in MHz :   358.008360   294.536686   202.795523

                             ****ORCA TERMINATED NORMALLY****
TOTAL RUN TIME: 0 days 2 hours 29 minutes 37 seconds 51 msec
