                         Program Version 5.0.0 -  RELEASE  -
|  1> ! ri-mp2 cc-pvtz cc-pvtz/c TightSCF NoKeepInts
|  2>
|  3> %scf
|  4>   MaxCore 4096
|  5> end
|  6> *xyz  0  1
|  7>     C       15.7487623   13.7861379   14.9616887
|  8>     C       15.0693490   15.0676826   15.4924595
|  9>     O       15.9579492   16.0161399   16.1383138
| 10>     C       17.0948534   15.7306888   16.8498550
| 11>     O       17.5524347   14.6096365   16.9890119
| 12>     C       17.6175004   16.8926626   17.6496120
| 13>     C       17.2986362   18.1980412   17.4399165
| 14>     C       16.3850706   18.7830075   16.3817185
| 15>     N       17.9038704   19.1937787   18.2144651
| 16>     C       18.9361804   18.9876942   19.0907082
| 17>     S       19.6870798   20.2420464   19.8643663
| 18>     N       19.3143958   17.6850140   19.2915296
| 19>     C       18.5917269   16.5095617   18.7710291
| 20>     C       17.8693566   15.7835998   19.9033751
| 21>     C       18.0910454   14.4118474   20.1255015
| 22>     C       17.4284164   13.7376033   21.1648455
| 23>     C       16.5351558   14.4403419   21.9911602
| 24>     C       16.3083652   15.8057285   21.7712597
| 25>     O       15.4417584   16.4857706   22.5637391
| 26>     C       16.9690920   16.4739836   20.7357061
| 27>     H       16.6694330   14.0255097   14.4150437
| 28>     H       15.0756186   13.2574782   14.2762471
| 29>     H       15.9905303   13.0944439   15.7781831
| 30>     H       14.5644869   15.5755714   14.6607816
| 31>     H       14.2921672   14.7672540   16.2072762
| 32>     H       15.3398804   18.5174203   16.5835704
| 33>     H       16.6466951   18.4014278   15.3869742
| 34>     H       16.4421510   19.8770554   16.3300980
| 35>     H       17.6399311   20.1568399   18.0815765
| 36>     H       20.0566131   17.5556622   19.9669575
| 37>     H       19.3394028   15.8243456   18.3459918
| 38>     H       18.7680661   13.8620871   19.4761317
| 39>     H       17.6041235   12.6748866   21.3213138
| 40>     H       16.0197591   13.9231071   22.7934451
| 41>     H       15.1158051   15.8664288   23.2336987
| 42>     H       16.7813376   17.5315149   20.5864492
| 43> *
| 44>
| 45>                          ****END OF INPUT****

CARTESIAN COORDINATES (ANGSTROEM)
---------------------------------
  C     15.748762   13.786138   14.961689
  C     15.069349   15.067683   15.492460
  O     15.957949   16.016140   16.138314
  C     17.094853   15.730689   16.849855
  O     17.552435   14.609636   16.989012
  C     17.617500   16.892663   17.649612
  C     17.298636   18.198041   17.439916
  C     16.385071   18.783007   16.381719
  N     17.903870   19.193779   18.214465
  C     18.936180   18.987694   19.090708
  S     19.687080   20.242046   19.864366
  N     19.314396   17.685014   19.291530
  C     18.591727   16.509562   18.771029
  C     17.869357   15.783600   19.903375
  C     18.091045   14.411847   20.125501
  C     17.428416   13.737603   21.164845
  C     16.535156   14.440342   21.991160
  C     16.308365   15.805728   21.771260
  O     15.441758   16.485771   22.563739
  C     16.969092   16.473984   20.735706
  H     16.669433   14.025510   14.415044
  H     15.075619   13.257478   14.276247
  H     15.990530   13.094444   15.778183
  H     14.564487   15.575571   14.660782
  H     14.292167   14.767254   16.207276
  H     15.339880   18.517420   16.583570
  H     16.646695   18.401428   15.386974
  H     16.442151   19.877055   16.330098
  H     17.639931   20.156840   18.081577
  H     20.056613   17.555662   19.966957
  H     19.339403   15.824346   18.345992
  H     18.768066   13.862087   19.476132
  H     17.604124   12.674887   21.321314
  H     16.019759   13.923107   22.793445
  H     15.115805   15.866429   23.233699
  H     16.781338   17.531515   20.586449

 Total Charge           Charge          ....    0
 Multiplicity           Mult            ....    1
 Number of Electrons    NEL             ....  154
 Basis Dimension        Dim             ....  828

ORBITAL ENERGIES
----------------

  NO   OCC          E(Eh)            E(eV)
   0   2.0000     -91.887113     -2500.3755
   1   2.0000     -20.601541      -560.5964
   2   2.0000     -20.590633      -560.2996
   3   2.0000     -20.544078      -559.0328
   4   2.0000     -15.627105      -425.2351
   5   2.0000     -15.605687      -424.6523
   6   2.0000     -11.398747      -310.1757
   7   2.0000     -11.381853      -309.7160
   8   2.0000     -11.334820      -308.4361
   9   2.0000     -11.306532      -307.6664
  10   2.0000     -11.306391      -307.6625
  11   2.0000     -11.304335      -307.6066
  12   2.0000     -11.259527      -306.3873
  13   2.0000     -11.257914      -306.3434
  14   2.0000     -11.252292      -306.1904
  15   2.0000     -11.246603      -306.0356
  16   2.0000     -11.236204      -305.7526
  17   2.0000     -11.232228      -305.6445
  18   2.0000     -11.229275      -305.5641
  19   2.0000     -11.224716      -305.4401
  20   2.0000      -8.892186      -241.9687
  21   2.0000      -6.573765      -178.8813
  22   2.0000      -6.571757      -178.8266
  23   2.0000      -6.571174      -178.8107
  24   2.0000      -1.446408       -39.3588
  25   2.0000      -1.410363       -38.3779
  26   2.0000      -1.357137       -36.9296
  27   2.0000      -1.338266       -36.4161
  28   2.0000      -1.235887       -33.6302
  29   2.0000      -1.150832       -31.3157
  30   2.0000      -1.117846       -30.4181
  31   2.0000      -1.041437       -28.3390
  32   2.0000      -1.034305       -28.1449
  33   2.0000      -1.008322       -27.4379
  34   2.0000      -0.996068       -27.1044
  35   2.0000      -0.981491       -26.7077
  36   2.0000      -0.920522       -25.0487
  37   2.0000      -0.896721       -24.4010
  38   2.0000      -0.847138       -23.0518
  39   2.0000      -0.834839       -22.7171
  40   2.0000      -0.826789       -22.4981
  41   2.0000      -0.817008       -22.2319
  42   2.0000      -0.743912       -20.2429
  43   2.0000      -0.727137       -19.7864
  44   2.0000      -0.723659       -19.6918
  45   2.0000      -0.689761       -18.7693
  46   2.0000      -0.683769       -18.6063
  47   2.0000      -0.677653       -18.4399
  48   2.0000      -0.671028       -18.2596
  49   2.0000      -0.665541       -18.1103
  50   2.0000      -0.644831       -17.5468
  51   2.0000      -0.642500       -17.4833
  52   2.0000      -0.633685       -17.2435
  53   2.0000      -0.604069       -16.4375
  54   2.0000      -0.598837       -16.2952
  55   2.0000      -0.597401       -16.2561
  56   2.0000      -0.593754       -16.1569
  57   2.0000      -0.586557       -15.9610
  58   2.0000      -0.571432       -15.5495
  59   2.0000      -0.568813       -15.4782
  60   2.0000      -0.558928       -15.2092
  61   2.0000      -0.542852       -14.7718
  62   2.0000      -0.536911       -14.6101
  63   2.0000      -0.523186       -14.2366
  64   2.0000      -0.516373       -14.0512
  65   2.0000      -0.510321       -13.8865
  66   2.0000      -0.499780       -13.5997
  67   2.0000      -0.494361       -13.4522
  68   2.0000      -0.479463       -13.0469
  69   2.0000      -0.461329       -12.5534
  70   2.0000      -0.454805       -12.3759
  71   2.0000      -0.446540       -12.1510
  72   2.0000      -0.353012        -9.6060
  73   2.0000      -0.342848        -9.3294
  74   2.0000      -0.326284        -8.8786
  75   2.0000      -0.314633        -8.5616
  76   2.0000      -0.312688        -8.5087
  77   0.0000       0.077477         2.1083
  78   0.0000       0.114509         3.1159
  79   0.0000       0.121444         3.3047
  80   0.0000       0.136711         3.7201
  81   0.0000       0.139845         3.8054

MULLIKEN ATOMIC CHARGES
-----------------------
   0 C :   -0.292419
   1 C :    0.051239
   2 O :   -0.356200
   3 C :    0.438864
   4 O :   -0.430722
   5 C :   -0.145861
   6 C :    0.137284
   7 C :   -0.286505
   8 N :   -0.120655
   9 C :    0.200988
  10 S :   -0.440725
  11 N :   -0.196496
  12 C :    0.030509
  13 C :    0.058902
  14 C :   -0.162795
  15 C :   -0.134130
  16 C :   -0.279050
  17 C :    0.311577
  18 O :   -0.359139
  19 C :   -0.271056
  20 H :    0.099513
  21 H :    0.095946
  22 H :    0.122117
  23 H :    0.095931
  24 H :    0.090441
  25 H :    0.128096
  26 H :    0.124166
  27 H :    0.102493
  28 H :    0.196421
  29 H :    0.193238
  30 H :    0.154157
  31 H :    0.153449
  32 H :    0.158591
  33 H :    0.127612
  34 H :    0.239843
  35 H :    0.164378
Sum of atomic charges:    0.0000000

LOEWDIN ATOMIC CHARGES
----------------------
   0 C :    0.102541
   1 C :   -0.008697
   2 O :    0.294548
   3 C :   -0.413125
   4 O :    0.112742
   5 C :   -0.089807
   6 C :   -0.065922
   7 C :    0.124274
   8 N :    0.404522
   9 C :   -0.459295
  10 S :   -0.037132
  11 N :    0.397902
  12 C :   -0.046503
  13 C :   -0.038486
  14 C :    0.021570
  15 C :    0.040493
  16 C :   -0.002536
  17 C :   -0.192464
  18 O :    0.392965
  19 C :    0.028818
  20 H :   -0.026001
  21 H :   -0.028655
  22 H :   -0.024551
  23 H :   -0.026155
  24 H :   -0.028368
  25 H :   -0.009674
  26 H :   -0.009222
  27 H :   -0.021319
  28 H :   -0.059465
  29 H :   -0.063735
  30 H :   -0.005505
  31 H :   -0.025517
  32 H :   -0.021484
  33 H :   -0.036582
  34 H :   -0.155084
  35 H :   -0.025090

  Mayer bond orders larger than 0.100000
B(  0-C ,  1-C ) :   0.9745 B(  0-C , 20-H ) :   0.9756 B(  0-C , 21-H ) :   0.9749
B(  0-C , 22-H ) :   0.9720 B(  1-C ,  2-O ) :   0.9009 B(  1-C , 23-H ) :   0.9819
B(  1-C , 24-H ) :   0.9791 B(  2-O ,  3-C ) :   1.1495 B(  3-C ,  4-O ) :   1.9712
B(  3-C ,  5-C ) :   1.0607 B(  5-C ,  6-C ) :   1.6483 B(  5-C , 12-C ) :   0.9647
B(  6-C ,  7-C ) :   0.9557 B(  6-C ,  8-N ) :   1.1472 B(  7-C , 25-H ) :   0.9636
B(  7-C , 26-H ) :   0.9663 B(  7-C , 27-H ) :   0.9920 B(  8-N ,  9-C ) :   1.1789
B(  8-N , 28-H ) :   0.9491 B(  9-C , 10-S ) :   1.6096 B(  9-C , 11-N ) :   1.3044
B( 11-N , 12-C ) :   0.9932 B( 11-N , 29-H ) :   0.9521 B( 12-C , 13-C ) :   0.9480
B( 12-C , 30-H ) :   1.0001 B( 13-C , 14-C ) :   1.3752 B( 13-C , 19-C ) :   1.3699
B( 14-C , 15-C ) :   1.3948 B( 14-C , 31-H ) :   0.9651 B( 15-C , 16-C ) :   1.3626
B( 15-C , 32-H ) :   0.9715 B( 16-C , 17-C ) :   1.3315 B( 16-C , 33-H ) :   0.9861
B( 17-C , 18-O ) :   1.1079 B( 17-C , 19-C ) :   1.3793 B( 18-O , 34-H ) :   0.9808
B( 19-C , 35-H ) :   0.9584

MP2 TOTAL ENERGY:    -1274.337911454 Eh
FINAL SINGLE POINT ENERGY     -1274.337911454059

DIPOLE MOMENT
-------------
                                X             Y             Z
Electronic contribution:      9.68057      10.06914      11.40064
Nuclear contribution   :    -11.36678     -11.22926     -12.44571
                        -----------------------------------------
Total Dipole Moment    :     -1.68621      -1.16012      -1.04506
                        -----------------------------------------
Magnitude (a.u.)       :      2.29812
Magnitude (Debye)      :      5.84135

Rotational constants in cm-1:     0.010603     0.008835     0.005802
Rotational constants in MHz :   317.858810   264.867070   173.952458

                             ****ORCA TERMINATED NORMALLY****
TOTAL RUN TIME: 0 days 1 hours 54 minutes 25 seconds 970 msec
