                         Program Version 5.0.0 -  RELEASE  -
|  1> ! ri-mp2 cc-pvtz cc-pvtz/c TightSCF NoKeepInts
|  2>
|  3> %scf
|  4>   MaxCore 4096
|  5> end
|  6> *xyz  0  1
|  7>     C       14.8640825   15.1082268   16.2132221
|  8>     C       16.0427275   14.5396742   17.0271090
|  9>     O       17.2825704   14.8547021   16.3561905
| 10>     C       17.6778280   16.1455194   16.1380353
| 11>     O       17.6960472   16.5812795   15.0016817
| 12>     C       17.7518555   17.0290734   17.3510519
| 13>     C       17.3295470   18.3172201   17.3152525
| 14>     C       16.5713798   18.9981375   16.1964595
| 15>     N       17.6448580   19.1857440   18.3638077
| 16>     C       18.5804884   18.9205867   19.3289889
| 17>     S       19.0536976   20.0619875   20.4279192
| 18>     N       19.1127640   17.6551038   19.3310617
| 19>     C       18.5897574   16.5234727   18.5412122
| 20>     C       17.8679434   15.5585483   19.4738364
| 21>     C       18.2544038   14.2059880   19.5317077
| 22>     C       17.5897374   13.3084288   20.3839906
| 23>     C       16.5336125   13.7667551   21.1897330
| 24>     C       16.1510735   15.1140643   21.1416705
| 25>     O       15.1290695   15.5587796   21.9147124
| 26>     C       16.8121563   16.0050859   20.2905105
| 27>     H       14.8515330   16.2033577   16.2439137
| 28>     H       13.9109479   14.7493106   16.6201631
| 29>     H       14.9294505   14.7907003   15.1645627
| 30>     H       15.9912943   14.9494613   18.0363677
| 31>     H       15.9414698   13.4492287   17.1007110
| 32>     H       15.8188544   18.3301916   15.7616183
| 33>     H       17.2586103   19.2790688   15.3877203
| 34>     H       16.0506236   19.9035537   16.5296036
| 35>     H       17.2848264   20.1269650   18.3562901
| 36>     H       19.7876044   17.4836129   20.0657377
| 37>     H       19.4565085   15.9936721   18.1209116
| 38>     H       19.0675096   13.8456106   18.9063066
| 39>     H       17.8946426   12.2635981   20.4192444
| 40>     H       16.0181328   13.0767514   21.8500671
| 41>     H       14.8482035   14.8241365   22.4811933
| 42>     H       16.5011889   17.0444030   20.2714353
| 43> *
| 44>
| 45>                          ****END OF INPUT****

CARTESIAN COORDINATES (ANGSTROEM)
---------------------------------
  C     14.864082   15.108227   16.213222
  C     16.042728   14.539674   17.027109
  O     17.282570   14.854702   16.356191
  C     17.677828   16.145519   16.138035
  O     17.696047   16.581280   15.001682
  C     17.751855   17.029073   17.351052
  C     17.329547   18.317220   17.315252
  C     16.571380   18.998137   16.196459
  N     17.644858   19.185744   18.363808
  C     18.580488   18.920587   19.328989
  S     19.053698   20.061987   20.427919
  N     19.112764   17.655104   19.331062
  C     18.589757   16.523473   18.541212
  C     17.867943   15.558548   19.473836
  C     18.254404   14.205988   19.531708
  C     17.589737   13.308429   20.383991
  C     16.533613   13.766755   21.189733
  C     16.151073   15.114064   21.141671
  O     15.129069   15.558780   21.914712
  C     16.812156   16.005086   20.290510
  H     14.851533   16.203358   16.243914
  H     13.910948   14.749311   16.620163
  H     14.929450   14.790700   15.164563
  H     15.991294   14.949461   18.036368
  H     15.941470   13.449229   17.100711
  H     15.818854   18.330192   15.761618
  H     17.258610   19.279069   15.387720
  H     16.050624   19.903554   16.529604
  H     17.284826   20.126965   18.356290
  H     19.787604   17.483613   20.065738
  H     19.456509   15.993672   18.120912
  H     19.067510   13.845611   18.906307
  H     17.894643   12.263598   20.419244
  H     16.018133   13.076751   21.850067
  H     14.848204   14.824136   22.481193
  H     16.501189   17.044403   20.271435

 Total Charge           Charge          ....    0
 Multiplicity           Mult            ....    1
 Number of Electrons    NEL             ....  154
 Basis Dimension        Dim             ....  828

ORBITAL ENERGIES
----------------

  NO   OCC          E(Eh)            E(eV)
   0   2.0000     -91.891655     -2500.4990
   1   2.0000     -20.603037      -560.6371
   2   2.0000     -20.585097      -560.1490
   3   2.0000     -20.552218      -559.2543
   4   2.0000     -15.630125      -425.3173
   5   2.0000     -15.611462      -424.8095
   6   2.0000     -11.394155      -310.0507
   7   2.0000     -11.386561      -309.8441
   8   2.0000     -11.334837      -308.4366
   9   2.0000     -11.321431      -308.0718
  10   2.0000     -11.317282      -307.9589
  11   2.0000     -11.297420      -307.4184
  12   2.0000     -11.266418      -306.5748
  13   2.0000     -11.262473      -306.4675
  14   2.0000     -11.260571      -306.4157
  15   2.0000     -11.255829      -306.2867
  16   2.0000     -11.250703      -306.1472
  17   2.0000     -11.245179      -305.9969
  18   2.0000     -11.244854      -305.9880
  19   2.0000     -11.227607      -305.5187
  20   2.0000      -8.896684      -242.0911
  21   2.0000      -6.578251      -179.0033
  22   2.0000      -6.576253      -178.9489
  23   2.0000      -6.575658      -178.9328
  24   2.0000      -1.445159       -39.3248
  25   2.0000      -1.422793       -38.7162
  26   2.0000      -1.354590       -36.8603
  27   2.0000      -1.342459       -36.5302
  28   2.0000      -1.241695       -33.7882
  29   2.0000      -1.164024       -31.6747
  30   2.0000      -1.122890       -30.5554
  31   2.0000      -1.048702       -28.5366
  32   2.0000      -1.032753       -28.1026
  33   2.0000      -1.022510       -27.8239
  34   2.0000      -1.001893       -27.2629
  35   2.0000      -0.988230       -26.8911
  36   2.0000      -0.927802       -25.2468
  37   2.0000      -0.890266       -24.2254
  38   2.0000      -0.851281       -23.1645
  39   2.0000      -0.845400       -23.0045
  40   2.0000      -0.841159       -22.8891
  41   2.0000      -0.830836       -22.6082
  42   2.0000      -0.752650       -20.4806
  43   2.0000      -0.736989       -20.0545
  44   2.0000      -0.717850       -19.5337
  45   2.0000      -0.702083       -19.1047
  46   2.0000      -0.692393       -18.8410
  47   2.0000      -0.681842       -18.5539
  48   2.0000      -0.672695       -18.3049
  49   2.0000      -0.666405       -18.1338
  50   2.0000      -0.653209       -17.7747
  51   2.0000      -0.649360       -17.6700
  52   2.0000      -0.637144       -17.3376
  53   2.0000      -0.617163       -16.7939
  54   2.0000      -0.612459       -16.6659
  55   2.0000      -0.605519       -16.4770
  56   2.0000      -0.602640       -16.3987
  57   2.0000      -0.582866       -15.8606
  58   2.0000      -0.576881       -15.6977
  59   2.0000      -0.567344       -15.4382
  60   2.0000      -0.553035       -15.0488
  61   2.0000      -0.550300       -14.9744
  62   2.0000      -0.542085       -14.7509
  63   2.0000      -0.531055       -14.4508
  64   2.0000      -0.526563       -14.3285
  65   2.0000      -0.518705       -14.1147
  66   2.0000      -0.506494       -13.7824
  67   2.0000      -0.499869       -13.6021
  68   2.0000      -0.478060       -13.0087
  69   2.0000      -0.469369       -12.7722
  70   2.0000      -0.453103       -12.3296
  71   2.0000      -0.447111       -12.1665
  72   2.0000      -0.359236        -9.7753
  73   2.0000      -0.354578        -9.6486
  74   2.0000      -0.331751        -9.0274
  75   2.0000      -0.328845        -8.9483
  76   2.0000      -0.319376        -8.6907
  77   0.0000       0.073743         2.0066
  78   0.0000       0.100130         2.7247
  79   0.0000       0.119902         3.2627
  80   0.0000       0.126879         3.4525
  81   0.0000       0.130947         3.5632

MULLIKEN ATOMIC CHARGES
-----------------------
   0 C :   -0.286736
   1 C :    0.032569
   2 O :   -0.358774
   3 C :    0.415705
   4 O :   -0.371137
   5 C :   -0.223869
   6 C :    0.156900
   7 C :   -0.281087
   8 N :   -0.125904
   9 C :    0.196545
  10 S :   -0.433170
  11 N :   -0.189478
  12 C :    0.032890
  13 C :    0.033085
  14 C :   -0.172778
  15 C :   -0.135886
  16 C :   -0.272606
  17 C :    0.301387
  18 O :   -0.354553
  19 C :   -0.251340
  20 H :    0.081181
  21 H :    0.102853
  22 H :    0.115016
  23 H :    0.104606
  24 H :    0.118980
  25 H :    0.122495
  26 H :    0.143102
  27 H :    0.095185
  28 H :    0.198085
  29 H :    0.190899
  30 H :    0.151279
  31 H :    0.151701
  32 H :    0.164521
  33 H :    0.134799
  34 H :    0.241498
  35 H :    0.172038
Sum of atomic charges:   -0.0000000

LOEWDIN ATOMIC CHARGES
----------------------
   0 C :    0.106457
   1 C :   -0.017862
   2 O :    0.287187
   3 C :   -0.423675
   4 O :    0.132596
   5 C :   -0.095141
   6 C :   -0.070225
   7 C :    0.129920
   8 N :    0.405709
   9 C :   -0.458620
  10 S :   -0.031635
  11 N :    0.396638
  12 C :   -0.051815
  13 C :   -0.044372
  14 C :    0.016873
  15 C :    0.043467
  16 C :    0.000187
  17 C :   -0.191588
  18 O :    0.397355
  19 C :    0.030408
  20 H :   -0.033967
  21 H :   -0.025409
  22 H :   -0.021419
  23 H :   -0.039533
  24 H :   -0.020992
  25 H :   -0.011650
  26 H :   -0.002657
  27 H :   -0.021754
  28 H :   -0.057406
  29 H :   -0.064613
  30 H :   -0.006340
  31 H :   -0.028106
  32 H :   -0.019029
  33 H :   -0.033842
  34 H :   -0.152451
  35 H :   -0.022698

  Mayer bond orders larger than 0.100000
B(  0-C ,  1-C ) :   0.9774 B(  0-C , 20-H ) :   0.9758 B(  0-C , 21-H ) :   0.9774
B(  0-C , 22-H ) :   0.9761 B(  1-C ,  2-O ) :   0.8859 B(  1-C , 23-H ) :   0.9595
B(  1-C , 24-H ) :   0.9806 B(  2-O ,  3-C ) :   1.1409 B(  3-C ,  4-O ) :   2.0919
B(  3-C ,  5-C ) :   0.9653 B(  5-C ,  6-C ) :   1.6874 B(  5-C , 12-C ) :   0.9625
B(  6-C ,  7-C ) :   0.9629 B(  6-C ,  8-N ) :   1.1347 B(  7-C , 25-H ) :   0.9718
B(  7-C , 26-H ) :   0.9558 B(  7-C , 27-H ) :   0.9847 B(  8-N ,  9-C ) :   1.1835
B(  8-N , 28-H ) :   0.9499 B(  9-C , 10-S ) :   1.6214 B(  9-C , 11-N ) :   1.2895
B( 11-N , 12-C ) :   0.9952 B( 11-N , 29-H ) :   0.9531 B( 12-C , 13-C ) :   0.9444
B( 12-C , 30-H ) :   1.0091 B( 13-C , 14-C ) :   1.3727 B( 13-C , 19-C ) :   1.3631
B( 14-C , 15-C ) :   1.3859 B( 14-C , 31-H ) :   0.9700 B( 15-C , 16-C ) :   1.3687
B( 15-C , 32-H ) :   0.9697 B( 16-C , 17-C ) :   1.3270 B( 16-C , 33-H ) :   0.9830
B( 17-C , 18-O ) :   1.1159 B( 17-C , 19-C ) :   1.3750 B( 18-O , 34-H ) :   0.9790
B( 19-C , 35-H ) :   0.9571

MP2 TOTAL ENERGY:    -1274.325995425 Eh
FINAL SINGLE POINT ENERGY     -1274.325995425435

DIPOLE MOMENT
-------------
                                X             Y             Z
Electronic contribution:     10.69212       7.28444       7.13882
Nuclear contribution   :    -11.97539      -8.90279      -6.77709
                        -----------------------------------------
Total Dipole Moment    :     -1.28327      -1.61834       0.36172
                        -----------------------------------------
Magnitude (a.u.)       :      2.09682
Magnitude (Debye)      :      5.32970

Rotational constants in cm-1:     0.011260     0.009904     0.006483
Rotational constants in MHz :   337.578234   296.902754   194.357610

                             ****ORCA TERMINATED NORMALLY****
TOTAL RUN TIME: 0 days 2 hours 11 minutes 31 seconds 963 msec
