                         Program Version 5.0.0 -  RELEASE  -
|  1> ! ri-mp2 cc-pvtz cc-pvtz/c TightSCF NoKeepInts
|  2>
|  3> %scf
|  4>   MaxCore 4096
|  5> end
|  6> *xyz  0  1
|  7>     C       14.8882677   16.1599997   17.3084490
|  8>     C       15.6330177   14.8943490   16.8363637
|  9>     O       16.8199179   15.1153949   16.0306092
| 10>     C       17.9925540   15.7155765   16.4243496
| 11>     O       19.0374682   15.1045494   16.2960283
| 12>     C       17.9124789   16.8723952   17.3588228
| 13>     C       17.3876694   18.0608073   16.9821112
| 14>     C       16.8244860   18.4164871   15.6226707
| 15>     N       17.4220268   19.1452151   17.8611444
| 16>     C       18.0396146   19.1376751   19.0850301
| 17>     S       18.0643572   20.4777441   20.0533625
| 18>     N       18.6368142   17.9618688   19.4698587
| 19>     C       18.5987276   16.6935224   18.7139925
| 20>     C       17.9459446   15.5714432   19.5188213
| 21>     C       18.4454328   14.2591301   19.4249667
| 22>     C       17.8414820   13.2081504   20.1346267
| 23>     C       16.7260136   13.4691069   20.9478634
| 24>     C       16.2242433   14.7735632   21.0456046
| 25>     O       15.1406461   15.0279229   21.8210102
| 26>     C       16.8273757   15.8178965   20.3375996
| 27>     H       15.4125658   16.6810986   18.1137142
| 28>     H       13.9084785   15.8750535   17.7110749
| 29>     H       14.7080370   16.8470034   16.4749507
| 30>     H       15.9005447   14.2912937   17.7147039
| 31>     H       14.9328100   14.2940152   16.2412383
| 32>     H       16.6271456   17.5329450   15.0042746
| 33>     H       17.5311954   19.0468525   15.0681803
| 34>     H       15.8800490   18.9669404   15.7132953
| 35>     H       17.0111240   20.0242218   17.5882538
| 36>     H       19.0716045   17.9833238   20.3837596
| 37>     H       19.6398182   16.3977242   18.5161972
| 38>     H       19.3005671   14.0502375   18.7849697
| 39>     H       18.2373312   12.1974259   20.0485195
| 40>     H       16.2554729   12.6596207   21.4963379
| 41>     H       14.9060953   14.2036476   22.2738934
| 42>     H       16.4156228   16.8177985   20.4273516
| 43> *
| 44>
| 45>                          ****END OF INPUT****

CARTESIAN COORDINATES (ANGSTROEM)
---------------------------------
  C     14.888268   16.160000   17.308449
  C     15.633018   14.894349   16.836364
  O     16.819918   15.115395   16.030609
  C     17.992554   15.715576   16.424350
  O     19.037468   15.104549   16.296028
  C     17.912479   16.872395   17.358823
  C     17.387669   18.060807   16.982111
  C     16.824486   18.416487   15.622671
  N     17.422027   19.145215   17.861144
  C     18.039615   19.137675   19.085030
  S     18.064357   20.477744   20.053362
  N     18.636814   17.961869   19.469859
  C     18.598728   16.693522   18.713992
  C     17.945945   15.571443   19.518821
  C     18.445433   14.259130   19.424967
  C     17.841482   13.208150   20.134627
  C     16.726014   13.469107   20.947863
  C     16.224243   14.773563   21.045605
  O     15.140646   15.027923   21.821010
  C     16.827376   15.817896   20.337600
  H     15.412566   16.681099   18.113714
  H     13.908478   15.875053   17.711075
  H     14.708037   16.847003   16.474951
  H     15.900545   14.291294   17.714704
  H     14.932810   14.294015   16.241238
  H     16.627146   17.532945   15.004275
  H     17.531195   19.046852   15.068180
  H     15.880049   18.966940   15.713295
  H     17.011124   20.024222   17.588254
  H     19.071604   17.983324   20.383760
  H     19.639818   16.397724   18.516197
  H     19.300567   14.050237   18.784970
  H     18.237331   12.197426   20.048520
  H     16.255473   12.659621   21.496338
  H     14.906095   14.203648   22.273893
  H     16.415623   16.817798   20.427352

 Total Charge           Charge          ....    0
 Multiplicity           Mult            ....    1
 Number of Electrons    NEL             ....  154
 Basis Dimension        Dim             ....  828

ORBITAL ENERGIES
----------------

  NO   OCC          E(Eh)            E(eV)
   0   2.0000     -91.890708     -2500.4733
   1   2.0000     -20.601460      -560.5942
   2   2.0000     -20.589431      -560.2669
   3   2.0000     -20.552232      -559.2547
   4   2.0000     -15.627512      -425.2462
   5   2.0000     -15.612356      -424.8338
   6   2.0000     -11.397267      -310.1354
   7   2.0000     -11.387486      -309.8692
   8   2.0000     -11.328628      -308.2676
   9   2.0000     -11.318705      -307.9976
  10   2.0000     -11.315577      -307.9125
  11   2.0000     -11.306284      -307.6596
  12   2.0000     -11.265977      -306.5628
  13   2.0000     -11.265079      -306.5384
  14   2.0000     -11.261569      -306.4429
  15   2.0000     -11.258664      -306.3638
  16   2.0000     -11.248102      -306.0764
  17   2.0000     -11.244107      -305.9677
  18   2.0000     -11.240523      -305.8702
  19   2.0000     -11.232752      -305.6587
  20   2.0000      -8.895809      -242.0673
  21   2.0000      -6.577394      -178.9800
  22   2.0000      -6.575372      -178.9250
  23   2.0000      -6.574793      -178.9092
  24   2.0000      -1.442915       -39.2637
  25   2.0000      -1.421282       -38.6750
  26   2.0000      -1.354084       -36.8465
  27   2.0000      -1.340489       -36.4766
  28   2.0000      -1.240449       -33.7543
  29   2.0000      -1.162837       -31.6424
  30   2.0000      -1.125581       -30.6286
  31   2.0000      -1.049520       -28.5589
  32   2.0000      -1.037116       -28.2214
  33   2.0000      -1.020666       -27.7737
  34   2.0000      -1.004973       -27.3467
  35   2.0000      -0.990753       -26.9598
  36   2.0000      -0.928507       -25.2660
  37   2.0000      -0.894939       -24.3525
  38   2.0000      -0.852733       -23.2040
  39   2.0000      -0.842263       -22.9191
  40   2.0000      -0.838464       -22.8158
  41   2.0000      -0.830482       -22.5986
  42   2.0000      -0.750660       -20.4265
  43   2.0000      -0.735277       -20.0079
  44   2.0000      -0.730132       -19.8679
  45   2.0000      -0.699338       -19.0299
  46   2.0000      -0.688664       -18.7395
  47   2.0000      -0.677791       -18.4436
  48   2.0000      -0.675070       -18.3696
  49   2.0000      -0.662514       -18.0279
  50   2.0000      -0.655158       -17.8278
  51   2.0000      -0.646762       -17.5993
  52   2.0000      -0.640330       -17.4243
  53   2.0000      -0.614199       -16.7132
  54   2.0000      -0.607872       -16.5410
  55   2.0000      -0.605492       -16.4763
  56   2.0000      -0.600853       -16.3500
  57   2.0000      -0.593413       -16.1476
  58   2.0000      -0.580093       -15.7851
  59   2.0000      -0.577862       -15.7244
  60   2.0000      -0.566930       -15.4269
  61   2.0000      -0.556859       -15.1529
  62   2.0000      -0.540639       -14.7115
  63   2.0000      -0.531585       -14.4652
  64   2.0000      -0.522117       -14.2075
  65   2.0000      -0.514150       -13.9907
  66   2.0000      -0.503687       -13.7060
  67   2.0000      -0.493896       -13.4396
  68   2.0000      -0.487953       -13.2779
  69   2.0000      -0.464563       -12.6414
  70   2.0000      -0.457586       -12.4515
  71   2.0000      -0.448300       -12.1989
  72   2.0000      -0.355601        -9.6764
  73   2.0000      -0.352932        -9.6038
  74   2.0000      -0.330304        -8.9880
  75   2.0000      -0.326540        -8.8856
  76   2.0000      -0.319272        -8.6878
  77   0.0000       0.084799         2.3075
  78   0.0000       0.102675         2.7939
  79   0.0000       0.118634         3.2282
  80   0.0000       0.125108         3.4044
  81   0.0000       0.128663         3.5011

MULLIKEN ATOMIC CHARGES
-----------------------
   0 C :   -0.342619
   1 C :    0.043080
   2 O :   -0.353612
   3 C :    0.406981
   4 O :   -0.375406
   5 C :   -0.189820
   6 C :    0.140148
   7 C :   -0.329125
   8 N :   -0.135272
   9 C :    0.207582
  10 S :   -0.439917
  11 N :   -0.226943
  12 C :    0.097478
  13 C :    0.009897
  14 C :   -0.211048
  15 C :   -0.132828
  16 C :   -0.278304
  17 C :    0.321775
  18 O :   -0.356414
  19 C :   -0.281160
  20 H :    0.114875
  21 H :    0.126989
  22 H :    0.103346
  23 H :    0.104497
  24 H :    0.124788
  25 H :    0.126274
  26 H :    0.149572
  27 H :    0.111218
  28 H :    0.196934
  29 H :    0.201602
  30 H :    0.165549
  31 H :    0.174244
  32 H :    0.165499
  33 H :    0.133460
  34 H :    0.241824
  35 H :    0.184860
Sum of atomic charges:   -0.0000000

LOEWDIN ATOMIC CHARGES
----------------------
   0 C :    0.103409
   1 C :   -0.010680
   2 O :    0.281133
   3 C :   -0.415645
   4 O :    0.131087
   5 C :   -0.084905
   6 C :   -0.094115
   7 C :    0.124434
   8 N :    0.403623
   9 C :   -0.455660
  10 S :   -0.036834
  11 N :    0.397721
  12 C :   -0.044075
  13 C :   -0.043823
  14 C :    0.020636
  15 C :    0.043372
  16 C :   -0.001304
  17 C :   -0.194104
  18 O :    0.395768
  19 C :    0.027307
  20 H :   -0.036341
  21 H :   -0.020262
  22 H :   -0.030999
  23 H :   -0.027253
  24 H :   -0.019035
  25 H :   -0.010922
  26 H :   -0.008523
  27 H :   -0.018058
  28 H :   -0.057314
  29 H :   -0.064030
  30 H :   -0.002985
  31 H :   -0.021489
  32 H :   -0.018091
  33 H :   -0.034282
  34 H :   -0.152724
  35 H :   -0.025035

  Mayer bond orders larger than 0.100000
B(  0-C ,  1-C ) :   0.9580 B(  0-C , 20-H ) :   0.9688 B(  0-C , 21-H ) :   0.9778
B(  0-C , 22-H ) :   0.9769 B(  1-C ,  2-O ) :   0.9000 B(  1-C , 23-H ) :   0.9729
B(  1-C , 24-H ) :   0.9829 B(  2-O ,  3-C ) :   1.1535 B(  3-C ,  4-O ) :   2.0980
B(  3-C ,  5-C ) :   0.9333 B(  5-C ,  6-C ) :   1.6822 B(  5-C , 12-C ) :   0.9490
B(  6-C ,  7-C ) :   0.9498 B(  6-C ,  8-N ) :   1.1192 B(  7-C , 25-H ) :   0.9767
B(  7-C , 26-H ) :   0.9649 B(  7-C , 27-H ) :   0.9714 B(  8-N ,  9-C ) :   1.1959
B(  8-N , 28-H ) :   0.9513 B(  9-C , 10-S ) :   1.6107 B(  9-C , 11-N ) :   1.2851
B( 11-N , 12-C ) :   0.9934 B( 11-N , 29-H ) :   0.9478 B( 12-C , 13-C ) :   0.9417
B( 12-C , 30-H ) :   0.9980 B( 13-C , 14-C ) :   1.3884 B( 13-C , 19-C ) :   1.3395
B( 14-C , 15-C ) :   1.4024 B( 14-C , 31-H ) :   0.9596 B( 15-C , 16-C ) :   1.3576
B( 15-C , 32-H ) :   0.9697 B( 16-C , 17-C ) :   1.3316 B( 16-C , 33-H ) :   0.9843
B( 17-C , 18-O ) :   1.1115 B( 17-C , 19-C ) :   1.3647 B( 18-O , 34-H ) :   0.9790
B( 19-C , 35-H ) :   0.9511

MP2 TOTAL ENERGY:    -1274.324200301 Eh
FINAL SINGLE POINT ENERGY     -1274.324200300630

DIPOLE MOMENT
-------------
                                X             Y             Z
Electronic contribution:      9.42732       5.46228       5.82322
Nuclear contribution   :    -10.83697      -6.69716      -6.14289
                        -----------------------------------------
Total Dipole Moment    :     -1.40965      -1.23488      -0.31967
                        -----------------------------------------
Magnitude (a.u.)       :      1.90111
Magnitude (Debye)      :      4.83224

Rotational constants in cm-1:     0.012440     0.009331     0.006956
Rotational constants in MHz :   372.946933   279.739537   208.545950

                             ****ORCA TERMINATED NORMALLY****
TOTAL RUN TIME: 0 days 1 hours 58 minutes 4 seconds 671 msec
