                         Program Version 5.0.0 -  RELEASE  -
|  1> ! ri-mp2 cc-pvtz cc-pvtz/c TightSCF NoKeepInts
|  2>
|  3> %scf
|  4>   MaxCore 4096
|  5> end
|  6> *xyz  0  1
|  7>     C       15.6619795   14.0564534   14.6542010
|  8>     C       15.0614918   14.8534293   15.8317963
|  9>     O       15.9484574   15.9242334   16.2125401
| 10>     C       17.1191214   15.6728107   16.8732944
| 11>     O       17.5468241   14.5433456   17.0465912
| 12>     C       17.6440450   16.8463472   17.6510474
| 13>     C       17.3346351   18.1463028   17.4026053
| 14>     C       16.4371663   18.7015233   16.3154089
| 15>     N       17.9366984   19.1595213   18.1562617
| 16>     C       18.9575276   18.9705661   19.0499659
| 17>     S       19.7058097   20.2404898   19.8003514
| 18>     N       19.3272389   17.6714602   19.2886192
| 19>     C       18.6067782   16.4855375   18.7886722
| 20>     C       17.8717227   15.7876181   19.9303197
| 21>     C       18.0896523   14.4214904   20.1879589
| 22>     C       17.4148520   13.7730839   21.2358843
| 23>     C       16.5131081   14.4962477   22.0349255
| 24>     C       16.2900800   15.8560758   21.7795677
| 25>     O       15.4153560   16.5557174   22.5455977
| 26>     C       16.9628720   16.4985645   20.7355164
| 27>     H       15.9335660   14.7278527   13.8304479
| 28>     H       14.9321615   13.3306331   14.2758536
| 29>     H       16.5568607   13.4996647   14.9568964
| 30>     H       14.0998330   15.2794251   15.5184453
| 31>     H       14.8758352   14.1865337   16.6849318
| 32>     H       15.3853346   18.4735088   16.5285799
| 33>     H       16.6875039   18.2635459   15.3411426
| 34>     H       16.5243943   19.7896204   16.2091695
| 35>     H       17.6789297   20.1200206   17.9952793
| 36>     H       20.0607743   17.5565580   19.9760788
| 37>     H       19.3556725   15.7885838   18.3854565
| 38>     H       18.7734578   13.8557077   19.5598379
| 39>     H       17.5879755   12.7144007   21.4202113
| 40>     H       15.9884474   13.9990028   22.8438379
| 41>     H       15.0829949   15.9537976   23.2281868
| 42>     H       16.7778418   17.5523259   20.5585194
| 43> *
| 44>
| 45>                          ****END OF INPUT****

CARTESIAN COORDINATES (ANGSTROEM)
---------------------------------
  C     15.661979   14.056453   14.654201
  C     15.061492   14.853429   15.831796
  O     15.948457   15.924233   16.212540
  C     17.119121   15.672811   16.873294
  O     17.546824   14.543346   17.046591
  C     17.644045   16.846347   17.651047
  C     17.334635   18.146303   17.402605
  C     16.437166   18.701523   16.315409
  N     17.936698   19.159521   18.156262
  C     18.957528   18.970566   19.049966
  S     19.705810   20.240490   19.800351
  N     19.327239   17.671460   19.288619
  C     18.606778   16.485537   18.788672
  C     17.871723   15.787618   19.930320
  C     18.089652   14.421490   20.187959
  C     17.414852   13.773084   21.235884
  C     16.513108   14.496248   22.034925
  C     16.290080   15.856076   21.779568
  O     15.415356   16.555717   22.545598
  C     16.962872   16.498565   20.735516
  H     15.933566   14.727853   13.830448
  H     14.932161   13.330633   14.275854
  H     16.556861   13.499665   14.956896
  H     14.099833   15.279425   15.518445
  H     14.875835   14.186534   16.684932
  H     15.385335   18.473509   16.528580
  H     16.687504   18.263546   15.341143
  H     16.524394   19.789620   16.209170
  H     17.678930   20.120021   17.995279
  H     20.060774   17.556558   19.976079
  H     19.355673   15.788584   18.385457
  H     18.773458   13.855708   19.559838
  H     17.587975   12.714401   21.420211
  H     15.988447   13.999003   22.843838
  H     15.082995   15.953798   23.228187
  H     16.777842   17.552326   20.558519

 Total Charge           Charge          ....    0
 Multiplicity           Mult            ....    1
 Number of Electrons    NEL             ....  154
 Basis Dimension        Dim             ....  828

ORBITAL ENERGIES
----------------

  NO   OCC          E(Eh)            E(eV)
   0   2.0000     -91.887700     -2500.3914
   1   2.0000     -20.602338      -560.6181
   2   2.0000     -20.591223      -560.3157
   3   2.0000     -20.547099      -559.1150
   4   2.0000     -15.627815      -425.2545
   5   2.0000     -15.606428      -424.6725
   6   2.0000     -11.397294      -310.1361
   7   2.0000     -11.382621      -309.7369
   8   2.0000     -11.335277      -308.4486
   9   2.0000     -11.307070      -307.6810
  10   2.0000     -11.305527      -307.6390
  11   2.0000     -11.302206      -307.5487
  12   2.0000     -11.260266      -306.4074
  13   2.0000     -11.258554      -306.3608
  14   2.0000     -11.253070      -306.2116
  15   2.0000     -11.247289      -306.0543
  16   2.0000     -11.236895      -305.7715
  17   2.0000     -11.232955      -305.6642
  18   2.0000     -11.230067      -305.5857
  19   2.0000     -11.224241      -305.4271
  20   2.0000      -8.892768      -241.9845
  21   2.0000      -6.574346      -178.8971
  22   2.0000      -6.572339      -178.8424
  23   2.0000      -6.571754      -178.8265
  24   2.0000      -1.452886       -39.5351
  25   2.0000      -1.410955       -38.3940
  26   2.0000      -1.357924       -36.9510
  27   2.0000      -1.338875       -36.4326
  28   2.0000      -1.236556       -33.6484
  29   2.0000      -1.151696       -31.3392
  30   2.0000      -1.119145       -30.4535
  31   2.0000      -1.041742       -28.3472
  32   2.0000      -1.033866       -28.1329
  33   2.0000      -1.009038       -27.4573
  34   2.0000      -0.996690       -27.1213
  35   2.0000      -0.982225       -26.7277
  36   2.0000      -0.921001       -25.0617
  37   2.0000      -0.893330       -24.3088
  38   2.0000      -0.847374       -23.0582
  39   2.0000      -0.835200       -22.7270
  40   2.0000      -0.827490       -22.5171
  41   2.0000      -0.817764       -22.2525
  42   2.0000      -0.751649       -20.4534
  43   2.0000      -0.733456       -19.9583
  44   2.0000      -0.724579       -19.7168
  45   2.0000      -0.690509       -18.7897
  46   2.0000      -0.684797       -18.6343
  47   2.0000      -0.679709       -18.4958
  48   2.0000      -0.670875       -18.2554
  49   2.0000      -0.661050       -17.9881
  50   2.0000      -0.645807       -17.5733
  51   2.0000      -0.641247       -17.4492
  52   2.0000      -0.631286       -17.1782
  53   2.0000      -0.609856       -16.5950
  54   2.0000      -0.599652       -16.3174
  55   2.0000      -0.599013       -16.3000
  56   2.0000      -0.594376       -16.1738
  57   2.0000      -0.585815       -15.9408
  58   2.0000      -0.572615       -15.5816
  59   2.0000      -0.566832       -15.4243
  60   2.0000      -0.559998       -15.2383
  61   2.0000      -0.545424       -14.8417
  62   2.0000      -0.535666       -14.5762
  63   2.0000      -0.522399       -14.2152
  64   2.0000      -0.516662       -14.0591
  65   2.0000      -0.510704       -13.8970
  66   2.0000      -0.501023       -13.6335
  67   2.0000      -0.495151       -13.4737
  68   2.0000      -0.479776       -13.0554
  69   2.0000      -0.461696       -12.5634
  70   2.0000      -0.457248       -12.4423
  71   2.0000      -0.453309       -12.3352
  72   2.0000      -0.353706        -9.6248
  73   2.0000      -0.343551        -9.3485
  74   2.0000      -0.326846        -8.8939
  75   2.0000      -0.315228        -8.5778
  76   2.0000      -0.313427        -8.5288
  77   0.0000       0.076485         2.0813
  78   0.0000       0.113451         3.0871
  79   0.0000       0.121494         3.3060
  80   0.0000       0.136315         3.7093
  81   0.0000       0.141046         3.8381

MULLIKEN ATOMIC CHARGES
-----------------------
   0 C :   -0.301321
   1 C :    0.042165
   2 O :   -0.347653
   3 C :    0.438008
   4 O :   -0.433327
   5 C :   -0.153034
   6 C :    0.142361
   7 C :   -0.285534
   8 N :   -0.121423
   9 C :    0.201475
  10 S :   -0.439939
  11 N :   -0.196535
  12 C :    0.034119
  13 C :    0.056544
  14 C :   -0.161355
  15 C :   -0.134203
  16 C :   -0.279019
  17 C :    0.311459
  18 O :   -0.359006
  19 C :   -0.270658
  20 H :    0.089845
  21 H :    0.095490
  22 H :    0.124878
  23 H :    0.104604
  24 H :    0.099308
  25 H :    0.128729
  26 H :    0.124401
  27 H :    0.101772
  28 H :    0.196723
  29 H :    0.193316
  30 H :    0.153502
  31 H :    0.153146
  32 H :    0.158879
  33 H :    0.127899
  34 H :    0.239931
  35 H :    0.164451
Sum of atomic charges:    0.0000000

LOEWDIN ATOMIC CHARGES
----------------------
   0 C :    0.104476
   1 C :   -0.014369
   2 O :    0.301590
   3 C :   -0.411929
   4 O :    0.108028
   5 C :   -0.090157
   6 C :   -0.066845
   7 C :    0.124892
   8 N :    0.404621
   9 C :   -0.458845
  10 S :   -0.036479
  11 N :    0.397750
  12 C :   -0.046180
  13 C :   -0.038743
  14 C :    0.021636
  15 C :    0.040631
  16 C :   -0.002359
  17 C :   -0.192439
  18 O :    0.393065
  19 C :    0.028907
  20 H :   -0.030893
  21 H :   -0.027847
  22 H :   -0.025501
  23 H :   -0.025221
  24 H :   -0.026902
  25 H :   -0.009370
  26 H :   -0.009203
  27 H :   -0.020937
  28 H :   -0.059180
  29 H :   -0.063743
  30 H :   -0.005151
  31 H :   -0.025508
  32 H :   -0.021349
  33 H :   -0.036461
  34 H :   -0.154987
  35 H :   -0.024997

  Mayer bond orders larger than 0.100000
B(  0-C ,  1-C ) :   0.9672 B(  0-C , 20-H ) :   0.9761 B(  0-C , 21-H ) :   0.9772
B(  0-C , 22-H ) :   0.9720 B(  1-C ,  2-O ) :   0.9049 B(  1-C , 23-H ) :   0.9847
B(  1-C , 24-H ) :   0.9772 B(  2-O ,  3-C ) :   1.1473 B(  3-C ,  4-O ) :   1.9558
B(  3-C ,  5-C ) :   1.0600 B(  5-C ,  6-C ) :   1.6486 B(  5-C , 12-C ) :   0.9651
B(  6-C ,  7-C ) :   0.9549 B(  6-C ,  8-N ) :   1.1470 B(  7-C , 25-H ) :   0.9629
B(  7-C , 26-H ) :   0.9669 B(  7-C , 27-H ) :   0.9912 B(  8-N ,  9-C ) :   1.1792
B(  8-N , 28-H ) :   0.9491 B(  9-C , 10-S ) :   1.6102 B(  9-C , 11-N ) :   1.3035
B( 11-N , 12-C ) :   0.9938 B( 11-N , 29-H ) :   0.9519 B( 12-C , 13-C ) :   0.9470
B( 12-C , 30-H ) :   0.9997 B( 13-C , 14-C ) :   1.3752 B( 13-C , 19-C ) :   1.3703
B( 14-C , 15-C ) :   1.3946 B( 14-C , 31-H ) :   0.9652 B( 15-C , 16-C ) :   1.3627
B( 15-C , 32-H ) :   0.9715 B( 16-C , 17-C ) :   1.3313 B( 16-C , 33-H ) :   0.9861
B( 17-C , 18-O ) :   1.1080 B( 17-C , 19-C ) :   1.3791 B( 18-O , 34-H ) :   0.9807
B( 19-C , 35-H ) :   0.9584

MP2 TOTAL ENERGY:    -1274.344220157 Eh
FINAL SINGLE POINT ENERGY     -1274.344220156800

DIPOLE MOMENT
-------------
                                X             Y             Z
Electronic contribution:      9.79424       9.77656      11.68378
Nuclear contribution   :    -11.44998     -10.93520     -12.59037
                        -----------------------------------------
Total Dipole Moment    :     -1.65575      -1.15864      -0.90659
                        -----------------------------------------
Magnitude (a.u.)       :      2.21492
Magnitude (Debye)      :      5.62987

Rotational constants in cm-1:     0.010591     0.008874     0.005807
Rotational constants in MHz :   317.523932   266.025858   174.102756

                             ****ORCA TERMINATED NORMALLY****
TOTAL RUN TIME: 0 days 1 hours 24 minutes 7 seconds 347 msec
