                         Program Version 5.0.0 -  RELEASE  -
|  1> ! ri-mp2 cc-pvtz cc-pvtz/c TightSCF NoKeepInts
|  2>
|  3> %scf
|  4>   MaxCore 4096
|  5> end
|  6> *xyz  0  1
|  7>     C       16.1832287   12.9980822   17.2056525
|  8>     C       15.8568024   14.4172310   16.7101888
|  9>     O       17.0869114   15.0475550   16.3153880
| 10>     C       17.0490930   16.3933274   16.0969535
| 11>     O       16.2751929   16.8494749   15.2741858
| 12>     C       17.6571629   17.2115597   17.2047233
| 13>     C       17.6035228   18.5693102   17.2151205
| 14>     C       16.9227263   19.4726528   16.2087152
| 15>     N       18.2787001   19.2880155   18.2067571
| 16>     C       19.1853600   18.7448783   19.0777206
| 17>     S       20.0907032   19.6791821   20.0992338
| 18>     N       19.3200185   17.3804784   19.0416853
| 19>     C       18.4110723   16.4701776   18.3224227
| 20>     C       17.4890007   15.8025541   19.3392907
| 21>     C       17.8883891   14.6032325   19.9581900
| 22>     C       17.0657621   13.9786722   20.9106467
| 23>     C       15.8363950   14.5636862   21.2571320
| 24>     C       15.4438636   15.7688061   20.6597867
| 25>     O       14.2612524   16.3412637   20.9974589
| 26>     C       16.2643192   16.3881669   19.7119527
| 27>     H       16.6048137   12.3960273   16.3912874
| 28>     H       15.2751782   12.4996271   17.5656657
| 29>     H       16.9083975   13.0207064   18.0249463
| 30>     H       15.1616058   14.3742008   15.8608478
| 31>     H       15.3768545   14.9826536   17.5194430
| 32>     H       17.3097274   19.2869445   15.1986356
| 33>     H       17.0633430   20.5383750   16.4240431
| 34>     H       15.8426485   19.2790300   16.1854234
| 35>     H       18.1985574   20.2919296   18.2358667
| 36>     H       19.9789021   17.0063499   19.7119695
| 37>     H       19.0241016   15.6885208   17.8512975
| 38>     H       18.8403913   14.1496998   19.6951029
| 39>     H       17.3829728   13.0483411   21.3790007
| 40>     H       15.1979035   14.0859284   21.9931111
| 41>     H       13.8695492   15.8066679   21.7047659
| 42>     H       15.9425767   17.3286911   19.2793885
| 43> *
| 44>
| 45>                          ****END OF INPUT****

CARTESIAN COORDINATES (ANGSTROEM)
---------------------------------
  C     16.183229   12.998082   17.205652
  C     15.856802   14.417231   16.710189
  O     17.086911   15.047555   16.315388
  C     17.049093   16.393327   16.096954
  O     16.275193   16.849475   15.274186
  C     17.657163   17.211560   17.204723
  C     17.603523   18.569310   17.215121
  C     16.922726   19.472653   16.208715
  N     18.278700   19.288016   18.206757
  C     19.185360   18.744878   19.077721
  S     20.090703   19.679182   20.099234
  N     19.320018   17.380478   19.041685
  C     18.411072   16.470178   18.322423
  C     17.489001   15.802554   19.339291
  C     17.888389   14.603233   19.958190
  C     17.065762   13.978672   20.910647
  C     15.836395   14.563686   21.257132
  C     15.443864   15.768806   20.659787
  O     14.261252   16.341264   20.997459
  C     16.264319   16.388167   19.711953
  H     16.604814   12.396027   16.391287
  H     15.275178   12.499627   17.565666
  H     16.908397   13.020706   18.024946
  H     15.161606   14.374201   15.860848
  H     15.376854   14.982654   17.519443
  H     17.309727   19.286945   15.198636
  H     17.063343   20.538375   16.424043
  H     15.842648   19.279030   16.185423
  H     18.198557   20.291930   18.235867
  H     19.978902   17.006350   19.711969
  H     19.024102   15.688521   17.851297
  H     18.840391   14.149700   19.695103
  H     17.382973   13.048341   21.379001
  H     15.197903   14.085928   21.993111
  H     13.869549   15.806668   21.704766
  H     15.942577   17.328691   19.279388

 Total Charge           Charge          ....    0
 Multiplicity           Mult            ....    1
 Number of Electrons    NEL             ....  154
 Basis Dimension        Dim             ....  828

ORBITAL ENERGIES
----------------

  NO   OCC          E(Eh)            E(eV)
   0   2.0000     -91.890616     -2500.4708
   1   2.0000     -20.602390      -560.6195
   2   2.0000     -20.584467      -560.1318
   3   2.0000     -20.545539      -559.0725
   4   2.0000     -15.631579      -425.3569
   5   2.0000     -15.609683      -424.7611
   6   2.0000     -11.392108      -309.9950
   7   2.0000     -11.385332      -309.8106
   8   2.0000     -11.338279      -308.5302
   9   2.0000     -11.319812      -308.0277
  10   2.0000     -11.312089      -307.8176
  11   2.0000     -11.293423      -307.3097
  12   2.0000     -11.265664      -306.5543
  13   2.0000     -11.261455      -306.4398
  14   2.0000     -11.259979      -306.3996
  15   2.0000     -11.253660      -306.2277
  16   2.0000     -11.248382      -306.0840
  17   2.0000     -11.243759      -305.9582
  18   2.0000     -11.243155      -305.9418
  19   2.0000     -11.223909      -305.4181
  20   2.0000      -8.895647      -242.0629
  21   2.0000      -6.577215      -178.9751
  22   2.0000      -6.575218      -178.9208
  23   2.0000      -6.574625      -178.9047
  24   2.0000      -1.449184       -39.4343
  25   2.0000      -1.422045       -38.6958
  26   2.0000      -1.351723       -36.7823
  27   2.0000      -1.342559       -36.5329
  28   2.0000      -1.240989       -33.7690
  29   2.0000      -1.162740       -31.6398
  30   2.0000      -1.121784       -30.5253
  31   2.0000      -1.046351       -28.4727
  32   2.0000      -1.033691       -28.1282
  33   2.0000      -1.021380       -27.7932
  34   2.0000      -0.998400       -27.1679
  35   2.0000      -0.985980       -26.8299
  36   2.0000      -0.925804       -25.1924
  37   2.0000      -0.880353       -23.9556
  38   2.0000      -0.850082       -23.1319
  39   2.0000      -0.842993       -22.9390
  40   2.0000      -0.837823       -22.7983
  41   2.0000      -0.825817       -22.4716
  42   2.0000      -0.762121       -20.7384
  43   2.0000      -0.736689       -20.0463
  44   2.0000      -0.723437       -19.6857
  45   2.0000      -0.701400       -19.0861
  46   2.0000      -0.691467       -18.8158
  47   2.0000      -0.677496       -18.4356
  48   2.0000      -0.672499       -18.2996
  49   2.0000      -0.660224       -17.9656
  50   2.0000      -0.648813       -17.6551
  51   2.0000      -0.645136       -17.5550
  52   2.0000      -0.637412       -17.3449
  53   2.0000      -0.614163       -16.7122
  54   2.0000      -0.611777       -16.6473
  55   2.0000      -0.604334       -16.4448
  56   2.0000      -0.601194       -16.3593
  57   2.0000      -0.582792       -15.8586
  58   2.0000      -0.572929       -15.5902
  59   2.0000      -0.566924       -15.4268
  60   2.0000      -0.551937       -15.0190
  61   2.0000      -0.540103       -14.6970
  62   2.0000      -0.538674       -14.6581
  63   2.0000      -0.530808       -14.4440
  64   2.0000      -0.516859       -14.0645
  65   2.0000      -0.511567       -13.9205
  66   2.0000      -0.508944       -13.8491
  67   2.0000      -0.502069       -13.6620
  68   2.0000      -0.486395       -13.2355
  69   2.0000      -0.463628       -12.6160
  70   2.0000      -0.457433       -12.4474
  71   2.0000      -0.443397       -12.0654
  72   2.0000      -0.357935        -9.7399
  73   2.0000      -0.355275        -9.6675
  74   2.0000      -0.330841        -9.0026
  75   2.0000      -0.326289        -8.8788
  76   2.0000      -0.317993        -8.6530
  77   0.0000       0.070156         1.9090
  78   0.0000       0.101143         2.7523
  79   0.0000       0.120786         3.2868
  80   0.0000       0.125903         3.4260
  81   0.0000       0.130889         3.5617

MULLIKEN ATOMIC CHARGES
-----------------------
   0 C :   -0.270036
   1 C :    0.022372
   2 O :   -0.379057
   3 C :    0.500774
   4 O :   -0.412221
   5 C :   -0.283929
   6 C :    0.158222
   7 C :   -0.267435
   8 N :   -0.124814
   9 C :    0.220608
  10 S :   -0.440260
  11 N :   -0.210353
  12 C :    0.061791
  13 C :    0.095297
  14 C :   -0.246161
  15 C :   -0.117561
  16 C :   -0.276247
  17 C :    0.324392
  18 O :   -0.357331
  19 C :   -0.277786
  20 H :    0.102305
  21 H :    0.089718
  22 H :    0.096932
  23 H :    0.124117
  24 H :    0.094277
  25 H :    0.132677
  26 H :    0.095517
  27 H :    0.131289
  28 H :    0.198022
  29 H :    0.192821
  30 H :    0.150329
  31 H :    0.157817
  32 H :    0.163797
  33 H :    0.133370
  34 H :    0.242316
  35 H :    0.174433
Sum of atomic charges:    0.0000000

LOEWDIN ATOMIC CHARGES
----------------------
   0 C :    0.111048
   1 C :   -0.019468
   2 O :    0.288856
   3 C :   -0.419638
   4 O :    0.115380
   5 C :   -0.098152
   6 C :   -0.056264
   7 C :    0.131279
   8 N :    0.408490
   9 C :   -0.453972
  10 S :   -0.034100
  11 N :    0.395666
  12 C :   -0.053081
  13 C :   -0.033636
  14 C :    0.012427
  15 C :    0.045334
  16 C :   -0.000875
  17 C :   -0.190181
  18 O :    0.396336
  19 C :    0.030491
  20 H :   -0.027772
  21 H :   -0.024801
  22 H :   -0.032408
  23 H :   -0.028839
  24 H :   -0.035309
  25 H :   -0.003086
  26 H :   -0.023091
  27 H :   -0.005162
  28 H :   -0.057141
  29 H :   -0.066917
  30 H :   -0.007308
  31 H :   -0.031131
  32 H :   -0.019583
  33 H :   -0.034322
  34 H :   -0.152256
  35 H :   -0.026813

  Mayer bond orders larger than 0.100000
B(  0-C ,  1-C ) :   0.9744 B(  0-C , 20-H ) :   0.9792 B(  0-C , 21-H ) :   0.9772
B(  0-C , 22-H ) :   0.9724 B(  1-C ,  2-O ) :   0.8780 B(  1-C , 23-H ) :   0.9823
B(  1-C , 24-H ) :   0.9676 B(  2-O ,  3-C ) :   1.1181 B(  3-C ,  4-O ) :   2.0073
B(  3-C ,  5-C ) :   1.0617 B(  5-C ,  6-C ) :   1.6450 B(  5-C , 12-C ) :   0.9738
B(  6-C ,  7-C ) :   0.9676 B(  6-C ,  8-N ) :   1.1605 B(  7-C , 25-H ) :   0.9590
B(  7-C , 26-H ) :   0.9902 B(  7-C , 27-H ) :   0.9601 B(  8-N ,  9-C ) :   1.1837
B(  8-N , 28-H ) :   0.9478 B(  9-C , 10-S ) :   1.6022 B(  9-C , 11-N ) :   1.3063
B( 11-N , 12-C ) :   0.9526 B( 11-N , 29-H ) :   0.9523 B( 12-C , 13-C ) :   0.9553
B( 12-C , 30-H ) :   0.9991 B( 13-C , 14-C ) :   1.3432 B( 13-C , 19-C ) :   1.3532
B( 14-C , 15-C ) :   1.3903 B( 14-C , 31-H ) :   0.9731 B( 15-C , 16-C ) :   1.3658
B( 15-C , 32-H ) :   0.9689 B( 16-C , 17-C ) :   1.3319 B( 16-C , 33-H ) :   0.9838
B( 17-C , 18-O ) :   1.1143 B( 17-C , 19-C ) :   1.3618 B( 18-O , 34-H ) :   0.9787
B( 19-C , 35-H ) :   0.9581

MP2 TOTAL ENERGY:    -1274.333606192 Eh
FINAL SINGLE POINT ENERGY     -1274.333606191650

DIPOLE MOMENT
-------------
                                X             Y             Z
Electronic contribution:      8.05953      11.15424       4.03300
Nuclear contribution   :     -9.12474     -12.52220      -3.69033
                        -----------------------------------------
Total Dipole Moment    :     -1.06521      -1.36796       0.34267
                        -----------------------------------------
Magnitude (a.u.)       :      1.76732
Magnitude (Debye)      :      4.49216

Rotational constants in cm-1:     0.012371     0.008841     0.006575
Rotational constants in MHz :   370.870192   265.056969   197.109571

                             ****ORCA TERMINATED NORMALLY****
TOTAL RUN TIME: 0 days 2 hours 7 minutes 18 seconds 306 msec
