                         Program Version 5.0.0 -  RELEASE  -
|  1> ! ri-mp2 cc-pvtz cc-pvtz/c TightSCF NoKeepInts
|  2>
|  3> %scf
|  4>   MaxCore 4096
|  5> end
|  6> *xyz  0  1
|  7>     C       15.5946914   14.2457872   14.7818749
|  8>     C       15.6291373   14.0769868   16.3167857
|  9>     O       16.5109422   15.0428670   16.9251029
| 10>     C       16.2759213   16.3906690   16.8576722
| 11>     O       15.3034634   16.8664010   16.2973241
| 12>     C       17.2864650   17.1907388   17.6334948
| 13>     C       17.2768529   18.5480128   17.6592403
| 14>     C       16.3023758   19.4723557   16.9608970
| 15>     N       18.2686888   19.2431320   18.3578700
| 16>     C       19.3589996   18.6660728   18.9522364
| 17>     S       20.5453375   19.5688920   19.6688214
| 18>     N       19.4200161   17.2963532   18.9193959
| 19>     C       18.3500977   16.4109329   18.4241998
| 20>     C       17.7395711   15.6394124   19.5908624
| 21>     C       17.9052713   14.2450204   19.6889507
| 22>     C       17.3451843   13.5320904   20.7624260
| 23>     C       16.6156172   14.2188899   21.7478195
| 24>     C       16.4520682   15.6078909   21.6554591
| 25>     O       15.7493398   16.2740002   22.6060379
| 26>     C       17.0106539   16.3146394   20.5860891
| 27>     H       15.0614578   15.1560721   14.4834345
| 28>     H       15.0773927   13.3962952   14.3199715
| 29>     H       16.6116042   14.2876877   14.3728938
| 30>     H       14.6145819   14.1830986   16.7240178
| 31>     H       15.9859386   13.0677888   16.5589103
| 32>     H       15.2811413   19.2991451   17.3240029
| 33>     H       16.3006585   19.2864740   15.8793784
| 34>     H       16.5323405   20.5333125   17.1133657
| 35>     H       18.2406171   20.2496778   18.3908848
| 36>     H       20.2163029   16.8980143   19.4000604
| 37>     H       18.8161207   15.6908355   17.7371047
| 38>     H       18.4647276   13.7109951   18.9257039
| 39>     H       17.4768290   12.4535475   20.8282141
| 40>     H       16.1812343   13.6728764   22.5787086
| 41>     H       15.4664153   15.6249106   23.2673455
| 42>     H       16.8789427   17.3901241   20.5374427
| 43> *
| 44>
| 45>                          ****END OF INPUT****

CARTESIAN COORDINATES (ANGSTROEM)
---------------------------------
  C     15.594691   14.245787   14.781875
  C     15.629137   14.076987   16.316786
  O     16.510942   15.042867   16.925103
  C     16.275921   16.390669   16.857672
  O     15.303463   16.866401   16.297324
  C     17.286465   17.190739   17.633495
  C     17.276853   18.548013   17.659240
  C     16.302376   19.472356   16.960897
  N     18.268689   19.243132   18.357870
  C     19.359000   18.666073   18.952236
  S     20.545337   19.568892   19.668821
  N     19.420016   17.296353   18.919396
  C     18.350098   16.410933   18.424200
  C     17.739571   15.639412   19.590862
  C     17.905271   14.245020   19.688951
  C     17.345184   13.532090   20.762426
  C     16.615617   14.218890   21.747819
  C     16.452068   15.607891   21.655459
  O     15.749340   16.274000   22.606038
  C     17.010654   16.314639   20.586089
  H     15.061458   15.156072   14.483434
  H     15.077393   13.396295   14.319971
  H     16.611604   14.287688   14.372894
  H     14.614582   14.183099   16.724018
  H     15.985939   13.067789   16.558910
  H     15.281141   19.299145   17.324003
  H     16.300659   19.286474   15.879378
  H     16.532341   20.533313   17.113366
  H     18.240617   20.249678   18.390885
  H     20.216303   16.898014   19.400060
  H     18.816121   15.690836   17.737105
  H     18.464728   13.710995   18.925704
  H     17.476829   12.453548   20.828214
  H     16.181234   13.672876   22.578709
  H     15.466415   15.624911   23.267345
  H     16.878943   17.390124   20.537443

 Total Charge           Charge          ....    0
 Multiplicity           Mult            ....    1
 Number of Electrons    NEL             ....  154
 Basis Dimension        Dim             ....  828

ORBITAL ENERGIES
----------------

  NO   OCC          E(Eh)            E(eV)
   0   2.0000     -91.888284     -2500.4073
   1   2.0000     -20.601623      -560.5987
   2   2.0000     -20.594706      -560.4104
   3   2.0000     -20.541882      -558.9730
   4   2.0000     -15.628524      -425.2737
   5   2.0000     -15.607453      -424.7004
   6   2.0000     -11.396423      -310.1124
   7   2.0000     -11.383308      -309.7556
   8   2.0000     -11.335438      -308.4530
   9   2.0000     -11.311640      -307.8054
  10   2.0000     -11.307955      -307.7051
  11   2.0000     -11.300622      -307.5055
  12   2.0000     -11.258735      -306.3657
  13   2.0000     -11.257684      -306.3372
  14   2.0000     -11.253120      -306.2130
  15   2.0000     -11.251723      -306.1750
  16   2.0000     -11.240991      -305.8829
  17   2.0000     -11.236487      -305.7603
  18   2.0000     -11.236302      -305.7553
  19   2.0000     -11.223574      -305.4090
  20   2.0000      -8.893348      -242.0003
  21   2.0000      -6.574923      -178.9128
  22   2.0000      -6.572919      -178.8582
  23   2.0000      -6.572332      -178.8423
  24   2.0000      -1.449520       -39.4434
  25   2.0000      -1.414348       -38.4864
  26   2.0000      -1.355223       -36.8775
  27   2.0000      -1.339467       -36.4487
  28   2.0000      -1.237773       -33.6815
  29   2.0000      -1.155753       -31.4496
  30   2.0000      -1.119460       -30.4620
  31   2.0000      -1.041518       -28.3412
  32   2.0000      -1.036139       -28.1948
  33   2.0000      -1.013028       -27.5659
  34   2.0000      -0.994690       -27.0669
  35   2.0000      -0.983235       -26.7552
  36   2.0000      -0.921493       -25.0751
  37   2.0000      -0.896425       -24.3930
  38   2.0000      -0.846503       -23.0345
  39   2.0000      -0.836389       -22.7593
  40   2.0000      -0.832114       -22.6430
  41   2.0000      -0.817537       -22.2463
  42   2.0000      -0.753047       -20.4915
  43   2.0000      -0.730237       -19.8707
  44   2.0000      -0.721830       -19.6420
  45   2.0000      -0.694115       -18.8878
  46   2.0000      -0.687517       -18.7083
  47   2.0000      -0.680133       -18.5073
  48   2.0000      -0.669969       -18.2308
  49   2.0000      -0.653455       -17.7814
  50   2.0000      -0.648849       -17.6561
  51   2.0000      -0.644516       -17.5382
  52   2.0000      -0.631662       -17.1884
  53   2.0000      -0.612258       -16.6604
  54   2.0000      -0.604878       -16.4596
  55   2.0000      -0.598286       -16.2802
  56   2.0000      -0.597218       -16.2511
  57   2.0000      -0.578671       -15.7464
  58   2.0000      -0.571196       -15.5430
  59   2.0000      -0.570203       -15.5160
  60   2.0000      -0.561959       -15.2917
  61   2.0000      -0.538278       -14.6473
  62   2.0000      -0.537330       -14.6215
  63   2.0000      -0.525175       -14.2907
  64   2.0000      -0.523198       -14.2369
  65   2.0000      -0.512639       -13.9496
  66   2.0000      -0.501069       -13.6348
  67   2.0000      -0.498446       -13.5634
  68   2.0000      -0.483839       -13.1659
  69   2.0000      -0.463178       -12.6037
  70   2.0000      -0.456290       -12.4163
  71   2.0000      -0.444450       -12.0941
  72   2.0000      -0.353781        -9.6269
  73   2.0000      -0.347607        -9.4589
  74   2.0000      -0.327560        -8.9133
  75   2.0000      -0.319352        -8.6900
  76   2.0000      -0.315157        -8.5759
  77   0.0000       0.076897         2.0925
  78   0.0000       0.109337         2.9752
  79   0.0000       0.124683         3.3928
  80   0.0000       0.133499         3.6327
  81   0.0000       0.137076         3.7300

MULLIKEN ATOMIC CHARGES
-----------------------
   0 C :   -0.300915
   1 C :    0.043258
   2 O :   -0.351254
   3 C :    0.471334
   4 O :   -0.439262
   5 C :   -0.210617
   6 C :    0.146939
   7 C :   -0.275113
   8 N :   -0.119774
   9 C :    0.210959
  10 S :   -0.440534
  11 N :   -0.202816
  12 C :    0.044786
  13 C :    0.072665
  14 C :   -0.177533
  15 C :   -0.132523
  16 C :   -0.277839
  17 C :    0.315126
  18 O :   -0.357066
  19 C :   -0.268704
  20 H :    0.126484
  21 H :    0.095520
  22 H :    0.090696
  23 H :    0.094308
  24 H :    0.106313
  25 H :    0.132828
  26 H :    0.129512
  27 H :    0.095289
  28 H :    0.197157
  29 H :    0.194108
  30 H :    0.149146
  31 H :    0.145632
  32 H :    0.158667
  33 H :    0.128801
  34 H :    0.240433
  35 H :    0.163990
Sum of atomic charges:   -0.0000000

LOEWDIN ATOMIC CHARGES
----------------------
   0 C :    0.104726
   1 C :   -0.012959
   2 O :    0.303935
   3 C :   -0.411537
   4 O :    0.098930
   5 C :   -0.093238
   6 C :   -0.059146
   7 C :    0.131116
   8 N :    0.406458
   9 C :   -0.456762
  10 S :   -0.035949
  11 N :    0.396530
  12 C :   -0.052919
  13 C :   -0.038199
  14 C :    0.014032
  15 C :    0.039258
  16 C :   -0.001560
  17 C :   -0.189417
  18 O :    0.394904
  19 C :    0.031563
  20 H :   -0.026045
  21 H :   -0.027600
  22 H :   -0.030376
  23 H :   -0.027871
  24 H :   -0.024847
  25 H :   -0.004499
  26 H :   -0.004514
  27 H :   -0.023463
  28 H :   -0.057682
  29 H :   -0.064660
  30 H :   -0.011530
  31 H :   -0.030795
  32 H :   -0.021757
  33 H :   -0.035865
  34 H :   -0.154198
  35 H :   -0.024062

  Mayer bond orders larger than 0.100000
B(  0-C ,  1-C ) :   0.9671 B(  0-C , 20-H ) :   0.9719 B(  0-C , 21-H ) :   0.9775
B(  0-C , 22-H ) :   0.9759 B(  1-C ,  2-O ) :   0.9034 B(  1-C , 23-H ) :   0.9780
B(  1-C , 24-H ) :   0.9839 B(  2-O ,  3-C ) :   1.1658 B(  3-C ,  4-O ) :   1.9524
B(  3-C ,  5-C ) :   1.0611 B(  5-C ,  6-C ) :   1.6565 B(  5-C , 12-C ) :   0.9734
B(  6-C ,  7-C ) :   0.9675 B(  6-C ,  8-N ) :   1.1645 B(  7-C , 25-H ) :   0.9605
B(  7-C , 26-H ) :   0.9604 B(  7-C , 27-H ) :   0.9907 B(  8-N ,  9-C ) :   1.1823
B(  8-N , 28-H ) :   0.9481 B(  9-C , 10-S ) :   1.6070 B(  9-C , 11-N ) :   1.3052
B( 11-N , 12-C ) :   0.9872 B( 11-N , 29-H ) :   0.9518 B( 12-C , 13-C ) :   0.9384
B( 12-C , 30-H ) :   1.0028 B( 13-C , 14-C ) :   1.3559 B( 13-C , 19-C ) :   1.3822
B( 14-C , 15-C ) :   1.3939 B( 14-C , 31-H ) :   0.9722 B( 15-C , 16-C ) :   1.3645
B( 15-C , 32-H ) :   0.9711 B( 16-C , 17-C ) :   1.3317 B( 16-C , 33-H ) :   0.9854
B( 17-C , 18-O ) :   1.1096 B( 17-C , 19-C ) :   1.3743 B( 18-O , 34-H ) :   0.9801
B( 19-C , 35-H ) :   0.9583

MP2 TOTAL ENERGY:    -1274.348202381 Eh
FINAL SINGLE POINT ENERGY     -1274.348202380687

DIPOLE MOMENT
-------------
                                X             Y             Z
Electronic contribution:      9.64146       9.04141      10.36735
Nuclear contribution   :    -10.76413     -10.70192     -10.74166
                        -----------------------------------------
Total Dipole Moment    :     -1.12267      -1.66051      -0.37431
                        -----------------------------------------
Magnitude (a.u.)       :      2.03907
Magnitude (Debye)      :      5.18290

Rotational constants in cm-1:     0.010651     0.008946     0.006004
Rotational constants in MHz :   319.311943   268.191087   180.007362

                             ****ORCA TERMINATED NORMALLY****
TOTAL RUN TIME: 0 days 2 hours 5 minutes 14 seconds 604 msec
