                         Program Version 5.0.0 -  RELEASE  -
|  1> ! ri-mp2 cc-pvtz cc-pvtz/c TightSCF NoKeepInts
|  2>
|  3> %scf
|  4>   MaxCore 4096
|  5> end
|  6> *xyz  0  1
|  7>     C       14.1758152   14.9890985   16.1380608
|  8>     C       15.6002723   14.8027857   16.6860488
|  9>     O       16.4438247   15.7662503   16.0361054
| 10>     C       17.7319023   15.8417490   16.4717685
| 11>     O       18.4138608   14.8343329   16.5561416
| 12>     C       17.9249040   16.9882832   17.4165514
| 13>     C       17.3451586   18.2028583   17.2492643
| 14>     C       16.4579587   18.6451094   16.1044843
| 15>     N       17.6090608   19.2303785   18.1598049
| 16>     C       18.5325750   19.1607081   19.1700427
| 17>     S       18.8646541   20.4605260   20.1371766
| 18>     N       19.1675126   17.9553993   19.3390794
| 19>     C       18.8272209   16.7115093   18.6219707
| 20>     C       18.1649537   15.7112521   19.5658002
| 21>     C       18.6813767   14.4096708   19.7025192
| 22>     C       18.0635494   13.4796295   20.5552242
| 23>     C       16.9175427   13.8527609   21.2777577
| 24>     C       16.3973406   15.1467766   21.1413414
| 25>     O       15.2845728   15.5072257   21.8288123
| 26>     C       17.0139889   16.0699923   20.2912455
| 27>     H       13.4899093   14.2681519   16.5992995
| 28>     H       14.1569499   14.8346579   15.0519624
| 29>     H       13.8070184   15.9996549   16.3522425
| 30>     H       15.6047832   14.9596352   17.7735683
| 31>     H       15.9543348   13.7834782   16.4793013
| 32>     H       16.8268356   18.2556490   15.1473007
| 33>     H       16.4110640   19.7367525   16.0087164
| 34>     H       15.4344884   18.2752529   16.2432898
| 35>     H       17.1539713   20.1228782   18.0516564
| 36>     H       19.8221440   17.9235738   20.1101509
| 37>     H       19.7633250   16.2711703   18.2489453
| 38>     H       19.5559274   14.1123491   19.1286870
| 39>     H       18.4702977   12.4740596   20.6474434
| 40>     H       16.4361294   13.1366192   21.9354495
| 41>     H       15.0458762   14.7649847   22.4044407
| 42>     H       16.5959007   17.0668361   20.2023459
| 43> *
| 44>
| 45>                          ****END OF INPUT****

CARTESIAN COORDINATES (ANGSTROEM)
---------------------------------
  C     14.175815   14.989098   16.138061
  C     15.600272   14.802786   16.686049
  O     16.443825   15.766250   16.036105
  C     17.731902   15.841749   16.471768
  O     18.413861   14.834333   16.556142
  C     17.924904   16.988283   17.416551
  C     17.345159   18.202858   17.249264
  C     16.457959   18.645109   16.104484
  N     17.609061   19.230378   18.159805
  C     18.532575   19.160708   19.170043
  S     18.864654   20.460526   20.137177
  N     19.167513   17.955399   19.339079
  C     18.827221   16.711509   18.621971
  C     18.164954   15.711252   19.565800
  C     18.681377   14.409671   19.702519
  C     18.063549   13.479629   20.555224
  C     16.917543   13.852761   21.277758
  C     16.397341   15.146777   21.141341
  O     15.284573   15.507226   21.828812
  C     17.013989   16.069992   20.291245
  H     13.489909   14.268152   16.599300
  H     14.156950   14.834658   15.051962
  H     13.807018   15.999655   16.352242
  H     15.604783   14.959635   17.773568
  H     15.954335   13.783478   16.479301
  H     16.826836   18.255649   15.147301
  H     16.411064   19.736752   16.008716
  H     15.434488   18.275253   16.243290
  H     17.153971   20.122878   18.051656
  H     19.822144   17.923574   20.110151
  H     19.763325   16.271170   18.248945
  H     19.555927   14.112349   19.128687
  H     18.470298   12.474060   20.647443
  H     16.436129   13.136619   21.935450
  H     15.045876   14.764985   22.404441
  H     16.595901   17.066836   20.202346

 Total Charge           Charge          ....    0
 Multiplicity           Mult            ....    1
 Number of Electrons    NEL             ....  154
 Basis Dimension        Dim             ....  828

ORBITAL ENERGIES
----------------

  NO   OCC          E(Eh)            E(eV)
   0   2.0000     -91.889091     -2500.4293
   1   2.0000     -20.596383      -560.4561
   2   2.0000     -20.584515      -560.1331
   3   2.0000     -20.555743      -559.3502
   4   2.0000     -15.628694      -425.2784
   5   2.0000     -15.608586      -424.7312
   6   2.0000     -11.393684      -310.0379
   7   2.0000     -11.384588      -309.7904
   8   2.0000     -11.333320      -308.3953
   9   2.0000     -11.312579      -307.8309
  10   2.0000     -11.308957      -307.7324
  11   2.0000     -11.297345      -307.4164
  12   2.0000     -11.260638      -306.4175
  13   2.0000     -11.259692      -306.3918
  14   2.0000     -11.257968      -306.3449
  15   2.0000     -11.252599      -306.1988
  16   2.0000     -11.242267      -305.9176
  17   2.0000     -11.238093      -305.8040
  18   2.0000     -11.235285      -305.7277
  19   2.0000     -11.232471      -305.6511
  20   2.0000      -8.894163      -242.0225
  21   2.0000      -6.575740      -178.9350
  22   2.0000      -6.573731      -178.8803
  23   2.0000      -6.573147      -178.8644
  24   2.0000      -1.454022       -39.5659
  25   2.0000      -1.416194       -38.5366
  26   2.0000      -1.356877       -36.9225
  27   2.0000      -1.339794       -36.4576
  28   2.0000      -1.238075       -33.6897
  29   2.0000      -1.156626       -31.4734
  30   2.0000      -1.121592       -30.5201
  31   2.0000      -1.045175       -28.4407
  32   2.0000      -1.035535       -28.1784
  33   2.0000      -1.014121       -27.5956
  34   2.0000      -0.999583       -27.2000
  35   2.0000      -0.985259       -26.8103
  36   2.0000      -0.923600       -25.1324
  37   2.0000      -0.881342       -23.9825
  38   2.0000      -0.848415       -23.0866
  39   2.0000      -0.838942       -22.8288
  40   2.0000      -0.832626       -22.6569
  41   2.0000      -0.826280       -22.4842
  42   2.0000      -0.757527       -20.6134
  43   2.0000      -0.735956       -20.0264
  44   2.0000      -0.728570       -19.8254
  45   2.0000      -0.694367       -18.8947
  46   2.0000      -0.685938       -18.6653
  47   2.0000      -0.681581       -18.5468
  48   2.0000      -0.675600       -18.3840
  49   2.0000      -0.655811       -17.8455
  50   2.0000      -0.651482       -17.7277
  51   2.0000      -0.642509       -17.4836
  52   2.0000      -0.634114       -17.2551
  53   2.0000      -0.616907       -16.7869
  54   2.0000      -0.604956       -16.4617
  55   2.0000      -0.603167       -16.4130
  56   2.0000      -0.599923       -16.3247
  57   2.0000      -0.578009       -15.7284
  58   2.0000      -0.575759       -15.6672
  59   2.0000      -0.564552       -15.3622
  60   2.0000      -0.557879       -15.1806
  61   2.0000      -0.547086       -14.8870
  62   2.0000      -0.540850       -14.7173
  63   2.0000      -0.522080       -14.2065
  64   2.0000      -0.519731       -14.1426
  65   2.0000      -0.512127       -13.9357
  66   2.0000      -0.504673       -13.7328
  67   2.0000      -0.498132       -13.5548
  68   2.0000      -0.482431       -13.1276
  69   2.0000      -0.465460       -12.6658
  70   2.0000      -0.458712       -12.4822
  71   2.0000      -0.451404       -12.2833
  72   2.0000      -0.354675        -9.6512
  73   2.0000      -0.348248        -9.4763
  74   2.0000      -0.328401        -8.9363
  75   2.0000      -0.319711        -8.6998
  76   2.0000      -0.315984        -8.5984
  77   0.0000       0.070431         1.9165
  78   0.0000       0.104362         2.8398
  79   0.0000       0.118934         3.2364
  80   0.0000       0.131793         3.5863
  81   0.0000       0.135437         3.6854

MULLIKEN ATOMIC CHARGES
-----------------------
   0 C :   -0.271509
   1 C :    0.043581
   2 O :   -0.368093
   3 C :    0.456891
   4 O :   -0.397429
   5 C :   -0.199781
   6 C :    0.132428
   7 C :   -0.281279
   8 N :   -0.124046
   9 C :    0.202203
  10 S :   -0.439304
  11 N :   -0.201218
  12 C :    0.056629
  13 C :    0.047291
  14 C :   -0.159176
  15 C :   -0.133578
  16 C :   -0.279227
  17 C :    0.320161
  18 O :   -0.360353
  19 C :   -0.295234
  20 H :    0.096889
  21 H :    0.101530
  22 H :    0.089119
  23 H :    0.093079
  24 H :    0.109783
  25 H :    0.123927
  26 H :    0.105742
  27 H :    0.124328
  28 H :    0.197318
  29 H :    0.194245
  30 H :    0.155552
  31 H :    0.157048
  32 H :    0.161101
  33 H :    0.130980
  34 H :    0.240953
  35 H :    0.169448
Sum of atomic charges:   -0.0000000

LOEWDIN ATOMIC CHARGES
----------------------
   0 C :    0.109313
   1 C :   -0.018375
   2 O :    0.290593
   3 C :   -0.417323
   4 O :    0.130255
   5 C :   -0.094377
   6 C :   -0.074997
   7 C :    0.126453
   8 N :    0.404097
   9 C :   -0.457465
  10 S :   -0.036057
  11 N :    0.397025
  12 C :   -0.045273
  13 C :   -0.041061
  14 C :    0.022035
  15 C :    0.042459
  16 C :   -0.002081
  17 C :   -0.194966
  18 O :    0.393574
  19 C :    0.027330
  20 H :   -0.023441
  21 H :   -0.025132
  22 H :   -0.030698
  23 H :   -0.030766
  24 H :   -0.027200
  25 H :   -0.007677
  26 H :   -0.019335
  27 H :   -0.010926
  28 H :   -0.058672
  29 H :   -0.064095
  30 H :   -0.004491
  31 H :   -0.024377
  32 H :   -0.020145
  33 H :   -0.035548
  34 H :   -0.153914
  35 H :   -0.024743

  Mayer bond orders larger than 0.100000
B(  0-C ,  1-C ) :   0.9759 B(  0-C , 20-H ) :   0.9769 B(  0-C , 21-H ) :   0.9778
B(  0-C , 22-H ) :   0.9787 B(  1-C ,  2-O ) :   0.8955 B(  1-C , 23-H ) :   0.9647
B(  1-C , 24-H ) :   0.9807 B(  2-O ,  3-C ) :   1.0941 B(  3-C ,  4-O ) :   2.0269
B(  3-C ,  5-C ) :   1.0255 B(  5-C ,  6-C ) :   1.6694 B(  5-C , 12-C ) :   0.9614
B(  6-C ,  7-C ) :   0.9520 B(  6-C ,  8-N ) :   1.1378 B(  7-C , 25-H ) :   0.9707
B(  7-C , 26-H ) :   0.9879 B(  7-C , 27-H ) :   0.9628 B(  8-N ,  9-C ) :   1.1842
B(  8-N , 28-H ) :   0.9499 B(  9-C , 10-S ) :   1.6116 B(  9-C , 11-N ) :   1.2995
B( 11-N , 12-C ) :   0.9931 B( 11-N , 29-H ) :   0.9518 B( 12-C , 13-C ) :   0.9451
B( 12-C , 30-H ) :   0.9985 B( 13-C , 14-C ) :   1.3790 B( 13-C , 19-C ) :   1.3611
B( 14-C , 15-C ) :   1.3944 B( 14-C , 31-H ) :   0.9633 B( 15-C , 16-C ) :   1.3640
B( 15-C , 32-H ) :   0.9709 B( 16-C , 17-C ) :   1.3307 B( 16-C , 33-H ) :   0.9847
B( 17-C , 18-O ) :   1.1091 B( 17-C , 19-C ) :   1.3692 B( 18-O , 34-H ) :   0.9798
B( 19-C , 35-H ) :   0.9594

MP2 TOTAL ENERGY:    -1274.325206903 Eh
FINAL SINGLE POINT ENERGY     -1274.325206903328

DIPOLE MOMENT
-------------
                                X             Y             Z
Electronic contribution:     12.07462       8.41470       7.53116
Nuclear contribution   :    -13.41152      -9.68323      -8.06881
                        -----------------------------------------
Total Dipole Moment    :     -1.33690      -1.26853      -0.53766
                        -----------------------------------------
Magnitude (a.u.)       :      1.91977
Magnitude (Debye)      :      4.87968

Rotational constants in cm-1:     0.011309     0.009198     0.006610
Rotational constants in MHz :   339.041446   275.735343   198.148343

                             ****ORCA TERMINATED NORMALLY****
TOTAL RUN TIME: 0 days 1 hours 58 minutes 50 seconds 111 msec
