                         Program Version 5.0.0 -  RELEASE  -
|  1> ! ri-mp2 cc-pvtz cc-pvtz/c TightSCF NoKeepInts
|  2>
|  3> %scf
|  4>   MaxCore 4096
|  5> end
|  6> *xyz  0  1
|  7>     C       15.4132441   14.2702766   14.4361819
|  8>     C       15.1157060   14.7238171   15.8760905
|  9>     O       16.0132534   15.8036805   16.1920889
| 10>     C       17.1257980   15.5631629   16.9466539
| 11>     O       17.5408786   14.4345142   17.1549776
| 12>     C       17.6656714   16.7647354   17.6700685
| 13>     C       17.3669912   18.0575708   17.3740069
| 14>     C       16.4612584   18.5823456   16.2785026
| 15>     N       17.9858896   19.0925745   18.0833352
| 16>     C       19.0104263   18.9276838   18.9774681
| 17>     S       19.7774326   20.2177109   19.6725811
| 18>     N       19.3668743   17.6350207   19.2654434
| 19>     C       18.6303105   16.4387745   18.8165334
| 20>     C       17.8938185   15.7947267   19.9884827
| 21>     C       18.0971869   14.4371506   20.2979950
| 22>     C       17.4208986   13.8381507   21.3739896
| 23>     C       16.5323597   14.6025984   22.1490354
| 24>     C       16.3238880   15.9540431   21.8421197
| 25>     O       15.4619191   16.6934190   22.5849097
| 26>     C       16.9980640   16.5472992   20.7701843
| 27>     H       15.3090628   15.1073805   13.7349279
| 28>     H       14.7198170   13.4769723   14.1318445
| 29>     H       16.4353948   13.8779478   14.3603613
| 30>     H       14.0813010   15.0872280   15.9257088
| 31>     H       15.2136254   13.8857436   16.5801499
| 32>     H       16.7242911   18.1391270   15.3098957
| 33>     H       16.5245781   19.6708977   16.1608832
| 34>     H       15.4136973   18.3348084   16.4907661
| 35>     H       17.7384746   20.0489267   17.8856445
| 36>     H       20.1037049   17.5389867   19.9522961
| 37>     H       19.3693621   15.7180748   18.4375285
| 38>     H       18.7708628   13.8392056   19.6889668
| 39>     H       17.5827379   12.7854706   21.5986331
| 40>     H       16.0066345   14.1435228   22.9795471
| 41>     H       15.1270132   16.1228486   23.2927391
| 42>     H       16.8245733   17.5956036   20.5534588
| 43> *
| 44>
| 45>                          ****END OF INPUT****

CARTESIAN COORDINATES (ANGSTROEM)
---------------------------------
  C     15.413244   14.270277   14.436182
  C     15.115706   14.723817   15.876091
  O     16.013253   15.803680   16.192089
  C     17.125798   15.563163   16.946654
  O     17.540879   14.434514   17.154978
  C     17.665671   16.764735   17.670068
  C     17.366991   18.057571   17.374007
  C     16.461258   18.582346   16.278503
  N     17.985890   19.092575   18.083335
  C     19.010426   18.927684   18.977468
  S     19.777433   20.217711   19.672581
  N     19.366874   17.635021   19.265443
  C     18.630310   16.438775   18.816533
  C     17.893818   15.794727   19.988483
  C     18.097187   14.437151   20.297995
  C     17.420899   13.838151   21.373990
  C     16.532360   14.602598   22.149035
  C     16.323888   15.954043   21.842120
  O     15.461919   16.693419   22.584910
  C     16.998064   16.547299   20.770184
  H     15.309063   15.107380   13.734928
  H     14.719817   13.476972   14.131844
  H     16.435395   13.877948   14.360361
  H     14.081301   15.087228   15.925709
  H     15.213625   13.885744   16.580150
  H     16.724291   18.139127   15.309896
  H     16.524578   19.670898   16.160883
  H     15.413697   18.334808   16.490766
  H     17.738475   20.048927   17.885645
  H     20.103705   17.538987   19.952296
  H     19.369362   15.718075   18.437528
  H     18.770863   13.839206   19.688967
  H     17.582738   12.785471   21.598633
  H     16.006635   14.143523   22.979547
  H     15.127013   16.122849   23.292739
  H     16.824573   17.595604   20.553459

 Total Charge           Charge          ....    0
 Multiplicity           Mult            ....    1
 Number of Electrons    NEL             ....  154
 Basis Dimension        Dim             ....  828

ORBITAL ENERGIES
----------------

  NO   OCC          E(Eh)            E(eV)
   0   2.0000     -91.888064     -2500.4013
   1   2.0000     -20.602827      -560.6314
   2   2.0000     -20.591303      -560.3178
   3   2.0000     -20.546270      -559.0924
   4   2.0000     -15.628484      -425.2727
   5   2.0000     -15.606651      -424.6786
   6   2.0000     -11.396740      -310.1211
   7   2.0000     -11.382917      -309.7449
   8   2.0000     -11.336581      -308.4841
   9   2.0000     -11.307127      -307.6826
  10   2.0000     -11.305445      -307.6368
  11   2.0000     -11.299692      -307.4803
  12   2.0000     -11.260731      -306.4201
  13   2.0000     -11.258964      -306.3720
  14   2.0000     -11.253111      -306.2127
  15   2.0000     -11.247284      -306.0542
  16   2.0000     -11.236926      -305.7723
  17   2.0000     -11.233063      -305.6672
  18   2.0000     -11.230042      -305.5850
  19   2.0000     -11.228204      -305.5350
  20   2.0000      -8.893127      -241.9943
  21   2.0000      -6.574704      -178.9068
  22   2.0000      -6.572697      -178.8522
  23   2.0000      -6.572111      -178.8362
  24   2.0000      -1.454325       -39.5742
  25   2.0000      -1.411036       -38.3962
  26   2.0000      -1.357581       -36.9417
  27   2.0000      -1.339395       -36.4468
  28   2.0000      -1.236951       -33.6591
  29   2.0000      -1.151826       -31.3428
  30   2.0000      -1.119466       -30.4622
  31   2.0000      -1.042823       -28.3767
  32   2.0000      -1.035422       -28.1753
  33   2.0000      -1.009156       -27.4605
  34   2.0000      -0.997299       -27.1379
  35   2.0000      -0.982767       -26.7425
  36   2.0000      -0.921071       -25.0636
  37   2.0000      -0.890979       -24.2448
  38   2.0000      -0.847542       -23.0628
  39   2.0000      -0.835120       -22.7248
  40   2.0000      -0.827511       -22.5177
  41   2.0000      -0.818110       -22.2619
  42   2.0000      -0.758052       -20.6276
  43   2.0000      -0.735551       -20.0153
  44   2.0000      -0.724728       -19.7208
  45   2.0000      -0.690327       -18.7847
  46   2.0000      -0.685129       -18.6433
  47   2.0000      -0.680053       -18.5052
  48   2.0000      -0.671821       -18.2812
  49   2.0000      -0.656573       -17.8663
  50   2.0000      -0.646998       -17.6057
  51   2.0000      -0.641751       -17.4629
  52   2.0000      -0.628773       -17.1098
  53   2.0000      -0.614581       -16.7236
  54   2.0000      -0.600129       -16.3303
  55   2.0000      -0.599370       -16.3097
  56   2.0000      -0.594567       -16.1790
  57   2.0000      -0.584311       -15.8999
  58   2.0000      -0.572813       -15.5870
  59   2.0000      -0.564777       -15.3684
  60   2.0000      -0.560942       -15.2640
  61   2.0000      -0.545709       -14.8495
  62   2.0000      -0.533663       -14.5217
  63   2.0000      -0.529985       -14.4216
  64   2.0000      -0.516853       -14.0643
  65   2.0000      -0.509764       -13.8714
  66   2.0000      -0.500433       -13.6175
  67   2.0000      -0.495230       -13.4759
  68   2.0000      -0.480286       -13.0692
  69   2.0000      -0.462873       -12.5954
  70   2.0000      -0.457181       -12.4405
  71   2.0000      -0.455370       -12.3913
  72   2.0000      -0.354254        -9.6397
  73   2.0000      -0.343699        -9.3525
  74   2.0000      -0.327171        -8.9028
  75   2.0000      -0.315546        -8.5864
  76   2.0000      -0.313475        -8.5301
  77   0.0000       0.075825         2.0633
  78   0.0000       0.113530         3.0893
  79   0.0000       0.121443         3.3046
  80   0.0000       0.136101         3.7035
  81   0.0000       0.140393         3.8203

MULLIKEN ATOMIC CHARGES
-----------------------
   0 C :   -0.279106
   1 C :    0.031485
   2 O :   -0.346854
   3 C :    0.446762
   4 O :   -0.433097
   5 C :   -0.172940
   6 C :    0.145086
   7 C :   -0.284413
   8 N :   -0.121622
   9 C :    0.201042
  10 S :   -0.439175
  11 N :   -0.196721
  12 C :    0.035099
  13 C :    0.057030
  14 C :   -0.161392
  15 C :   -0.134099
  16 C :   -0.278871
  17 C :    0.311596
  18 O :   -0.359115
  19 C :   -0.272029
  20 H :    0.090770
  21 H :    0.094179
  22 H :    0.107614
  23 H :    0.102885
  24 H :    0.110985
  25 H :    0.126628
  26 H :    0.101998
  27 H :    0.127891
  28 H :    0.196741
  29 H :    0.193571
  30 H :    0.153448
  31 H :    0.153406
  32 H :    0.158949
  33 H :    0.127898
  34 H :    0.239994
  35 H :    0.164374
Sum of atomic charges:   -0.0000000

LOEWDIN ATOMIC CHARGES
----------------------
   0 C :    0.104109
   1 C :   -0.014835
   2 O :    0.307031
   3 C :   -0.414300
   4 O :    0.102509
   5 C :   -0.090881
   6 C :   -0.065449
   7 C :    0.124976
   8 N :    0.404877
   9 C :   -0.458996
  10 S :   -0.035901
  11 N :    0.397891
  12 C :   -0.046430
  13 C :   -0.038868
  14 C :    0.022000
  15 C :    0.040727
  16 C :   -0.002312
  17 C :   -0.192538
  18 O :    0.392996
  19 C :    0.028536
  20 H :   -0.029840
  21 H :   -0.026702
  22 H :   -0.023976
  23 H :   -0.028205
  24 H :   -0.026158
  25 H :   -0.008748
  26 H :   -0.021047
  27 H :   -0.009435
  28 H :   -0.059157
  29 H :   -0.063639
  30 H :   -0.005072
  31 H :   -0.025355
  32 H :   -0.021302
  33 H :   -0.036442
  34 H :   -0.154941
  35 H :   -0.025123

  Mayer bond orders larger than 0.100000
B(  0-C ,  1-C ) :   0.9682 B(  0-C , 20-H ) :   0.9783 B(  0-C , 21-H ) :   0.9761
B(  0-C , 22-H ) :   0.9769 B(  1-C ,  2-O ) :   0.8908 B(  1-C , 23-H ) :   0.9840
B(  1-C , 24-H ) :   0.9734 B(  2-O ,  3-C ) :   1.1537 B(  3-C ,  4-O ) :   1.9653
B(  3-C ,  5-C ) :   1.0633 B(  5-C ,  6-C ) :   1.6477 B(  5-C , 12-C ) :   0.9653
B(  6-C ,  7-C ) :   0.9547 B(  6-C ,  8-N ) :   1.1481 B(  7-C , 25-H ) :   0.9659
B(  7-C , 26-H ) :   0.9913 B(  7-C , 27-H ) :   0.9636 B(  8-N ,  9-C ) :   1.1782
B(  8-N , 28-H ) :   0.9488 B(  9-C , 10-S ) :   1.6108 B(  9-C , 11-N ) :   1.3043
B( 11-N , 12-C ) :   0.9927 B( 11-N , 29-H ) :   0.9519 B( 12-C , 13-C ) :   0.9476
B( 12-C , 30-H ) :   1.0001 B( 13-C , 14-C ) :   1.3753 B( 13-C , 19-C ) :   1.3695
B( 14-C , 15-C ) :   1.3945 B( 14-C , 31-H ) :   0.9650 B( 15-C , 16-C ) :   1.3625
B( 15-C , 32-H ) :   0.9715 B( 16-C , 17-C ) :   1.3315 B( 16-C , 33-H ) :   0.9860
B( 17-C , 18-O ) :   1.1079 B( 17-C , 19-C ) :   1.3791 B( 18-O , 34-H ) :   0.9806
B( 19-C , 35-H ) :   0.9585

MP2 TOTAL ENERGY:    -1274.346582794 Eh
FINAL SINGLE POINT ENERGY     -1274.346582793713

DIPOLE MOMENT
-------------
                                X             Y             Z
Electronic contribution:     10.40029       9.32154      11.97765
Nuclear contribution   :    -12.09076     -10.46005     -12.81503
                        -----------------------------------------
Total Dipole Moment    :     -1.69047      -1.13851      -0.83737
                        -----------------------------------------
Magnitude (a.u.)       :      2.20343
Magnitude (Debye)      :      5.60066

Rotational constants in cm-1:     0.010541     0.008765     0.005734
Rotational constants in MHz :   316.011409   262.754864   171.914262

                             ****ORCA TERMINATED NORMALLY****
TOTAL RUN TIME: 0 days 1 hours 30 minutes 38 seconds 18 msec
