                         Program Version 5.0.0 -  RELEASE  -
|  1> ! ri-mp2 cc-pvtz cc-pvtz/c TightSCF NoKeepInts
|  2>
|  3> %scf
|  4>   MaxCore 4096
|  5> end
|  6> *xyz  0  1
|  7>     C       15.2895843   14.1473607   15.0567283
|  8>     C       15.8718926   14.0179662   16.4816333
|  9>     O       16.8118684   15.0683652   16.8037344
| 10>     C       16.5414206   16.4084409   16.6955928
| 11>     O       15.5754353   16.8547657   16.1028423
| 12>     C       17.4379645   17.2378305   17.5755292
| 13>     C       17.3696102   18.5934152   17.6138755
| 14>     C       16.4347271   19.4888106   16.8287769
| 15>     N       18.2557705   19.3182766   18.4165538
| 16>     C       19.3029556   18.7780966   19.1139114
| 17>     S       20.3701323   19.7182918   19.9584110
| 18>     N       19.4255189   17.4128840   19.0728013
| 19>     C       18.4516785   16.4913321   18.4597512
| 20>     C       17.7645966   15.6721949   19.5491046
| 21>     C       18.0075692   14.2902676   19.6623115
| 22>     C       17.3749978   13.5325201   20.6622680
| 23>     C       16.4944731   14.1618063   21.5587224
| 24>     C       16.2540071   15.5385713   21.4520087
| 25>     O       15.4057433   16.1492640   22.3171932
| 26>     C       16.8847004   16.2898927   20.4556297
| 27>     H       14.4992308   14.9061120   15.0104783
| 28>     H       14.8447983   13.1956185   14.7424443
| 29>     H       16.0733895   14.4113350   14.3360566
| 30>     H       15.0485388   14.0234357   17.2081740
| 31>     H       16.3853858   13.0521816   16.5706921
| 32>     H       15.3910772   19.2899055   17.1044602
| 33>     H       16.5302085   19.2986244   15.7522352
| 34>     H       16.6235284   20.5561490   16.9927956
| 35>     H       18.1813768   20.3221660   18.4574699
| 36>     H       20.1850536   17.0408988   19.6282191
| 37>     H       19.0160134   15.8050751   17.8128612
| 38>     H       18.6849297   13.8007928   18.9677439
| 39>     H       17.5683432   12.4641378   20.7409845
| 40>     H       16.0041320   13.5812948   22.3332228
| 41>     H       15.0958289   15.4786484   22.9440475
| 42>     H       16.6905187   17.3552718   20.3947353
| 43> *
| 44>
| 45>                          ****END OF INPUT****

CARTESIAN COORDINATES (ANGSTROEM)
---------------------------------
  C     15.289584   14.147361   15.056728
  C     15.871893   14.017966   16.481633
  O     16.811868   15.068365   16.803734
  C     16.541421   16.408441   16.695593
  O     15.575435   16.854766   16.102842
  C     17.437964   17.237831   17.575529
  C     17.369610   18.593415   17.613875
  C     16.434727   19.488811   16.828777
  N     18.255771   19.318277   18.416554
  C     19.302956   18.778097   19.113911
  S     20.370132   19.718292   19.958411
  N     19.425519   17.412884   19.072801
  C     18.451678   16.491332   18.459751
  C     17.764597   15.672195   19.549105
  C     18.007569   14.290268   19.662312
  C     17.374998   13.532520   20.662268
  C     16.494473   14.161806   21.558722
  C     16.254007   15.538571   21.452009
  O     15.405743   16.149264   22.317193
  C     16.884700   16.289893   20.455630
  H     14.499231   14.906112   15.010478
  H     14.844798   13.195619   14.742444
  H     16.073390   14.411335   14.336057
  H     15.048539   14.023436   17.208174
  H     16.385386   13.052182   16.570692
  H     15.391077   19.289905   17.104460
  H     16.530209   19.298624   15.752235
  H     16.623528   20.556149   16.992796
  H     18.181377   20.322166   18.457470
  H     20.185054   17.040899   19.628219
  H     19.016013   15.805075   17.812861
  H     18.684930   13.800793   18.967744
  H     17.568343   12.464138   20.740984
  H     16.004132   13.581295   22.333223
  H     15.095829   15.478648   22.944047
  H     16.690519   17.355272   20.394735

 Total Charge           Charge          ....    0
 Multiplicity           Mult            ....    1
 Number of Electrons    NEL             ....  154
 Basis Dimension        Dim             ....  828

ORBITAL ENERGIES
----------------

  NO   OCC          E(Eh)            E(eV)
   0   2.0000     -91.888120     -2500.4029
   1   2.0000     -20.598643      -560.5176
   2   2.0000     -20.595725      -560.4382
   3   2.0000     -20.541982      -558.9758
   4   2.0000     -15.628231      -425.2658
   5   2.0000     -15.607331      -424.6971
   6   2.0000     -11.396928      -310.1262
   7   2.0000     -11.383126      -309.7506
   8   2.0000     -11.334899      -308.4383
   9   2.0000     -11.312779      -307.8364
  10   2.0000     -11.307975      -307.7056
  11   2.0000     -11.301365      -307.5258
  12   2.0000     -11.258657      -306.3636
  13   2.0000     -11.258372      -306.3559
  14   2.0000     -11.254316      -306.2455
  15   2.0000     -11.251522      -306.1695
  16   2.0000     -11.241960      -305.9093
  17   2.0000     -11.237284      -305.7820
  18   2.0000     -11.237139      -305.7781
  19   2.0000     -11.220845      -305.3347
  20   2.0000      -8.893188      -241.9959
  21   2.0000      -6.574764      -178.9084
  22   2.0000      -6.572759      -178.8539
  23   2.0000      -6.572173      -178.8379
  24   2.0000      -1.446502       -39.3613
  25   2.0000      -1.415362       -38.5140
  26   2.0000      -1.355168       -36.8760
  27   2.0000      -1.339273       -36.4435
  28   2.0000      -1.237678       -33.6789
  29   2.0000      -1.156457       -31.4688
  30   2.0000      -1.119148       -30.4536
  31   2.0000      -1.041673       -28.3454
  32   2.0000      -1.035372       -28.1739
  33   2.0000      -1.014032       -27.5932
  34   2.0000      -0.994401       -27.0590
  35   2.0000      -0.982862       -26.7450
  36   2.0000      -0.921610       -25.0783
  37   2.0000      -0.895309       -24.3626
  38   2.0000      -0.846541       -23.0356
  39   2.0000      -0.837143       -22.7798
  40   2.0000      -0.833033       -22.6680
  41   2.0000      -0.818669       -22.2771
  42   2.0000      -0.749677       -20.3997
  43   2.0000      -0.730232       -19.8706
  44   2.0000      -0.720192       -19.5974
  45   2.0000      -0.694838       -18.9075
  46   2.0000      -0.687729       -18.7141
  47   2.0000      -0.679816       -18.4987
  48   2.0000      -0.668706       -18.1964
  49   2.0000      -0.653794       -17.7906
  50   2.0000      -0.650970       -17.7138
  51   2.0000      -0.644567       -17.5395
  52   2.0000      -0.633402       -17.2357
  53   2.0000      -0.606245       -16.4968
  54   2.0000      -0.603547       -16.4234
  55   2.0000      -0.598280       -16.2800
  56   2.0000      -0.597808       -16.2672
  57   2.0000      -0.581417       -15.8212
  58   2.0000      -0.573895       -15.6165
  59   2.0000      -0.570268       -15.5178
  60   2.0000      -0.561935       -15.2910
  61   2.0000      -0.538330       -14.6487
  62   2.0000      -0.535651       -14.5758
  63   2.0000      -0.524139       -14.2625
  64   2.0000      -0.520501       -14.1635
  65   2.0000      -0.512299       -13.9404
  66   2.0000      -0.502119       -13.6633
  67   2.0000      -0.498918       -13.5763
  68   2.0000      -0.483638       -13.1604
  69   2.0000      -0.463500       -12.6125
  70   2.0000      -0.455366       -12.3911
  71   2.0000      -0.440411       -11.9842
  72   2.0000      -0.353353        -9.6152
  73   2.0000      -0.348370        -9.4796
  74   2.0000      -0.327508        -8.9119
  75   2.0000      -0.320370        -8.7177
  76   2.0000      -0.315212        -8.5774
  77   0.0000       0.076608         2.0846
  78   0.0000       0.108046         2.9401
  79   0.0000       0.125112         3.4045
  80   0.0000       0.133152         3.6232
  81   0.0000       0.137752         3.7484

MULLIKEN ATOMIC CHARGES
-----------------------
   0 C :   -0.293101
   1 C :    0.050610
   2 O :   -0.363023
   3 C :    0.465601
   4 O :   -0.433267
   5 C :   -0.208279
   6 C :    0.147435
   7 C :   -0.274007
   8 N :   -0.120289
   9 C :    0.212122
  10 S :   -0.441134
  11 N :   -0.203929
  12 C :    0.052515
  13 C :    0.072799
  14 C :   -0.189951
  15 C :   -0.129906
  16 C :   -0.279595
  17 C :    0.315947
  18 O :   -0.356686
  19 C :   -0.270261
  20 H :    0.125166
  21 H :    0.094101
  22 H :    0.094113
  23 H :    0.091017
  24 H :    0.101014
  25 H :    0.132566
  26 H :    0.129148
  27 H :    0.095175
  28 H :    0.197137
  29 H :    0.194206
  30 H :    0.149133
  31 H :    0.149145
  32 H :    0.159701
  33 H :    0.129589
  34 H :    0.240560
  35 H :    0.164626
Sum of atomic charges:   -0.0000000

LOEWDIN ATOMIC CHARGES
----------------------
   0 C :    0.103485
   1 C :   -0.010781
   2 O :    0.298000
   3 C :   -0.412383
   4 O :    0.106120
   5 C :   -0.093499
   6 C :   -0.059532
   7 C :    0.130742
   8 N :    0.406377
   9 C :   -0.456669
  10 S :   -0.036359
  11 N :    0.396374
  12 C :   -0.052658
  13 C :   -0.037724
  14 C :    0.013774
  15 C :    0.038688
  16 C :   -0.002369
  17 C :   -0.189504
  18 O :    0.395122
  19 C :    0.031273
  20 H :   -0.026276
  21 H :   -0.029665
  22 H :   -0.027171
  23 H :   -0.028206
  24 H :   -0.024790
  25 H :   -0.004759
  26 H :   -0.004529
  27 H :   -0.023522
  28 H :   -0.057741
  29 H :   -0.064770
  30 H :   -0.011022
  31 H :   -0.030605
  32 H :   -0.021615
  33 H :   -0.035841
  34 H :   -0.154080
  35 H :   -0.023888

  Mayer bond orders larger than 0.100000
B(  0-C ,  1-C ) :   0.9742 B(  0-C , 20-H ) :   0.9717 B(  0-C , 21-H ) :   0.9781
B(  0-C , 22-H ) :   0.9757 B(  1-C ,  2-O ) :   0.8962 B(  1-C , 23-H ) :   0.9749
B(  1-C , 24-H ) :   0.9835 B(  2-O ,  3-C ) :   1.1484 B(  3-C ,  4-O ) :   1.9642
B(  3-C ,  5-C ) :   1.0641 B(  5-C ,  6-C ) :   1.6571 B(  5-C , 12-C ) :   0.9742
B(  6-C ,  7-C ) :   0.9677 B(  6-C ,  8-N ) :   1.1631 B(  7-C , 25-H ) :   0.9599
B(  7-C , 26-H ) :   0.9609 B(  7-C , 27-H ) :   0.9909 B(  8-N ,  9-C ) :   1.1828
B(  8-N , 28-H ) :   0.9481 B(  9-C , 10-S ) :   1.6062 B(  9-C , 11-N ) :   1.3056
B( 11-N , 12-C ) :   0.9855 B( 11-N , 29-H ) :   0.9518 B( 12-C , 13-C ) :   0.9365
B( 12-C , 30-H ) :   1.0025 B( 13-C , 14-C ) :   1.3536 B( 13-C , 19-C ) :   1.3837
B( 14-C , 15-C ) :   1.3917 B( 14-C , 31-H ) :   0.9719 B( 15-C , 16-C ) :   1.3641
B( 15-C , 32-H ) :   0.9708 B( 16-C , 17-C ) :   1.3317 B( 16-C , 33-H ) :   0.9852
B( 17-C , 18-O ) :   1.1102 B( 17-C , 19-C ) :   1.3726 B( 18-O , 34-H ) :   0.9800
B( 19-C , 35-H ) :   0.9583

MP2 TOTAL ENERGY:    -1274.342142776 Eh
FINAL SINGLE POINT ENERGY     -1274.342142775562

DIPOLE MOMENT
-------------
                                X             Y             Z
Electronic contribution:     10.12072       9.62273       9.76067
Nuclear contribution   :    -11.19881     -11.33796     -10.11913
                        -----------------------------------------
Total Dipole Moment    :     -1.07809      -1.71524      -0.35846
                        -----------------------------------------
Magnitude (a.u.)       :      2.05738
Magnitude (Debye)      :      5.22945

Rotational constants in cm-1:     0.011194     0.008784     0.006036
Rotational constants in MHz :   335.593271   263.344617   180.961279

                             ****ORCA TERMINATED NORMALLY****
TOTAL RUN TIME: 0 days 2 hours 29 minutes 1 seconds 56 msec
