                         Program Version 5.0.0 -  RELEASE  -
|  1> ! ri-mp2 cc-pvtz cc-pvtz/c TightSCF NoKeepInts
|  2>
|  3> %scf
|  4>   MaxCore 4096
|  5> end
|  6> *xyz  0  1
|  7>     C       14.4371596   15.9810877   16.4380615
|  8>     C       15.5378999   15.1700672   17.1451559
|  9>     O       16.7020027   15.0495984   16.2978013
| 10>     C       17.8834172   15.7317508   16.4629533
| 11>     O       18.9321191   15.1943626   16.1595570
| 12>     C       17.8698789   16.8729763   17.4219258
| 13>     C       17.3229799   18.0663435   17.1002190
| 14>     C       16.7110923   18.4523804   15.7709659
| 15>     N       17.4177898   19.1373716   17.9909801
| 16>     C       18.1248039   19.1140205   19.1652546
| 17>     S       18.2235494   20.4415837   20.1458986
| 18>     N       18.7499946   17.9339903   19.4875536
| 19>     C       18.6508440   16.6746304   18.7220911
| 20>     C       18.0609471   15.5444370   19.5617968
| 21>     C       18.5344468   14.2298158   19.3961335
| 22>     C       17.9878388   13.1711573   20.1399649
| 23>     C       16.9564717   13.4268792   21.0590868
| 24>     C       16.4785133   14.7333343   21.2257042
| 25>     O       15.4736078   14.9819749   22.1022902
| 26>     C       17.0229586   15.7856796   20.4824775
| 27>     H       14.5713178   17.0550976   16.5915397
| 28>     H       13.4550153   15.7163579   16.8487996
| 29>     H       14.4215917   15.7692954   15.3613852
| 30>     H       15.7646403   15.6001932   18.1265131
| 31>     H       15.1504459   14.1580799   17.3214167
| 32>     H       16.4959503   17.5829526   15.1382800
| 33>     H       17.4006492   19.0936178   15.2071221
| 34>     H       15.7735513   19.0057475   15.9045565
| 35>     H       16.9913539   20.0209710   17.7596832
| 36>     H       19.2542715   17.9442671   20.3653298
| 37>     H       19.6736099   16.3794813   18.4436123
| 38>     H       19.3231802   14.0255851   18.6744002
| 39>     H       18.3620135   12.1584480   19.9981904
| 40>     H       16.5305463   12.6112132   21.6342327
| 41>     H       15.2718903   14.1506241   22.5581598
| 42>     H       16.6286575   16.7866269   20.6249072
| 43> *
| 44>
| 45>                          ****END OF INPUT****

CARTESIAN COORDINATES (ANGSTROEM)
---------------------------------
  C     14.437160   15.981088   16.438061
  C     15.537900   15.170067   17.145156
  O     16.702003   15.049598   16.297801
  C     17.883417   15.731751   16.462953
  O     18.932119   15.194363   16.159557
  C     17.869879   16.872976   17.421926
  C     17.322980   18.066343   17.100219
  C     16.711092   18.452380   15.770966
  N     17.417790   19.137372   17.990980
  C     18.124804   19.114020   19.165255
  S     18.223549   20.441584   20.145899
  N     18.749995   17.933990   19.487554
  C     18.650844   16.674630   18.722091
  C     18.060947   15.544437   19.561797
  C     18.534447   14.229816   19.396134
  C     17.987839   13.171157   20.139965
  C     16.956472   13.426879   21.059087
  C     16.478513   14.733334   21.225704
  O     15.473608   14.981975   22.102290
  C     17.022959   15.785680   20.482478
  H     14.571318   17.055098   16.591540
  H     13.455015   15.716358   16.848800
  H     14.421592   15.769295   15.361385
  H     15.764640   15.600193   18.126513
  H     15.150446   14.158080   17.321417
  H     16.495950   17.582953   15.138280
  H     17.400649   19.093618   15.207122
  H     15.773551   19.005747   15.904556
  H     16.991354   20.020971   17.759683
  H     19.254272   17.944267   20.365330
  H     19.673610   16.379481   18.443612
  H     19.323180   14.025585   18.674400
  H     18.362013   12.158448   19.998190
  H     16.530546   12.611213   21.634233
  H     15.271890   14.150624   22.558160
  H     16.628657   16.786627   20.624907

 Total Charge           Charge          ....    0
 Multiplicity           Mult            ....    1
 Number of Electrons    NEL             ....  154
 Basis Dimension        Dim             ....  828

ORBITAL ENERGIES
----------------

  NO   OCC          E(Eh)            E(eV)
   0   2.0000     -91.890368     -2500.4640
   1   2.0000     -20.601330      -560.5907
   2   2.0000     -20.597782      -560.4941
   3   2.0000     -20.551606      -559.2376
   4   2.0000     -15.626419      -425.2165
   5   2.0000     -15.612529      -424.8385
   6   2.0000     -11.398394      -310.1661
   7   2.0000     -11.387279      -309.8636
   8   2.0000     -11.328420      -308.2620
   9   2.0000     -11.318744      -307.9987
  10   2.0000     -11.317155      -307.9554
  11   2.0000     -11.302157      -307.5473
  12   2.0000     -11.267125      -306.5941
  13   2.0000     -11.266193      -306.5687
  14   2.0000     -11.265018      -306.5367
  15   2.0000     -11.258948      -306.3716
  16   2.0000     -11.247682      -306.0650
  17   2.0000     -11.243679      -305.9561
  18   2.0000     -11.240721      -305.8756
  19   2.0000     -11.235044      -305.7211
  20   2.0000      -8.895483      -242.0584
  21   2.0000      -6.577072      -178.9712
  22   2.0000      -6.575045      -178.9161
  23   2.0000      -6.574470      -178.9004
  24   2.0000      -1.446543       -39.3624
  25   2.0000      -1.421140       -38.6712
  26   2.0000      -1.358554       -36.9681
  27   2.0000      -1.340304       -36.4715
  28   2.0000      -1.240537       -33.7567
  29   2.0000      -1.162930       -31.6449
  30   2.0000      -1.126429       -30.6517
  31   2.0000      -1.050060       -28.5736
  32   2.0000      -1.039900       -28.2971
  33   2.0000      -1.020765       -27.7764
  34   2.0000      -1.005282       -27.3551
  35   2.0000      -0.990530       -26.9537
  36   2.0000      -0.928691       -25.2710
  37   2.0000      -0.891115       -24.2485
  38   2.0000      -0.853466       -23.2240
  39   2.0000      -0.842507       -22.9258
  40   2.0000      -0.838218       -22.8091
  41   2.0000      -0.836436       -22.7606
  42   2.0000      -0.755940       -20.5702
  43   2.0000      -0.735564       -20.0157
  44   2.0000      -0.732786       -19.9401
  45   2.0000      -0.698863       -19.0170
  46   2.0000      -0.690067       -18.7777
  47   2.0000      -0.680104       -18.5066
  48   2.0000      -0.677019       -18.4226
  49   2.0000      -0.665955       -18.1216
  50   2.0000      -0.654595       -17.8124
  51   2.0000      -0.639522       -17.4023
  52   2.0000      -0.631523       -17.1846
  53   2.0000      -0.623941       -16.9783
  54   2.0000      -0.610969       -16.6253
  55   2.0000      -0.608135       -16.5482
  56   2.0000      -0.604732       -16.4556
  57   2.0000      -0.586855       -15.9691
  58   2.0000      -0.578881       -15.7521
  59   2.0000      -0.574831       -15.6419
  60   2.0000      -0.567490       -15.4422
  61   2.0000      -0.559796       -15.2328
  62   2.0000      -0.538496       -14.6532
  63   2.0000      -0.537213       -14.6183
  64   2.0000      -0.524099       -14.2615
  65   2.0000      -0.516085       -14.0434
  66   2.0000      -0.503676       -13.7057
  67   2.0000      -0.497429       -13.5357
  68   2.0000      -0.488743       -13.2994
  69   2.0000      -0.470840       -12.8122
  70   2.0000      -0.453441       -12.3388
  71   2.0000      -0.449553       -12.2330
  72   2.0000      -0.357561        -9.7297
  73   2.0000      -0.352764        -9.5992
  74   2.0000      -0.330087        -8.9821
  75   2.0000      -0.326502        -8.8846
  76   2.0000      -0.319595        -8.6966
  77   0.0000       0.088480         2.4077
  78   0.0000       0.103032         2.8036
  79   0.0000       0.116089         3.1589
  80   0.0000       0.126292         3.4366
  81   0.0000       0.128601         3.4994

MULLIKEN ATOMIC CHARGES
-----------------------
   0 C :   -0.309238
   1 C :    0.030676
   2 O :   -0.323301
   3 C :    0.397170
   4 O :   -0.377880
   5 C :   -0.194221
   6 C :    0.146471
   7 C :   -0.338317
   8 N :   -0.138323
   9 C :    0.208211
  10 S :   -0.441270
  11 N :   -0.227643
  12 C :    0.091810
  13 C :    0.004667
  14 C :   -0.204013
  15 C :   -0.133207
  16 C :   -0.273292
  17 C :    0.318174
  18 O :   -0.355638
  19 C :   -0.272664
  20 H :    0.089697
  21 H :    0.113783
  22 H :    0.113720
  23 H :    0.101499
  24 H :    0.123580
  25 H :    0.125103
  26 H :    0.152789
  27 H :    0.113623
  28 H :    0.195932
  29 H :    0.202671
  30 H :    0.165149
  31 H :    0.172135
  32 H :    0.165198
  33 H :    0.133272
  34 H :    0.241667
  35 H :    0.182009
Sum of atomic charges:   -0.0000000

LOEWDIN ATOMIC CHARGES
----------------------
   0 C :    0.103865
   1 C :   -0.015331
   2 O :    0.300519
   3 C :   -0.416853
   4 O :    0.125537
   5 C :   -0.081162
   6 C :   -0.103336
   7 C :    0.123451
   8 N :    0.401829
   9 C :   -0.455370
  10 S :   -0.037884
  11 N :    0.397360
  12 C :   -0.043437
  13 C :   -0.044144
  14 C :    0.021733
  15 C :    0.046462
  16 C :    0.000005
  17 C :   -0.193493
  18 O :    0.395697
  19 C :    0.024845
  20 H :   -0.035014
  21 H :   -0.022440
  22 H :   -0.024082
  23 H :   -0.036437
  24 H :   -0.021279
  25 H :   -0.009720
  26 H :   -0.007915
  27 H :   -0.018542
  28 H :   -0.058090
  29 H :   -0.063925
  30 H :   -0.002277
  31 H :   -0.021241
  32 H :   -0.017708
  33 H :   -0.034318
  34 H :   -0.152613
  35 H :   -0.024693

  Mayer bond orders larger than 0.100000
B(  0-C ,  1-C ) :   0.9626 B(  0-C , 20-H ) :   0.9770 B(  0-C , 21-H ) :   0.9803
B(  0-C , 22-H ) :   0.9740 B(  1-C ,  2-O ) :   0.8953 B(  1-C , 23-H ) :   0.9583
B(  1-C , 24-H ) :   0.9861 B(  2-O ,  3-C ) :   1.1830 B(  3-C ,  4-O ) :   2.0967
B(  3-C ,  5-C ) :   0.9096 B(  5-C ,  6-C ) :   1.6918 B(  5-C , 12-C ) :   0.9492
B(  6-C ,  7-C ) :   0.9516 B(  6-C ,  8-N ) :   1.1100 B(  7-C , 25-H ) :   0.9788
B(  7-C , 26-H ) :   0.9631 B(  7-C , 27-H ) :   0.9717 B(  8-N ,  9-C ) :   1.2008
B(  8-N , 28-H ) :   0.9520 B(  9-C , 10-S ) :   1.6088 B(  9-C , 11-N ) :   1.2851
B( 11-N , 12-C ) :   0.9921 B( 11-N , 29-H ) :   0.9467 B( 12-C , 13-C ) :   0.9516
B( 12-C , 30-H ) :   0.9970 B( 13-C , 14-C ) :   1.3904 B( 13-C , 19-C ) :   1.3348
B( 14-C , 15-C ) :   1.4001 B( 14-C , 31-H ) :   0.9601 B( 15-C , 16-C ) :   1.3613
B( 15-C , 32-H ) :   0.9694 B( 16-C , 17-C ) :   1.3303 B( 16-C , 33-H ) :   0.9841
B( 17-C , 18-O ) :   1.1109 B( 17-C , 19-C ) :   1.3662 B( 18-O , 34-H ) :   0.9790
B( 19-C , 35-H ) :   0.9579

MP2 TOTAL ENERGY:    -1274.328614509 Eh
FINAL SINGLE POINT ENERGY     -1274.328614508858

DIPOLE MOMENT
-------------
                                X             Y             Z
Electronic contribution:     10.59206       5.19262       7.57071
Nuclear contribution   :    -12.04463      -6.36636      -7.84175
                        -----------------------------------------
Total Dipole Moment    :     -1.45257      -1.17374      -0.27104
                        -----------------------------------------
Magnitude (a.u.)       :      1.88709
Magnitude (Debye)      :      4.79659

Rotational constants in cm-1:     0.011673     0.009261     0.006785
Rotational constants in MHz :   349.934353   277.636750   203.417563

                             ****ORCA TERMINATED NORMALLY****
TOTAL RUN TIME: 0 days 2 hours 54 minutes 2 seconds 407 msec
