                         Program Version 5.0.0 -  RELEASE  -
|  1> ! ri-mp2 cc-pvtz cc-pvtz/c TightSCF NoKeepInts
|  2>
|  3> %scf
|  4>   MaxCore 4096
|  5> end
|  6> *xyz  0  1
|  7>     C       15.3537692   14.1933275   14.9420678
|  8>     C       16.0344038   13.8880982   16.2946171
|  9>     O       16.7496341   15.0020361   16.8869012
| 10>     C       16.4402688   16.3355064   16.7767759
| 11>     O       15.4950684   16.7681940   16.1423293
| 12>     C       17.3597497   17.1961007   17.6019019
| 13>     C       17.2879608   18.5522334   17.5995064
| 14>     C       16.3249280   19.4209673   16.8184171
| 15>     N       18.1958786   19.3044389   18.3511682
| 16>     C       19.2645568   18.7893400   19.0346461
| 17>     S       20.3538455   19.7585763   19.8157213
| 18>     N       19.3889039   17.4237511   19.0354294
| 19>     C       18.4001589   16.4810959   18.4810946
| 20>     C       17.7456128   15.6976341   19.6155589
| 21>     C       17.9834315   14.3177204   19.7596501
| 22>     C       17.3827420   13.5937410   20.8033703
| 23>     C       16.5395251   14.2550275   21.7125776
| 24>     C       16.3041044   15.6298853   21.5747575
| 25>     O       15.4918822   16.2714872   22.4521162
| 26>     C       16.9033398   16.3476650   20.5351666
| 27>     H       14.4375874   14.7809364   15.0789324
| 28>     H       15.0692710   13.2593154   14.4429635
| 29>     H       16.0306383   14.7415911   14.2750416
| 30>     H       15.2604107   13.5512145   16.9965838
| 31>     H       16.7363748   13.0548338   16.1631753
| 32>     H       15.2895103   19.2085884   17.1143214
| 33>     H       16.4058555   19.2173147   15.7431415
| 34>     H       16.4976250   20.4935109   16.9652203
| 35>     H       18.1204298   20.3090200   18.3608304
| 36>     H       20.1647730   17.0713594   19.5809401
| 37>     H       18.9486463   15.7750002   17.8421044
| 38>     H       18.6317129   13.8033917   19.0554965
| 39>     H       17.5711641   12.5264993   20.9054292
| 40>     H       16.0735136   13.7005119   22.5203906
| 41>     H       15.1954802   15.6197459   23.1048483
| 42>     H       16.7142426   17.4123401   20.4508073
| 43> *
| 44>
| 45>                          ****END OF INPUT****

CARTESIAN COORDINATES (ANGSTROEM)
---------------------------------
  C     15.353769   14.193328   14.942068
  C     16.034404   13.888098   16.294617
  O     16.749634   15.002036   16.886901
  C     16.440269   16.335506   16.776776
  O     15.495068   16.768194   16.142329
  C     17.359750   17.196101   17.601902
  C     17.287961   18.552233   17.599506
  C     16.324928   19.420967   16.818417
  N     18.195879   19.304439   18.351168
  C     19.264557   18.789340   19.034646
  S     20.353845   19.758576   19.815721
  N     19.388904   17.423751   19.035429
  C     18.400159   16.481096   18.481095
  C     17.745613   15.697634   19.615559
  C     17.983431   14.317720   19.759650
  C     17.382742   13.593741   20.803370
  C     16.539525   14.255028   21.712578
  C     16.304104   15.629885   21.574758
  O     15.491882   16.271487   22.452116
  C     16.903340   16.347665   20.535167
  H     14.437587   14.780936   15.078932
  H     15.069271   13.259315   14.442963
  H     16.030638   14.741591   14.275042
  H     15.260411   13.551215   16.996584
  H     16.736375   13.054834   16.163175
  H     15.289510   19.208588   17.114321
  H     16.405856   19.217315   15.743142
  H     16.497625   20.493511   16.965220
  H     18.120430   20.309020   18.360830
  H     20.164773   17.071359   19.580940
  H     18.948646   15.775000   17.842104
  H     18.631713   13.803392   19.055497
  H     17.571164   12.526499   20.905429
  H     16.073514   13.700512   22.520391
  H     15.195480   15.619746   23.104848
  H     16.714243   17.412340   20.450807

 Total Charge           Charge          ....    0
 Multiplicity           Mult            ....    1
 Number of Electrons    NEL             ....  154
 Basis Dimension        Dim             ....  828

ORBITAL ENERGIES
----------------

  NO   OCC          E(Eh)            E(eV)
   0   2.0000     -91.887670     -2500.3906
   1   2.0000     -20.599705      -560.5465
   2   2.0000     -20.594749      -560.4116
   3   2.0000     -20.540268      -558.9291
   4   2.0000     -15.627746      -425.2526
   5   2.0000     -15.606794      -424.6824
   6   2.0000     -11.397743      -310.1483
   7   2.0000     -11.382623      -309.7369
   8   2.0000     -11.334546      -308.4287
   9   2.0000     -11.311671      -307.8062
  10   2.0000     -11.307136      -307.6828
  11   2.0000     -11.303511      -307.5842
  12   2.0000     -11.258024      -306.3464
  13   2.0000     -11.257603      -306.3349
  14   2.0000     -11.253214      -306.2155
  15   2.0000     -11.251002      -306.1553
  16   2.0000     -11.240982      -305.8827
  17   2.0000     -11.236353      -305.7567
  18   2.0000     -11.236272      -305.7545
  19   2.0000     -11.223176      -305.3981
  20   2.0000      -8.892742      -241.9838
  21   2.0000      -6.574320      -178.8964
  22   2.0000      -6.572314      -178.8418
  23   2.0000      -6.571730      -178.8259
  24   2.0000      -1.444027       -39.2940
  25   2.0000      -1.414386       -38.4874
  26   2.0000      -1.354651       -36.8619
  27   2.0000      -1.338806       -36.4308
  28   2.0000      -1.237159       -33.6648
  29   2.0000      -1.155523       -31.4434
  30   2.0000      -1.118504       -30.4360
  31   2.0000      -1.041118       -28.3303
  32   2.0000      -1.036510       -28.2049
  33   2.0000      -1.013007       -27.5653
  34   2.0000      -0.994175       -27.0529
  35   2.0000      -0.982502       -26.7352
  36   2.0000      -0.920933       -25.0599
  37   2.0000      -0.898150       -24.4399
  38   2.0000      -0.846078       -23.0230
  39   2.0000      -0.836350       -22.7582
  40   2.0000      -0.832074       -22.6419
  41   2.0000      -0.817831       -22.2543
  42   2.0000      -0.746204       -20.3053
  43   2.0000      -0.728983       -19.8366
  44   2.0000      -0.718766       -19.5586
  45   2.0000      -0.694035       -18.8856
  46   2.0000      -0.687070       -18.6961
  47   2.0000      -0.677786       -18.4435
  48   2.0000      -0.667829       -18.1725
  49   2.0000      -0.657692       -17.8967
  50   2.0000      -0.650720       -17.7070
  51   2.0000      -0.643591       -17.5130
  52   2.0000      -0.633828       -17.2473
  53   2.0000      -0.605804       -16.4848
  54   2.0000      -0.604072       -16.4376
  55   2.0000      -0.597606       -16.2617
  56   2.0000      -0.597027       -16.2459
  57   2.0000      -0.580367       -15.7926
  58   2.0000      -0.573319       -15.6008
  59   2.0000      -0.569747       -15.5036
  60   2.0000      -0.560923       -15.2635
  61   2.0000      -0.538290       -14.6476
  62   2.0000      -0.536010       -14.5856
  63   2.0000      -0.523597       -14.2478
  64   2.0000      -0.522059       -14.2059
  65   2.0000      -0.511735       -13.9250
  66   2.0000      -0.503308       -13.6957
  67   2.0000      -0.498253       -13.5582
  68   2.0000      -0.482629       -13.1330
  69   2.0000      -0.462662       -12.5897
  70   2.0000      -0.453249       -12.3335
  71   2.0000      -0.439852       -11.9690
  72   2.0000      -0.352937        -9.6039
  73   2.0000      -0.347484        -9.4555
  74   2.0000      -0.327034        -8.8991
  75   2.0000      -0.319343        -8.6898
  76   2.0000      -0.314649        -8.5620
  77   0.0000       0.077890         2.1195
  78   0.0000       0.109445         2.9781
  79   0.0000       0.124533         3.3887
  80   0.0000       0.133787         3.6405
  81   0.0000       0.137151         3.7321

MULLIKEN ATOMIC CHARGES
-----------------------
   0 C :   -0.290305
   1 C :    0.049504
   2 O :   -0.359241
   3 C :    0.468348
   4 O :   -0.434303
   5 C :   -0.207328
   6 C :    0.145456
   7 C :   -0.273952
   8 N :   -0.119813
   9 C :    0.211816
  10 S :   -0.441791
  11 N :   -0.203112
  12 C :    0.046533
  13 C :    0.075422
  14 C :   -0.183730
  15 C :   -0.132260
  16 C :   -0.278724
  17 C :    0.315761
  18 O :   -0.357014
  19 C :   -0.269288
  20 H :    0.122315
  21 H :    0.095129
  22 H :    0.097735
  23 H :    0.089780
  24 H :    0.097350
  25 H :    0.132312
  26 H :    0.129332
  27 H :    0.094903
  28 H :    0.197070
  29 H :    0.193987
  30 H :    0.148416
  31 H :    0.147344
  32 H :    0.158849
  33 H :    0.128884
  34 H :    0.240406
  35 H :    0.164209
Sum of atomic charges:    0.0000000

LOEWDIN ATOMIC CHARGES
----------------------
   0 C :    0.102653
   1 C :   -0.008476
   2 O :    0.297107
   3 C :   -0.412223
   4 O :    0.105388
   5 C :   -0.092933
   6 C :   -0.059518
   7 C :    0.130542
   8 N :    0.406301
   9 C :   -0.456881
  10 S :   -0.036891
  11 N :    0.396465
  12 C :   -0.053092
  13 C :   -0.037805
  14 C :    0.013760
  15 C :    0.039062
  16 C :   -0.001978
  17 C :   -0.189435
  18 O :    0.394938
  19 C :    0.031527
  20 H :   -0.024941
  21 H :   -0.028635
  22 H :   -0.026609
  23 H :   -0.028075
  24 H :   -0.025890
  25 H :   -0.004761
  26 H :   -0.004658
  27 H :   -0.023691
  28 H :   -0.057819
  29 H :   -0.064791
  30 H :   -0.011805
  31 H :   -0.030915
  32 H :   -0.021761
  33 H :   -0.035932
  34 H :   -0.154221
  35 H :   -0.024003

  Mayer bond orders larger than 0.100000
B(  0-C ,  1-C ) :   0.9767 B(  0-C , 20-H ) :   0.9717 B(  0-C , 21-H ) :   0.9760
B(  0-C , 22-H ) :   0.9759 B(  1-C ,  2-O ) :   0.8999 B(  1-C , 23-H ) :   0.9756
B(  1-C , 24-H ) :   0.9823 B(  2-O ,  3-C ) :   1.1593 B(  3-C ,  4-O ) :   1.9661
B(  3-C ,  5-C ) :   1.0605 B(  5-C ,  6-C ) :   1.6567 B(  5-C , 12-C ) :   0.9752
B(  6-C ,  7-C ) :   0.9677 B(  6-C ,  8-N ) :   1.1630 B(  7-C , 25-H ) :   0.9605
B(  7-C , 26-H ) :   0.9604 B(  7-C , 27-H ) :   0.9910 B(  8-N ,  9-C ) :   1.1830
B(  8-N , 28-H ) :   0.9481 B(  9-C , 10-S ) :   1.6056 B(  9-C , 11-N ) :   1.3058
B( 11-N , 12-C ) :   0.9863 B( 11-N , 29-H ) :   0.9519 B( 12-C , 13-C ) :   0.9379
B( 12-C , 30-H ) :   1.0028 B( 13-C , 14-C ) :   1.3535 B( 13-C , 19-C ) :   1.3831
B( 14-C , 15-C ) :   1.3936 B( 14-C , 31-H ) :   0.9724 B( 15-C , 16-C ) :   1.3639
B( 15-C , 32-H ) :   0.9711 B( 16-C , 17-C ) :   1.3317 B( 16-C , 33-H ) :   0.9855
B( 17-C , 18-O ) :   1.1096 B( 17-C , 19-C ) :   1.3735 B( 18-O , 34-H ) :   0.9802
B( 19-C , 35-H ) :   0.9584

MP2 TOTAL ENERGY:    -1274.340735635 Eh
FINAL SINGLE POINT ENERGY     -1274.340735635489

DIPOLE MOMENT
-------------
                                X             Y             Z
Electronic contribution:      9.63773       9.68208      10.18055
Nuclear contribution   :    -10.67276     -11.45948     -10.60312
                        -----------------------------------------
Total Dipole Moment    :     -1.03503      -1.77740      -0.42258
                        -----------------------------------------
Magnitude (a.u.)       :      2.09976
Magnitude (Debye)      :      5.33717

Rotational constants in cm-1:     0.010837     0.008850     0.005990
Rotational constants in MHz :   324.889227   265.311773   179.563994

                             ****ORCA TERMINATED NORMALLY****
TOTAL RUN TIME: 0 days 2 hours 12 minutes 2 seconds 754 msec
