                         Program Version 5.0.0 -  RELEASE  -
|  1> ! ri-mp2 cc-pvtz cc-pvtz/c TightSCF NoKeepInts
|  2>
|  3> %scf
|  4>   MaxCore 4096
|  5> end
|  6> *xyz  0  1
|  7>     C       14.2085360   15.4478166   16.2931936
|  8>     C       15.5703654   15.1226869   16.9304114
|  9>     O       16.5987694   15.4557142   15.9791420
| 10>     C       17.8539813   15.7225191   16.4459119
| 11>     O       18.6952637   14.8422582   16.4469322
| 12>     C       17.9356862   16.8867986   17.3852070
| 13>     C       17.3084142   18.0688666   17.1701866
| 14>     C       16.4775428   18.4719762   15.9711234
| 15>     N       17.4746662   19.1183262   18.0778090
| 16>     C       18.3514748   19.1085515   19.1311142
| 17>     S       18.5643830   20.4330392   20.0978358
| 18>     N       19.0416843   17.9411875   19.3446793
| 19>     C       18.8063917   16.6739078   18.6256682
| 20>     C       18.1740339   15.6334525   19.5465042
| 21>     C       18.6896677   14.3256078   19.6005000
| 22>     C       18.0977248   13.3549774   20.4256865
| 23>     C       16.9777845   13.6929989   21.2040225
| 24>     C       16.4577954   14.9929767   21.1503073
| 25>     O       15.3683434   15.3199028   21.8896245
| 26>     C       17.0485550   15.9568815   20.3272570
| 27>     H       13.3936725   15.1951822   16.9826254
| 28>     H       14.0684058   14.8675961   15.3724659
| 29>     H       14.1285548   16.5113411   16.0450673
| 30>     H       15.6715362   15.7069567   17.8538139
| 31>     H       15.6309014   14.0576935   17.1919752
| 32>     H       16.6556815   17.8243429   15.1043928
| 33>     H       16.7165675   19.4928743   15.6475188
| 34>     H       15.4082308   18.4380990   16.2071739
| 35>     H       16.9831781   19.9863445   17.9330105
| 36>     H       19.6646448   17.9538830   20.1423575
| 37>     H       19.7825583   16.2924305   18.2916060
| 38>     H       19.5440791   14.0554397   18.9836454
| 39>     H       18.5042812   12.3453541   20.4532975
| 40>     H       16.5161251   12.9451251   21.8403463
| 41>     H       15.1487885   14.5520304   22.4389584
| 42>     H       16.6287307   16.9568608   20.3026286
| 43> *
| 44>
| 45>                          ****END OF INPUT****

CARTESIAN COORDINATES (ANGSTROEM)
---------------------------------
  C     14.208536   15.447817   16.293194
  C     15.570365   15.122687   16.930411
  O     16.598769   15.455714   15.979142
  C     17.853981   15.722519   16.445912
  O     18.695264   14.842258   16.446932
  C     17.935686   16.886799   17.385207
  C     17.308414   18.068867   17.170187
  C     16.477543   18.471976   15.971123
  N     17.474666   19.118326   18.077809
  C     18.351475   19.108552   19.131114
  S     18.564383   20.433039   20.097836
  N     19.041684   17.941188   19.344679
  C     18.806392   16.673908   18.625668
  C     18.174034   15.633452   19.546504
  C     18.689668   14.325608   19.600500
  C     18.097725   13.354977   20.425687
  C     16.977784   13.692999   21.204022
  C     16.457795   14.992977   21.150307
  O     15.368343   15.319903   21.889625
  C     17.048555   15.956881   20.327257
  H     13.393672   15.195182   16.982625
  H     14.068406   14.867596   15.372466
  H     14.128555   16.511341   16.045067
  H     15.671536   15.706957   17.853814
  H     15.630901   14.057693   17.191975
  H     16.655682   17.824343   15.104393
  H     16.716568   19.492874   15.647519
  H     15.408231   18.438099   16.207174
  H     16.983178   19.986344   17.933010
  H     19.664645   17.953883   20.142357
  H     19.782558   16.292430   18.291606
  H     19.544079   14.055440   18.983645
  H     18.504281   12.345354   20.453297
  H     16.516125   12.945125   21.840346
  H     15.148788   14.552030   22.438958
  H     16.628731   16.956861   20.302629

 Total Charge           Charge          ....    0
 Multiplicity           Mult            ....    1
 Number of Electrons    NEL             ....  154
 Basis Dimension        Dim             ....  828

ORBITAL ENERGIES
----------------

  NO   OCC          E(Eh)            E(eV)
   0   2.0000     -91.890757     -2500.4746
   1   2.0000     -20.598464      -560.5127
   2   2.0000     -20.585593      -560.1625
   3   2.0000     -20.556019      -559.3577
   4   2.0000     -15.629653      -425.3045
   5   2.0000     -15.610583      -424.7856
   6   2.0000     -11.394795      -310.0681
   7   2.0000     -11.386680      -309.8473
   8   2.0000     -11.335006      -308.4412
   9   2.0000     -11.314908      -307.8943
  10   2.0000     -11.311526      -307.8023
  11   2.0000     -11.301163      -307.5203
  12   2.0000     -11.264253      -306.5159
  13   2.0000     -11.263540      -306.4965
  14   2.0000     -11.260755      -306.4207
  15   2.0000     -11.254738      -306.2570
  16   2.0000     -11.244394      -305.9755
  17   2.0000     -11.240492      -305.8693
  18   2.0000     -11.237126      -305.7778
  19   2.0000     -11.234665      -305.7108
  20   2.0000      -8.895835      -242.0680
  21   2.0000      -6.577414      -178.9805
  22   2.0000      -6.575401      -178.9257
  23   2.0000      -6.574816      -178.9098
  24   2.0000      -1.450379       -39.4668
  25   2.0000      -1.418279       -38.5933
  26   2.0000      -1.358258       -36.9601
  27   2.0000      -1.341812       -36.5126
  28   2.0000      -1.240230       -33.7484
  29   2.0000      -1.159183       -31.5430
  30   2.0000      -1.123919       -30.5834
  31   2.0000      -1.046855       -28.4864
  32   2.0000      -1.037715       -28.2377
  33   2.0000      -1.016763       -27.6675
  34   2.0000      -1.003462       -27.3056
  35   2.0000      -0.988393       -26.8956
  36   2.0000      -0.926301       -25.2059
  37   2.0000      -0.880900       -23.9705
  38   2.0000      -0.852502       -23.1978
  39   2.0000      -0.842440       -22.9240
  40   2.0000      -0.835092       -22.7240
  41   2.0000      -0.833798       -22.6888
  42   2.0000      -0.757615       -20.6158
  43   2.0000      -0.737226       -20.0609
  44   2.0000      -0.730881       -19.8883
  45   2.0000      -0.696566       -18.9545
  46   2.0000      -0.687644       -18.7118
  47   2.0000      -0.682704       -18.5773
  48   2.0000      -0.675886       -18.3918
  49   2.0000      -0.659726       -17.9521
  50   2.0000      -0.652339       -17.7511
  51   2.0000      -0.642712       -17.4891
  52   2.0000      -0.631229       -17.1766
  53   2.0000      -0.626614       -17.0510
  54   2.0000      -0.607943       -16.5430
  55   2.0000      -0.606883       -16.5141
  56   2.0000      -0.602122       -16.3846
  57   2.0000      -0.582459       -15.8495
  58   2.0000      -0.576070       -15.6757
  59   2.0000      -0.567239       -15.4354
  60   2.0000      -0.560512       -15.2523
  61   2.0000      -0.552877       -15.0446
  62   2.0000      -0.542519       -14.7627
  63   2.0000      -0.526412       -14.3244
  64   2.0000      -0.523022       -14.2321
  65   2.0000      -0.515129       -14.0174
  66   2.0000      -0.502166       -13.6646
  67   2.0000      -0.497227       -13.5302
  68   2.0000      -0.483781       -13.1643
  69   2.0000      -0.467188       -12.7128
  70   2.0000      -0.462200       -12.5771
  71   2.0000      -0.451318       -12.2810
  72   2.0000      -0.357857        -9.7378
  73   2.0000      -0.350273        -9.5314
  74   2.0000      -0.330107        -8.9827
  75   2.0000      -0.322362        -8.7719
  76   2.0000      -0.318884        -8.6773
  77   0.0000       0.073502         2.0001
  78   0.0000       0.103342         2.8121
  79   0.0000       0.117664         3.2018
  80   0.0000       0.130574         3.5531
  81   0.0000       0.133673         3.6374

MULLIKEN ATOMIC CHARGES
-----------------------
   0 C :   -0.271198
   1 C :    0.022618
   2 O :   -0.361056
   3 C :    0.461379
   4 O :   -0.380918
   5 C :   -0.235069
   6 C :    0.157065
   7 C :   -0.326412
   8 N :   -0.128253
   9 C :    0.195906
  10 S :   -0.437665
  11 N :   -0.204532
  12 C :    0.061232
  13 C :    0.041311
  14 C :   -0.176903
  15 C :   -0.133532
  16 C :   -0.277459
  17 C :    0.320259
  18 O :   -0.358594
  19 C :   -0.300809
  20 H :    0.097892
  21 H :    0.107186
  22 H :    0.089679
  23 H :    0.097570
  24 H :    0.118468
  25 H :    0.139556
  26 H :    0.130327
  27 H :    0.120860
  28 H :    0.197976
  29 H :    0.195394
  30 H :    0.160986
  31 H :    0.164366
  32 H :    0.162828
  33 H :    0.131661
  34 H :    0.241429
  35 H :    0.176453
Sum of atomic charges:   -0.0000000

LOEWDIN ATOMIC CHARGES
----------------------
   0 C :    0.109785
   1 C :   -0.016638
   2 O :    0.288311
   3 C :   -0.418460
   4 O :    0.135099
   5 C :   -0.091417
   6 C :   -0.082672
   7 C :    0.126715
   8 N :    0.403842
   9 C :   -0.458230
  10 S :   -0.034996
  11 N :    0.397067
  12 C :   -0.045213
  13 C :   -0.042708
  14 C :    0.022160
  15 C :    0.043736
  16 C :   -0.001077
  17 C :   -0.194936
  18 O :    0.393896
  19 C :    0.026772
  20 H :   -0.023185
  21 H :   -0.024198
  22 H :   -0.033026
  23 H :   -0.037160
  24 H :   -0.025527
  25 H :   -0.008114
  26 H :   -0.013591
  27 H :   -0.016995
  28 H :   -0.057017
  29 H :   -0.063620
  30 H :   -0.003122
  31 H :   -0.022827
  32 H :   -0.019251
  33 H :   -0.035020
  34 H :   -0.153248
  35 H :   -0.025135

  Mayer bond orders larger than 0.100000
B(  0-C ,  1-C ) :   0.9788 B(  0-C , 20-H ) :   0.9761 B(  0-C , 21-H ) :   0.9792
B(  0-C , 22-H ) :   0.9777 B(  1-C ,  2-O ) :   0.8948 B(  1-C , 23-H ) :   0.9601
B(  1-C , 24-H ) :   0.9808 B(  2-O ,  3-C ) :   1.1201 B(  3-C ,  4-O ) :   2.0767
B(  3-C ,  5-C ) :   0.9694 B(  5-C ,  6-C ) :   1.6619 B(  5-C , 12-C ) :   0.9608
B(  6-C ,  7-C ) :   0.9492 B(  6-C ,  8-N ) :   1.1303 B(  7-C , 25-H ) :   0.9717
B(  7-C , 26-H ) :   0.9785 B(  7-C , 27-H ) :   0.9643 B(  8-N ,  9-C ) :   1.1866
B(  8-N , 28-H ) :   0.9512 B(  9-C , 10-S ) :   1.6146 B(  9-C , 11-N ) :   1.2953
B( 11-N , 12-C ) :   0.9949 B( 11-N , 29-H ) :   0.9514 B( 12-C , 13-C ) :   0.9436
B( 12-C , 30-H ) :   0.9985 B( 13-C , 14-C ) :   1.3861 B( 13-C , 19-C ) :   1.3449
B( 14-C , 15-C ) :   1.3961 B( 14-C , 31-H ) :   0.9605 B( 15-C , 16-C ) :   1.3642
B( 15-C , 32-H ) :   0.9702 B( 16-C , 17-C ) :   1.3303 B( 16-C , 33-H ) :   0.9845
B( 17-C , 18-O ) :   1.1116 B( 17-C , 19-C ) :   1.3675 B( 18-O , 34-H ) :   0.9796
B( 19-C , 35-H ) :   0.9579

MP2 TOTAL ENERGY:    -1274.327564416 Eh
FINAL SINGLE POINT ENERGY     -1274.327564416027

DIPOLE MOMENT
-------------
                                X             Y             Z
Electronic contribution:     11.90547       6.66984       7.07051
Nuclear contribution   :    -13.29177      -7.74987      -7.38883
                        -----------------------------------------
Total Dipole Moment    :     -1.38630      -1.08003      -0.31832
                        -----------------------------------------
Magnitude (a.u.)       :      1.78595
Magnitude (Debye)      :      4.53952

Rotational constants in cm-1:     0.011202     0.009418     0.006848
Rotational constants in MHz :   335.817286   282.343205   205.296974

                             ****ORCA TERMINATED NORMALLY****
TOTAL RUN TIME: 0 days 1 hours 57 minutes 9 seconds 509 msec
