                         Program Version 5.0.0 -  RELEASE  -
|  1> ! ri-mp2 cc-pvtz cc-pvtz/c TightSCF NoKeepInts
|  2>
|  3> %scf
|  4>   MaxCore 4096
|  5> end
|  6> *xyz  0  1
|  7>     C       15.2274027   13.7352596   15.8901346
|  8>     C       15.9249486   14.5811838   16.9682282
|  9>     O       17.0182830   15.2707372   16.3350901
| 10>     C       16.9376454   16.6290047   16.2453335
| 11>     O       16.1262810   17.1321530   15.4895774
| 12>     C       17.5585859   17.3572438   17.4091070
| 13>     C       17.3647666   18.6853097   17.6217903
| 14>     C       16.4811082   19.6270187   16.8315198
| 15>     N       18.0649159   19.3401991   18.6400060
| 16>     C       19.1114961   18.7976602   19.3370457
| 17>     S       20.0131063   19.6874218   20.4005168
| 18>     N       19.3855683   17.4764563   19.0915334
| 19>     C       18.5134225   16.5695097   18.3243463
| 20>     C       17.7938467   15.6441744   19.2998371
| 21>     C       18.2794441   14.3415719   19.5218802
| 22>     C       17.6278490   13.4786251   20.4189874
| 23>     C       16.4856590   13.9235781   21.1060148
| 24>     C       16.0079552   15.2246544   20.8989927
| 25>     O       14.9074156   15.6589041   21.5625259
| 26>     C       16.6570234   16.0809231   20.0042735
| 27>     H       14.8311336   14.3789885   15.0942839
| 28>     H       14.3928617   13.1704969   16.3227035
| 29>     H       15.9306782   13.0232489   15.4408435
| 30>     H       15.2118385   15.2840264   17.4214175
| 31>     H       16.3007409   13.9129415   17.7520063
| 32>     H       15.4411189   19.2764321   16.8364207
| 33>     H       16.8054045   19.6723076   15.7839127
| 34>     H       16.4855302   20.6509243   17.2232499
| 35>     H       17.8846465   20.3150304   18.8202007
| 36>     H       20.1481394   17.0971587   19.6378247
| 37>     H       19.1570075   15.9545155   17.6791576
| 38>     H       19.1628799   13.9943128   18.9922453
| 39>     H       18.0096464   12.4718832   20.5817039
| 40>     H       15.9799466   13.2610266   21.8010649
| 41>     H       14.6424726   14.9596616   22.1793583
| 42>     H       16.2762312   17.0874561   19.8708660
| 43> *
| 44>
| 45>                          ****END OF INPUT****

CARTESIAN COORDINATES (ANGSTROEM)
---------------------------------
  C     15.227403   13.735260   15.890135
  C     15.924949   14.581184   16.968228
  O     17.018283   15.270737   16.335090
  C     16.937645   16.629005   16.245334
  O     16.126281   17.132153   15.489577
  C     17.558586   17.357244   17.409107
  C     17.364767   18.685310   17.621790
  C     16.481108   19.627019   16.831520
  N     18.064916   19.340199   18.640006
  C     19.111496   18.797660   19.337046
  S     20.013106   19.687422   20.400517
  N     19.385568   17.476456   19.091533
  C     18.513423   16.569510   18.324346
  C     17.793847   15.644174   19.299837
  C     18.279444   14.341572   19.521880
  C     17.627849   13.478625   20.418987
  C     16.485659   13.923578   21.106015
  C     16.007955   15.224654   20.898993
  O     14.907416   15.658904   21.562526
  C     16.657023   16.080923   20.004274
  H     14.831134   14.378989   15.094284
  H     14.392862   13.170497   16.322703
  H     15.930678   13.023249   15.440843
  H     15.211839   15.284026   17.421418
  H     16.300741   13.912942   17.752006
  H     15.441119   19.276432   16.836421
  H     16.805405   19.672308   15.783913
  H     16.485530   20.650924   17.223250
  H     17.884646   20.315030   18.820201
  H     20.148139   17.097159   19.637825
  H     19.157007   15.954515   17.679158
  H     19.162880   13.994313   18.992245
  H     18.009646   12.471883   20.581704
  H     15.979947   13.261027   21.801065
  H     14.642473   14.959662   22.179358
  H     16.276231   17.087456   19.870866

 Total Charge           Charge          ....    0
 Multiplicity           Mult            ....    1
 Number of Electrons    NEL             ....  154
 Basis Dimension        Dim             ....  828

ORBITAL ENERGIES
----------------

  NO   OCC          E(Eh)            E(eV)
   0   2.0000     -91.891154     -2500.4854
   1   2.0000     -20.602741      -560.6291
   2   2.0000     -20.580305      -560.0186
   3   2.0000     -20.547933      -559.1377
   4   2.0000     -15.631955      -425.3671
   5   2.0000     -15.610204      -424.7752
   6   2.0000     -11.393172      -310.0240
   7   2.0000     -11.385818      -309.8238
   8   2.0000     -11.338682      -308.5412
   9   2.0000     -11.320407      -308.0439
  10   2.0000     -11.312533      -307.8297
  11   2.0000     -11.293620      -307.3150
  12   2.0000     -11.265037      -306.5373
  13   2.0000     -11.261822      -306.4498
  14   2.0000     -11.260315      -306.4088
  15   2.0000     -11.254146      -306.2409
  16   2.0000     -11.249255      -306.1078
  17   2.0000     -11.243829      -305.9601
  18   2.0000     -11.243652      -305.9553
  19   2.0000     -11.218351      -305.2668
  20   2.0000      -8.896184      -242.0775
  21   2.0000      -6.577750      -178.9897
  22   2.0000      -6.575754      -178.9354
  23   2.0000      -6.575160      -178.9192
  24   2.0000      -1.448190       -39.4073
  25   2.0000      -1.422385       -38.7051
  26   2.0000      -1.352214       -36.7956
  27   2.0000      -1.343027       -36.5456
  28   2.0000      -1.241436       -33.7812
  29   2.0000      -1.163075       -31.6489
  30   2.0000      -1.122000       -30.5312
  31   2.0000      -1.046874       -28.4869
  32   2.0000      -1.030769       -28.0487
  33   2.0000      -1.021462       -27.7954
  34   2.0000      -0.998339       -27.1662
  35   2.0000      -0.986147       -26.8344
  36   2.0000      -0.926228       -25.2039
  37   2.0000      -0.878300       -23.8997
  38   2.0000      -0.850541       -23.1444
  39   2.0000      -0.843802       -22.9610
  40   2.0000      -0.839217       -22.8363
  41   2.0000      -0.829729       -22.5781
  42   2.0000      -0.758633       -20.6435
  43   2.0000      -0.736483       -20.0407
  44   2.0000      -0.722812       -19.6687
  45   2.0000      -0.701911       -19.1000
  46   2.0000      -0.692392       -18.8409
  47   2.0000      -0.678236       -18.4557
  48   2.0000      -0.670619       -18.2485
  49   2.0000      -0.659057       -17.9339
  50   2.0000      -0.649592       -17.6763
  51   2.0000      -0.647268       -17.6131
  52   2.0000      -0.637698       -17.3526
  53   2.0000      -0.613822       -16.7029
  54   2.0000      -0.606936       -16.5156
  55   2.0000      -0.602508       -16.3951
  56   2.0000      -0.594845       -16.1866
  57   2.0000      -0.583291       -15.8722
  58   2.0000      -0.574269       -15.6266
  59   2.0000      -0.570012       -15.5108
  60   2.0000      -0.566238       -15.4081
  61   2.0000      -0.539780       -14.6882
  62   2.0000      -0.536065       -14.5871
  63   2.0000      -0.530676       -14.4404
  64   2.0000      -0.517443       -14.0803
  65   2.0000      -0.508938       -13.8489
  66   2.0000      -0.505489       -13.7551
  67   2.0000      -0.496978       -13.5235
  68   2.0000      -0.489216       -13.3122
  69   2.0000      -0.464901       -12.6506
  70   2.0000      -0.451607       -12.2889
  71   2.0000      -0.443553       -12.0697
  72   2.0000      -0.358310        -9.7501
  73   2.0000      -0.355517        -9.6741
  74   2.0000      -0.331517        -9.0210
  75   2.0000      -0.327217        -8.9040
  76   2.0000      -0.318385        -8.6637
  77   0.0000       0.068543         1.8651
  78   0.0000       0.100460         2.7337
  79   0.0000       0.121028         3.2934
  80   0.0000       0.127160         3.4602
  81   0.0000       0.131145         3.5686

MULLIKEN ATOMIC CHARGES
-----------------------
   0 C :   -0.259718
   1 C :    0.021695
   2 O :   -0.387451
   3 C :    0.494722
   4 O :   -0.407501
   5 C :   -0.277944
   6 C :    0.159426
   7 C :   -0.268784
   8 N :   -0.123281
   9 C :    0.215765
  10 S :   -0.437769
  11 N :   -0.205796
  12 C :    0.054438
  13 C :    0.044973
  14 C :   -0.188110
  15 C :   -0.134532
  16 C :   -0.272650
  17 C :    0.305937
  18 O :   -0.355989
  19 C :   -0.239050
  20 H :    0.109107
  21 H :    0.084541
  22 H :    0.092289
  23 H :    0.094558
  24 H :    0.120492
  25 H :    0.129240
  26 H :    0.134536
  27 H :    0.095169
  28 H :    0.198339
  29 H :    0.193425
  30 H :    0.149913
  31 H :    0.150115
  32 H :    0.164045
  33 H :    0.133726
  34 H :    0.242429
  35 H :    0.169696
Sum of atomic charges:   -0.0000000

LOEWDIN ATOMIC CHARGES
----------------------
   0 C :    0.106213
   1 C :   -0.019050
   2 O :    0.287414
   3 C :   -0.423111
   4 O :    0.119236
   5 C :   -0.099334
   6 C :   -0.057288
   7 C :    0.131042
   8 N :    0.407660
   9 C :   -0.455528
  10 S :   -0.032839
  11 N :    0.396018
  12 C :   -0.053072
  13 C :   -0.035923
  14 C :    0.011667
  15 C :    0.041682
  16 C :   -0.001228
  17 C :   -0.189816
  18 O :    0.396422
  19 C :    0.032417
  20 H :   -0.023590
  21 H :   -0.029971
  22 H :   -0.027900
  23 H :   -0.030544
  24 H :   -0.027876
  25 H :   -0.005438
  26 H :   -0.002931
  27 H :   -0.023138
  28 H :   -0.057210
  29 H :   -0.065733
  30 H :   -0.006983
  31 H :   -0.029684
  32 H :   -0.019497
  33 H :   -0.034183
  34 H :   -0.152190
  35 H :   -0.025714

  Mayer bond orders larger than 0.100000
B(  0-C ,  1-C ) :   0.9857 B(  0-C , 20-H ) :   0.9775 B(  0-C , 21-H ) :   0.9778
B(  0-C , 22-H ) :   0.9797 B(  1-C ,  2-O ) :   0.8664 B(  1-C , 23-H ) :   0.9698
B(  1-C , 24-H ) :   0.9710 B(  2-O ,  3-C ) :   1.0940 B(  3-C ,  4-O ) :   2.0076
B(  3-C ,  5-C ) :   1.0742 B(  5-C ,  6-C ) :   1.6443 B(  5-C , 12-C ) :   0.9703
B(  6-C ,  7-C ) :   0.9697 B(  6-C ,  8-N ) :   1.1599 B(  7-C , 25-H ) :   0.9618
B(  7-C , 26-H ) :   0.9577 B(  7-C , 27-H ) :   0.9895 B(  8-N ,  9-C ) :   1.1804
B(  8-N , 28-H ) :   0.9477 B(  9-C , 10-S ) :   1.6082 B(  9-C , 11-N ) :   1.3059
B( 11-N , 12-C ) :   0.9613 B( 11-N , 29-H ) :   0.9530 B( 12-C , 13-C ) :   0.9549
B( 12-C , 30-H ) :   1.0012 B( 13-C , 14-C ) :   1.3485 B( 13-C , 19-C ) :   1.3621
B( 14-C , 15-C ) :   1.3941 B( 14-C , 31-H ) :   0.9746 B( 15-C , 16-C ) :   1.3632
B( 15-C , 32-H ) :   0.9696 B( 16-C , 17-C ) :   1.3301 B( 16-C , 33-H ) :   0.9836
B( 17-C , 18-O ) :   1.1150 B( 17-C , 19-C ) :   1.3728 B( 18-O , 34-H ) :   0.9786
B( 19-C , 35-H ) :   0.9583

MP2 TOTAL ENERGY:    -1274.328351408 Eh
FINAL SINGLE POINT ENERGY     -1274.328351408178

DIPOLE MOMENT
-------------
                                X             Y             Z
Electronic contribution:     10.13079       9.96141       6.86658
Nuclear contribution   :    -11.09094     -11.41867      -6.59080
                        -----------------------------------------
Total Dipole Moment    :     -0.96015      -1.45726       0.27578
                        -----------------------------------------
Magnitude (a.u.)       :      1.76679
Magnitude (Debye)      :      4.49082

Rotational constants in cm-1:     0.012083     0.008949     0.006359
Rotational constants in MHz :   362.243754   268.288597   190.647615

                             ****ORCA TERMINATED NORMALLY****
TOTAL RUN TIME: 0 days 2 hours 13 minutes 23 seconds 508 msec
