                         Program Version 5.0.0 -  RELEASE  -
|  1> ! ri-mp2 cc-pvtz cc-pvtz/c TightSCF NoKeepInts
|  2>
|  3> %scf
|  4>   MaxCore 4096
|  5> end
|  6> *xyz  0  1
|  7>     C       14.2559119   14.9689330   14.9911334
|  8>     C       15.5834021   14.5726845   15.6588067
|  9>     O       16.2371390   15.7836342   16.0701793
| 10>     C       17.3931211   15.6893044   16.7878628
| 11>     O       18.0139552   14.6423382   16.8778646
| 12>     C       17.7081987   16.8906753   17.6337740
| 13>     C       17.1543624   18.1229216   17.4815857
| 14>     C       16.1316090   18.5699719   16.4568000
| 15>     N       17.5790375   19.1794414   18.2944869
| 16>     C       18.6409155   19.1268136   19.1582454
| 17>     S       19.1612083   20.4626549   19.9831456
| 18>     N       19.2504925   17.9066714   19.3023032
| 19>     C       18.7483891   16.6424380   18.7325291
| 20>     C       18.1826523   15.7488620   19.8334976
| 21>     C       18.6573218   14.4344375   19.9982953
| 22>     C       18.1391385   13.6065699   21.0082798
| 23>     C       17.1366630   14.0962084   21.8626079
| 24>     C       16.6583363   15.4034024   21.6998094
| 25>     O       15.6860854   15.8771942   22.5193555
| 26>     C       17.1757283   16.2248566   20.6933285
| 27>     H       13.6169139   15.5161496   15.6952676
| 28>     H       13.7128626   14.0765276   14.6568346
| 29>     H       14.4377419   15.6076298   14.1178646
| 30>     H       15.3856104   13.9311364   16.5284953
| 31>     H       16.2140479   14.0180175   14.9507531
| 32>     H       16.4501165   18.2960782   15.4432481
| 33>     H       15.9726633   19.6550777   16.4612599
| 34>     H       15.1610113   18.0945992   16.6461142
| 35>     H       17.1443205   20.0836519   18.2031888
| 36>     H       20.0107886   17.8862931   19.9697254
| 37>     H       19.6025805   16.1235529   18.2739113
| 38>     H       19.4204349   14.0474524   19.3273753
| 39>     H       18.5108111   12.5897176   21.1207949
| 40>     H       16.7323711   13.4596434   22.6424923
| 41>     H       15.4873724   15.1821429   23.1644505
| 42>     H       16.7936852   17.2343165   20.5883334
| 43> *
| 44>
| 45>                          ****END OF INPUT****

CARTESIAN COORDINATES (ANGSTROEM)
---------------------------------
  C     14.255912   14.968933   14.991133
  C     15.583402   14.572684   15.658807
  O     16.237139   15.783634   16.070179
  C     17.393121   15.689304   16.787863
  O     18.013955   14.642338   16.877865
  C     17.708199   16.890675   17.633774
  C     17.154362   18.122922   17.481586
  C     16.131609   18.569972   16.456800
  N     17.579037   19.179441   18.294487
  C     18.640915   19.126814   19.158245
  S     19.161208   20.462655   19.983146
  N     19.250493   17.906671   19.302303
  C     18.748389   16.642438   18.732529
  C     18.182652   15.748862   19.833498
  C     18.657322   14.434437   19.998295
  C     18.139139   13.606570   21.008280
  C     17.136663   14.096208   21.862608
  C     16.658336   15.403402   21.699809
  O     15.686085   15.877194   22.519355
  C     17.175728   16.224857   20.693328
  H     13.616914   15.516150   15.695268
  H     13.712863   14.076528   14.656835
  H     14.437742   15.607630   14.117865
  H     15.385610   13.931136   16.528495
  H     16.214048   14.018017   14.950753
  H     16.450117   18.296078   15.443248
  H     15.972663   19.655078   16.461260
  H     15.161011   18.094599   16.646114
  H     17.144320   20.083652   18.203189
  H     20.010789   17.886293   19.969725
  H     19.602580   16.123553   18.273911
  H     19.420435   14.047452   19.327375
  H     18.510811   12.589718   21.120795
  H     16.732371   13.459643   22.642492
  H     15.487372   15.182143   23.164450
  H     16.793685   17.234316   20.588333

 Total Charge           Charge          ....    0
 Multiplicity           Mult            ....    1
 Number of Electrons    NEL             ....  154
 Basis Dimension        Dim             ....  828

ORBITAL ENERGIES
----------------

  NO   OCC          E(Eh)            E(eV)
   0   2.0000     -91.888054     -2500.4011
   1   2.0000     -20.603633      -560.6534
   2   2.0000     -20.591341      -560.3189
   3   2.0000     -20.545876      -559.0817
   4   2.0000     -15.628499      -425.2731
   5   2.0000     -15.606606      -424.6773
   6   2.0000     -11.394911      -310.0713
   7   2.0000     -11.382907      -309.7446
   8   2.0000     -11.336580      -308.4840
   9   2.0000     -11.307097      -307.6818
  10   2.0000     -11.305369      -307.6347
  11   2.0000     -11.299457      -307.4738
  12   2.0000     -11.260617      -306.4170
  13   2.0000     -11.259069      -306.3749
  14   2.0000     -11.253037      -306.2107
  15   2.0000     -11.247184      -306.0514
  16   2.0000     -11.236869      -305.7708
  17   2.0000     -11.235623      -305.7368
  18   2.0000     -11.233029      -305.6663
  19   2.0000     -11.229934      -305.5820
  20   2.0000      -8.893117      -241.9940
  21   2.0000      -6.574694      -178.9065
  22   2.0000      -6.572688      -178.8519
  23   2.0000      -6.572102      -178.8360
  24   2.0000      -1.455809       -39.6146
  25   2.0000      -1.411076       -38.3973
  26   2.0000      -1.357259       -36.9329
  27   2.0000      -1.339373       -36.4462
  28   2.0000      -1.236920       -33.6583
  29   2.0000      -1.151768       -31.3412
  30   2.0000      -1.119470       -30.4623
  31   2.0000      -1.044954       -28.4347
  32   2.0000      -1.037013       -28.2186
  33   2.0000      -1.009123       -27.4596
  34   2.0000      -0.997611       -27.1464
  35   2.0000      -0.983280       -26.7564
  36   2.0000      -0.920892       -25.0587
  37   2.0000      -0.888582       -24.1796
  38   2.0000      -0.846942       -23.0465
  39   2.0000      -0.834659       -22.7122
  40   2.0000      -0.827409       -22.5149
  41   2.0000      -0.817900       -22.2562
  42   2.0000      -0.762134       -20.7387
  43   2.0000      -0.735867       -20.0240
  44   2.0000      -0.724549       -19.7160
  45   2.0000      -0.690402       -18.7868
  46   2.0000      -0.683503       -18.5991
  47   2.0000      -0.682340       -18.5674
  48   2.0000      -0.676128       -18.3984
  49   2.0000      -0.659050       -17.9337
  50   2.0000      -0.649802       -17.6820
  51   2.0000      -0.643387       -17.5074
  52   2.0000      -0.634818       -17.2743
  53   2.0000      -0.600648       -16.3445
  54   2.0000      -0.600181       -16.3318
  55   2.0000      -0.596647       -16.2356
  56   2.0000      -0.594615       -16.1803
  57   2.0000      -0.580447       -15.7948
  58   2.0000      -0.572783       -15.5862
  59   2.0000      -0.564508       -15.3611
  60   2.0000      -0.562210       -15.2985
  61   2.0000      -0.553259       -15.0549
  62   2.0000      -0.540873       -14.7179
  63   2.0000      -0.519493       -14.1361
  64   2.0000      -0.516664       -14.0591
  65   2.0000      -0.511207       -13.9106
  66   2.0000      -0.505924       -13.7669
  67   2.0000      -0.495418       -13.4810
  68   2.0000      -0.480943       -13.0871
  69   2.0000      -0.463224       -12.6050
  70   2.0000      -0.460983       -12.5440
  71   2.0000      -0.455121       -12.3845
  72   2.0000      -0.354226        -9.6390
  73   2.0000      -0.343656        -9.3513
  74   2.0000      -0.327158        -8.9024
  75   2.0000      -0.315494        -8.5850
  76   2.0000      -0.313414        -8.5284
  77   0.0000       0.075924         2.0660
  78   0.0000       0.113408         3.0860
  79   0.0000       0.120329         3.2743
  80   0.0000       0.135928         3.6988
  81   0.0000       0.138572         3.7707

MULLIKEN ATOMIC CHARGES
-----------------------
   0 C :   -0.275059
   1 C :    0.048670
   2 O :   -0.335538
   3 C :    0.429567
   4 O :   -0.425932
   5 C :   -0.167911
   6 C :    0.143883
   7 C :   -0.288635
   8 N :   -0.122011
   9 C :    0.201406
  10 S :   -0.439146
  11 N :   -0.196973
  12 C :    0.035456
  13 C :    0.057966
  14 C :   -0.159925
  15 C :   -0.134077
  16 C :   -0.279113
  17 C :    0.311377
  18 O :   -0.359264
  19 C :   -0.273062
  20 H :    0.094383
  21 H :    0.101541
  22 H :    0.095876
  23 H :    0.091408
  24 H :    0.098126
  25 H :    0.127084
  26 H :    0.104288
  27 H :    0.127511
  28 H :    0.196718
  29 H :    0.193548
  30 H :    0.153436
  31 H :    0.153112
  32 H :    0.158968
  33 H :    0.127910
  34 H :    0.240023
  35 H :    0.164389
Sum of atomic charges:   -0.0000000

LOEWDIN ATOMIC CHARGES
----------------------
   0 C :    0.107241
   1 C :   -0.018214
   2 O :    0.306334
   3 C :   -0.414808
   4 O :    0.104505
   5 C :   -0.091404
   6 C :   -0.065786
   7 C :    0.125037
   8 N :    0.404834
   9 C :   -0.458910
  10 S :   -0.035895
  11 N :    0.397878
  12 C :   -0.046450
  13 C :   -0.038792
  14 C :    0.022393
  15 C :    0.040915
  16 C :   -0.002420
  17 C :   -0.192720
  18 O :    0.392890
  19 C :    0.028261
  20 H :   -0.028365
  21 H :   -0.022685
  22 H :   -0.027527
  23 H :   -0.027254
  24 H :   -0.028286
  25 H :   -0.008656
  26 H :   -0.020975
  27 H :   -0.010168
  28 H :   -0.059195
  29 H :   -0.063656
  30 H :   -0.004938
  31 H :   -0.025282
  32 H :   -0.021249
  33 H :   -0.036465
  34 H :   -0.154961
  35 H :   -0.025226

  Mayer bond orders larger than 0.100000
B(  0-C ,  1-C ) :   0.9699 B(  0-C , 20-H ) :   0.9779 B(  0-C , 21-H ) :   0.9788
B(  0-C , 22-H ) :   0.9773 B(  1-C ,  2-O ) :   0.9059 B(  1-C , 23-H ) :   0.9748
B(  1-C , 24-H ) :   0.9795 B(  2-O ,  3-C ) :   1.1662 B(  3-C ,  4-O ) :   1.9865
B(  3-C ,  5-C ) :   1.0539 B(  5-C ,  6-C ) :   1.6455 B(  5-C , 12-C ) :   0.9668
B(  6-C ,  7-C ) :   0.9542 B(  6-C ,  8-N ) :   1.1465 B(  7-C , 25-H ) :   0.9657
B(  7-C , 26-H ) :   0.9923 B(  7-C , 27-H ) :   0.9631 B(  8-N ,  9-C ) :   1.1782
B(  8-N , 28-H ) :   0.9488 B(  9-C , 10-S ) :   1.6109 B(  9-C , 11-N ) :   1.3045
B( 11-N , 12-C ) :   0.9921 B( 11-N , 29-H ) :   0.9520 B( 12-C , 13-C ) :   0.9478
B( 12-C , 30-H ) :   1.0000 B( 13-C , 14-C ) :   1.3758 B( 13-C , 19-C ) :   1.3692
B( 14-C , 15-C ) :   1.3947 B( 14-C , 31-H ) :   0.9649 B( 15-C , 16-C ) :   1.3624
B( 15-C , 32-H ) :   0.9715 B( 16-C , 17-C ) :   1.3315 B( 16-C , 33-H ) :   0.9861
B( 17-C , 18-O ) :   1.1079 B( 17-C , 19-C ) :   1.3793 B( 18-O , 34-H ) :   0.9806
B( 19-C , 35-H ) :   0.9586

MP2 TOTAL ENERGY:    -1274.348361546 Eh
FINAL SINGLE POINT ENERGY     -1274.348361546138

DIPOLE MOMENT
-------------
                                X             Y             Z
Electronic contribution:     11.99151       8.66258      11.07524
Nuclear contribution   :    -13.50495      -9.98932     -12.01690
                        -----------------------------------------
Total Dipole Moment    :     -1.51345      -1.32674      -0.94166
                        -----------------------------------------
Magnitude (a.u.)       :      2.22204
Magnitude (Debye)      :      5.64799

Rotational constants in cm-1:     0.010320     0.008859     0.005862
Rotational constants in MHz :   309.376822   265.581252   175.752444

                             ****ORCA TERMINATED NORMALLY****
TOTAL RUN TIME: 0 days 1 hours 55 minutes 51 seconds 554 msec
