                         Program Version 5.0.0 -  RELEASE  -
|  1> ! ri-mp2 cc-pvtz cc-pvtz/c TightSCF NoKeepInts
|  2>
|  3> %scf
|  4>   MaxCore 4096
|  5> end
|  6> *xyz  0  1
|  7>     C       15.1883825   14.3833796   17.2707609
|  8>     C       15.3911861   15.6462109   16.4119060
|  9>     O       16.6670035   15.5535955   15.7434316
| 10>     C       17.8392498   15.6796979   16.4392533
| 11>     O       18.6247755   14.7513672   16.4993889
| 12>     C       17.9460573   16.8721482   17.3429700
| 13>     C       17.4922460   18.1076298   17.0138453
| 14>     C       16.8534725   18.5393233   15.7092882
| 15>     N       17.6878167   19.1774963   17.8912778
| 16>     C       18.4455463   19.1246762   19.0315153
| 17>     S       18.7043461   20.4642180   19.9657371
| 18>     N       18.9783767   17.9028631   19.3583131
| 19>     C       18.6877309   16.6351214   18.6610574
| 20>     C       17.9011705   15.6919428   19.5646133
| 21>     C       18.3283178   14.3642164   19.7490022
| 22>     C       17.5981960   13.4843796   20.5654262
| 23>     C       16.4289269   13.9345318   21.2018533
| 24>     C       15.9978154   15.2550793   21.0171994
| 25>     O       14.8621063   15.6893273   21.6189295
| 26>     C       16.7266354   16.1290855   20.2045067
| 27>     H       15.9654172   14.2904394   18.0370967
| 28>     H       15.2219532   13.4834262   16.6439966
| 29>     H       14.2157482   14.4129656   17.7764283
| 30>     H       14.5917226   15.6996227   15.6616811
| 31>     H       15.3213670   16.5377144   17.0464708
| 32>     H       17.1841410   17.9141796   14.8703703
| 33>     H       17.1249090   19.5702363   15.4489979
| 34>     H       15.7599323   18.4865116   15.7627820
| 35>     H       17.3162269   20.0861663   17.6628921
| 36>     H       19.5140268   17.8873255   20.2170341
| 37>     H       19.6496247   16.1581674   18.4216263
| 38>     H       19.2212742   14.0075758   19.2402894
| 39>     H       17.9361394   12.4575564   20.6948804
| 40>     H       15.8603237   13.2565367   21.8297622
| 41>     H       14.5389853   14.9697560   22.1822640
| 42>     H       16.3758504   17.1475300   20.0771523
| 43> *
| 44>
| 45>                          ****END OF INPUT****

CARTESIAN COORDINATES (ANGSTROEM)
---------------------------------
  C     15.188382   14.383380   17.270761
  C     15.391186   15.646211   16.411906
  O     16.667003   15.553595   15.743432
  C     17.839250   15.679698   16.439253
  O     18.624775   14.751367   16.499389
  C     17.946057   16.872148   17.342970
  C     17.492246   18.107630   17.013845
  C     16.853472   18.539323   15.709288
  N     17.687817   19.177496   17.891278
  C     18.445546   19.124676   19.031515
  S     18.704346   20.464218   19.965737
  N     18.978377   17.902863   19.358313
  C     18.687731   16.635121   18.661057
  C     17.901170   15.691943   19.564613
  C     18.328318   14.364216   19.749002
  C     17.598196   13.484380   20.565426
  C     16.428927   13.934532   21.201853
  C     15.997815   15.255079   21.017199
  O     14.862106   15.689327   21.618930
  C     16.726635   16.129085   20.204507
  H     15.965417   14.290439   18.037097
  H     15.221953   13.483426   16.643997
  H     14.215748   14.412966   17.776428
  H     14.591723   15.699623   15.661681
  H     15.321367   16.537714   17.046471
  H     17.184141   17.914180   14.870370
  H     17.124909   19.570236   15.448998
  H     15.759932   18.486512   15.762782
  H     17.316227   20.086166   17.662892
  H     19.514027   17.887325   20.217034
  H     19.649625   16.158167   18.421626
  H     19.221274   14.007576   19.240289
  H     17.936139   12.457556   20.694880
  H     15.860324   13.256537   21.829762
  H     14.538985   14.969756   22.182264
  H     16.375850   17.147530   20.077152

 Total Charge           Charge          ....    0
 Multiplicity           Mult            ....    1
 Number of Electrons    NEL             ....  154
 Basis Dimension        Dim             ....  828

ORBITAL ENERGIES
----------------

  NO   OCC          E(Eh)            E(eV)
   0   2.0000     -91.891129     -2500.4847
   1   2.0000     -20.599081      -560.5295
   2   2.0000     -20.591626      -560.3266
   3   2.0000     -20.552363      -559.2582
   4   2.0000     -15.630617      -425.3307
   5   2.0000     -15.610854      -424.7929
   6   2.0000     -11.396295      -310.1090
   7   2.0000     -11.386953      -309.8547
   8   2.0000     -11.336914      -308.4931
   9   2.0000     -11.315655      -307.9146
  10   2.0000     -11.311269      -307.7953
  11   2.0000     -11.305618      -307.6415
  12   2.0000     -11.265708      -306.5555
  13   2.0000     -11.264172      -306.5137
  14   2.0000     -11.261206      -306.4330
  15   2.0000     -11.255773      -306.2852
  16   2.0000     -11.245266      -305.9992
  17   2.0000     -11.241164      -305.8876
  18   2.0000     -11.238163      -305.8060
  19   2.0000     -11.223743      -305.4136
  20   2.0000      -8.896207      -242.0781
  21   2.0000      -6.577785      -178.9906
  22   2.0000      -6.575771      -178.9358
  23   2.0000      -6.575187      -178.9199
  24   2.0000      -1.447682       -39.3934
  25   2.0000      -1.418836       -38.6085
  26   2.0000      -1.358713       -36.9725
  27   2.0000      -1.342556       -36.5328
  28   2.0000      -1.240880       -33.7661
  29   2.0000      -1.160119       -31.5684
  30   2.0000      -1.124474       -30.5985
  31   2.0000      -1.047467       -28.5030
  32   2.0000      -1.033145       -28.1133
  33   2.0000      -1.017525       -27.6883
  34   2.0000      -1.004479       -27.3333
  35   2.0000      -0.988980       -26.9115
  36   2.0000      -0.927250       -25.2318
  37   2.0000      -0.888465       -24.1764
  38   2.0000      -0.854507       -23.2523
  39   2.0000      -0.842064       -22.9137
  40   2.0000      -0.835876       -22.7453
  41   2.0000      -0.831743       -22.6329
  42   2.0000      -0.747328       -20.3358
  43   2.0000      -0.737136       -20.0585
  44   2.0000      -0.730454       -19.8767
  45   2.0000      -0.697184       -18.9713
  46   2.0000      -0.687604       -18.7107
  47   2.0000      -0.680553       -18.5188
  48   2.0000      -0.677159       -18.4264
  49   2.0000      -0.662456       -18.0263
  50   2.0000      -0.655177       -17.8283
  51   2.0000      -0.649025       -17.6609
  52   2.0000      -0.639829       -17.4106
  53   2.0000      -0.616409       -16.7733
  54   2.0000      -0.608347       -16.5540
  55   2.0000      -0.605820       -16.4852
  56   2.0000      -0.601354       -16.3637
  57   2.0000      -0.582922       -15.8621
  58   2.0000      -0.576848       -15.6968
  59   2.0000      -0.568244       -15.4627
  60   2.0000      -0.558262       -15.1911
  61   2.0000      -0.551987       -15.0203
  62   2.0000      -0.543258       -14.7828
  63   2.0000      -0.529837       -14.4176
  64   2.0000      -0.521156       -14.1814
  65   2.0000      -0.513319       -13.9681
  66   2.0000      -0.501953       -13.6588
  67   2.0000      -0.494166       -13.4469
  68   2.0000      -0.486350       -13.2343
  69   2.0000      -0.469338       -12.7713
  70   2.0000      -0.459386       -12.5005
  71   2.0000      -0.447872       -12.1872
  72   2.0000      -0.358430        -9.7534
  73   2.0000      -0.351572        -9.5668
  74   2.0000      -0.330514        -8.9937
  75   2.0000      -0.323444        -8.8014
  76   2.0000      -0.319236        -8.6868
  77   0.0000       0.073273         1.9939
  78   0.0000       0.103440         2.8148
  79   0.0000       0.116853         3.1797
  80   0.0000       0.128819         3.5053
  81   0.0000       0.136613         3.7174

MULLIKEN ATOMIC CHARGES
-----------------------
   0 C :   -0.277196
   1 C :    0.012826
   2 O :   -0.351465
   3 C :    0.438043
   4 O :   -0.383971
   5 C :   -0.226213
   6 C :    0.151242
   7 C :   -0.309254
   8 N :   -0.128835
   9 C :    0.199466
  10 S :   -0.437808
  11 N :   -0.202135
  12 C :    0.060192
  13 C :    0.008322
  14 C :   -0.166683
  15 C :   -0.132443
  16 C :   -0.274290
  17 C :    0.308662
  18 O :   -0.360112
  19 C :   -0.256736
  20 H :    0.107057
  21 H :    0.111603
  22 H :    0.093994
  23 H :    0.121209
  24 H :    0.089192
  25 H :    0.140773
  26 H :    0.121235
  27 H :    0.120810
  28 H :    0.197628
  29 H :    0.195447
  30 H :    0.159698
  31 H :    0.162277
  32 H :    0.162260
  33 H :    0.132084
  34 H :    0.241632
  35 H :    0.171490
Sum of atomic charges:    0.0000000

LOEWDIN ATOMIC CHARGES
----------------------
   0 C :    0.110569
   1 C :   -0.023845
   2 O :    0.293118
   3 C :   -0.418160
   4 O :    0.127366
   5 C :   -0.090844
   6 C :   -0.082592
   7 C :    0.127715
   8 N :    0.403681
   9 C :   -0.458526
  10 S :   -0.034719
  11 N :    0.397587
  12 C :   -0.045854
  13 C :   -0.045188
  14 C :    0.021225
  15 C :    0.043808
  16 C :   -0.000268
  17 C :   -0.192782
  18 O :    0.394611
  19 C :    0.027723
  20 H :   -0.025748
  21 H :   -0.023304
  22 H :   -0.026348
  23 H :   -0.023033
  24 H :   -0.040775
  25 H :   -0.006352
  26 H :   -0.014512
  27 H :   -0.015733
  28 H :   -0.057571
  29 H :   -0.063265
  30 H :   -0.003372
  31 H :   -0.022797
  32 H :   -0.019059
  33 H :   -0.034780
  34 H :   -0.153125
  35 H :   -0.024852

  Mayer bond orders larger than 0.100000
B(  0-C ,  1-C ) :   0.9797 B(  0-C , 20-H ) :   0.9674 B(  0-C , 21-H ) :   0.9793
B(  0-C , 22-H ) :   0.9756 B(  1-C ,  2-O ) :   0.8956 B(  1-C , 23-H ) :   0.9799
B(  1-C , 24-H ) :   0.9660 B(  2-O ,  3-C ) :   1.1364 B(  3-C ,  4-O ) :   2.0782
B(  3-C ,  5-C ) :   0.9583 B(  5-C ,  6-C ) :   1.6707 B(  5-C , 12-C ) :   0.9613
B(  6-C ,  7-C ) :   0.9446 B(  6-C ,  8-N ) :   1.1330 B(  7-C , 25-H ) :   0.9705
B(  7-C , 26-H ) :   0.9828 B(  7-C , 27-H ) :   0.9642 B(  8-N ,  9-C ) :   1.1849
B(  8-N , 28-H ) :   0.9502 B(  9-C , 10-S ) :   1.6137 B(  9-C , 11-N ) :   1.2969
B( 11-N , 12-C ) :   0.9974 B( 11-N , 29-H ) :   0.9513 B( 12-C , 13-C ) :   0.9419
B( 12-C , 30-H ) :   0.9974 B( 13-C , 14-C ) :   1.3865 B( 13-C , 19-C ) :   1.3626
B( 14-C , 15-C ) :   1.3920 B( 14-C , 31-H ) :   0.9623 B( 15-C , 16-C ) :   1.3633
B( 15-C , 32-H ) :   0.9712 B( 16-C , 17-C ) :   1.3311 B( 16-C , 33-H ) :   0.9845
B( 17-C , 18-O ) :   1.1092 B( 17-C , 19-C ) :   1.3714 B( 18-O , 34-H ) :   0.9792
B( 19-C , 35-H ) :   0.9574

MP2 TOTAL ENERGY:    -1274.336168414 Eh
FINAL SINGLE POINT ENERGY     -1274.336168414154

DIPOLE MOMENT
-------------
                                X             Y             Z
Electronic contribution:      9.82650       8.20717       5.61058
Nuclear contribution   :    -11.32480      -9.08372      -5.96810
                        -----------------------------------------
Total Dipole Moment    :     -1.49830      -0.87655      -0.35752
                        -----------------------------------------
Magnitude (a.u.)       :      1.77231
Magnitude (Debye)      :      4.50484

Rotational constants in cm-1:     0.012118     0.009410     0.006814
Rotational constants in MHz :   363.298515   282.105920   204.283049

                             ****ORCA TERMINATED NORMALLY****
TOTAL RUN TIME: 0 days 1 hours 40 minutes 1 seconds 451 msec
