                         Program Version 5.0.0 -  RELEASE  -
|  1> ! ri-mp2 cc-pvtz cc-pvtz/c TightSCF NoKeepInts
|  2>
|  3> %scf
|  4>   MaxCore 4096
|  5> end
|  6> *xyz  0  1
|  7>     C       15.0603241   15.0230562   16.7980896
|  8>     C       16.3638700   14.1908918   16.8154033
|  9>     O       17.5051560   14.8948159   16.2615174
| 10>     C       17.5048794   16.2446305   16.0465660
| 11>     O       17.0997952   16.6843059   14.9857720
| 12>     C       17.7417435   17.0874115   17.2721751
| 13>     C       17.3725137   18.3930919   17.3309561
| 14>     C       16.5676805   19.1685825   16.3103257
| 15>     N       17.7857666   19.1876127   18.4051302
| 16>     C       18.7552433   18.8268328   19.3036132
| 17>     S       19.3564002   19.8883290   20.4204288
| 18>     N       19.2172554   17.5378935   19.2131387
| 19>     C       18.5725281   16.4785250   18.4162358
| 20>     C       17.7778281   15.5858568   19.3618548
| 21>     C       18.2958812   14.3359121   19.7517253
| 22>     C       17.5778494   13.5068631   20.6299940
| 23>     C       16.3363129   13.9342725   21.1306432
| 24>     C       15.8268301   15.1861611   20.7604421
| 25>     O       14.6305648   15.6043898   21.2442826
| 26>     C       16.5436045   16.0093950   19.8869491
| 27>     H       15.1364121   15.9137096   17.4319132
| 28>     H       14.2249046   14.4204286   17.1744809
| 29>     H       14.8113952   15.3383126   15.7765369
| 30>     H       16.5702498   13.8720968   17.8414692
| 31>     H       16.2044217   13.2761394   16.2301221
| 32>     H       15.6608307   18.6175916   16.0305863
| 33>     H       17.1531612   19.3193773   15.3940879
| 34>     H       16.2531238   20.1541134   16.6730373
| 35>     H       17.4722566   20.1432272   18.4671739
| 36>     H       19.9186117   17.2935864   19.9003535
| 37>     H       19.3671472   15.8719138   17.9588888
| 38>     H       19.2564645   14.0024588   19.3674070
| 39>     H       17.9848295   12.5400536   20.9222803
| 40>     H       15.7783979   13.2975035   21.8096445
| 41>     H       14.3259204   14.9423557   21.8834452
| 42>     H       16.1368461   16.9803021   19.6273301
| 43> *
| 44>
| 45>                          ****END OF INPUT****

CARTESIAN COORDINATES (ANGSTROEM)
---------------------------------
  C     15.060324   15.023056   16.798090
  C     16.363870   14.190892   16.815403
  O     17.505156   14.894816   16.261517
  C     17.504879   16.244630   16.046566
  O     17.099795   16.684306   14.985772
  C     17.741743   17.087412   17.272175
  C     17.372514   18.393092   17.330956
  C     16.567681   19.168582   16.310326
  N     17.785767   19.187613   18.405130
  C     18.755243   18.826833   19.303613
  S     19.356400   19.888329   20.420429
  N     19.217255   17.537893   19.213139
  C     18.572528   16.478525   18.416236
  C     17.777828   15.585857   19.361855
  C     18.295881   14.335912   19.751725
  C     17.577849   13.506863   20.629994
  C     16.336313   13.934273   21.130643
  C     15.826830   15.186161   20.760442
  O     14.630565   15.604390   21.244283
  C     16.543605   16.009395   19.886949
  H     15.136412   15.913710   17.431913
  H     14.224905   14.420429   17.174481
  H     14.811395   15.338313   15.776537
  H     16.570250   13.872097   17.841469
  H     16.204422   13.276139   16.230122
  H     15.660831   18.617592   16.030586
  H     17.153161   19.319377   15.394088
  H     16.253124   20.154113   16.673037
  H     17.472257   20.143227   18.467174
  H     19.918612   17.293586   19.900354
  H     19.367147   15.871914   17.958889
  H     19.256464   14.002459   19.367407
  H     17.984830   12.540054   20.922280
  H     15.778398   13.297503   21.809645
  H     14.325920   14.942356   21.883445
  H     16.136846   16.980302   19.627330

 Total Charge           Charge          ....    0
 Multiplicity           Mult            ....    1
 Number of Electrons    NEL             ....  154
 Basis Dimension        Dim             ....  828

ORBITAL ENERGIES
----------------

  NO   OCC          E(Eh)            E(eV)
   0   2.0000     -91.891403     -2500.4922
   1   2.0000     -20.603884      -560.6602
   2   2.0000     -20.578428      -559.9675
   3   2.0000     -20.547917      -559.1372
   4   2.0000     -15.631617      -425.3579
   5   2.0000     -15.610351      -424.7792
   6   2.0000     -11.392949      -310.0179
   7   2.0000     -11.385911      -309.8264
   8   2.0000     -11.337283      -308.5031
   9   2.0000     -11.321568      -308.0755
  10   2.0000     -11.313811      -307.8644
  11   2.0000     -11.297603      -307.4234
  12   2.0000     -11.266123      -306.5668
  13   2.0000     -11.262715      -306.4741
  14   2.0000     -11.259483      -306.3861
  15   2.0000     -11.254165      -306.2414
  16   2.0000     -11.250480      -306.1411
  17   2.0000     -11.244963      -305.9910
  18   2.0000     -11.244896      -305.9892
  19   2.0000     -11.227269      -305.5095
  20   2.0000      -8.896415      -242.0838
  21   2.0000      -6.577977      -178.9959
  22   2.0000      -6.575987      -178.9417
  23   2.0000      -6.575389      -178.9254
  24   2.0000      -1.441359       -39.2214
  25   2.0000      -1.423509       -38.7357
  26   2.0000      -1.349367       -36.7181
  27   2.0000      -1.342986       -36.5445
  28   2.0000      -1.241562       -33.7846
  29   2.0000      -1.164117       -31.6772
  30   2.0000      -1.122030       -30.5320
  31   2.0000      -1.047837       -28.5131
  32   2.0000      -1.030113       -28.0308
  33   2.0000      -1.022563       -27.8254
  34   2.0000      -1.000718       -27.2309
  35   2.0000      -0.987300       -26.8658
  36   2.0000      -0.926808       -25.2197
  37   2.0000      -0.895161       -24.3586
  38   2.0000      -0.850109       -23.1326
  39   2.0000      -0.845783       -23.0149
  40   2.0000      -0.840483       -22.8707
  41   2.0000      -0.823498       -22.4085
  42   2.0000      -0.746329       -20.3086
  43   2.0000      -0.736832       -20.0502
  44   2.0000      -0.716842       -19.5063
  45   2.0000      -0.702580       -19.1182
  46   2.0000      -0.692723       -18.8500
  47   2.0000      -0.674256       -18.3474
  48   2.0000      -0.671264       -18.2660
  49   2.0000      -0.660181       -17.9644
  50   2.0000      -0.655991       -17.8504
  51   2.0000      -0.648536       -17.6476
  52   2.0000      -0.637425       -17.3452
  53   2.0000      -0.627657       -17.0794
  54   2.0000      -0.614299       -16.7159
  55   2.0000      -0.605566       -16.4783
  56   2.0000      -0.602343       -16.3906
  57   2.0000      -0.583533       -15.8787
  58   2.0000      -0.573700       -15.6112
  59   2.0000      -0.566941       -15.4272
  60   2.0000      -0.544070       -14.8049
  61   2.0000      -0.542655       -14.7664
  62   2.0000      -0.537587       -14.6285
  63   2.0000      -0.532611       -14.4931
  64   2.0000      -0.530937       -14.4475
  65   2.0000      -0.516821       -14.0634
  66   2.0000      -0.507181       -13.8011
  67   2.0000      -0.493985       -13.4420
  68   2.0000      -0.482069       -13.1178
  69   2.0000      -0.467424       -12.7192
  70   2.0000      -0.451122       -12.2757
  71   2.0000      -0.442350       -12.0370
  72   2.0000      -0.358735        -9.7617
  73   2.0000      -0.356407        -9.6983
  74   2.0000      -0.332260        -9.0412
  75   2.0000      -0.328034        -8.9263
  76   2.0000      -0.318296        -8.6613
  77   0.0000       0.068557         1.8655
  78   0.0000       0.101974         2.7749
  79   0.0000       0.120523         3.2796
  80   0.0000       0.126162         3.4331
  81   0.0000       0.130925         3.5627

MULLIKEN ATOMIC CHARGES
-----------------------
   0 C :   -0.333440
   1 C :    0.037706
   2 O :   -0.391913
   3 C :    0.513520
   4 O :   -0.398841
   5 C :   -0.296470
   6 C :    0.159526
   7 C :   -0.273013
   8 N :   -0.124406
   9 C :    0.213261
  10 S :   -0.435701
  11 N :   -0.199776
  12 C :    0.049928
  13 C :    0.061991
  14 C :   -0.182815
  15 C :   -0.130928
  16 C :   -0.275153
  17 C :    0.321168
  18 O :   -0.357759
  19 C :   -0.292478
  20 H :    0.097679
  21 H :    0.113306
  22 H :    0.126400
  23 H :    0.108857
  24 H :    0.120729
  25 H :    0.126455
  26 H :    0.139897
  27 H :    0.094324
  28 H :    0.198471
  29 H :    0.191760
  30 H :    0.150089
  31 H :    0.149284
  32 H :    0.163582
  33 H :    0.133893
  34 H :    0.242717
  35 H :    0.178151
Sum of atomic charges:    0.0000000

LOEWDIN ATOMIC CHARGES
----------------------
   0 C :    0.105060
   1 C :   -0.008139
   2 O :    0.275485
   3 C :   -0.423626
   4 O :    0.125034
   5 C :   -0.099154
   6 C :   -0.061757
   7 C :    0.130484
   8 N :    0.407337
   9 C :   -0.455585
  10 S :   -0.031756
  11 N :    0.396325
  12 C :   -0.053097
  13 C :   -0.038214
  14 C :    0.012204
  15 C :    0.042265
  16 C :   -0.000793
  17 C :   -0.189641
  18 O :    0.396738
  19 C :    0.033492
  20 H :   -0.035041
  21 H :   -0.021973
  22 H :   -0.024522
  23 H :   -0.034525
  24 H :   -0.024980
  25 H :   -0.006910
  26 H :   -0.002367
  27 H :   -0.023011
  28 H :   -0.057399
  29 H :   -0.065891
  30 H :   -0.005488
  31 H :   -0.029238
  32 H :   -0.019252
  33 H :   -0.033919
  34 H :   -0.151993
  35 H :   -0.026152

  Mayer bond orders larger than 0.100000
B(  0-C ,  1-C ) :   0.9660 B(  0-C , 20-H ) :   0.9704 B(  0-C , 21-H ) :   0.9754
B(  0-C , 22-H ) :   0.9711 B(  1-C ,  2-O ) :   0.8894 B(  1-C , 23-H ) :   0.9682
B(  1-C , 24-H ) :   0.9838 B(  2-O ,  3-C ) :   1.1058 B(  3-C ,  4-O ) :   2.0374
B(  3-C ,  5-C ) :   1.0336 B(  5-C ,  6-C ) :   1.6529 B(  5-C , 12-C ) :   0.9744
B(  6-C ,  7-C ) :   0.9699 B(  6-C ,  8-N ) :   1.1545 B(  7-C , 25-H ) :   0.9659
B(  7-C , 26-H ) :   0.9559 B(  7-C , 27-H ) :   0.9873 B(  8-N ,  9-C ) :   1.1792
B(  8-N , 28-H ) :   0.9487 B(  9-C , 10-S ) :   1.6136 B(  9-C , 11-N ) :   1.3018
B( 11-N , 12-C ) :   0.9646 B( 11-N , 29-H ) :   0.9544 B( 12-C , 13-C ) :   0.9508
B( 12-C , 30-H ) :   1.0016 B( 13-C , 14-C ) :   1.3440 B( 13-C , 19-C ) :   1.3602
B( 14-C , 15-C ) :   1.3954 B( 14-C , 31-H ) :   0.9751 B( 15-C , 16-C ) :   1.3647
B( 15-C , 32-H ) :   0.9699 B( 16-C , 17-C ) :   1.3284 B( 16-C , 33-H ) :   0.9835
B( 17-C , 18-O ) :   1.1141 B( 17-C , 19-C ) :   1.3699 B( 18-O , 34-H ) :   0.9788
B( 19-C , 35-H ) :   0.9525

MP2 TOTAL ENERGY:    -1274.327225304 Eh
FINAL SINGLE POINT ENERGY     -1274.327225304380

DIPOLE MOMENT
-------------
                                X             Y             Z
Electronic contribution:     10.03468       7.67494       5.28474
Nuclear contribution   :    -11.18614      -9.24044      -4.84886
                        -----------------------------------------
Total Dipole Moment    :     -1.15146      -1.56550       0.43588
                        -----------------------------------------
Magnitude (a.u.)       :      1.99164
Magnitude (Debye)      :      5.06234

Rotational constants in cm-1:     0.011853     0.009721     0.006772
Rotational constants in MHz :   355.357987   291.441743   203.023173

                             ****ORCA TERMINATED NORMALLY****
TOTAL RUN TIME: 0 days 2 hours 6 minutes 25 seconds 954 msec
