                         Program Version 5.0.0 -  RELEASE  -
|  1> ! ri-mp2 cc-pvtz cc-pvtz/c TightSCF NoKeepInts
|  2>
|  3> %scf
|  4>   MaxCore 4096
|  5> end
|  6> *xyz  0  1
|  7>     C       14.3708729   15.8857037   16.3945955
|  8>     C       15.5535430   15.1890337   17.0912477
|  9>     O       16.6921565   15.1467997   16.2021762
| 10>     C       17.9044145   15.7349307   16.4695177
| 11>     O       18.9317000   15.1252051   16.2370751
| 12>     C       17.8965875   16.8806816   17.4255719
| 13>     C       17.3124856   18.0638640   17.1300569
| 14>     C       16.6596869   18.4543335   15.8221091
| 15>     N       17.4044898   19.1278353   18.0297966
| 16>     C       18.1450905   19.1118810   19.1832786
| 17>     S       18.2464626   20.4358599   20.1684787
| 18>     N       18.8006586   17.9419716   19.4806058
| 19>     C       18.6923714   16.6828979   18.7163461
| 20>     C       18.0950147   15.5603927   19.5609642
| 21>     C       18.5903890   14.2493024   19.4373913
| 22>     C       18.0343134   13.1987760   20.1858143
| 23>     C       16.9708829   13.4591579   21.0663410
| 24>     C       16.4707394   14.7620751   21.1901373
| 25>     O       15.4349012   15.0149626   22.0286984
| 26>     C       17.0250119   15.8061258   20.4425994
| 27>     H       14.4800325   16.9730532   16.4052513
| 28>     H       13.4350636   15.6459881   16.9143235
| 29>     H       14.2765946   15.5477186   15.3547954
| 30>     H       15.7709143   15.6847646   18.0437485
| 31>     H       15.2641037   14.1558604   17.3240858
| 32>     H       16.4766646   17.5940161   15.1675475
| 33>     H       17.3067316   19.1442062   15.2654108
| 34>     H       15.6993584   18.9576647   15.9872653
| 35>     H       16.9532594   20.0038272   17.8173201
| 36>     H       19.3276735   17.9559932   20.3448431
| 37>     H       19.7114040   16.3816334   18.4309886
| 38>     H       19.4033167   14.0410258   18.7443592
| 39>     H       18.4256981   12.1885317   20.0768449
| 40>     H       16.5373950   12.6496957   21.6445760
| 41>     H       15.2317984   14.1912841   22.4977023
| 42>     H       16.6152196   16.8049471   20.5521356
| 43> *
| 44>
| 45>                          ****END OF INPUT****

CARTESIAN COORDINATES (ANGSTROEM)
---------------------------------
  C     14.370873   15.885704   16.394596
  C     15.553543   15.189034   17.091248
  O     16.692156   15.146800   16.202176
  C     17.904415   15.734931   16.469518
  O     18.931700   15.125205   16.237075
  C     17.896587   16.880682   17.425572
  C     17.312486   18.063864   17.130057
  C     16.659687   18.454334   15.822109
  N     17.404490   19.127835   18.029797
  C     18.145090   19.111881   19.183279
  S     18.246463   20.435860   20.168479
  N     18.800659   17.941972   19.480606
  C     18.692371   16.682898   18.716346
  C     18.095015   15.560393   19.560964
  C     18.590389   14.249302   19.437391
  C     18.034313   13.198776   20.185814
  C     16.970883   13.459158   21.066341
  C     16.470739   14.762075   21.190137
  O     15.434901   15.014963   22.028698
  C     17.025012   15.806126   20.442599
  H     14.480032   16.973053   16.405251
  H     13.435064   15.645988   16.914323
  H     14.276595   15.547719   15.354795
  H     15.770914   15.684765   18.043748
  H     15.264104   14.155860   17.324086
  H     16.476665   17.594016   15.167547
  H     17.306732   19.144206   15.265411
  H     15.699358   18.957665   15.987265
  H     16.953259   20.003827   17.817320
  H     19.327673   17.955993   20.344843
  H     19.711404   16.381633   18.430989
  H     19.403317   14.041026   18.744359
  H     18.425698   12.188532   20.076845
  H     16.537395   12.649696   21.644576
  H     15.231798   14.191284   22.497702
  H     16.615220   16.804947   20.552136

 Total Charge           Charge          ....    0
 Multiplicity           Mult            ....    1
 Number of Electrons    NEL             ....  154
 Basis Dimension        Dim             ....  828

ORBITAL ENERGIES
----------------

  NO   OCC          E(Eh)            E(eV)
   0   2.0000     -91.890707     -2500.4733
   1   2.0000     -20.600879      -560.5784
   2   2.0000     -20.595856      -560.4417
   3   2.0000     -20.552009      -559.2486
   4   2.0000     -15.627407      -425.2434
   5   2.0000     -15.612330      -424.8331
   6   2.0000     -11.397939      -310.1537
   7   2.0000     -11.387449      -309.8682
   8   2.0000     -11.330221      -308.3110
   9   2.0000     -11.318112      -307.9815
  10   2.0000     -11.315962      -307.9230
  11   2.0000     -11.302042      -307.5442
  12   2.0000     -11.266781      -306.5847
  13   2.0000     -11.265154      -306.5404
  14   2.0000     -11.265085      -306.5386
  15   2.0000     -11.258198      -306.3511
  16   2.0000     -11.247192      -306.0516
  17   2.0000     -11.243210      -305.9433
  18   2.0000     -11.240103      -305.8587
  19   2.0000     -11.234755      -305.7132
  20   2.0000      -8.895814      -242.0674
  21   2.0000      -6.577401      -178.9802
  22   2.0000      -6.575376      -178.9251
  23   2.0000      -6.574799      -178.9094
  24   2.0000      -1.446465       -39.3603
  25   2.0000      -1.420692       -38.6590
  26   2.0000      -1.358299       -36.9612
  27   2.0000      -1.340923       -36.4884
  28   2.0000      -1.240743       -33.7623
  29   2.0000      -1.162409       -31.6307
  30   2.0000      -1.126274       -30.6475
  31   2.0000      -1.049606       -28.5612
  32   2.0000      -1.039468       -28.2854
  33   2.0000      -1.020116       -27.7588
  34   2.0000      -1.005295       -27.3555
  35   2.0000      -0.990407       -26.9503
  36   2.0000      -0.928470       -25.2650
  37   2.0000      -0.888175       -24.1685
  38   2.0000      -0.853644       -23.2288
  39   2.0000      -0.842662       -22.9300
  40   2.0000      -0.837879       -22.7999
  41   2.0000      -0.836468       -22.7615
  42   2.0000      -0.756664       -20.5899
  43   2.0000      -0.736621       -20.0445
  44   2.0000      -0.732881       -19.9427
  45   2.0000      -0.698596       -19.0098
  46   2.0000      -0.689389       -18.7592
  47   2.0000      -0.680629       -18.5209
  48   2.0000      -0.676848       -18.4180
  49   2.0000      -0.665104       -18.0984
  50   2.0000      -0.654255       -17.8032
  51   2.0000      -0.639615       -17.4048
  52   2.0000      -0.631386       -17.1809
  53   2.0000      -0.623414       -16.9640
  54   2.0000      -0.610702       -16.6180
  55   2.0000      -0.607958       -16.5434
  56   2.0000      -0.604423       -16.4472
  57   2.0000      -0.586137       -15.9496
  58   2.0000      -0.578518       -15.7423
  59   2.0000      -0.572969       -15.5913
  60   2.0000      -0.566895       -15.4260
  61   2.0000      -0.559434       -15.2230
  62   2.0000      -0.539743       -14.6872
  63   2.0000      -0.534797       -14.5526
  64   2.0000      -0.524154       -14.2629
  65   2.0000      -0.516354       -14.0507
  66   2.0000      -0.503376       -13.6975
  67   2.0000      -0.496945       -13.5226
  68   2.0000      -0.488336       -13.2883
  69   2.0000      -0.470597       -12.8056
  70   2.0000      -0.455594       -12.3973
  71   2.0000      -0.449113       -12.2210
  72   2.0000      -0.357801        -9.7363
  73   2.0000      -0.352551        -9.5934
  74   2.0000      -0.330336        -8.9889
  75   2.0000      -0.325889        -8.8679
  76   2.0000      -0.319760        -8.7011
  77   0.0000       0.084734         2.3057
  78   0.0000       0.103039         2.8038
  79   0.0000       0.116394         3.1672
  80   0.0000       0.127365         3.4658
  81   0.0000       0.128997         3.5102

MULLIKEN ATOMIC CHARGES
-----------------------
   0 C :   -0.294504
   1 C :    0.023306
   2 O :   -0.330682
   3 C :    0.408043
   4 O :   -0.377425
   5 C :   -0.207836
   6 C :    0.160290
   7 C :   -0.344143
   8 N :   -0.136387
   9 C :    0.204119
  10 S :   -0.439918
  11 N :   -0.222041
  12 C :    0.085696
  13 C :    0.009329
  14 C :   -0.201523
  15 C :   -0.133165
  16 C :   -0.273998
  17 C :    0.318620
  18 O :   -0.356009
  19 C :   -0.276653
  20 H :    0.087810
  21 H :    0.109354
  22 H :    0.112477
  23 H :    0.100478
  24 H :    0.124018
  25 H :    0.129395
  26 H :    0.153182
  27 H :    0.112970
  28 H :    0.196405
  29 H :    0.200850
  30 H :    0.164827
  31 H :    0.172403
  32 H :    0.164895
  33 H :    0.132998
  34 H :    0.241636
  35 H :    0.181185
Sum of atomic charges:    0.0000000

LOEWDIN ATOMIC CHARGES
----------------------
   0 C :    0.105254
   1 C :   -0.014131
   2 O :    0.296799
   3 C :   -0.415823
   4 O :    0.126941
   5 C :   -0.083033
   6 C :   -0.098764
   7 C :    0.123564
   8 N :    0.402371
   9 C :   -0.456062
  10 S :   -0.036976
  11 N :    0.397250
  12 C :   -0.043913
  13 C :   -0.044268
  14 C :    0.021551
  15 C :    0.045867
  16 C :   -0.000097
  17 C :   -0.193762
  18 O :    0.395340
  19 C :    0.025443
  20 H :   -0.035337
  21 H :   -0.022605
  22 H :   -0.023618
  23 H :   -0.037337
  24 H :   -0.022850
  25 H :   -0.009838
  26 H :   -0.008109
  27 H :   -0.018945
  28 H :   -0.057665
  29 H :   -0.063754
  30 H :   -0.002282
  31 H :   -0.021431
  32 H :   -0.017989
  33 H :   -0.034418
  34 H :   -0.152716
  35 H :   -0.024656

  Mayer bond orders larger than 0.100000
B(  0-C ,  1-C ) :   0.9707 B(  0-C , 20-H ) :   0.9777 B(  0-C , 21-H ) :   0.9791
B(  0-C , 22-H ) :   0.9750 B(  1-C ,  2-O ) :   0.8981 B(  1-C , 23-H ) :   0.9579
B(  1-C , 24-H ) :   0.9845 B(  2-O ,  3-C ) :   1.1750 B(  3-C ,  4-O ) :   2.0953
B(  3-C ,  5-C ) :   0.9198 B(  5-C ,  6-C ) :   1.6831 B(  5-C , 12-C ) :   0.9523
B(  6-C ,  7-C ) :   0.9483 B(  6-C ,  8-N ) :   1.1157 B(  7-C , 25-H ) :   0.9784
B(  7-C , 26-H ) :   0.9629 B(  7-C , 27-H ) :   0.9715 B(  8-N ,  9-C ) :   1.1970
B(  8-N , 28-H ) :   0.9517 B(  9-C , 10-S ) :   1.6113 B(  9-C , 11-N ) :   1.2867
B( 11-N , 12-C ) :   0.9936 B( 11-N , 29-H ) :   0.9480 B( 12-C , 13-C ) :   0.9467
B( 12-C , 30-H ) :   0.9978 B( 13-C , 14-C ) :   1.3901 B( 13-C , 19-C ) :   1.3377
B( 14-C , 15-C ) :   1.3990 B( 14-C , 31-H ) :   0.9594 B( 15-C , 16-C ) :   1.3623
B( 15-C , 32-H ) :   0.9696 B( 16-C , 17-C ) :   1.3298 B( 16-C , 33-H ) :   0.9842
B( 17-C , 18-O ) :   1.1115 B( 17-C , 19-C ) :   1.3665 B( 18-O , 34-H ) :   0.9791
B( 19-C , 35-H ) :   0.9576

MP2 TOTAL ENERGY:    -1274.329867431 Eh
FINAL SINGLE POINT ENERGY     -1274.329867431290

DIPOLE MOMENT
-------------
                                X             Y             Z
Electronic contribution:     10.86867       5.44389       7.55711
Nuclear contribution   :    -12.29405      -6.57985      -7.83168
                        -----------------------------------------
Total Dipole Moment    :     -1.42539      -1.13597      -0.27457
                        -----------------------------------------
Magnitude (a.u.)       :      1.84324
Magnitude (Debye)      :      4.68514

Rotational constants in cm-1:     0.011527     0.009292     0.006831
Rotational constants in MHz :   345.577507   278.573021   204.777261

                             ****ORCA TERMINATED NORMALLY****
TOTAL RUN TIME: 0 days 2 hours 16 minutes 55 seconds 392 msec
