                         Program Version 5.0.0 -  RELEASE  -
|  1> ! ri-mp2 cc-pvtz cc-pvtz/c TightSCF NoKeepInts
|  2>
|  3> %scf
|  4>   MaxCore 4096
|  5> end
|  6> *xyz  0  1
|  7>     C       14.8782927   15.8835044   17.2504107
|  8>     C       15.7839350   14.8358469   16.5727587
|  9>     O       16.8413051   15.4267913   15.7833014
| 10>     C       18.0241726   15.8055623   16.3597337
| 11>     O       18.9250062   14.9891393   16.4297739
| 12>     C       17.9294694   16.9214085   17.3504661
| 13>     C       17.3190724   18.0976626   17.0682612
| 14>     C       16.6701393   18.5112727   15.7637922
| 15>     N       17.3327779   19.1303827   18.0087969
| 16>     C       18.0576959   19.1163428   19.1718490
| 17>     S       18.1004950   20.4220046   20.1855700
| 18>     N       18.7471286   17.9627089   19.4536223
| 19>     C       18.6501369   16.7053792   18.6855689
| 20>     C       17.9765071   15.6065525   19.5068564
| 21>     C       18.4818865   14.2933596   19.4803524
| 22>     C       17.8597771   13.2685828   20.2124540
| 23>     C       16.7204536   13.5569919   20.9820905
| 24>     C       16.2140814   14.8628687   21.0150996
| 25>     O       15.1086334   15.1439840   21.7495143
| 26>     C       16.8361464   15.8808567   20.2856279
| 27>     H       15.4001634   16.4460696   18.0282573
| 28>     H       14.0296966   15.3824706   17.7321304
| 29>     H       14.4729344   16.5826432   16.5105870
| 30>     H       16.2098352   14.1627157   17.3301125
| 31>     H       15.1590852   14.2250821   15.9084504
| 32>     H       15.5792979   18.5528076   15.8607073
| 33>     H       16.9071261   17.8267313   14.9411019
| 34>     H       17.0164308   19.5042790   15.4506184
| 35>     H       16.8434693   19.9897585   17.8139787
| 36>     H       19.2581472   17.9740476   20.3272601
| 37>     H       19.6755905   16.3769113   18.4607231
| 38>     H       19.3559705   14.0624730   18.8750674
| 39>     H       18.2601742   12.2567279   20.1771316
| 40>     H       16.2355193   12.7678947   21.5473248
| 41>     H       14.8634117   14.3370152   22.2270048
| 42>     H       16.4230352   16.8831703   20.3276443
| 43> *
| 44>
| 45>                          ****END OF INPUT****

CARTESIAN COORDINATES (ANGSTROEM)
---------------------------------
  C     14.878293   15.883504   17.250411
  C     15.783935   14.835847   16.572759
  O     16.841305   15.426791   15.783301
  C     18.024173   15.805562   16.359734
  O     18.925006   14.989139   16.429774
  C     17.929469   16.921408   17.350466
  C     17.319072   18.097663   17.068261
  C     16.670139   18.511273   15.763792
  N     17.332778   19.130383   18.008797
  C     18.057696   19.116343   19.171849
  S     18.100495   20.422005   20.185570
  N     18.747129   17.962709   19.453622
  C     18.650137   16.705379   18.685569
  C     17.976507   15.606552   19.506856
  C     18.481887   14.293360   19.480352
  C     17.859777   13.268583   20.212454
  C     16.720454   13.556992   20.982091
  C     16.214081   14.862869   21.015100
  O     15.108633   15.143984   21.749514
  C     16.836146   15.880857   20.285628
  H     15.400163   16.446070   18.028257
  H     14.029697   15.382471   17.732130
  H     14.472934   16.582643   16.510587
  H     16.209835   14.162716   17.330112
  H     15.159085   14.225082   15.908450
  H     15.579298   18.552808   15.860707
  H     16.907126   17.826731   14.941102
  H     17.016431   19.504279   15.450618
  H     16.843469   19.989758   17.813979
  H     19.258147   17.974048   20.327260
  H     19.675590   16.376911   18.460723
  H     19.355971   14.062473   18.875067
  H     18.260174   12.256728   20.177132
  H     16.235519   12.767895   21.547325
  H     14.863412   14.337015   22.227005
  H     16.423035   16.883170   20.327644

 Total Charge           Charge          ....    0
 Multiplicity           Mult            ....    1
 Number of Electrons    NEL             ....  154
 Basis Dimension        Dim             ....  828

ORBITAL ENERGIES
----------------

  NO   OCC          E(Eh)            E(eV)
   0   2.0000     -91.891116     -2500.4844
   1   2.0000     -20.598859      -560.5234
   2   2.0000     -20.580614      -560.0270
   3   2.0000     -20.556241      -559.3638
   4   2.0000     -15.629538      -425.3014
   5   2.0000     -15.611227      -424.8031
   6   2.0000     -11.395195      -310.0790
   7   2.0000     -11.387202      -309.8615
   8   2.0000     -11.333450      -308.3989
   9   2.0000     -11.315554      -307.9119
  10   2.0000     -11.313187      -307.8475
  11   2.0000     -11.303580      -307.5861
  12   2.0000     -11.263164      -306.4863
  13   2.0000     -11.262810      -306.4766
  14   2.0000     -11.262445      -306.4667
  15   2.0000     -11.255481      -306.2772
  16   2.0000     -11.245288      -305.9998
  17   2.0000     -11.241438      -305.8951
  18   2.0000     -11.237514      -305.7883
  19   2.0000     -11.229161      -305.5610
  20   2.0000      -8.896192      -242.0777
  21   2.0000      -6.577772      -178.9903
  22   2.0000      -6.575757      -178.9355
  23   2.0000      -6.575172      -178.9195
  24   2.0000      -1.447198       -39.3803
  25   2.0000      -1.418673       -38.6041
  26   2.0000      -1.354052       -36.8456
  27   2.0000      -1.341763       -36.5112
  28   2.0000      -1.240511       -33.7560
  29   2.0000      -1.159738       -31.5581
  30   2.0000      -1.124079       -30.5877
  31   2.0000      -1.047066       -28.4921
  32   2.0000      -1.033937       -28.1348
  33   2.0000      -1.017637       -27.6913
  34   2.0000      -1.003482       -27.3061
  35   2.0000      -0.989653       -26.9298
  36   2.0000      -0.927044       -25.2261
  37   2.0000      -0.889641       -24.2084
  38   2.0000      -0.851532       -23.1714
  39   2.0000      -0.841481       -22.8979
  40   2.0000      -0.835916       -22.7464
  41   2.0000      -0.827337       -22.5130
  42   2.0000      -0.753113       -20.4932
  43   2.0000      -0.735368       -20.0104
  44   2.0000      -0.730251       -19.8711
  45   2.0000      -0.697422       -18.9778
  46   2.0000      -0.687871       -18.7179
  47   2.0000      -0.677807       -18.4441
  48   2.0000      -0.674417       -18.3518
  49   2.0000      -0.661763       -18.0075
  50   2.0000      -0.654401       -17.8072
  51   2.0000      -0.645883       -17.5754
  52   2.0000      -0.639960       -17.4142
  53   2.0000      -0.611258       -16.6332
  54   2.0000      -0.606845       -16.5131
  55   2.0000      -0.602883       -16.4053
  56   2.0000      -0.595540       -16.2055
  57   2.0000      -0.592254       -16.1160
  58   2.0000      -0.576825       -15.6962
  59   2.0000      -0.573956       -15.6181
  60   2.0000      -0.564473       -15.3601
  61   2.0000      -0.554740       -15.0952
  62   2.0000      -0.542635       -14.7658
  63   2.0000      -0.526295       -14.3212
  64   2.0000      -0.520162       -14.1543
  65   2.0000      -0.512965       -13.9585
  66   2.0000      -0.502208       -13.6658
  67   2.0000      -0.492127       -13.3915
  68   2.0000      -0.485521       -13.2117
  69   2.0000      -0.466514       -12.6945
  70   2.0000      -0.456289       -12.4163
  71   2.0000      -0.451280       -12.2800
  72   2.0000      -0.356523        -9.7015
  73   2.0000      -0.350752        -9.5445
  74   2.0000      -0.330455        -8.9921
  75   2.0000      -0.323299        -8.7974
  76   2.0000      -0.319339        -8.6896
  77   0.0000       0.074066         2.0154
  78   0.0000       0.103208         2.8084
  79   0.0000       0.118817         3.2332
  80   0.0000       0.128593         3.4992
  81   0.0000       0.130941         3.5631

MULLIKEN ATOMIC CHARGES
-----------------------
   0 C :   -0.338772
   1 C :    0.046375
   2 O :   -0.374403
   3 C :    0.442260
   4 O :   -0.380289
   5 C :   -0.204465
   6 C :    0.142175
   7 C :   -0.310416
   8 N :   -0.130524
   9 C :    0.195148
  10 S :   -0.436676
  11 N :   -0.215192
  12 C :    0.073872
  13 C :    0.033460
  14 C :   -0.204434
  15 C :   -0.134132
  16 C :   -0.279224
  17 C :    0.323072
  18 O :   -0.357547
  19 C :   -0.287617
  20 H :    0.112423
  21 H :    0.125319
  22 H :    0.102868
  23 H :    0.102622
  24 H :    0.121144
  25 H :    0.120907
  26 H :    0.132198
  27 H :    0.129546
  28 H :    0.198306
  29 H :    0.197829
  30 H :    0.163711
  31 H :    0.171117
  32 H :    0.164298
  33 H :    0.132536
  34 H :    0.241191
  35 H :    0.181317
Sum of atomic charges:    0.0000000

LOEWDIN ATOMIC CHARGES
----------------------
   0 C :    0.104535
   1 C :   -0.010592
   2 O :    0.273879
   3 C :   -0.417702
   4 O :    0.136856
   5 C :   -0.089134
   6 C :   -0.081865
   7 C :    0.127342
   8 N :    0.404667
   9 C :   -0.457921
  10 S :   -0.034904
  11 N :    0.397205
  12 C :   -0.043888
  13 C :   -0.043011
  14 C :    0.020377
  15 C :    0.041312
  16 C :   -0.001836
  17 C :   -0.193860
  18 O :    0.395005
  19 C :    0.028798
  20 H :   -0.037829
  21 H :   -0.021059
  22 H :   -0.032820
  23 H :   -0.026531
  24 H :   -0.020237
  25 H :   -0.016609
  26 H :   -0.008962
  27 H :   -0.013182
  28 H :   -0.056334
  29 H :   -0.063696
  30 H :   -0.002973
  31 H :   -0.022754
  32 H :   -0.019161
  33 H :   -0.034866
  34 H :   -0.153322
  35 H :   -0.024930

  Mayer bond orders larger than 0.100000
B(  0-C ,  1-C ) :   0.9615 B(  0-C , 20-H ) :   0.9696 B(  0-C , 21-H ) :   0.9776
B(  0-C , 22-H ) :   0.9775 B(  1-C ,  2-O ) :   0.8930 B(  1-C , 23-H ) :   0.9720
B(  1-C , 24-H ) :   0.9835 B(  2-O ,  3-C ) :   1.1090 B(  3-C ,  4-O ) :   2.0705
B(  3-C ,  5-C ) :   0.9690 B(  5-C ,  6-C ) :   1.6656 B(  5-C , 12-C ) :   0.9561
B(  6-C ,  7-C ) :   0.9562 B(  6-C ,  8-N ) :   1.1269 B(  7-C , 25-H ) :   0.9633
B(  7-C , 26-H ) :   0.9727 B(  7-C , 27-H ) :   0.9750 B(  8-N ,  9-C ) :   1.1880
B(  8-N , 28-H ) :   0.9514 B(  9-C , 10-S ) :   1.6156 B(  9-C , 11-N ) :   1.2895
B( 11-N , 12-C ) :   0.9879 B( 11-N , 29-H ) :   0.9505 B( 12-C , 13-C ) :   0.9451
B( 12-C , 30-H ) :   0.9977 B( 13-C , 14-C ) :   1.3854 B( 13-C , 19-C ) :   1.3405
B( 14-C , 15-C ) :   1.4001 B( 14-C , 31-H ) :   0.9595 B( 15-C , 16-C ) :   1.3597
B( 15-C , 32-H ) :   0.9701 B( 16-C , 17-C ) :   1.3318 B( 16-C , 33-H ) :   0.9844
B( 17-C , 18-O ) :   1.1109 B( 17-C , 19-C ) :   1.3669 B( 18-O , 34-H ) :   0.9796
B( 19-C , 35-H ) :   0.9532

MP2 TOTAL ENERGY:    -1274.321683328 Eh
FINAL SINGLE POINT ENERGY     -1274.321683328315

DIPOLE MOMENT
-------------
                                X             Y             Z
Electronic contribution:      9.65963       6.30105       5.86033
Nuclear contribution   :    -10.92697      -7.50592      -6.32469
                        -----------------------------------------
Total Dipole Moment    :     -1.26734      -1.20488      -0.46437
                        -----------------------------------------
Magnitude (a.u.)       :      1.80929
Magnitude (Debye)      :      4.59884

Rotational constants in cm-1:     0.012072     0.009583     0.007009
Rotational constants in MHz :   361.909709   287.293719   210.132926

                             ****ORCA TERMINATED NORMALLY****
TOTAL RUN TIME: 0 days 1 hours 41 minutes 51 seconds 799 msec
