                         Program Version 5.0.0 -  RELEASE  -
|  1> ! ri-mp2 cc-pvtz cc-pvtz/c TightSCF NoKeepInts
|  2>
|  3> %scf
|  4>   MaxCore 4096
|  5> end
|  6> *xyz  0  1
|  7>     C       15.0370809   14.4724482   16.9069117
|  8>     C       16.4547821   13.9507449   16.5766870
|  9>     O       17.4565941   14.9917590   16.4634579
| 10>     C       17.1505115   16.3115172   16.2778395
| 11>     O       16.4011659   16.6781923   15.3895009
| 12>     C       17.7219093   17.2070969   17.3433216
| 13>     C       17.5250195   18.5503281   17.3451043
| 14>     C       16.7241846   19.3618653   16.3493252
| 15>     N       18.1248423   19.3456915   18.3261179
| 16>     C       19.0271097   18.8975884   19.2534742
| 17>     S       19.7784800   19.9235314   20.3111518
| 18>     N       19.2820195   17.5500741   19.2569692
| 19>     C       18.5589079   16.5481983   18.4529605
| 20>     C       17.7144517   15.6726441   19.3736911
| 21>     C       18.0847962   14.3376357   19.6221982
| 22>     C       17.3073809   13.5249319   20.4643589
| 23>     C       16.1534340   14.0529267   21.0680243
| 24>     C       15.7884717   15.3854738   20.8324170
| 25>     O       14.6757715   15.8987666   21.4145092
| 26>     C       16.5638692   16.1917001   19.9935839
| 27>     H       15.0502327   15.1322863   17.7824759
| 28>     H       14.3708901   13.6312902   17.1326651
| 29>     H       14.6014730   15.0163224   16.0597347
| 30>     H       16.7672968   13.2377330   17.3500392
| 31>     H       16.4054971   13.4020019   15.6272224
| 32>     H       17.1205152   19.2276481   15.3346928
| 33>     H       16.7302158   20.4362900   16.5668942
| 34>     H       15.6773679   19.0322741   16.3370927
| 35>     H       17.9534374   20.3384958   18.3343992
| 36>     H       19.9265775   17.2453592   19.9749470
| 37>     H       19.3125950   15.9133622   17.9660105
| 38>     H       18.9754846   13.9264526   19.1543823
| 39>     H       17.6007443   12.4928213   20.6489014
| 40>     H       15.5499580   13.4295832   21.7197721
| 41>     H       14.3058102   15.2144886   21.9924241
| 42>     H       16.2681217   17.2224768   19.8307423
| 43> *
| 44>
| 45>                          ****END OF INPUT****

CARTESIAN COORDINATES (ANGSTROEM)
---------------------------------
  C     15.037081   14.472448   16.906912
  C     16.454782   13.950745   16.576687
  O     17.456594   14.991759   16.463458
  C     17.150512   16.311517   16.277839
  O     16.401166   16.678192   15.389501
  C     17.721909   17.207097   17.343322
  C     17.525019   18.550328   17.345104
  C     16.724185   19.361865   16.349325
  N     18.124842   19.345691   18.326118
  C     19.027110   18.897588   19.253474
  S     19.778480   19.923531   20.311152
  N     19.282020   17.550074   19.256969
  C     18.558908   16.548198   18.452960
  C     17.714452   15.672644   19.373691
  C     18.084796   14.337636   19.622198
  C     17.307381   13.524932   20.464359
  C     16.153434   14.052927   21.068024
  C     15.788472   15.385474   20.832417
  O     14.675771   15.898767   21.414509
  C     16.563869   16.191700   19.993584
  H     15.050233   15.132286   17.782476
  H     14.370890   13.631290   17.132665
  H     14.601473   15.016322   16.059735
  H     16.767297   13.237733   17.350039
  H     16.405497   13.402002   15.627222
  H     17.120515   19.227648   15.334693
  H     16.730216   20.436290   16.566894
  H     15.677368   19.032274   16.337093
  H     17.953437   20.338496   18.334399
  H     19.926578   17.245359   19.974947
  H     19.312595   15.913362   17.966010
  H     18.975485   13.926453   19.154382
  H     17.600744   12.492821   20.648901
  H     15.549958   13.429583   21.719772
  H     14.305810   15.214489   21.992424
  H     16.268122   17.222477   19.830742

 Total Charge           Charge          ....    0
 Multiplicity           Mult            ....    1
 Number of Electrons    NEL             ....  154
 Basis Dimension        Dim             ....  828

ORBITAL ENERGIES
----------------

  NO   OCC          E(Eh)            E(eV)
   0   2.0000     -91.889765     -2500.4476
   1   2.0000     -20.600521      -560.5687
   2   2.0000     -20.586908      -560.1982
   3   2.0000     -20.542857      -558.9995
   4   2.0000     -15.630045      -425.3152
   5   2.0000     -15.609080      -424.7447
   6   2.0000     -11.393919      -310.0443
   7   2.0000     -11.384760      -309.7951
   8   2.0000     -11.336657      -308.4861
   9   2.0000     -11.317906      -307.9759
  10   2.0000     -11.310177      -307.7656
  11   2.0000     -11.298932      -307.4596
  12   2.0000     -11.263287      -306.4896
  13   2.0000     -11.259719      -306.3925
  14   2.0000     -11.258613      -306.3624
  15   2.0000     -11.252598      -306.1988
  16   2.0000     -11.247282      -306.0541
  17   2.0000     -11.242161      -305.9148
  18   2.0000     -11.241910      -305.9079
  19   2.0000     -11.222960      -305.3923
  20   2.0000      -8.894818      -242.0403
  21   2.0000      -6.576390      -178.9527
  22   2.0000      -6.574388      -178.8982
  23   2.0000      -6.573799      -178.8822
  24   2.0000      -1.442907       -39.2635
  25   2.0000      -1.420207       -38.6458
  26   2.0000      -1.350611       -36.7520
  27   2.0000      -1.341069       -36.4924
  28   2.0000      -1.239655       -33.7327
  29   2.0000      -1.161249       -31.5992
  30   2.0000      -1.121071       -30.5059
  31   2.0000      -1.045164       -28.4404
  32   2.0000      -1.031939       -28.0805
  33   2.0000      -1.019420       -27.7398
  34   2.0000      -0.997188       -27.1349
  35   2.0000      -0.985540       -26.8179
  36   2.0000      -0.924351       -25.1529
  37   2.0000      -0.896714       -24.4008
  38   2.0000      -0.848399       -23.0861
  39   2.0000      -0.841541       -22.8995
  40   2.0000      -0.837893       -22.8002
  41   2.0000      -0.818080       -22.2611
  42   2.0000      -0.744563       -20.2606
  43   2.0000      -0.733942       -19.9716
  44   2.0000      -0.720911       -19.6170
  45   2.0000      -0.699412       -19.0320
  46   2.0000      -0.690214       -18.7817
  47   2.0000      -0.673390       -18.3239
  48   2.0000      -0.671194       -18.2641
  49   2.0000      -0.659871       -17.9560
  50   2.0000      -0.652873       -17.7656
  51   2.0000      -0.642912       -17.4945
  52   2.0000      -0.636520       -17.3206
  53   2.0000      -0.622543       -16.9402
  54   2.0000      -0.610942       -16.6246
  55   2.0000      -0.603336       -16.4176
  56   2.0000      -0.600573       -16.3424
  57   2.0000      -0.580638       -15.8000
  58   2.0000      -0.571484       -15.5509
  59   2.0000      -0.566660       -15.4196
  60   2.0000      -0.549382       -14.9494
  61   2.0000      -0.542787       -14.7700
  62   2.0000      -0.534643       -14.5484
  63   2.0000      -0.528276       -14.3751
  64   2.0000      -0.523503       -14.2452
  65   2.0000      -0.514847       -14.0097
  66   2.0000      -0.503187       -13.6924
  67   2.0000      -0.496556       -13.5120
  68   2.0000      -0.486639       -13.2421
  69   2.0000      -0.463560       -12.6141
  70   2.0000      -0.454836       -12.3767
  71   2.0000      -0.441973       -12.0267
  72   2.0000      -0.355182        -9.6650
  73   2.0000      -0.352914        -9.6033
  74   2.0000      -0.329604        -8.9690
  75   2.0000      -0.325477        -8.8567
  76   2.0000      -0.317146        -8.6300
  77   0.0000       0.072785         1.9806
  78   0.0000       0.101424         2.7599
  79   0.0000       0.122763         3.3406
  80   0.0000       0.130300         3.5456
  81   0.0000       0.134788         3.6678

MULLIKEN ATOMIC CHARGES
-----------------------
   0 C :   -0.326076
   1 C :    0.036749
   2 O :   -0.388675
   3 C :    0.490419
   4 O :   -0.421410
   5 C :   -0.257846
   6 C :    0.160218
   7 C :   -0.271699
   8 N :   -0.122750
   9 C :    0.212377
  10 S :   -0.439081
  11 N :   -0.205427
  12 C :    0.065510
  13 C :    0.071643
  14 C :   -0.209475
  15 C :   -0.121611
  16 C :   -0.277374
  17 C :    0.326136
  18 O :   -0.359378
  19 C :   -0.294331
  20 H :    0.105979
  21 H :    0.102683
  22 H :    0.127821
  23 H :    0.107953
  24 H :    0.118431
  25 H :    0.133280
  26 H :    0.095276
  27 H :    0.130630
  28 H :    0.197831
  29 H :    0.194460
  30 H :    0.151617
  31 H :    0.156136
  32 H :    0.165443
  33 H :    0.132926
  34 H :    0.241364
  35 H :    0.170250
Sum of atomic charges:   -0.0000000

LOEWDIN ATOMIC CHARGES
----------------------
   0 C :    0.105609
   1 C :   -0.010746
   2 O :    0.287909
   3 C :   -0.418311
   4 O :    0.108602
   5 C :   -0.097672
   6 C :   -0.058342
   7 C :    0.131629
   8 N :    0.406862
   9 C :   -0.456260
  10 S :   -0.034617
  11 N :    0.396437
  12 C :   -0.052373
  13 C :   -0.038336
  14 C :    0.016426
  15 C :    0.040079
  16 C :   -0.001582
  17 C :   -0.190076
  18 O :    0.396414
  19 C :    0.031706
  20 H :   -0.029821
  21 H :   -0.024837
  22 H :   -0.025698
  23 H :   -0.029377
  24 H :   -0.028634
  25 H :   -0.003231
  26 H :   -0.023385
  27 H :   -0.005088
  28 H :   -0.057431
  29 H :   -0.064865
  30 H :   -0.009319
  31 H :   -0.029128
  32 H :   -0.020586
  33 H :   -0.034816
  34 H :   -0.152982
  35 H :   -0.024162

  Mayer bond orders larger than 0.100000
B(  0-C ,  1-C ) :   0.9583 B(  0-C , 20-H ) :   0.9711 B(  0-C , 21-H ) :   0.9766
B(  0-C , 22-H ) :   0.9726 B(  1-C ,  2-O ) :   0.8842 B(  1-C , 23-H ) :   0.9759
B(  1-C , 24-H ) :   0.9860 B(  2-O ,  3-C ) :   1.1215 B(  3-C ,  4-O ) :   1.9954
B(  3-C ,  5-C ) :   1.0582 B(  5-C ,  6-C ) :   1.6494 B(  5-C , 12-C ) :   0.9705
B(  6-C ,  7-C ) :   0.9663 B(  6-C ,  8-N ) :   1.1620 B(  7-C , 25-H ) :   0.9593
B(  7-C , 26-H ) :   0.9901 B(  7-C , 27-H ) :   0.9612 B(  8-N ,  9-C ) :   1.1820
B(  8-N , 28-H ) :   0.9478 B(  9-C , 10-S ) :   1.6079 B(  9-C , 11-N ) :   1.3060
B( 11-N , 12-C ) :   0.9798 B( 11-N , 29-H ) :   0.9523 B( 12-C , 13-C ) :   0.9383
B( 12-C , 30-H ) :   1.0015 B( 13-C , 14-C ) :   1.3446 B( 13-C , 19-C ) :   1.3716
B( 14-C , 15-C ) :   1.3817 B( 14-C , 31-H ) :   0.9728 B( 15-C , 16-C ) :   1.3654
B( 15-C , 32-H ) :   0.9692 B( 16-C , 17-C ) :   1.3298 B( 16-C , 33-H ) :   0.9837
B( 17-C , 18-O ) :   1.1086 B( 17-C , 19-C ) :   1.3641 B( 18-O , 34-H ) :   0.9794
B( 19-C , 35-H ) :   0.9597

MP2 TOTAL ENERGY:    -1274.338436855 Eh
FINAL SINGLE POINT ENERGY     -1274.338436854845

DIPOLE MOMENT
-------------
                                X             Y             Z
Electronic contribution:      9.97688       9.30836       5.89679
Nuclear contribution   :    -10.99589     -10.99851      -5.89460
                        -----------------------------------------
Total Dipole Moment    :     -1.01901      -1.69016       0.00219
                        -----------------------------------------
Magnitude (a.u.)       :      1.97358
Magnitude (Debye)      :      5.01644

Rotational constants in cm-1:     0.012598     0.008975     0.006548
Rotational constants in MHz :   377.675060   269.075636   196.290407

                             ****ORCA TERMINATED NORMALLY****
TOTAL RUN TIME: 0 days 2 hours 7 minutes 42 seconds 784 msec
