                         Program Version 5.0.0 -  RELEASE  -
|  1> ! ri-mp2 cc-pvtz cc-pvtz/c TightSCF NoKeepInts
|  2>
|  3> %scf
|  4>   MaxCore 4096
|  5> end
|  6> *xyz  0  1
|  7>     C       15.1438330   13.8685366   15.6971169
|  8>     C       15.8834978   14.3629269   16.9546230
|  9>     O       16.9870873   15.1950366   16.5512446
| 10>     C       16.7830768   16.5411664   16.4411701
| 11>     O       15.8316714   16.9880617   15.8248997
| 12>     C       17.5613067   17.3321144   17.4586903
| 13>     C       17.4428478   18.6798938   17.5749495
| 14>     C       16.5520570   19.5971104   16.7642003
| 15>     N       18.2286667   19.3762555   18.4981269
| 16>     C       19.2388436   18.8249776   19.2398797
| 17>     S       20.2001218   19.7397058   20.2272850
| 18>     N       19.4197613   17.4713820   19.1154431
| 19>     C       18.5266538   16.5611672   18.3763706
| 20>     C       17.7961309   15.6579140   19.3658587
| 21>     C       18.1872784   14.3146990   19.5213762
| 22>     C       17.5135909   13.4735657   20.4228561
| 23>     C       16.4431547   13.9805546   21.1790770
| 24>     C       16.0574212   15.3201730   21.0342499
| 25>     O       15.0256823   15.8133171   21.7641088
| 26>     C       16.7285545   16.1544605   20.1350782
| 27>     H       14.6897940   14.7058444   15.1527203
| 28>     H       14.3442949   13.1703309   15.9721455
| 29>     H       15.8346813   13.3510523   15.0202395
| 30>     H       15.1995891   14.9078913   17.6200137
| 31>     H       16.2680963   13.4926844   17.5015625
| 32>     H       15.4948392   19.3587994   16.9380554
| 33>     H       16.7425501   19.4720275   15.6906691
| 34>     H       16.6970180   20.6573699   17.0022959
| 35>     H       18.1125261   20.3720291   18.5986529
| 36>     H       20.1511329   17.0891904   19.7009829
| 37>     H       19.1579911   15.9303631   17.7346107
| 38>     H       19.0129791   13.9193073   18.9354872
| 39>     H       17.8228051   12.4356097   20.5351175
| 40>     H       15.9207374   13.3353190   21.8779411
| 41>     H       14.7279501   15.1111364   22.3620255
| 42>     H       16.4187775   17.1900262   20.0448757
| 43> *
| 44>
| 45>                          ****END OF INPUT****

CARTESIAN COORDINATES (ANGSTROEM)
---------------------------------
  C     15.143833   13.868537   15.697117
  C     15.883498   14.362927   16.954623
  O     16.987087   15.195037   16.551245
  C     16.783077   16.541166   16.441170
  O     15.831671   16.988062   15.824900
  C     17.561307   17.332114   17.458690
  C     17.442848   18.679894   17.574949
  C     16.552057   19.597110   16.764200
  N     18.228667   19.376255   18.498127
  C     19.238844   18.824978   19.239880
  S     20.200122   19.739706   20.227285
  N     19.419761   17.471382   19.115443
  C     18.526654   16.561167   18.376371
  C     17.796131   15.657914   19.365859
  C     18.187278   14.314699   19.521376
  C     17.513591   13.473566   20.422856
  C     16.443155   13.980555   21.179077
  C     16.057421   15.320173   21.034250
  O     15.025682   15.813317   21.764109
  C     16.728555   16.154460   20.135078
  H     14.689794   14.705844   15.152720
  H     14.344295   13.170331   15.972145
  H     15.834681   13.351052   15.020240
  H     15.199589   14.907891   17.620014
  H     16.268096   13.492684   17.501562
  H     15.494839   19.358799   16.938055
  H     16.742550   19.472027   15.690669
  H     16.697018   20.657370   17.002296
  H     18.112526   20.372029   18.598653
  H     20.151133   17.089190   19.700983
  H     19.157991   15.930363   17.734611
  H     19.012979   13.919307   18.935487
  H     17.822805   12.435610   20.535117
  H     15.920737   13.335319   21.877941
  H     14.727950   15.111136   22.362025
  H     16.418778   17.190026   20.044876

 Total Charge           Charge          ....    0
 Multiplicity           Mult            ....    1
 Number of Electrons    NEL             ....  154
 Basis Dimension        Dim             ....  828

ORBITAL ENERGIES
----------------

  NO   OCC          E(Eh)            E(eV)
   0   2.0000     -91.889988     -2500.4537
   1   2.0000     -20.600424      -560.5660
   2   2.0000     -20.586635      -560.1908
   3   2.0000     -20.546759      -559.1057
   4   2.0000     -15.630418      -425.3253
   5   2.0000     -15.609389      -424.7531
   6   2.0000     -11.394716      -310.0660
   7   2.0000     -11.385014      -309.8020
   8   2.0000     -11.337014      -308.4958
   9   2.0000     -11.318001      -307.9785
  10   2.0000     -11.310875      -307.7846
  11   2.0000     -11.295153      -307.3567
  12   2.0000     -11.263228      -306.4880
  13   2.0000     -11.259517      -306.3870
  14   2.0000     -11.259355      -306.3826
  15   2.0000     -11.253409      -306.2208
  16   2.0000     -11.246901      -306.0437
  17   2.0000     -11.241812      -305.9053
  18   2.0000     -11.241666      -305.9013
  19   2.0000     -11.216260      -305.2099
  20   2.0000      -8.895043      -242.0464
  21   2.0000      -6.576615      -178.9588
  22   2.0000      -6.574613      -178.9043
  23   2.0000      -6.574023      -178.8883
  24   2.0000      -1.448829       -39.4246
  25   2.0000      -1.420091       -38.6426
  26   2.0000      -1.353840       -36.8399
  27   2.0000      -1.341464       -36.5031
  28   2.0000      -1.240045       -33.7433
  29   2.0000      -1.161015       -31.5928
  30   2.0000      -1.121265       -30.5112
  31   2.0000      -1.045175       -28.4407
  32   2.0000      -1.031230       -28.0612
  33   2.0000      -1.019112       -27.7314
  34   2.0000      -0.996424       -27.1141
  35   2.0000      -0.984903       -26.8006
  36   2.0000      -0.924615       -25.1601
  37   2.0000      -0.883963       -24.0539
  38   2.0000      -0.849018       -23.1030
  39   2.0000      -0.841187       -22.8899
  40   2.0000      -0.837429       -22.7876
  41   2.0000      -0.824843       -22.4451
  42   2.0000      -0.756134       -20.5754
  43   2.0000      -0.734557       -19.9883
  44   2.0000      -0.722361       -19.6564
  45   2.0000      -0.699278       -19.0283
  46   2.0000      -0.690311       -18.7843
  47   2.0000      -0.679656       -18.4944
  48   2.0000      -0.670717       -18.2511
  49   2.0000      -0.656771       -17.8717
  50   2.0000      -0.648283       -17.6407
  51   2.0000      -0.646671       -17.5968
  52   2.0000      -0.634779       -17.2732
  53   2.0000      -0.611101       -16.6289
  54   2.0000      -0.604711       -16.4550
  55   2.0000      -0.601046       -16.3553
  56   2.0000      -0.594861       -16.1870
  57   2.0000      -0.582589       -15.8530
  58   2.0000      -0.575708       -15.6658
  59   2.0000      -0.571155       -15.5419
  60   2.0000      -0.565476       -15.3874
  61   2.0000      -0.539386       -14.6774
  62   2.0000      -0.534764       -14.5517
  63   2.0000      -0.528122       -14.3709
  64   2.0000      -0.516145       -14.0450
  65   2.0000      -0.511416       -13.9163
  66   2.0000      -0.503298       -13.6954
  67   2.0000      -0.497513       -13.5380
  68   2.0000      -0.488073       -13.2811
  69   2.0000      -0.463807       -12.6208
  70   2.0000      -0.454482       -12.3671
  71   2.0000      -0.443197       -12.0600
  72   2.0000      -0.355599        -9.6763
  73   2.0000      -0.353131        -9.6092
  74   2.0000      -0.329804        -8.9744
  75   2.0000      -0.325208        -8.8494
  76   2.0000      -0.317436        -8.6379
  77   0.0000       0.071121         1.9353
  78   0.0000       0.101622         2.7653
  79   0.0000       0.123162         3.3514
  80   0.0000       0.130056         3.5390
  81   0.0000       0.134429         3.6580

MULLIKEN ATOMIC CHARGES
-----------------------
   0 C :   -0.271167
   1 C :    0.029609
   2 O :   -0.380189
   3 C :    0.473997
   4 O :   -0.417512
   5 C :   -0.247333
   6 C :    0.161363
   7 C :   -0.270008
   8 N :   -0.123229
   9 C :    0.215000
  10 S :   -0.439592
  11 N :   -0.207521
  12 C :    0.069155
  13 C :    0.065643
  14 C :   -0.205786
  15 C :   -0.127009
  16 C :   -0.277965
  17 C :    0.315455
  18 O :   -0.356049
  19 C :   -0.266789
  20 H :    0.117394
  21 H :    0.087120
  22 H :    0.090594
  23 H :    0.095628
  24 H :    0.111238
  25 H :    0.131623
  26 H :    0.130700
  27 H :    0.095667
  28 H :    0.197578
  29 H :    0.194868
  30 H :    0.150264
  31 H :    0.149846
  32 H :    0.165078
  33 H :    0.132697
  34 H :    0.241653
  35 H :    0.167979
Sum of atomic charges:    0.0000000

LOEWDIN ATOMIC CHARGES
----------------------
   0 C :    0.104946
   1 C :   -0.018047
   2 O :    0.292622
   3 C :   -0.416436
   4 O :    0.114092
   5 C :   -0.097280
   6 C :   -0.058481
   7 C :    0.131296
   8 N :    0.406987
   9 C :   -0.455833
  10 S :   -0.034682
  11 N :    0.396074
  12 C :   -0.052445
  13 C :   -0.036319
  14 C :    0.014625
  15 C :    0.040561
  16 C :   -0.002198
  17 C :   -0.190080
  18 O :    0.396171
  19 C :    0.031044
  20 H :   -0.025685
  21 H :   -0.030702
  22 H :   -0.028883
  23 H :   -0.029864
  24 H :   -0.025940
  25 H :   -0.004910
  26 H :   -0.003825
  27 H :   -0.023129
  28 H :   -0.057357
  29 H :   -0.064982
  30 H :   -0.009188
  31 H :   -0.029631
  32 H :   -0.020411
  33 H :   -0.034868
  34 H :   -0.152956
  35 H :   -0.024282

  Mayer bond orders larger than 0.100000
B(  0-C ,  1-C ) :   0.9844 B(  0-C , 20-H ) :   0.9738 B(  0-C , 21-H ) :   0.9782
B(  0-C , 22-H ) :   0.9777 B(  1-C ,  2-O ) :   0.8751 B(  1-C , 23-H ) :   0.9680
B(  1-C , 24-H ) :   0.9763 B(  2-O ,  3-C ) :   1.1016 B(  3-C ,  4-O ) :   1.9852
B(  3-C ,  5-C ) :   1.0742 B(  5-C ,  6-C ) :   1.6464 B(  5-C , 12-C ) :   0.9707
B(  6-C ,  7-C ) :   0.9666 B(  6-C ,  8-N ) :   1.1614 B(  7-C , 25-H ) :   0.9595
B(  7-C , 26-H ) :   0.9607 B(  7-C , 27-H ) :   0.9906 B(  8-N ,  9-C ) :   1.1823
B(  8-N , 28-H ) :   0.9476 B(  9-C , 10-S ) :   1.6059 B(  9-C , 11-N ) :   1.3074
B( 11-N , 12-C ) :   0.9725 B( 11-N , 29-H ) :   0.9519 B( 12-C , 13-C ) :   0.9407
B( 12-C , 30-H ) :   1.0016 B( 13-C , 14-C ) :   1.3439 B( 13-C , 19-C ) :   1.3735
B( 14-C , 15-C ) :   1.3892 B( 14-C , 31-H ) :   0.9757 B( 15-C , 16-C ) :   1.3627
B( 15-C , 32-H ) :   0.9692 B( 16-C , 17-C ) :   1.3305 B( 16-C , 33-H ) :   0.9840
B( 17-C , 18-O ) :   1.1126 B( 17-C , 19-C ) :   1.3698 B( 18-O , 34-H ) :   0.9790
B( 19-C , 35-H ) :   0.9586

MP2 TOTAL ENERGY:    -1274.335072218 Eh
FINAL SINGLE POINT ENERGY     -1274.335072217862

DIPOLE MOMENT
-------------
                                X             Y             Z
Electronic contribution:     10.40072       9.95797       7.67019
Nuclear contribution   :    -11.36598     -11.48186      -7.66690
                        -----------------------------------------
Total Dipole Moment    :     -0.96526      -1.52388       0.00329
                        -----------------------------------------
Magnitude (a.u.)       :      1.80387
Magnitude (Debye)      :      4.58508

Rotational constants in cm-1:     0.012241     0.008707     0.006264
Rotational constants in MHz :   366.978308   261.025734   187.786002

                             ****ORCA TERMINATED NORMALLY****
TOTAL RUN TIME: 0 days 2 hours 52 minutes 24 seconds 580 msec
