                         Program Version 5.0.0 -  RELEASE  -
|  1> ! ri-mp2 cc-pvtz cc-pvtz/c TightSCF NoKeepInts
|  2>
|  3> %scf
|  4>   MaxCore 4096
|  5> end
|  6> *xyz  0  1
|  7>     C       15.1916684   15.3614717   17.4089806
|  8>     C       15.5245469   15.3234942   15.9018528
|  9>     O       16.9373032   15.4007528   15.5783149
| 10>     C       17.9754657   15.6025273   16.4517716
| 11>     O       18.8480936   14.7594973   16.5535897
| 12>     C       17.9205580   16.7913482   17.3692072
| 13>     C       17.3666538   17.9864589   17.0398173
| 14>     C       16.7299581   18.3925603   15.7270928
| 15>     N       17.4436136   19.0585168   17.9335583
| 16>     C       18.2061222   19.0750249   19.0712225
| 17>     S       18.3415509   20.4305298   20.0084868
| 18>     N       18.8515644   17.9077274   19.3915730
| 19>     C       18.6504581   16.6157247   18.7073594
| 20>     C       17.9234140   15.6259175   19.6148460
| 21>     C       18.3549631   14.2887291   19.6912577
| 22>     C       17.6852327   13.3638099   20.5093351
| 23>     C       16.5723035   13.7776998   21.2603649
| 24>     C       16.1377470   15.1077676   21.1879053
| 25>     O       15.0568726   15.5085819   21.9032123
| 26>     C       16.8064790   16.0264893   20.3728507
| 27>     H       15.7995614   14.6360371   17.9641642
| 28>     H       14.1403146   15.0900913   17.5636464
| 29>     H       15.3297888   16.3582652   17.8399277
| 30>     H       15.1414750   14.3785935   15.4945632
| 31>     H       14.9815678   16.1267412   15.3895686
| 32>     H       17.1142061   17.8039581   14.8854382
| 33>     H       16.9446276   19.4412930   15.4854230
| 34>     H       15.6408411   18.2785458   15.7642209
| 35>     H       16.9872415   19.9286515   17.7094343
| 36>     H       19.3929352   17.9396563   20.2461893
| 37>     H       19.6468424   16.2028000   18.4908750
| 38>     H       19.2071956   13.9608035   19.0996948
| 39>     H       18.0276151   12.3312911   20.5536160
| 40>     H       16.0506494   13.0655839   21.8911939
| 41>     H       14.7690683   14.7554023   22.4408951
| 42>     H       16.4485014   17.0496566   20.3325505
| 43> *
| 44>
| 45>                          ****END OF INPUT****

CARTESIAN COORDINATES (ANGSTROEM)
---------------------------------
  C     15.191668   15.361472   17.408981
  C     15.524547   15.323494   15.901853
  O     16.937303   15.400753   15.578315
  C     17.975466   15.602527   16.451772
  O     18.848094   14.759497   16.553590
  C     17.920558   16.791348   17.369207
  C     17.366654   17.986459   17.039817
  C     16.729958   18.392560   15.727093
  N     17.443614   19.058517   17.933558
  C     18.206122   19.075025   19.071223
  S     18.341551   20.430530   20.008487
  N     18.851564   17.907727   19.391573
  C     18.650458   16.615725   18.707359
  C     17.923414   15.625917   19.614846
  C     18.354963   14.288729   19.691258
  C     17.685233   13.363810   20.509335
  C     16.572304   13.777700   21.260365
  C     16.137747   15.107768   21.187905
  O     15.056873   15.508582   21.903212
  C     16.806479   16.026489   20.372851
  H     15.799561   14.636037   17.964164
  H     14.140315   15.090091   17.563646
  H     15.329789   16.358265   17.839928
  H     15.141475   14.378593   15.494563
  H     14.981568   16.126741   15.389569
  H     17.114206   17.803958   14.885438
  H     16.944628   19.441293   15.485423
  H     15.640841   18.278546   15.764221
  H     16.987241   19.928652   17.709434
  H     19.392935   17.939656   20.246189
  H     19.646842   16.202800   18.490875
  H     19.207196   13.960804   19.099695
  H     18.027615   12.331291   20.553616
  H     16.050649   13.065584   21.891194
  H     14.769068   14.755402   22.440895
  H     16.448501   17.049657   20.332550

 Total Charge           Charge          ....    0
 Multiplicity           Mult            ....    1
 Number of Electrons    NEL             ....  154
 Basis Dimension        Dim             ....  828

ORBITAL ENERGIES
----------------

  NO   OCC          E(Eh)            E(eV)
   0   2.0000     -91.891055     -2500.4827
   1   2.0000     -20.596910      -560.4704
   2   2.0000     -20.590497      -560.2959
   3   2.0000     -20.549428      -559.1784
   4   2.0000     -15.630644      -425.3314
   5   2.0000     -15.610071      -424.7716
   6   2.0000     -11.397963      -310.1543
   7   2.0000     -11.386472      -309.8417
   8   2.0000     -11.337163      -308.4999
   9   2.0000     -11.313165      -307.8469
  10   2.0000     -11.311039      -307.7890
  11   2.0000     -11.310159      -307.7651
  12   2.0000     -11.266161      -306.5678
  13   2.0000     -11.265316      -306.5448
  14   2.0000     -11.259291      -306.3809
  15   2.0000     -11.253436      -306.2216
  16   2.0000     -11.243124      -305.9410
  17   2.0000     -11.238492      -305.8149
  18   2.0000     -11.235110      -305.7229
  19   2.0000     -11.234481      -305.7058
  20   2.0000      -8.896125      -242.0759
  21   2.0000      -6.577705      -178.9885
  22   2.0000      -6.575691      -178.9336
  23   2.0000      -6.575106      -178.9177
  24   2.0000      -1.443328       -39.2750
  25   2.0000      -1.416730       -38.5512
  26   2.0000      -1.355055       -36.8729
  27   2.0000      -1.342696       -36.5366
  28   2.0000      -1.240549       -33.7570
  29   2.0000      -1.157666       -31.5017
  30   2.0000      -1.123274       -30.5658
  31   2.0000      -1.045787       -28.4573
  32   2.0000      -1.038583       -28.2613
  33   2.0000      -1.015720       -27.6391
  34   2.0000      -1.004801       -27.3420
  35   2.0000      -0.989196       -26.9174
  36   2.0000      -0.927089       -25.2274
  37   2.0000      -0.900087       -24.4926
  38   2.0000      -0.853689       -23.2301
  39   2.0000      -0.840700       -22.8766
  40   2.0000      -0.833566       -22.6825
  41   2.0000      -0.824689       -22.4409
  42   2.0000      -0.744934       -20.2707
  43   2.0000      -0.731978       -19.9181
  44   2.0000      -0.729792       -19.8586
  45   2.0000      -0.694501       -18.8983
  46   2.0000      -0.687078       -18.6963
  47   2.0000      -0.679733       -18.4965
  48   2.0000      -0.674469       -18.3532
  49   2.0000      -0.662849       -18.0370
  50   2.0000      -0.654846       -17.8193
  51   2.0000      -0.651451       -17.7269
  52   2.0000      -0.641837       -17.4653
  53   2.0000      -0.622495       -16.9389
  54   2.0000      -0.607436       -16.5292
  55   2.0000      -0.604815       -16.4579
  56   2.0000      -0.601218       -16.3600
  57   2.0000      -0.585734       -15.9386
  58   2.0000      -0.575734       -15.6665
  59   2.0000      -0.564798       -15.3689
  60   2.0000      -0.561584       -15.2815
  61   2.0000      -0.551468       -15.0062
  62   2.0000      -0.543895       -14.8001
  63   2.0000      -0.534314       -14.5394
  64   2.0000      -0.521931       -14.2025
  65   2.0000      -0.513098       -13.9621
  66   2.0000      -0.500468       -13.6184
  67   2.0000      -0.489126       -13.3098
  68   2.0000      -0.485860       -13.2209
  69   2.0000      -0.472038       -12.8448
  70   2.0000      -0.456936       -12.4339
  71   2.0000      -0.447871       -12.1872
  72   2.0000      -0.357159        -9.7188
  73   2.0000      -0.348072        -9.4715
  74   2.0000      -0.330346        -8.9892
  75   2.0000      -0.321819        -8.7571
  76   2.0000      -0.318769        -8.6742
  77   0.0000       0.073728         2.0062
  78   0.0000       0.107929         2.9369
  79   0.0000       0.116244         3.1632
  80   0.0000       0.131383         3.5751
  81   0.0000       0.134329         3.6553

MULLIKEN ATOMIC CHARGES
-----------------------
   0 C :   -0.347568
   1 C :    0.036797
   2 O :   -0.356631
   3 C :    0.456861
   4 O :   -0.386226
   5 C :   -0.223525
   6 C :    0.154142
   7 C :   -0.335197
   8 N :   -0.130075
   9 C :    0.191370
  10 S :   -0.436913
  11 N :   -0.207493
  12 C :    0.058527
  13 C :    0.029074
  14 C :   -0.190986
  15 C :   -0.134573
  16 C :   -0.279482
  17 C :    0.316682
  18 O :   -0.359228
  19 C :   -0.272547
  20 H :    0.131805
  21 H :    0.123877
  22 H :    0.110264
  23 H :    0.126771
  24 H :    0.092176
  25 H :    0.147045
  26 H :    0.126937
  27 H :    0.119357
  28 H :    0.197917
  29 H :    0.196985
  30 H :    0.162877
  31 H :    0.170700
  32 H :    0.163020
  33 H :    0.131508
  34 H :    0.240969
  35 H :    0.174782
Sum of atomic charges:   -0.0000000

LOEWDIN ATOMIC CHARGES
----------------------
   0 C :    0.104529
   1 C :   -0.015063
   2 O :    0.285428
   3 C :   -0.419125
   4 O :    0.124287
   5 C :   -0.087625
   6 C :   -0.079955
   7 C :    0.127219
   8 N :    0.404323
   9 C :   -0.460257
  10 S :   -0.034789
  11 N :    0.398002
  12 C :   -0.044768
  13 C :   -0.043068
  14 C :    0.020031
  15 C :    0.041696
  16 C :   -0.002031
  17 C :   -0.194115
  18 O :    0.394509
  19 C :    0.029630
  20 H :   -0.018669
  21 H :   -0.020928
  22 H :   -0.034980
  23 H :   -0.021061
  24 H :   -0.035518
  25 H :   -0.006483
  26 H :   -0.013263
  27 H :   -0.018077
  28 H :   -0.057586
  29 H :   -0.063146
  30 H :   -0.002603
  31 H :   -0.022540
  32 H :   -0.019334
  33 H :   -0.035253
  34 H :   -0.153798
  35 H :   -0.025619

  Mayer bond orders larger than 0.100000
B(  0-C ,  1-C ) :   0.9627 B(  0-C , 20-H ) :   0.9661 B(  0-C , 21-H ) :   0.9756
B(  0-C , 22-H ) :   0.9702 B(  1-C ,  2-O ) :   0.8974 B(  1-C , 23-H ) :   0.9815
B(  1-C , 24-H ) :   0.9767 B(  2-O ,  3-C ) :   1.1431 B(  3-C ,  4-O ) :   2.0683
B(  3-C ,  5-C ) :   0.9601 B(  5-C ,  6-C ) :   1.6735 B(  5-C , 12-C ) :   0.9617
B(  6-C ,  7-C ) :   0.9431 B(  6-C ,  8-N ) :   1.1233 B(  7-C , 25-H ) :   0.9699
B(  7-C , 26-H ) :   0.9826 B(  7-C , 27-H ) :   0.9649 B(  8-N ,  9-C ) :   1.1842
B(  8-N , 28-H ) :   0.9504 B(  9-C , 10-S ) :   1.6144 B(  9-C , 11-N ) :   1.2957
B( 11-N , 12-C ) :   0.9883 B( 11-N , 29-H ) :   0.9511 B( 12-C , 13-C ) :   0.9462
B( 12-C , 30-H ) :   0.9980 B( 13-C , 14-C ) :   1.3894 B( 13-C , 19-C ) :   1.3451
B( 14-C , 15-C ) :   1.3967 B( 14-C , 31-H ) :   0.9586 B( 15-C , 16-C ) :   1.3610
B( 15-C , 32-H ) :   0.9706 B( 16-C , 17-C ) :   1.3299 B( 16-C , 33-H ) :   0.9849
B( 17-C , 18-O ) :   1.1102 B( 17-C , 19-C ) :   1.3734 B( 18-O , 34-H ) :   0.9799
B( 19-C , 35-H ) :   0.9577

MP2 TOTAL ENERGY:    -1274.329740130 Eh
FINAL SINGLE POINT ENERGY     -1274.329740130257

DIPOLE MOMENT
-------------
                                X             Y             Z
Electronic contribution:      9.68662       6.50190       6.14835
Nuclear contribution   :    -11.29869      -7.49844      -6.68898
                        -----------------------------------------
Total Dipole Moment    :     -1.61207      -0.99655      -0.54063
                        -----------------------------------------
Magnitude (a.u.)       :      1.97082
Magnitude (Debye)      :      5.00943

Rotational constants in cm-1:     0.011419     0.009833     0.006827
Rotational constants in MHz :   342.346274   294.797961   204.655864

                             ****ORCA TERMINATED NORMALLY****
TOTAL RUN TIME: 0 days 2 hours 17 minutes 33 seconds 819 msec
