                         Program Version 5.0.0 -  RELEASE  -
|  1> ! ri-mp2 cc-pvtz cc-pvtz/c TightSCF NoKeepInts
|  2>
|  3> %scf
|  4>   MaxCore 4096
|  5> end
|  6> *xyz  0  1
|  7>     C       14.1965152   15.0316446   16.3318695
|  8>     C       15.4482142   15.5409102   17.0642990
|  9>     O       16.5676497   15.3457915   16.1772745
| 10>     C       17.8342211   15.7759184   16.4793318
| 11>     O       18.7891251   15.0532523   16.2620405
| 12>     C       17.9364127   16.9325192   17.4207115
| 13>     C       17.3619046   18.1333498   17.1739939
| 14>     C       16.5717674   18.5330076   15.9453480
| 15>     N       17.5425665   19.1876486   18.0718302
| 16>     C       18.3644781   19.1454154   19.1682874
| 17>     S       18.5720544   20.4607451   20.1483569
| 18>     N       19.0030331   17.9545825   19.4157558
| 19>     C       18.7947466   16.7016489   18.6625528
| 20>     C       18.1657790   15.6230773   19.5388181
| 21>     C       18.6537631   14.3044010   19.4963160
| 22>     C       18.0603136   13.2957471   20.2733181
| 23>     C       16.9658605   13.6062542   21.0980922
| 24>     C       16.4716776   14.9167804   21.1377224
| 25>     O       15.4048436   15.2172736   21.9198840
| 26>     C       17.0636306   15.9189661   20.3625235
| 27>     H       13.3091901   15.1317393   16.9687515
| 28>     H       14.3103752   13.9730167   16.0660222
| 29>     H       14.0267075   15.6025986   15.4106314
| 30>     H       15.2982533   16.5921620   17.3295900
| 31>     H       15.5981168   14.9669063   17.9889053
| 32>     H       16.6404909   17.7866056   15.1444181
| 33>     H       16.9480831   19.4753509   15.5271755
| 34>     H       15.5100496   18.6707838   16.1834181
| 35>     H       17.0951107   20.0745779   17.9001790
| 36>     H       19.5866831   17.9473500   20.2428591
| 37>     H       19.7796118   16.3431016   18.3280013
| 38>     H       19.4873356   14.0566711   18.8422422
| 39>     H       18.4451321   12.2782377   20.2272891
| 40>     H       16.5027354   12.8287247   21.6967466
| 41>     H       15.1785448   14.4194125   22.4218625
| 42>     H       16.6620234   16.9258273   20.4075819
| 43> *
| 44>
| 45>                          ****END OF INPUT****

CARTESIAN COORDINATES (ANGSTROEM)
---------------------------------
  C     14.196515   15.031645   16.331869
  C     15.448214   15.540910   17.064299
  O     16.567650   15.345792   16.177274
  C     17.834221   15.775918   16.479332
  O     18.789125   15.053252   16.262041
  C     17.936413   16.932519   17.420711
  C     17.361905   18.133350   17.173994
  C     16.571767   18.533008   15.945348
  N     17.542566   19.187649   18.071830
  C     18.364478   19.145415   19.168287
  S     18.572054   20.460745   20.148357
  N     19.003033   17.954583   19.415756
  C     18.794747   16.701649   18.662553
  C     18.165779   15.623077   19.538818
  C     18.653763   14.304401   19.496316
  C     18.060314   13.295747   20.273318
  C     16.965860   13.606254   21.098092
  C     16.471678   14.916780   21.137722
  O     15.404844   15.217274   21.919884
  C     17.063631   15.918966   20.362523
  H     13.309190   15.131739   16.968751
  H     14.310375   13.973017   16.066022
  H     14.026708   15.602599   15.410631
  H     15.298253   16.592162   17.329590
  H     15.598117   14.966906   17.988905
  H     16.640491   17.786606   15.144418
  H     16.948083   19.475351   15.527175
  H     15.510050   18.670784   16.183418
  H     17.095111   20.074578   17.900179
  H     19.586683   17.947350   20.242859
  H     19.779612   16.343102   18.328001
  H     19.487336   14.056671   18.842242
  H     18.445132   12.278238   20.227289
  H     16.502735   12.828725   21.696747
  H     15.178545   14.419412   22.421862
  H     16.662023   16.925827   20.407582

 Total Charge           Charge          ....    0
 Multiplicity           Mult            ....    1
 Number of Electrons    NEL             ....  154
 Basis Dimension        Dim             ....  828

ORBITAL ENERGIES
----------------

  NO   OCC          E(Eh)            E(eV)
   0   2.0000     -91.890648     -2500.4717
   1   2.0000     -20.600001      -560.5545
   2   2.0000     -20.597532      -560.4873
   3   2.0000     -20.551678      -559.2396
   4   2.0000     -15.628468      -425.2722
   5   2.0000     -15.611642      -424.8144
   6   2.0000     -11.396775      -310.1220
   7   2.0000     -11.387274      -309.8635
   8   2.0000     -11.331829      -308.3548
   9   2.0000     -11.316712      -307.9434
  10   2.0000     -11.313795      -307.8640
  11   2.0000     -11.302821      -307.5654
  12   2.0000     -11.268448      -306.6301
  13   2.0000     -11.264088      -306.5114
  14   2.0000     -11.263011      -306.4821
  15   2.0000     -11.256824      -306.3138
  16   2.0000     -11.246338      -306.0284
  17   2.0000     -11.242135      -305.9140
  18   2.0000     -11.239323      -305.8375
  19   2.0000     -11.233880      -305.6894
  20   2.0000      -8.895752      -242.0657
  21   2.0000      -6.577336      -178.9784
  22   2.0000      -6.575315      -178.9234
  23   2.0000      -6.574736      -178.9077
  24   2.0000      -1.448365       -39.4120
  25   2.0000      -1.419831       -38.6356
  26   2.0000      -1.359816       -37.0025
  27   2.0000      -1.341158       -36.4948
  28   2.0000      -1.240432       -33.7539
  29   2.0000      -1.161473       -31.6053
  30   2.0000      -1.125745       -30.6331
  31   2.0000      -1.048988       -28.5444
  32   2.0000      -1.040142       -28.3037
  33   2.0000      -1.018831       -27.7238
  34   2.0000      -1.005166       -27.3520
  35   2.0000      -0.989635       -26.9293
  36   2.0000      -0.927900       -25.2495
  37   2.0000      -0.879936       -23.9443
  38   2.0000      -0.855532       -23.2802
  39   2.0000      -0.842803       -22.9338
  40   2.0000      -0.837373       -22.7861
  41   2.0000      -0.836378       -22.7590
  42   2.0000      -0.757630       -20.6162
  43   2.0000      -0.739923       -20.1343
  44   2.0000      -0.732220       -19.9247
  45   2.0000      -0.697553       -18.9814
  46   2.0000      -0.688281       -18.7291
  47   2.0000      -0.682485       -18.5714
  48   2.0000      -0.676799       -18.4166
  49   2.0000      -0.664159       -18.0727
  50   2.0000      -0.652967       -17.7681
  51   2.0000      -0.648961       -17.6591
  52   2.0000      -0.640882       -17.4393
  53   2.0000      -0.611972       -16.6526
  54   2.0000      -0.608145       -16.5485
  55   2.0000      -0.604015       -16.4361
  56   2.0000      -0.602260       -16.3883
  57   2.0000      -0.586584       -15.9618
  58   2.0000      -0.578165       -15.7327
  59   2.0000      -0.568057       -15.4576
  60   2.0000      -0.561098       -15.2682
  61   2.0000      -0.558043       -15.1851
  62   2.0000      -0.545577       -14.8459
  63   2.0000      -0.527004       -14.3405
  64   2.0000      -0.524779       -14.2800
  65   2.0000      -0.516023       -14.0417
  66   2.0000      -0.502675       -13.6785
  67   2.0000      -0.501254       -13.6398
  68   2.0000      -0.490467       -13.3463
  69   2.0000      -0.469388       -12.7727
  70   2.0000      -0.457484       -12.4488
  71   2.0000      -0.450239       -12.2516
  72   2.0000      -0.357834        -9.7372
  73   2.0000      -0.351920        -9.5762
  74   2.0000      -0.330219        -8.9857
  75   2.0000      -0.324701        -8.8356
  76   2.0000      -0.318914        -8.6781
  77   0.0000       0.080470         2.1897
  78   0.0000       0.104415         2.8413
  79   0.0000       0.113378         3.0852
  80   0.0000       0.128605         3.4995
  81   0.0000       0.131579         3.5805

MULLIKEN ATOMIC CHARGES
-----------------------
   0 C :   -0.259839
   1 C :    0.017410
   2 O :   -0.321089
   3 C :    0.409130
   4 O :   -0.380465
   5 C :   -0.198314
   6 C :    0.134042
   7 C :   -0.319434
   8 N :   -0.132642
   9 C :    0.202338
  10 S :   -0.439386
  11 N :   -0.210441
  12 C :    0.063137
  13 C :    0.024383
  14 C :   -0.187922
  15 C :   -0.132614
  16 C :   -0.276137
  17 C :    0.319165
  18 O :   -0.359024
  19 C :   -0.281358
  20 H :    0.090726
  21 H :    0.108011
  22 H :    0.094350
  23 H :    0.088420
  24 H :    0.122223
  25 H :    0.133334
  26 H :    0.135527
  27 H :    0.119617
  28 H :    0.196578
  29 H :    0.197253
  30 H :    0.163051
  31 H :    0.168039
  32 H :    0.163783
  33 H :    0.132828
  34 H :    0.241782
  35 H :    0.173537
Sum of atomic charges:   -0.0000000

LOEWDIN ATOMIC CHARGES
----------------------
   0 C :    0.111254
   1 C :   -0.022472
   2 O :    0.300719
   3 C :   -0.415923
   4 O :    0.126927
   5 C :   -0.085367
   6 C :   -0.097513
   7 C :    0.125862
   8 N :    0.402108
   9 C :   -0.456375
  10 S :   -0.036391
  11 N :    0.397160
  12 C :   -0.044922
  13 C :   -0.044674
  14 C :    0.021893
  15 C :    0.044908
  16 C :   -0.000702
  17 C :   -0.195209
  18 O :    0.394468
  19 C :    0.027685
  20 H :   -0.024424
  21 H :   -0.022687
  22 H :   -0.028294
  23 H :   -0.039726
  24 H :   -0.026838
  25 H :   -0.007539
  26 H :   -0.010861
  27 H :   -0.017305
  28 H :   -0.057289
  29 H :   -0.063639
  30 H :   -0.002699
  31 H :   -0.021886
  32 H :   -0.018474
  33 H :   -0.034531
  34 H :   -0.152888
  35 H :   -0.024355

  Mayer bond orders larger than 0.100000
B(  0-C ,  1-C ) :   0.9818 B(  0-C , 20-H ) :   0.9766 B(  0-C , 21-H ) :   0.9789
B(  0-C , 22-H ) :   0.9784 B(  1-C ,  2-O ) :   0.9025 B(  1-C , 23-H ) :   0.9665
B(  1-C , 24-H ) :   0.9713 B(  2-O ,  3-C ) :   1.1790 B(  3-C ,  4-O ) :   2.0997
B(  3-C ,  5-C ) :   0.9269 B(  5-C ,  6-C ) :   1.6836 B(  5-C , 12-C ) :   0.9621
B(  6-C ,  7-C ) :   0.9435 B(  6-C ,  8-N ) :   1.1204 B(  7-C , 25-H ) :   0.9772
B(  7-C , 26-H ) :   0.9729 B(  7-C , 27-H ) :   0.9650 B(  8-N ,  9-C ) :   1.1908
B(  8-N , 28-H ) :   0.9517 B(  9-C , 10-S ) :   1.6127 B(  9-C , 11-N ) :   1.2905
B( 11-N , 12-C ) :   0.9984 B( 11-N , 29-H ) :   0.9498 B( 12-C , 13-C ) :   0.9420
B( 12-C , 30-H ) :   0.9976 B( 13-C , 14-C ) :   1.3869 B( 13-C , 19-C ) :   1.3513
B( 14-C , 15-C ) :   1.3953 B( 14-C , 31-H ) :   0.9605 B( 15-C , 16-C ) :   1.3644
B( 15-C , 32-H ) :   0.9701 B( 16-C , 17-C ) :   1.3276 B( 16-C , 33-H ) :   0.9843
B( 17-C , 18-O ) :   1.1100 B( 17-C , 19-C ) :   1.3680 B( 18-O , 34-H ) :   0.9790
B( 19-C , 35-H ) :   0.9586

MP2 TOTAL ENERGY:    -1274.334529990 Eh
FINAL SINGLE POINT ENERGY     -1274.334529990149

DIPOLE MOMENT
-------------
                                X             Y             Z
Electronic contribution:     11.90462       6.95277       7.35529
Nuclear contribution   :    -13.42315      -7.95016      -7.61524
                        -----------------------------------------
Total Dipole Moment    :     -1.51852      -0.99739      -0.25995
                        -----------------------------------------
Magnitude (a.u.)       :      1.83529
Magnitude (Debye)      :      4.66493

Rotational constants in cm-1:     0.011415     0.009192     0.006768
Rotational constants in MHz :   342.223981   275.557415   202.885466

                             ****ORCA TERMINATED NORMALLY****
TOTAL RUN TIME: 0 days 2 hours 9 minutes 32 seconds 28 msec
