                         Program Version 5.0.0 -  RELEASE  -
|  1> ! ri-mp2 cc-pvtz cc-pvtz/c TightSCF NoKeepInts
|  2>
|  3> %scf
|  4>   MaxCore 4096
|  5> end
|  6> *xyz  0  1
|  7>     C       14.2664106   15.0133612   16.3510734
|  8>     C       15.4388863   15.5477672   17.1892964
|  9>     O       16.6517050   15.1159492   16.5426809
| 10>     C       17.8056334   15.8525887   16.4465757
| 11>     O       18.8116278   15.3099203   16.0298964
| 12>     C       17.9261881   16.9719205   17.4241667
| 13>     C       17.4002168   18.1932480   17.1823211
| 14>     C       16.6275975   18.6188589   15.9522624
| 15>     N       17.6021265   19.2301368   18.0951932
| 16>     C       18.3920272   19.1397677   19.2124967
| 17>     S       18.6194426   20.4306820   20.2202951
| 18>     N       18.9806287   17.9223985   19.4577484
| 19>     C       18.7605308   16.6912515   18.6715279
| 20>     C       18.1173399   15.5926195   19.5116755
| 21>     C       18.5419363   14.2591758   19.3676885
| 22>     C       17.9387134   13.2311259   20.1108772
| 23>     C       16.8986489   13.5372605   21.0046837
| 24>     C       16.4675724   14.8629559   21.1459666
| 25>     O       15.4523476   15.1600206   21.9952465
| 26>     C       17.0687527   15.8848037   20.4041160
| 27>     H       13.3079683   15.2949133   16.8039157
| 28>     H       14.3071707   13.9185404   16.2875481
| 29>     H       14.2999036   15.4193533   15.3324392
| 30>     H       15.3507145   16.6368789   17.2391744
| 31>     H       15.3930405   15.1473771   18.2106239
| 32>     H       16.4933064   17.7999086   15.2350266
| 33>     H       17.1563275   19.4222603   15.4232807
| 34>     H       15.6303572   18.9894937   16.2201080
| 35>     H       17.1947674   20.1363382   17.9243980
| 36>     H       19.5425613   17.8817967   20.2988025
| 37>     H       19.7440238   16.3299652   18.3357983
| 38>     H       19.3327843   14.0166023   18.6607141
| 39>     H       18.2735487   12.2027143   19.9855582
| 40>     H       16.4279095   12.7450234   21.5774983
| 41>     H       15.2105842   14.3423596   22.4564203
| 42>     H       16.7136994   16.9026624   20.5269055
| 43> *
| 44>
| 45>                          ****END OF INPUT****

CARTESIAN COORDINATES (ANGSTROEM)
---------------------------------
  C     14.266411   15.013361   16.351073
  C     15.438886   15.547767   17.189296
  O     16.651705   15.115949   16.542681
  C     17.805633   15.852589   16.446576
  O     18.811628   15.309920   16.029896
  C     17.926188   16.971920   17.424167
  C     17.400217   18.193248   17.182321
  C     16.627598   18.618859   15.952262
  N     17.602127   19.230137   18.095193
  C     18.392027   19.139768   19.212497
  S     18.619443   20.430682   20.220295
  N     18.980629   17.922398   19.457748
  C     18.760531   16.691251   18.671528
  C     18.117340   15.592619   19.511675
  C     18.541936   14.259176   19.367688
  C     17.938713   13.231126   20.110877
  C     16.898649   13.537260   21.004684
  C     16.467572   14.862956   21.145967
  O     15.452348   15.160021   21.995247
  C     17.068753   15.884804   20.404116
  H     13.307968   15.294913   16.803916
  H     14.307171   13.918540   16.287548
  H     14.299904   15.419353   15.332439
  H     15.350715   16.636879   17.239174
  H     15.393040   15.147377   18.210624
  H     16.493306   17.799909   15.235027
  H     17.156327   19.422260   15.423281
  H     15.630357   18.989494   16.220108
  H     17.194767   20.136338   17.924398
  H     19.542561   17.881797   20.298803
  H     19.744024   16.329965   18.335798
  H     19.332784   14.016602   18.660714
  H     18.273549   12.202714   19.985558
  H     16.427909   12.745023   21.577498
  H     15.210584   14.342360   22.456420
  H     16.713699   16.902662   20.526906

 Total Charge           Charge          ....    0
 Multiplicity           Mult            ....    1
 Number of Electrons    NEL             ....  154
 Basis Dimension        Dim             ....  828

ORBITAL ENERGIES
----------------

  NO   OCC          E(Eh)            E(eV)
   0   2.0000     -91.889215     -2500.4326
   1   2.0000     -20.602017      -560.6094
   2   2.0000     -20.600287      -560.5623
   3   2.0000     -20.552163      -559.2528
   4   2.0000     -15.625109      -425.1808
   5   2.0000     -15.611745      -424.8172
   6   2.0000     -11.397851      -310.1513
   7   2.0000     -11.386319      -309.8375
   8   2.0000     -11.325477      -308.1819
   9   2.0000     -11.317034      -307.9522
  10   2.0000     -11.316633      -307.9412
  11   2.0000     -11.302026      -307.5438
  12   2.0000     -11.270929      -306.6976
  13   2.0000     -11.264838      -306.5318
  14   2.0000     -11.264118      -306.5122
  15   2.0000     -11.257346      -306.3280
  16   2.0000     -11.246594      -306.0354
  17   2.0000     -11.242379      -305.9207
  18   2.0000     -11.239938      -305.8543
  19   2.0000     -11.233312      -305.6740
  20   2.0000      -8.894343      -242.0274
  21   2.0000      -6.575936      -178.9403
  22   2.0000      -6.573905      -178.8851
  23   2.0000      -6.573335      -178.8695
  24   2.0000      -1.450200       -39.4619
  25   2.0000      -1.420133       -38.6438
  26   2.0000      -1.360381       -37.0179
  27   2.0000      -1.339054       -36.4375
  28   2.0000      -1.239420       -33.7263
  29   2.0000      -1.161793       -31.6140
  30   2.0000      -1.125928       -30.6381
  31   2.0000      -1.049673       -28.5631
  32   2.0000      -1.040783       -28.3212
  33   2.0000      -1.019407       -27.7395
  34   2.0000      -1.005452       -27.3597
  35   2.0000      -0.989214       -26.9179
  36   2.0000      -0.928217       -25.2581
  37   2.0000      -0.883334       -24.0367
  38   2.0000      -0.854845       -23.2615
  39   2.0000      -0.841690       -22.9036
  40   2.0000      -0.837555       -22.7910
  41   2.0000      -0.836962       -22.7749
  42   2.0000      -0.757304       -20.6073
  43   2.0000      -0.738476       -20.0949
  44   2.0000      -0.732552       -19.9338
  45   2.0000      -0.697709       -18.9856
  46   2.0000      -0.688684       -18.7400
  47   2.0000      -0.680031       -18.5046
  48   2.0000      -0.678010       -18.4496
  49   2.0000      -0.667645       -18.1676
  50   2.0000      -0.652783       -17.7631
  51   2.0000      -0.649944       -17.6859
  52   2.0000      -0.639456       -17.4005
  53   2.0000      -0.612601       -16.6697
  54   2.0000      -0.608360       -16.5543
  55   2.0000      -0.604233       -16.4420
  56   2.0000      -0.596255       -16.2249
  57   2.0000      -0.588034       -16.0012
  58   2.0000      -0.578419       -15.7396
  59   2.0000      -0.570791       -15.5320
  60   2.0000      -0.563491       -15.3334
  61   2.0000      -0.562293       -15.3008
  62   2.0000      -0.548349       -14.9213
  63   2.0000      -0.528442       -14.3796
  64   2.0000      -0.522586       -14.2203
  65   2.0000      -0.514973       -14.0131
  66   2.0000      -0.505908       -13.7665
  67   2.0000      -0.502639       -13.6775
  68   2.0000      -0.487962       -13.2781
  69   2.0000      -0.470098       -12.7920
  70   2.0000      -0.452860       -12.3229
  71   2.0000      -0.450095       -12.2477
  72   2.0000      -0.356553        -9.7023
  73   2.0000      -0.352033        -9.5793
  74   2.0000      -0.329041        -8.9537
  75   2.0000      -0.324874        -8.8403
  76   2.0000      -0.317639        -8.6434
  77   0.0000       0.090589         2.4651
  78   0.0000       0.104197         2.8354
  79   0.0000       0.109848         2.9891
  80   0.0000       0.127118         3.4591
  81   0.0000       0.129278         3.5178

MULLIKEN ATOMIC CHARGES
-----------------------
   0 C :   -0.252706
   1 C :    0.007940
   2 O :   -0.305971
   3 C :    0.380804
   4 O :   -0.377182
   5 C :   -0.158307
   6 C :    0.117259
   7 C :   -0.320606
   8 N :   -0.134681
   9 C :    0.207224
  10 S :   -0.442897
  11 N :   -0.218254
  12 C :    0.062721
  13 C :    0.022867
  14 C :   -0.187512
  15 C :   -0.133298
  16 C :   -0.273606
  17 C :    0.317144
  18 O :   -0.359516
  19 C :   -0.277075
  20 H :    0.089035
  21 H :    0.106806
  22 H :    0.092118
  23 H :    0.090985
  24 H :    0.126307
  25 H :    0.118354
  26 H :    0.143786
  27 H :    0.118386
  28 H :    0.194865
  29 H :    0.199436
  30 H :    0.165897
  31 H :    0.164942
  32 H :    0.163617
  33 H :    0.133068
  34 H :    0.241690
  35 H :    0.176359
Sum of atomic charges:   -0.0000000

LOEWDIN ATOMIC CHARGES
----------------------
   0 C :    0.107892
   1 C :   -0.021477
   2 O :    0.315377
   3 C :   -0.419822
   4 O :    0.127805
   5 C :   -0.079470
   6 C :   -0.112561
   7 C :    0.123086
   8 N :    0.400261
   9 C :   -0.454982
  10 S :   -0.039338
  11 N :    0.397444
  12 C :   -0.043123
  13 C :   -0.042750
  14 C :    0.024013
  15 C :    0.046103
  16 C :   -0.000691
  17 C :   -0.195204
  18 O :    0.394847
  19 C :    0.027478
  20 H :   -0.025961
  21 H :   -0.023556
  22 H :   -0.028884
  23 H :   -0.038530
  24 H :   -0.026526
  25 H :   -0.010015
  26 H :   -0.008543
  27 H :   -0.016704
  28 H :   -0.058451
  29 H :   -0.063783
  30 H :   -0.002172
  31 H :   -0.021941
  32 H :   -0.018256
  33 H :   -0.034522
  34 H :   -0.152835
  35 H :   -0.024210

  Mayer bond orders larger than 0.100000
B(  0-C ,  1-C ) :   0.9826 B(  0-C , 20-H ) :   0.9769 B(  0-C , 21-H ) :   0.9792
B(  0-C , 22-H ) :   0.9775 B(  1-C ,  2-O ) :   0.9081 B(  1-C , 23-H ) :   0.9669
B(  1-C , 24-H ) :   0.9672 B(  2-O ,  3-C ) :   1.1671 B(  3-C ,  4-O ) :   2.0982
B(  3-C ,  5-C ) :   0.9192 B(  5-C ,  6-C ) :   1.7042 B(  5-C , 12-C ) :   0.9623
B(  6-C ,  7-C ) :   0.9451 B(  6-C ,  8-N ) :   1.1086 B(  7-C , 25-H ) :   0.9822
B(  7-C , 26-H ) :   0.9673 B(  7-C , 27-H ) :   0.9679 B(  8-N ,  9-C ) :   1.1993
B(  8-N , 28-H ) :   0.9530 B(  9-C , 10-S ) :   1.6087 B(  9-C , 11-N ) :   1.2855
B( 11-N , 12-C ) :   0.9950 B( 11-N , 29-H ) :   0.9479 B( 12-C , 13-C ) :   0.9460
B( 12-C , 30-H ) :   0.9979 B( 13-C , 14-C ) :   1.3854 B( 13-C , 19-C ) :   1.3456
B( 14-C , 15-C ) :   1.3972 B( 14-C , 31-H ) :   0.9630 B( 15-C , 16-C ) :   1.3628
B( 15-C , 32-H ) :   0.9700 B( 16-C , 17-C ) :   1.3287 B( 16-C , 33-H ) :   0.9843
B( 17-C , 18-O ) :   1.1079 B( 17-C , 19-C ) :   1.3660 B( 18-O , 34-H ) :   0.9790
B( 19-C , 35-H ) :   0.9587

MP2 TOTAL ENERGY:    -1274.327370759 Eh
FINAL SINGLE POINT ENERGY     -1274.327370758871

DIPOLE MOMENT
-------------
                                X             Y             Z
Electronic contribution:     11.85900       6.69624       7.64235
Nuclear contribution   :    -13.50598      -7.74335      -7.98945
                        -----------------------------------------
Total Dipole Moment    :     -1.64698      -1.04711      -0.34711
                        -----------------------------------------
Magnitude (a.u.)       :      1.98229
Magnitude (Debye)      :      5.03858

Rotational constants in cm-1:     0.011726     0.009127     0.006730
Rotational constants in MHz :   351.534758   273.618838   201.756200

                             ****ORCA TERMINATED NORMALLY****
TOTAL RUN TIME: 0 days 2 hours 7 minutes 4 seconds 859 msec
