                         Program Version 5.0.0 -  RELEASE  -
|  1> ! ri-mp2 cc-pvtz cc-pvtz/c TightSCF NoKeepInts
|  2>
|  3> %scf
|  4>   MaxCore 4096
|  5> end
|  6> *xyz  0  1
|  7>     C       15.1766142   15.2454453   17.4962183
|  8>     C       15.5239320   15.4368306   16.0067177
|  9>     O       16.9265369   15.2071967   15.7287747
| 10>     C       18.0134866   15.5883035   16.4806184
| 11>     O       18.9868640   14.8590529   16.5329026
| 12>     C       17.9078969   16.7935916   17.3668122
| 13>     C       17.3986873   17.9844136   16.9634735
| 14>     C       16.9112054   18.3702571   15.5827138
| 15>     N       17.4278606   19.0830197   17.8260125
| 16>     C       18.0942105   19.1212863   19.0218855
| 17>     S       18.1624037   20.4976557   19.9356063
| 18>     N       18.7080786   17.9604797   19.4189367
| 19>     C       18.5806521   16.6558635   18.7401092
| 20>     C       17.8704658   15.6364231   19.6297929
| 21>     C       18.2996858   14.2961040   19.6448441
| 22>     C       17.6519176   13.3426640   20.4475664
| 23>     C       16.5643035   13.7306366   21.2475802
| 24>     C       16.1341540   15.0639387   21.2400436
| 25>     O       15.0788105   15.4407516   22.0047401
| 26>     C       16.7812379   16.0113559   20.4403261
| 27>     H       15.7169735   14.3902047   17.9224980
| 28>     H       14.1029586   15.0534571   17.6111656
| 29>     H       15.4064073   16.1431103   18.0788069
| 30>     H       14.9440396   14.7137316   15.4183787
| 31>     H       15.2043024   16.4311639   15.6827489
| 32>     H       17.1258979   17.6019059   14.8307510
| 33>     H       17.4150175   19.2820135   15.2365348
| 34>     H       15.8327927   18.5685070   15.5804570
| 35>     H       17.0044583   19.9523563   17.5415830
| 36>     H       19.1827076   18.0119415   20.3115599
| 37>     H       19.6010339   16.2827614   18.5666903
| 38>     H       19.1355415   13.9882109   19.0199858
| 39>     H       17.9926698   12.3086208   20.4433886
| 40>     H       16.0597235   12.9966087   21.8671106
| 41>     H       14.7994000   14.6663789   22.5161230
| 42>     H       16.4240718   17.0357572   20.4505429
| 43> *
| 44>
| 45>                          ****END OF INPUT****

CARTESIAN COORDINATES (ANGSTROEM)
---------------------------------
  C     15.176614   15.245445   17.496218
  C     15.523932   15.436831   16.006718
  O     16.926537   15.207197   15.728775
  C     18.013487   15.588303   16.480618
  O     18.986864   14.859053   16.532903
  C     17.907897   16.793592   17.366812
  C     17.398687   17.984414   16.963473
  C     16.911205   18.370257   15.582714
  N     17.427861   19.083020   17.826013
  C     18.094210   19.121286   19.021885
  S     18.162404   20.497656   19.935606
  N     18.708079   17.960480   19.418937
  C     18.580652   16.655863   18.740109
  C     17.870466   15.636423   19.629793
  C     18.299686   14.296104   19.644844
  C     17.651918   13.342664   20.447566
  C     16.564304   13.730637   21.247580
  C     16.134154   15.063939   21.240044
  O     15.078810   15.440752   22.004740
  C     16.781238   16.011356   20.440326
  H     15.716973   14.390205   17.922498
  H     14.102959   15.053457   17.611166
  H     15.406407   16.143110   18.078807
  H     14.944040   14.713732   15.418379
  H     15.204302   16.431164   15.682749
  H     17.125898   17.601906   14.830751
  H     17.415018   19.282014   15.236535
  H     15.832793   18.568507   15.580457
  H     17.004458   19.952356   17.541583
  H     19.182708   18.011941   20.311560
  H     19.601034   16.282761   18.566690
  H     19.135541   13.988211   19.019986
  H     17.992670   12.308621   20.443389
  H     16.059724   12.996609   21.867111
  H     14.799400   14.666379   22.516123
  H     16.424072   17.035757   20.450543

 Total Charge           Charge          ....    0
 Multiplicity           Mult            ....    1
 Number of Electrons    NEL             ....  154
 Basis Dimension        Dim             ....  828

ORBITAL ENERGIES
----------------

  NO   OCC          E(Eh)            E(eV)
   0   2.0000     -91.891025     -2500.4819
   1   2.0000     -20.597556      -560.4880
   2   2.0000     -20.597408      -560.4840
   3   2.0000     -20.548893      -559.1638
   4   2.0000     -15.629411      -425.2979
   5   2.0000     -15.611040      -424.7980
   6   2.0000     -11.400307      -310.2181
   7   2.0000     -11.387045      -309.8572
   8   2.0000     -11.335677      -308.4594
   9   2.0000     -11.313924      -307.8675
  10   2.0000     -11.312851      -307.8383
  11   2.0000     -11.309287      -307.7414
  12   2.0000     -11.268892      -306.6422
  13   2.0000     -11.268447      -306.6300
  14   2.0000     -11.261081      -306.4296
  15   2.0000     -11.254151      -306.2410
  16   2.0000     -11.243689      -305.9563
  17   2.0000     -11.239244      -305.8354
  18   2.0000     -11.235639      -305.7373
  19   2.0000     -11.230203      -305.5894
  20   2.0000      -8.896121      -242.0758
  21   2.0000      -6.577707      -178.9885
  22   2.0000      -6.575684      -178.9334
  23   2.0000      -6.575104      -178.9177
  24   2.0000      -1.444625       -39.3103
  25   2.0000      -1.417228       -38.5647
  26   2.0000      -1.357297       -36.9339
  27   2.0000      -1.342596       -36.5339
  28   2.0000      -1.241120       -33.7726
  29   2.0000      -1.158526       -31.5251
  30   2.0000      -1.124689       -30.6044
  31   2.0000      -1.047004       -28.4904
  32   2.0000      -1.038226       -28.2516
  33   2.0000      -1.016958       -27.6728
  34   2.0000      -1.005959       -27.3735
  35   2.0000      -0.989918       -26.9370
  36   2.0000      -0.927894       -25.2493
  37   2.0000      -0.898118       -24.4390
  38   2.0000      -0.855284       -23.2735
  39   2.0000      -0.840968       -22.8839
  40   2.0000      -0.834204       -22.6998
  41   2.0000      -0.828541       -22.5458
  42   2.0000      -0.745331       -20.2815
  43   2.0000      -0.738001       -20.0820
  44   2.0000      -0.730280       -19.8719
  45   2.0000      -0.695228       -18.9181
  46   2.0000      -0.686704       -18.6862
  47   2.0000      -0.680665       -18.5218
  48   2.0000      -0.675285       -18.3754
  49   2.0000      -0.659974       -17.9588
  50   2.0000      -0.657227       -17.8840
  51   2.0000      -0.651202       -17.7201
  52   2.0000      -0.639835       -17.4108
  53   2.0000      -0.622438       -16.9374
  54   2.0000      -0.609981       -16.5984
  55   2.0000      -0.605472       -16.4757
  56   2.0000      -0.601568       -16.3695
  57   2.0000      -0.588411       -16.0115
  58   2.0000      -0.576415       -15.6851
  59   2.0000      -0.566116       -15.4048
  60   2.0000      -0.565611       -15.3910
  61   2.0000      -0.552657       -15.0386
  62   2.0000      -0.540145       -14.6981
  63   2.0000      -0.535156       -14.5623
  64   2.0000      -0.521272       -14.1845
  65   2.0000      -0.512993       -13.9593
  66   2.0000      -0.501064       -13.6346
  67   2.0000      -0.497382       -13.5344
  68   2.0000      -0.482961       -13.1420
  69   2.0000      -0.469646       -12.7797
  70   2.0000      -0.456759       -12.4290
  71   2.0000      -0.449674       -12.2363
  72   2.0000      -0.358525        -9.7560
  73   2.0000      -0.348206        -9.4752
  74   2.0000      -0.330517        -8.9938
  75   2.0000      -0.322717        -8.7816
  76   2.0000      -0.319539        -8.6951
  77   0.0000       0.078293         2.1305
  78   0.0000       0.107440         2.9236
  79   0.0000       0.114385         3.1126
  80   0.0000       0.130925         3.5626
  81   0.0000       0.131850         3.5878

MULLIKEN ATOMIC CHARGES
-----------------------
   0 C :   -0.336252
   1 C :    0.029239
   2 O :   -0.333321
   3 C :    0.437212
   4 O :   -0.386880
   5 C :   -0.246256
   6 C :    0.179184
   7 C :   -0.340264
   8 N :   -0.136344
   9 C :    0.197736
  10 S :   -0.438947
  11 N :   -0.219877
  12 C :    0.080814
  13 C :    0.022654
  14 C :   -0.212233
  15 C :   -0.135153
  16 C :   -0.278053
  17 C :    0.322373
  18 O :   -0.358184
  19 C :   -0.273501
  20 H :    0.130029
  21 H :    0.116803
  22 H :    0.110305
  23 H :    0.129633
  24 H :    0.086084
  25 H :    0.137608
  26 H :    0.139007
  27 H :    0.120784
  28 H :    0.197332
  29 H :    0.200979
  30 H :    0.165640
  31 H :    0.176323
  32 H :    0.164123
  33 H :    0.131727
  34 H :    0.240982
  35 H :    0.178696
Sum of atomic charges:    0.0000000

LOEWDIN ATOMIC CHARGES
----------------------
   0 C :    0.104248
   1 C :   -0.018017
   2 O :    0.293086
   3 C :   -0.414596
   4 O :    0.122670
   5 C :   -0.081463
   6 C :   -0.089762
   7 C :    0.122661
   8 N :    0.403303
   9 C :   -0.459531
  10 S :   -0.036190
  11 N :    0.398119
  12 C :   -0.043150
  13 C :   -0.042597
  14 C :    0.019762
  15 C :    0.042138
  16 C :   -0.001550
  17 C :   -0.193189
  18 O :    0.395054
  19 C :    0.028586
  20 H :   -0.018178
  21 H :   -0.023857
  22 H :   -0.035059
  23 H :   -0.019068
  24 H :   -0.039379
  25 H :   -0.007745
  26 H :   -0.009389
  27 H :   -0.019230
  28 H :   -0.056830
  29 H :   -0.062994
  30 H :   -0.002189
  31 H :   -0.022351
  32 H :   -0.018959
  33 H :   -0.035067
  34 H :   -0.153593
  35 H :   -0.025696

  Mayer bond orders larger than 0.100000
B(  0-C ,  1-C ) :   0.9552 B(  0-C , 20-H ) :   0.9668 B(  0-C , 21-H ) :   0.9769
B(  0-C , 22-H ) :   0.9724 B(  1-C ,  2-O ) :   0.9030 B(  1-C , 23-H ) :   0.9824
B(  1-C , 24-H ) :   0.9734 B(  2-O ,  3-C ) :   1.1760 B(  3-C ,  4-O ) :   2.0753
B(  3-C ,  5-C ) :   0.9373 B(  5-C ,  6-C ) :   1.6778 B(  5-C , 12-C ) :   0.9531
B(  6-C ,  7-C ) :   0.9442 B(  6-C ,  8-N ) :   1.1168 B(  7-C , 25-H ) :   0.9770
B(  7-C , 26-H ) :   0.9708 B(  7-C , 27-H ) :   0.9660 B(  8-N ,  9-C ) :   1.1917
B(  8-N , 28-H ) :   0.9519 B(  9-C , 10-S ) :   1.6112 B(  9-C , 11-N ) :   1.2919
B( 11-N , 12-C ) :   0.9888 B( 11-N , 29-H ) :   0.9489 B( 12-C , 13-C ) :   0.9512
B( 12-C , 30-H ) :   0.9960 B( 13-C , 14-C ) :   1.3901 B( 13-C , 19-C ) :   1.3379
B( 14-C , 15-C ) :   1.3993 B( 14-C , 31-H ) :   0.9574 B( 15-C , 16-C ) :   1.3591
B( 15-C , 32-H ) :   0.9702 B( 16-C , 17-C ) :   1.3312 B( 16-C , 33-H ) :   0.9848
B( 17-C , 18-O ) :   1.1096 B( 17-C , 19-C ) :   1.3670 B( 18-O , 34-H ) :   0.9797
B( 19-C , 35-H ) :   0.9571

MP2 TOTAL ENERGY:    -1274.332002358 Eh
FINAL SINGLE POINT ENERGY     -1274.332002357574

DIPOLE MOMENT
-------------
                                X             Y             Z
Electronic contribution:      9.07927       6.46674       6.16889
Nuclear contribution   :    -10.63214      -7.42694      -6.75786
                        -----------------------------------------
Total Dipole Moment    :     -1.55287      -0.96020      -0.58898
                        -----------------------------------------
Magnitude (a.u.)       :      1.91840
Magnitude (Debye)      :      4.87619

Rotational constants in cm-1:     0.011649     0.009662     0.006748
Rotational constants in MHz :   349.234513   289.660888   202.304856

                             ****ORCA TERMINATED NORMALLY****
TOTAL RUN TIME: 0 days 2 hours 14 minutes 12 seconds 713 msec
