                         Program Version 5.0.0 -  RELEASE  -
|  1> ! ri-mp2 cc-pvtz cc-pvtz/c TightSCF NoKeepInts
|  2>
|  3> %scf
|  4>   MaxCore 4096
|  5> end
|  6> *xyz  0  1
|  7>     C       16.1371756   13.1134698   17.2771017
|  8>     C       15.8434236   14.4513139   16.5773867
|  9>     O       17.0939428   15.0816712   16.2485889
| 10>     C       17.0743937   16.4333551   16.0633297
| 11>     O       16.3188183   16.9140801   15.2374854
| 12>     C       17.6577527   17.2222604   17.2051752
| 13>     C       17.5897645   18.5787086   17.2580535
| 14>     C       16.9066038   19.5077924   16.2768889
| 15>     N       18.2548671   19.2720488   18.2743336
| 16>     C       19.1801129   18.7127299   19.1150079
| 17>     S       20.0883338   19.6238805   20.1548281
| 18>     N       19.3335651   17.3526281   19.0281398
| 19>     C       18.4128874   16.4564463   18.3054650
| 20>     C       17.5027867   15.7772167   19.3267422
| 21>     C       17.9889027   14.6738198   20.0541977
| 22>     C       17.1873837   14.0385797   21.0175088
| 23>     C       15.8890487   14.5148480   21.2639849
| 24>     C       15.4070491   15.6244450   20.5573178
| 25>     O       14.1564756   16.0921001   20.7975483
| 26>     C       16.2072586   16.2566257   19.6006452
| 27>     H       16.6982591   12.4471384   16.6104176
| 28>     H       15.2012934   12.6128222   17.5529083
| 29>     H       16.7236985   13.2604105   18.1877995
| 30>     H       15.2516147   14.2883116   15.6667316
| 31>     H       15.2592559   15.0871566   17.2560713
| 32>     H       17.3112297   19.3678135   15.2663317
| 33>     H       17.0245996   20.5667748   16.5348404
| 34>     H       15.8306434   19.2964797   16.2303247
| 35>     H       18.1609173   20.2730904   18.3383618
| 36>     H       20.0087574   16.9655531   19.6741289
| 37>     H       19.0162636   15.6769027   17.8184978
| 38>     H       18.9935526   14.3036820   19.8678294
| 39>     H       17.5733969   13.1837102   21.5704086
| 40>     H       15.2659302   14.0279407   22.0070885
| 41>     H       13.7860635   15.5721981   21.5270196
| 42>     H       15.8109780   17.1239955   19.0855112
| 43> *
| 44>
| 45>                          ****END OF INPUT****

CARTESIAN COORDINATES (ANGSTROEM)
---------------------------------
  C     16.137176   13.113470   17.277102
  C     15.843424   14.451314   16.577387
  O     17.093943   15.081671   16.248589
  C     17.074394   16.433355   16.063330
  O     16.318818   16.914080   15.237485
  C     17.657753   17.222260   17.205175
  C     17.589764   18.578709   17.258053
  C     16.906604   19.507792   16.276889
  N     18.254867   19.272049   18.274334
  C     19.180113   18.712730   19.115008
  S     20.088334   19.623880   20.154828
  N     19.333565   17.352628   19.028140
  C     18.412887   16.456446   18.305465
  C     17.502787   15.777217   19.326742
  C     17.988903   14.673820   20.054198
  C     17.187384   14.038580   21.017509
  C     15.889049   14.514848   21.263985
  C     15.407049   15.624445   20.557318
  O     14.156476   16.092100   20.797548
  C     16.207259   16.256626   19.600645
  H     16.698259   12.447138   16.610418
  H     15.201293   12.612822   17.552908
  H     16.723699   13.260410   18.187800
  H     15.251615   14.288312   15.666732
  H     15.259256   15.087157   17.256071
  H     17.311230   19.367814   15.266332
  H     17.024600   20.566775   16.534840
  H     15.830643   19.296480   16.230325
  H     18.160917   20.273090   18.338362
  H     20.008757   16.965553   19.674129
  H     19.016264   15.676903   17.818498
  H     18.993553   14.303682   19.867829
  H     17.573397   13.183710   21.570409
  H     15.265930   14.027941   22.007088
  H     13.786063   15.572198   21.527020
  H     15.810978   17.123995   19.085511

 Total Charge           Charge          ....    0
 Multiplicity           Mult            ....    1
 Number of Electrons    NEL             ....  154
 Basis Dimension        Dim             ....  828

ORBITAL ENERGIES
----------------

  NO   OCC          E(Eh)            E(eV)
   0   2.0000     -91.890656     -2500.4719
   1   2.0000     -20.602961      -560.6351
   2   2.0000     -20.584436      -560.1310
   3   2.0000     -20.545364      -559.0678
   4   2.0000     -15.631803      -425.3630
   5   2.0000     -15.609561      -424.7577
   6   2.0000     -11.392245      -309.9987
   7   2.0000     -11.385293      -309.8096
   8   2.0000     -11.338783      -308.5440
   9   2.0000     -11.320116      -308.0360
  10   2.0000     -11.312317      -307.8238
  11   2.0000     -11.294067      -307.3272
  12   2.0000     -11.266370      -306.5735
  13   2.0000     -11.261505      -306.4411
  14   2.0000     -11.260191      -306.4054
  15   2.0000     -11.253857      -306.2330
  16   2.0000     -11.248012      -306.0740
  17   2.0000     -11.243590      -305.9536
  18   2.0000     -11.243424      -305.9491
  19   2.0000     -11.222502      -305.3798
  20   2.0000      -8.895681      -242.0638
  21   2.0000      -6.577249      -178.9760
  22   2.0000      -6.575252      -178.9217
  23   2.0000      -6.574660      -178.9056
  24   2.0000      -1.449042       -39.4304
  25   2.0000      -1.422566       -38.7100
  26   2.0000      -1.351255       -36.7695
  27   2.0000      -1.342762       -36.5384
  28   2.0000      -1.241095       -33.7719
  29   2.0000      -1.162600       -31.6360
  30   2.0000      -1.121770       -30.5249
  31   2.0000      -1.046230       -28.4694
  32   2.0000      -1.033204       -28.1149
  33   2.0000      -1.021534       -27.7974
  34   2.0000      -0.998720       -27.1765
  35   2.0000      -0.985836       -26.8260
  36   2.0000      -0.925888       -25.1947
  37   2.0000      -0.880770       -23.9670
  38   2.0000      -0.850486       -23.1429
  39   2.0000      -0.843675       -22.9576
  40   2.0000      -0.837220       -22.7819
  41   2.0000      -0.824801       -22.4440
  42   2.0000      -0.762078       -20.7372
  43   2.0000      -0.736814       -20.0497
  44   2.0000      -0.722705       -19.6658
  45   2.0000      -0.701394       -19.0859
  46   2.0000      -0.691359       -18.8128
  47   2.0000      -0.677313       -18.4306
  48   2.0000      -0.671580       -18.2746
  49   2.0000      -0.662617       -18.0307
  50   2.0000      -0.649233       -17.6665
  51   2.0000      -0.645072       -17.5533
  52   2.0000      -0.639564       -17.4034
  53   2.0000      -0.614823       -16.7302
  54   2.0000      -0.608458       -16.5570
  55   2.0000      -0.603740       -16.4286
  56   2.0000      -0.600808       -16.3488
  57   2.0000      -0.583332       -15.8733
  58   2.0000      -0.573252       -15.5990
  59   2.0000      -0.567191       -15.4341
  60   2.0000      -0.551457       -15.0059
  61   2.0000      -0.544119       -14.8062
  62   2.0000      -0.538959       -14.6658
  63   2.0000      -0.531832       -14.4719
  64   2.0000      -0.515983       -14.0406
  65   2.0000      -0.510084       -13.8801
  66   2.0000      -0.507695       -13.8151
  67   2.0000      -0.500883       -13.6297
  68   2.0000      -0.486131       -13.2283
  69   2.0000      -0.463028       -12.5996
  70   2.0000      -0.457022       -12.4362
  71   2.0000      -0.442946       -12.0532
  72   2.0000      -0.358697        -9.7606
  73   2.0000      -0.355476        -9.6730
  74   2.0000      -0.331196        -9.0123
  75   2.0000      -0.326233        -8.8772
  76   2.0000      -0.318169        -8.6578
  77   0.0000       0.070576         1.9205
  78   0.0000       0.102149         2.7796
  79   0.0000       0.119645         3.2557
  80   0.0000       0.124591         3.3903
  81   0.0000       0.130400         3.5484

MULLIKEN ATOMIC CHARGES
-----------------------
   0 C :   -0.272728
   1 C :    0.022655
   2 O :   -0.378746
   3 C :    0.498674
   4 O :   -0.412857
   5 C :   -0.290311
   6 C :    0.165892
   7 C :   -0.265750
   8 N :   -0.127173
   9 C :    0.224354
  10 S :   -0.441180
  11 N :   -0.210029
  12 C :    0.060788
  13 C :    0.095945
  14 C :   -0.239745
  15 C :   -0.118864
  16 C :   -0.279287
  17 C :    0.327780
  18 O :   -0.357638
  19 C :   -0.284761
  20 H :    0.099730
  21 H :    0.090624
  22 H :    0.105099
  23 H :    0.124200
  24 H :    0.092677
  25 H :    0.133072
  26 H :    0.095581
  27 H :    0.130775
  28 H :    0.197951
  29 H :    0.191253
  30 H :    0.149873
  31 H :    0.153080
  32 H :    0.162111
  33 H :    0.132859
  34 H :    0.242939
  35 H :    0.181157
Sum of atomic charges:    0.0000000

LOEWDIN ATOMIC CHARGES
----------------------
   0 C :    0.111226
   1 C :   -0.019127
   2 O :    0.287324
   3 C :   -0.420730
   4 O :    0.115360
   5 C :   -0.097964
   6 C :   -0.054779
   7 C :    0.131180
   8 N :    0.409293
   9 C :   -0.453056
  10 S :   -0.034440
  11 N :    0.395565
  12 C :   -0.052645
  13 C :   -0.031843
  14 C :    0.010010
  15 C :    0.044939
  16 C :   -0.001046
  17 C :   -0.189541
  18 O :    0.396069
  19 C :    0.029855
  20 H :   -0.028198
  21 H :   -0.024776
  22 H :   -0.030657
  23 H :   -0.028836
  24 H :   -0.034513
  25 H :   -0.002938
  26 H :   -0.023050
  27 H :   -0.005454
  28 H :   -0.057100
  29 H :   -0.068216
  30 H :   -0.006641
  31 H :   -0.031403
  32 H :   -0.019289
  33 H :   -0.034409
  34 H :   -0.151900
  35 H :   -0.028268

  Mayer bond orders larger than 0.100000
B(  0-C ,  1-C ) :   0.9727 B(  0-C , 20-H ) :   0.9788 B(  0-C , 21-H ) :   0.9777
B(  0-C , 22-H ) :   0.9714 B(  1-C ,  2-O ) :   0.8792 B(  1-C , 23-H ) :   0.9834
B(  1-C , 24-H ) :   0.9692 B(  2-O ,  3-C ) :   1.1187 B(  3-C ,  4-O ) :   2.0046
B(  3-C ,  5-C ) :   1.0632 B(  5-C ,  6-C ) :   1.6392 B(  5-C , 12-C ) :   0.9780
B(  6-C ,  7-C ) :   0.9671 B(  6-C ,  8-N ) :   1.1625 B(  7-C , 25-H ) :   0.9584
B(  7-C , 26-H ) :   0.9902 B(  7-C , 27-H ) :   0.9604 B(  8-N ,  9-C ) :   1.1857
B(  8-N , 28-H ) :   0.9479 B(  9-C , 10-S ) :   1.5983 B(  9-C , 11-N ) :   1.3056
B( 11-N , 12-C ) :   0.9455 B( 11-N , 29-H ) :   0.9523 B( 12-C , 13-C ) :   0.9602
B( 12-C , 30-H ) :   0.9977 B( 13-C , 14-C ) :   1.3500 B( 13-C , 19-C ) :   1.3478
B( 14-C , 15-C ) :   1.4043 B( 14-C , 31-H ) :   0.9738 B( 15-C , 16-C ) :   1.3581
B( 15-C , 32-H ) :   0.9701 B( 16-C , 17-C ) :   1.3401 B( 16-C , 33-H ) :   0.9841
B( 17-C , 18-O ) :   1.1147 B( 17-C , 19-C ) :   1.3525 B( 18-O , 34-H ) :   0.9785
B( 19-C , 35-H ) :   0.9535

MP2 TOTAL ENERGY:    -1274.332961778 Eh
FINAL SINGLE POINT ENERGY     -1274.332961778019

DIPOLE MOMENT
-------------
                                X             Y             Z
Electronic contribution:      8.13203      10.69835       3.80359
Nuclear contribution   :     -9.20278     -12.02414      -3.43584
                        -----------------------------------------
Total Dipole Moment    :     -1.07075      -1.32579       0.36776
                        -----------------------------------------
Magnitude (a.u.)       :      1.74341
Magnitude (Debye)      :      4.43139

Rotational constants in cm-1:     0.012354     0.008923     0.006578
Rotational constants in MHz :   370.350271   267.491891   197.202995

                             ****ORCA TERMINATED NORMALLY****
TOTAL RUN TIME: 0 days 2 hours 6 minutes 54 seconds 564 msec
