                         Program Version 5.0.0 -  RELEASE  -
|  1> ! ri-mp2 cc-pvtz cc-pvtz/c TightSCF NoKeepInts
|  2>
|  3> %scf
|  4>   MaxCore 4096
|  5> end
|  6> *xyz  0  1
|  7>     C       14.2526424   14.9259076   15.0944929
|  8>     C       15.7280547   14.6135232   15.3957606
|  9>     O       16.3013518   15.7888168   15.9927588
| 10>     C       17.3836713   15.6588513   16.8130585
| 11>     O       17.9973712   14.6089274   16.9165600
| 12>     C       17.7026910   16.8692988   17.6459071
| 13>     C       17.1587377   18.1050253   17.4823463
| 14>     C       16.1333880   18.5526161   16.4602462
| 15>     N       17.5926307   19.1654580   18.2855147
| 16>     C       18.6533611   19.1121890   19.1505071
| 17>     S       19.1862244   20.4519314   19.9609435
| 18>     N       19.2502156   17.8877315   19.3087644
| 19>     C       18.7346501   16.6227713   18.7531518
| 20>     C       18.1535308   15.7503102   19.8630634
| 21>     C       18.6101963   14.4318122   20.0453282
| 22>     C       18.0781791   13.6232901   21.0637556
| 23>     C       17.0799085   14.1365835   21.9090640
| 24>     C       16.6195175   15.4479316   21.7289485
| 25>     O       15.6513957   15.9445922   22.5398059
| 26>     C       17.1506804   16.2501203   20.7141304
| 27>     H       13.7158940   15.1834117   16.0161129
| 28>     H       13.7604710   14.0561327   14.6424780
| 29>     H       14.1701078   15.7685659   14.3969159
| 30>     H       15.7713152   13.7636974   16.0913624
| 31>     H       16.2694392   14.3435337   14.4795262
| 32>     H       16.4704066   18.3183832   15.4427652
| 33>     H       15.9409277   19.6316912   16.4955646
| 34>     H       15.1751065   18.0442638   16.6251305
| 35>     H       17.1673295   20.0730052   18.1838727
| 36>     H       20.0096905   17.8668416   19.9770917
| 37>     H       19.5847228   16.0878211   18.3054476
| 38>     H       19.3699812   14.0265228   19.3814705
| 39>     H       18.4358273   12.6029888   21.1896410
| 40>     H       16.6648812   13.5149636   22.6953307
| 41>     H       15.4400913   15.2592829   23.1912841
| 42>     H       16.7824097   17.2632067   20.5958983
| 43> *
| 44>
| 45>                          ****END OF INPUT****

CARTESIAN COORDINATES (ANGSTROEM)
---------------------------------
  C     14.252642   14.925908   15.094493
  C     15.728055   14.613523   15.395761
  O     16.301352   15.788817   15.992759
  C     17.383671   15.658851   16.813059
  O     17.997371   14.608927   16.916560
  C     17.702691   16.869299   17.645907
  C     17.158738   18.105025   17.482346
  C     16.133388   18.552616   16.460246
  N     17.592631   19.165458   18.285515
  C     18.653361   19.112189   19.150507
  S     19.186224   20.451931   19.960943
  N     19.250216   17.887731   19.308764
  C     18.734650   16.622771   18.753152
  C     18.153531   15.750310   19.863063
  C     18.610196   14.431812   20.045328
  C     18.078179   13.623290   21.063756
  C     17.079908   14.136584   21.909064
  C     16.619518   15.447932   21.728949
  O     15.651396   15.944592   22.539806
  C     17.150680   16.250120   20.714130
  H     13.715894   15.183412   16.016113
  H     13.760471   14.056133   14.642478
  H     14.170108   15.768566   14.396916
  H     15.771315   13.763697   16.091362
  H     16.269439   14.343534   14.479526
  H     16.470407   18.318383   15.442765
  H     15.940928   19.631691   16.495565
  H     15.175107   18.044264   16.625131
  H     17.167330   20.073005   18.183873
  H     20.009690   17.866842   19.977092
  H     19.584723   16.087821   18.305448
  H     19.369981   14.026523   19.381470
  H     18.435827   12.602989   21.189641
  H     16.664881   13.514964   22.695331
  H     15.440091   15.259283   23.191284
  H     16.782410   17.263207   20.595898

 Total Charge           Charge          ....    0
 Multiplicity           Mult            ....    1
 Number of Electrons    NEL             ....  154
 Basis Dimension        Dim             ....  828

ORBITAL ENERGIES
----------------

  NO   OCC          E(Eh)            E(eV)
   0   2.0000     -91.888083     -2500.4019
   1   2.0000     -20.605046      -560.6918
   2   2.0000     -20.591025      -560.3103
   3   2.0000     -20.544652      -559.0484
   4   2.0000     -15.628660      -425.2775
   5   2.0000     -15.606519      -424.6750
   6   2.0000     -11.395309      -310.0821
   7   2.0000     -11.382826      -309.7424
   8   2.0000     -11.337219      -308.5014
   9   2.0000     -11.306743      -307.6721
  10   2.0000     -11.304996      -307.6246
  11   2.0000     -11.299522      -307.4756
  12   2.0000     -11.260851      -306.4233
  13   2.0000     -11.259031      -306.3738
  14   2.0000     -11.252688      -306.2012
  15   2.0000     -11.246809      -306.0412
  16   2.0000     -11.236508      -305.7609
  17   2.0000     -11.235362      -305.7297
  18   2.0000     -11.232707      -305.6575
  19   2.0000     -11.229536      -305.5712
  20   2.0000      -8.893142      -241.9947
  21   2.0000      -6.574719      -178.9072
  22   2.0000      -6.572713      -178.8526
  23   2.0000      -6.572127      -178.8367
  24   2.0000      -1.455388       -39.6031
  25   2.0000      -1.410759       -38.3887
  26   2.0000      -1.357106       -36.9287
  27   2.0000      -1.339490       -36.4494
  28   2.0000      -1.236937       -33.6588
  29   2.0000      -1.151454       -31.3327
  30   2.0000      -1.119269       -30.4568
  31   2.0000      -1.045023       -28.4365
  32   2.0000      -1.036919       -28.2160
  33   2.0000      -1.008819       -27.4514
  34   2.0000      -0.997551       -27.1448
  35   2.0000      -0.983185       -26.7538
  36   2.0000      -0.920750       -25.0549
  37   2.0000      -0.889535       -24.2055
  38   2.0000      -0.847017       -23.0485
  39   2.0000      -0.834438       -22.7062
  40   2.0000      -0.827054       -22.5053
  41   2.0000      -0.817040       -22.2328
  42   2.0000      -0.762668       -20.7533
  43   2.0000      -0.735904       -20.0250
  44   2.0000      -0.724256       -19.7080
  45   2.0000      -0.690781       -18.7971
  46   2.0000      -0.684846       -18.6356
  47   2.0000      -0.680420       -18.5152
  48   2.0000      -0.675393       -18.3784
  49   2.0000      -0.660118       -17.9627
  50   2.0000      -0.648643       -17.6505
  51   2.0000      -0.643494       -17.5104
  52   2.0000      -0.634770       -17.2730
  53   2.0000      -0.600796       -16.3485
  54   2.0000      -0.599652       -16.3174
  55   2.0000      -0.594803       -16.1854
  56   2.0000      -0.590459       -16.0672
  57   2.0000      -0.585410       -15.9298
  58   2.0000      -0.572600       -15.5812
  59   2.0000      -0.564066       -15.3490
  60   2.0000      -0.561943       -15.2913
  61   2.0000      -0.556212       -15.1353
  62   2.0000      -0.538867       -14.6633
  63   2.0000      -0.522672       -14.2226
  64   2.0000      -0.516834       -14.0638
  65   2.0000      -0.510531       -13.8923
  66   2.0000      -0.502189       -13.6653
  67   2.0000      -0.495238       -13.4761
  68   2.0000      -0.480645       -13.0790
  69   2.0000      -0.465601       -12.6696
  70   2.0000      -0.458709       -12.4821
  71   2.0000      -0.455619       -12.3980
  72   2.0000      -0.354371        -9.6429
  73   2.0000      -0.343391        -9.3441
  74   2.0000      -0.327157        -8.9024
  75   2.0000      -0.315470        -8.5844
  76   2.0000      -0.313013        -8.5175
  77   0.0000       0.076012         2.0684
  78   0.0000       0.114141         3.1059
  79   0.0000       0.120396         3.2761
  80   0.0000       0.136182         3.7057
  81   0.0000       0.138760         3.7759

MULLIKEN ATOMIC CHARGES
-----------------------
   0 C :   -0.274011
   1 C :    0.039310
   2 O :   -0.333848
   3 C :    0.436814
   4 O :   -0.431443
   5 C :   -0.171688
   6 C :    0.143565
   7 C :   -0.287183
   8 N :   -0.120346
   9 C :    0.201074
  10 S :   -0.438896
  11 N :   -0.196540
  12 C :    0.033534
  13 C :    0.060034
  14 C :   -0.160037
  15 C :   -0.134134
  16 C :   -0.278933
  17 C :    0.311571
  18 O :   -0.359374
  19 C :   -0.273519
  20 H :    0.097675
  21 H :    0.102151
  22 H :    0.093027
  23 H :    0.100869
  24 H :    0.094339
  25 H :    0.127488
  26 H :    0.103988
  27 H :    0.127417
  28 H :    0.196609
  29 H :    0.193454
  30 H :    0.153340
  31 H :    0.152946
  32 H :    0.158813
  33 H :    0.127749
  34 H :    0.240000
  35 H :    0.164184
Sum of atomic charges:   -0.0000000

LOEWDIN ATOMIC CHARGES
----------------------
   0 C :    0.105908
   1 C :   -0.015744
   2 O :    0.308081
   3 C :   -0.415265
   4 O :    0.101846
   5 C :   -0.091441
   6 C :   -0.064497
   7 C :    0.124828
   8 N :    0.404973
   9 C :   -0.459136
  10 S :   -0.035703
  11 N :    0.398045
  12 C :   -0.046719
  13 C :   -0.038664
  14 C :    0.022569
  15 C :    0.040907
  16 C :   -0.002396
  17 C :   -0.192698
  18 O :    0.392837
  19 C :    0.028153
  20 H :   -0.026659
  21 H :   -0.022970
  22 H :   -0.029379
  23 H :   -0.025753
  24 H :   -0.029977
  25 H :   -0.008656
  26 H :   -0.021220
  27 H :   -0.009906
  28 H :   -0.059270
  29 H :   -0.063579
  30 H :   -0.005065
  31 H :   -0.025301
  32 H :   -0.021303
  33 H :   -0.036502
  34 H :   -0.154990
  35 H :   -0.025354

  Mayer bond orders larger than 0.100000
B(  0-C ,  1-C ) :   0.9714 B(  0-C , 20-H ) :   0.9765 B(  0-C , 21-H ) :   0.9788
B(  0-C , 22-H ) :   0.9782 B(  1-C ,  2-O ) :   0.9011 B(  1-C , 23-H ) :   0.9743
B(  1-C , 24-H ) :   0.9810 B(  2-O ,  3-C ) :   1.1776 B(  3-C ,  4-O ) :   1.9741
B(  3-C ,  5-C ) :   1.0641 B(  5-C ,  6-C ) :   1.6400 B(  5-C , 12-C ) :   0.9668
B(  6-C ,  7-C ) :   0.9551 B(  6-C ,  8-N ) :   1.1524 B(  7-C , 25-H ) :   0.9645
B(  7-C , 26-H ) :   0.9921 B(  7-C , 27-H ) :   0.9642 B(  8-N ,  9-C ) :   1.1766
B(  8-N , 28-H ) :   0.9487 B(  9-C , 10-S ) :   1.6111 B(  9-C , 11-N ) :   1.3052
B( 11-N , 12-C ) :   0.9927 B( 11-N , 29-H ) :   0.9521 B( 12-C , 13-C ) :   0.9477
B( 12-C , 30-H ) :   1.0004 B( 13-C , 14-C ) :   1.3754 B( 13-C , 19-C ) :   1.3689
B( 14-C , 15-C ) :   1.3947 B( 14-C , 31-H ) :   0.9651 B( 15-C , 16-C ) :   1.3623
B( 15-C , 32-H ) :   0.9715 B( 16-C , 17-C ) :   1.3316 B( 16-C , 33-H ) :   0.9861
B( 17-C , 18-O ) :   1.1078 B( 17-C , 19-C ) :   1.3796 B( 18-O , 34-H ) :   0.9807
B( 19-C , 35-H ) :   0.9586

MP2 TOTAL ENERGY:    -1274.349779994 Eh
FINAL SINGLE POINT ENERGY     -1274.349779993884

DIPOLE MOMENT
-------------
                                X             Y             Z
Electronic contribution:     11.91583       8.66489      11.11088
Nuclear contribution   :    -13.42202      -9.97871     -12.11030
                        -----------------------------------------
Total Dipole Moment    :     -1.50619      -1.31382      -0.99942
                        -----------------------------------------
Magnitude (a.u.)       :      2.23463
Magnitude (Debye)      :      5.67998

Rotational constants in cm-1:     0.010318     0.008805     0.005843
Rotational constants in MHz :   309.312319   263.957993   175.165015

                             ****ORCA TERMINATED NORMALLY****
TOTAL RUN TIME: 0 days 1 hours 42 minutes 41 seconds 582 msec
