                         Program Version 5.0.0 -  RELEASE  -
|  1> ! ri-mp2 cc-pvtz cc-pvtz/c TightSCF NoKeepInts
|  2>
|  3> %scf
|  4>   MaxCore 4096
|  5> end
|  6> *xyz  0  1
|  7>     C       14.9560871   14.4805245   17.3452694
|  8>     C       15.4920589   15.6566423   16.5118947
|  9>     O       16.7790828   15.2555887   15.9961171
| 10>     C       17.9951175   15.6718821   16.4816992
| 11>     O       18.9477816   14.9152149   16.4442056
| 12>     C       18.0103596   16.8786178   17.3653321
| 13>     C       17.5366758   18.0845721   16.9710062
| 14>     C       16.9436632   18.4356539   15.6225538
| 15>     N       17.6453363   19.1872376   17.8211713
| 16>     C       18.3173208   19.1867326   19.0158472
| 17>     S       18.4583969   20.5555313   19.9325406
| 18>     N       18.8645078   17.9919278   19.4150195
| 19>     C       18.6921277   16.6999889   18.7209522
| 20>     C       17.9137176   15.7094508   19.5806616
| 21>     C       18.3504807   14.3770284   19.6944550
| 22>     C       17.6305530   13.4509441   20.4675202
| 23>     C       16.4605492   13.8587237   21.1304988
| 24>     C       16.0173186   15.1829132   21.0130641
| 25>     O       14.8791217   15.5760156   21.6378367
| 26>     C       16.7354659   16.1027693   20.2423604
| 27>     H       15.6432961   14.2398273   18.1652113
| 28>     H       14.8436132   13.5851233   16.7212453
| 29>     H       13.9782902   14.7249782   17.7775189
| 30>     H       14.8046830   15.8444591   15.6770042
| 31>     H       15.5249891   16.5536852   17.1380336
| 32>     H       17.1477895   17.6664026   14.8674152
| 33>     H       17.3700276   19.3705441   15.2367465
| 34>     H       15.8565685   18.5643390   15.6884577
| 35>     H       17.2646953   20.0772425   17.5397112
| 36>     H       19.3364926   18.0166896   20.3101975
| 37>     H       19.6934733   16.2821650   18.5389969
| 38>     H       19.2453455   14.0541189   19.1663709
| 39>     H       17.9774929   12.4217436   20.5436720
| 40>     H       15.9000402   13.1451930   21.7254800
| 41>     H       14.5622988   14.8255491   22.1631742
| 42>     H       16.3721817   17.1219796   20.1647586
| 43> *
| 44>
| 45>                          ****END OF INPUT****

CARTESIAN COORDINATES (ANGSTROEM)
---------------------------------
  C     14.956087   14.480524   17.345269
  C     15.492059   15.656642   16.511895
  O     16.779083   15.255589   15.996117
  C     17.995117   15.671882   16.481699
  O     18.947782   14.915215   16.444206
  C     18.010360   16.878618   17.365332
  C     17.536676   18.084572   16.971006
  C     16.943663   18.435654   15.622554
  N     17.645336   19.187238   17.821171
  C     18.317321   19.186733   19.015847
  S     18.458397   20.555531   19.932541
  N     18.864508   17.991928   19.415019
  C     18.692128   16.699989   18.720952
  C     17.913718   15.709451   19.580662
  C     18.350481   14.377028   19.694455
  C     17.630553   13.450944   20.467520
  C     16.460549   13.858724   21.130499
  C     16.017319   15.182913   21.013064
  O     14.879122   15.576016   21.637837
  C     16.735466   16.102769   20.242360
  H     15.643296   14.239827   18.165211
  H     14.843613   13.585123   16.721245
  H     13.978290   14.724978   17.777519
  H     14.804683   15.844459   15.677004
  H     15.524989   16.553685   17.138034
  H     17.147789   17.666403   14.867415
  H     17.370028   19.370544   15.236746
  H     15.856568   18.564339   15.688458
  H     17.264695   20.077242   17.539711
  H     19.336493   18.016690   20.310198
  H     19.693473   16.282165   18.538997
  H     19.245345   14.054119   19.166371
  H     17.977493   12.421744   20.543672
  H     15.900040   13.145193   21.725480
  H     14.562299   14.825549   22.163174
  H     16.372182   17.121980   20.164759

 Total Charge           Charge          ....    0
 Multiplicity           Mult            ....    1
 Number of Electrons    NEL             ....  154
 Basis Dimension        Dim             ....  828

ORBITAL ENERGIES
----------------

  NO   OCC          E(Eh)            E(eV)
   0   2.0000     -91.891044     -2500.4824
   1   2.0000     -20.600121      -560.5578
   2   2.0000     -20.600062      -560.5562
   3   2.0000     -20.548560      -559.1547
   4   2.0000     -15.629166      -425.2912
   5   2.0000     -15.611964      -424.8231
   6   2.0000     -11.398288      -310.1632
   7   2.0000     -11.387585      -309.8719
   8   2.0000     -11.332839      -308.3822
   9   2.0000     -11.316940      -307.9496
  10   2.0000     -11.313969      -307.8688
  11   2.0000     -11.304572      -307.6131
  12   2.0000     -11.269062      -306.6468
  13   2.0000     -11.265380      -306.5466
  14   2.0000     -11.263555      -306.4969
  15   2.0000     -11.257169      -306.3231
  16   2.0000     -11.246355      -306.0289
  17   2.0000     -11.242550      -305.9253
  18   2.0000     -11.239573      -305.8443
  19   2.0000     -11.225371      -305.4579
  20   2.0000      -8.896142      -242.0763
  21   2.0000      -6.577725      -178.9890
  22   2.0000      -6.575704      -178.9340
  23   2.0000      -6.575125      -178.9182
  24   2.0000      -1.446804       -39.3695
  25   2.0000      -1.419877       -38.6368
  26   2.0000      -1.358544       -36.9679
  27   2.0000      -1.341865       -36.5140
  28   2.0000      -1.240985       -33.7689
  29   2.0000      -1.161767       -31.6133
  30   2.0000      -1.126307       -30.6484
  31   2.0000      -1.049324       -28.5536
  32   2.0000      -1.036830       -28.2136
  33   2.0000      -1.019106       -27.7313
  34   2.0000      -1.005837       -27.3702
  35   2.0000      -0.990154       -26.9435
  36   2.0000      -0.928405       -25.2632
  37   2.0000      -0.885203       -24.0876
  38   2.0000      -0.855576       -23.2814
  39   2.0000      -0.842520       -22.9261
  40   2.0000      -0.837290       -22.7838
  41   2.0000      -0.835117       -22.7247
  42   2.0000      -0.752938       -20.4885
  43   2.0000      -0.741138       -20.1674
  44   2.0000      -0.731495       -19.9050
  45   2.0000      -0.698226       -18.9997
  46   2.0000      -0.688918       -18.7464
  47   2.0000      -0.680663       -18.5218
  48   2.0000      -0.677385       -18.4326
  49   2.0000      -0.660060       -17.9611
  50   2.0000      -0.656732       -17.8706
  51   2.0000      -0.647045       -17.6070
  52   2.0000      -0.640448       -17.4275
  53   2.0000      -0.613805       -16.7025
  54   2.0000      -0.609085       -16.5741
  55   2.0000      -0.607190       -16.5225
  56   2.0000      -0.601562       -16.3693
  57   2.0000      -0.585004       -15.9188
  58   2.0000      -0.578869       -15.7518
  59   2.0000      -0.569088       -15.4857
  60   2.0000      -0.561505       -15.2793
  61   2.0000      -0.554963       -15.1013
  62   2.0000      -0.547318       -14.8933
  63   2.0000      -0.530180       -14.4269
  64   2.0000      -0.519942       -14.1483
  65   2.0000      -0.513873       -13.9832
  66   2.0000      -0.502953       -13.6861
  67   2.0000      -0.501796       -13.6546
  68   2.0000      -0.486963       -13.2509
  69   2.0000      -0.471262       -12.8237
  70   2.0000      -0.453689       -12.3455
  71   2.0000      -0.448142       -12.1946
  72   2.0000      -0.358182        -9.7466
  73   2.0000      -0.352826        -9.6009
  74   2.0000      -0.330590        -8.9958
  75   2.0000      -0.324937        -8.8420
  76   2.0000      -0.319357        -8.6901
  77   0.0000       0.080417         2.1883
  78   0.0000       0.103558         2.8180
  79   0.0000       0.113906         3.0995
  80   0.0000       0.127820         3.4782
  81   0.0000       0.134301         3.6545

MULLIKEN ATOMIC CHARGES
-----------------------
   0 C :   -0.267500
   1 C :    0.013148
   2 O :   -0.321960
   3 C :    0.406618
   4 O :   -0.385503
   5 C :   -0.199008
   6 C :    0.138432
   7 C :   -0.320455
   8 N :   -0.135118
   9 C :    0.201803
  10 S :   -0.438855
  11 N :   -0.209759
  12 C :    0.066528
  13 C :    0.015104
  14 C :   -0.189783
  15 C :   -0.129575
  16 C :   -0.276638
  17 C :    0.312053
  18 O :   -0.360328
  19 C :   -0.262429
  20 H :    0.106671
  21 H :    0.108976
  22 H :    0.091414
  23 H :    0.113898
  24 H :    0.095109
  25 H :    0.133124
  26 H :    0.133195
  27 H :    0.121809
  28 H :    0.197433
  29 H :    0.197466
  30 H :    0.163854
  31 H :    0.168427
  32 H :    0.163542
  33 H :    0.132107
  34 H :    0.241779
  35 H :    0.174421
Sum of atomic charges:   -0.0000000

LOEWDIN ATOMIC CHARGES
----------------------
   0 C :    0.108464
   1 C :   -0.021738
   2 O :    0.305970
   3 C :   -0.416570
   4 O :    0.121620
   5 C :   -0.085744
   6 C :   -0.097241
   7 C :    0.126631
   8 N :    0.402089
   9 C :   -0.456993
  10 S :   -0.036028
  11 N :    0.397496
  12 C :   -0.044821
  13 C :   -0.044678
  14 C :    0.021578
  15 C :    0.044658
  16 C :   -0.000518
  17 C :   -0.193075
  18 O :    0.395273
  19 C :    0.027133
  20 H :   -0.023561
  21 H :   -0.025102
  22 H :   -0.026685
  23 H :   -0.028332
  24 H :   -0.040295
  25 H :   -0.006660
  26 H :   -0.010912
  27 H :   -0.016370
  28 H :   -0.057429
  29 H :   -0.063388
  30 H :   -0.002479
  31 H :   -0.021690
  32 H :   -0.018466
  33 H :   -0.034638
  34 H :   -0.152832
  35 H :   -0.024666

  Mayer bond orders larger than 0.100000
B(  0-C ,  1-C ) :   0.9798 B(  0-C , 20-H ) :   0.9699 B(  0-C , 21-H ) :   0.9809
B(  0-C , 22-H ) :   0.9752 B(  1-C ,  2-O ) :   0.8980 B(  1-C , 23-H ) :   0.9801
B(  1-C , 24-H ) :   0.9621 B(  2-O ,  3-C ) :   1.1862 B(  3-C ,  4-O ) :   2.0879
B(  3-C ,  5-C ) :   0.9312 B(  5-C ,  6-C ) :   1.6824 B(  5-C , 12-C ) :   0.9580
B(  6-C ,  7-C ) :   0.9461 B(  6-C ,  8-N ) :   1.1200 B(  7-C , 25-H ) :   0.9772
B(  7-C , 26-H ) :   0.9751 B(  7-C , 27-H ) :   0.9641 B(  8-N ,  9-C ) :   1.1904
B(  8-N , 28-H ) :   0.9512 B(  9-C , 10-S ) :   1.6132 B(  9-C , 11-N ) :   1.2906
B( 11-N , 12-C ) :   0.9987 B( 11-N , 29-H ) :   0.9498 B( 12-C , 13-C ) :   0.9424
B( 12-C , 30-H ) :   0.9966 B( 13-C , 14-C ) :   1.3899 B( 13-C , 19-C ) :   1.3543
B( 14-C , 15-C ) :   1.3931 B( 14-C , 31-H ) :   0.9604 B( 15-C , 16-C ) :   1.3613
B( 15-C , 32-H ) :   0.9709 B( 16-C , 17-C ) :   1.3306 B( 16-C , 33-H ) :   0.9851
B( 17-C , 18-O ) :   1.1076 B( 17-C , 19-C ) :   1.3711 B( 18-O , 34-H ) :   0.9791
B( 19-C , 35-H ) :   0.9566

MP2 TOTAL ENERGY:    -1274.336388041 Eh
FINAL SINGLE POINT ENERGY     -1274.336388041479

DIPOLE MOMENT
-------------
                                X             Y             Z
Electronic contribution:     10.02040       8.05660       5.80904
Nuclear contribution   :    -11.55060      -8.95001      -6.19800
                        -----------------------------------------
Total Dipole Moment    :     -1.53019      -0.89340      -0.38896
                        -----------------------------------------
Magnitude (a.u.)       :      1.81410
Magnitude (Debye)      :      4.61107

Rotational constants in cm-1:     0.012266     0.009247     0.006855
Rotational constants in MHz :   367.723527   277.231413   205.494125

                             ****ORCA TERMINATED NORMALLY****
TOTAL RUN TIME: 0 days 2 hours 28 minutes 52 seconds 69 msec
