                         Program Version 5.0.0 -  RELEASE  -
|  1> ! ri-mp2 cc-pvtz cc-pvtz/c TightSCF NoKeepInts
|  2>
|  3> %scf
|  4>   MaxCore 4096
|  5> end
|  6> *xyz  0  1
|  7>     C       15.1217190   14.1242470   15.3136088
|  8>     C       16.2656323   13.8721767   16.3187464
|  9>     O       16.9938233   15.0439250   16.7736938
| 10>     C       16.6357590   16.3668461   16.6688347
| 11>     O       15.7419551   16.7872183   15.9566835
| 12>     C       17.4730301   17.2429403   17.5629873
| 13>     C       17.3657007   18.5968416   17.5677411
| 14>     C       16.4393373   19.4496260   16.7269110
| 15>     N       18.1933180   19.3639994   18.3932863
| 16>     C       19.2131354   18.8687622   19.1606894
| 17>     S       20.2070599   19.8567927   20.0393098
| 18>     N       19.3713927   17.5068192   19.1621137
| 19>     C       18.4634998   16.5448762   18.5112626
| 20>     C       17.7475670   15.7149986   19.5733705
| 21>     C       18.0307671   14.3436907   19.7177678
| 22>     C       17.3716631   13.5762803   20.6929198
| 23>     C       16.4237295   14.1852623   21.5328919
| 24>     C       16.1430017   15.5516322   21.3952096
| 25>     O       15.2297215   16.1428167   22.2060444
| 26>     C       16.8004044   16.3126457   20.4237518
| 27>     H       14.3073646   14.6969897   15.7748406
| 28>     H       14.7017987   13.1709921   14.9710970
| 29>     H       15.4842216   14.6673953   14.4317707
| 30>     H       15.8360843   13.3732912   17.1973176
| 31>     H       16.9807856   13.1698620   15.8718371
| 32>     H       15.3911202   19.2046049   16.9411308
| 33>     H       16.6066850   19.2634319   15.6584287
| 34>     H       16.5696914   20.5243793   16.8990349
| 35>     H       18.0922142   20.3663068   18.4040581
| 36>     H       20.1071053   17.1684934   19.7687390
| 37>     H       19.0861576   15.8717883   17.9054083
| 38>     H       18.7607122   13.8699772   19.0669642
| 39>     H       17.5965071   12.5162011   20.7962953
| 40>     H       15.9125233   13.5972474   22.2880019
| 41>     H       14.9075957   15.4685999   22.8228029
| 42>     H       16.5742161   17.3700423   20.3384486
| 43> *
| 44>
| 45>                          ****END OF INPUT****

CARTESIAN COORDINATES (ANGSTROEM)
---------------------------------
  C     15.121719   14.124247   15.313609
  C     16.265632   13.872177   16.318746
  O     16.993823   15.043925   16.773694
  C     16.635759   16.366846   16.668835
  O     15.741955   16.787218   15.956683
  C     17.473030   17.242940   17.562987
  C     17.365701   18.596842   17.567741
  C     16.439337   19.449626   16.726911
  N     18.193318   19.363999   18.393286
  C     19.213135   18.868762   19.160689
  S     20.207060   19.856793   20.039310
  N     19.371393   17.506819   19.162114
  C     18.463500   16.544876   18.511263
  C     17.747567   15.714999   19.573370
  C     18.030767   14.343691   19.717768
  C     17.371663   13.576280   20.692920
  C     16.423730   14.185262   21.532892
  C     16.143002   15.551632   21.395210
  O     15.229722   16.142817   22.206044
  C     16.800404   16.312646   20.423752
  H     14.307365   14.696990   15.774841
  H     14.701799   13.170992   14.971097
  H     15.484222   14.667395   14.431771
  H     15.836084   13.373291   17.197318
  H     16.980786   13.169862   15.871837
  H     15.391120   19.204605   16.941131
  H     16.606685   19.263432   15.658429
  H     16.569691   20.524379   16.899035
  H     18.092214   20.366307   18.404058
  H     20.107105   17.168493   19.768739
  H     19.086158   15.871788   17.905408
  H     18.760712   13.869977   19.066964
  H     17.596507   12.516201   20.796295
  H     15.912523   13.597247   22.288002
  H     14.907596   15.468600   22.822803
  H     16.574216   17.370042   20.338449

 Total Charge           Charge          ....    0
 Multiplicity           Mult            ....    1
 Number of Electrons    NEL             ....  154
 Basis Dimension        Dim             ....  828

ORBITAL ENERGIES
----------------

  NO   OCC          E(Eh)            E(eV)
   0   2.0000     -91.887662     -2500.3904
   1   2.0000     -20.598365      -560.5100
   2   2.0000     -20.595806      -560.4404
   3   2.0000     -20.539771      -558.9156
   4   2.0000     -15.627656      -425.2501
   5   2.0000     -15.606861      -424.6843
   6   2.0000     -11.398203      -310.1609
   7   2.0000     -11.382633      -309.7372
   8   2.0000     -11.334461      -308.4264
   9   2.0000     -11.312865      -307.8387
  10   2.0000     -11.307159      -307.6834
  11   2.0000     -11.303356      -307.5799
  12   2.0000     -11.258669      -306.3640
  13   2.0000     -11.257728      -306.3384
  14   2.0000     -11.254468      -306.2496
  15   2.0000     -11.250878      -306.1519
  16   2.0000     -11.242143      -305.9143
  17   2.0000     -11.237386      -305.7848
  18   2.0000     -11.237328      -305.7832
  19   2.0000     -11.222452      -305.3784
  20   2.0000      -8.892737      -241.9837
  21   2.0000      -6.574316      -178.8962
  22   2.0000      -6.572309      -178.8416
  23   2.0000      -6.571725      -178.8257
  24   2.0000      -1.441947       -39.2374
  25   2.0000      -1.415446       -38.5162
  26   2.0000      -1.354255       -36.8511
  27   2.0000      -1.338777       -36.4300
  28   2.0000      -1.237229       -33.6667
  29   2.0000      -1.156467       -31.4691
  30   2.0000      -1.118540       -30.4370
  31   2.0000      -1.041534       -28.3416
  32   2.0000      -1.036469       -28.2038
  33   2.0000      -1.014134       -27.5960
  34   2.0000      -0.994279       -27.0557
  35   2.0000      -0.982525       -26.7359
  36   2.0000      -0.921215       -25.0675
  37   2.0000      -0.897856       -24.4319
  38   2.0000      -0.846198       -23.0262
  39   2.0000      -0.837061       -22.7776
  40   2.0000      -0.833131       -22.6706
  41   2.0000      -0.818052       -22.2603
  42   2.0000      -0.744416       -20.2566
  43   2.0000      -0.729482       -19.8502
  44   2.0000      -0.717366       -19.5205
  45   2.0000      -0.694802       -18.9065
  46   2.0000      -0.686912       -18.6918
  47   2.0000      -0.675280       -18.3753
  48   2.0000      -0.668029       -18.1780
  49   2.0000      -0.662370       -18.0240
  50   2.0000      -0.650197       -17.6928
  51   2.0000      -0.643558       -17.5121
  52   2.0000      -0.634705       -17.2712
  53   2.0000      -0.606008       -16.4903
  54   2.0000      -0.599763       -16.3204
  55   2.0000      -0.598115       -16.2755
  56   2.0000      -0.596728       -16.2378
  57   2.0000      -0.582240       -15.8436
  58   2.0000      -0.575292       -15.6545
  59   2.0000      -0.569797       -15.5050
  60   2.0000      -0.561012       -15.2659
  61   2.0000      -0.538480       -14.6528
  62   2.0000      -0.535073       -14.5601
  63   2.0000      -0.524508       -14.2726
  64   2.0000      -0.523383       -14.2420
  65   2.0000      -0.512011       -13.9325
  66   2.0000      -0.501495       -13.6464
  67   2.0000      -0.498200       -13.5567
  68   2.0000      -0.483770       -13.1641
  69   2.0000      -0.462571       -12.5872
  70   2.0000      -0.450512       -12.2591
  71   2.0000      -0.439669       -11.9640
  72   2.0000      -0.352754        -9.5989
  73   2.0000      -0.348429        -9.4812
  74   2.0000      -0.327137        -8.9018
  75   2.0000      -0.320518        -8.7217
  76   2.0000      -0.314868        -8.5680
  77   0.0000       0.077872         2.1190
  78   0.0000       0.107625         2.9286
  79   0.0000       0.125179         3.4063
  80   0.0000       0.133508         3.6329
  81   0.0000       0.137815         3.7501

MULLIKEN ATOMIC CHARGES
-----------------------
   0 C :   -0.284900
   1 C :    0.050226
   2 O :   -0.365856
   3 C :    0.456975
   4 O :   -0.431252
   5 C :   -0.199079
   6 C :    0.147071
   7 C :   -0.273019
   8 N :   -0.120293
   9 C :    0.212430
  10 S :   -0.442099
  11 N :   -0.204366
  12 C :    0.053058
  13 C :    0.070406
  14 C :   -0.187992
  15 C :   -0.131997
  16 C :   -0.280044
  17 C :    0.316400
  18 O :   -0.356701
  19 C :   -0.269713
  20 H :    0.111377
  21 H :    0.096366
  22 H :    0.107589
  23 H :    0.091645
  24 H :    0.092008
  25 H :    0.131426
  26 H :    0.130372
  27 H :    0.094781
  28 H :    0.197090
  29 H :    0.194303
  30 H :    0.148882
  31 H :    0.149512
  32 H :    0.160367
  33 H :    0.129599
  34 H :    0.240537
  35 H :    0.164894
Sum of atomic charges:    0.0000000

LOEWDIN ATOMIC CHARGES
----------------------
   0 C :    0.102246
   1 C :   -0.008746
   2 O :    0.295086
   3 C :   -0.411709
   4 O :    0.107322
   5 C :   -0.093298
   6 C :   -0.059452
   7 C :    0.130465
   8 N :    0.406296
   9 C :   -0.456783
  10 S :   -0.037113
  11 N :    0.396438
  12 C :   -0.052928
  13 C :   -0.037928
  14 C :    0.014174
  15 C :    0.038443
  16 C :   -0.002368
  17 C :   -0.189502
  18 O :    0.395122
  19 C :    0.031370
  20 H :   -0.025229
  21 H :   -0.028129
  22 H :   -0.025034
  23 H :   -0.028341
  24 H :   -0.027130
  25 H :   -0.005014
  26 H :   -0.004433
  27 H :   -0.023758
  28 H :   -0.057830
  29 H :   -0.064785
  30 H :   -0.011728
  31 H :   -0.030446
  32 H :   -0.021614
  33 H :   -0.035817
  34 H :   -0.154072
  35 H :   -0.023776

  Mayer bond orders larger than 0.100000
B(  0-C ,  1-C ) :   0.9851 B(  0-C , 20-H ) :   0.9731 B(  0-C , 21-H ) :   0.9734
B(  0-C , 22-H ) :   0.9743 B(  1-C ,  2-O ) :   0.8982 B(  1-C , 23-H ) :   0.9730
B(  1-C , 24-H ) :   0.9798 B(  2-O ,  3-C ) :   1.1430 B(  3-C ,  4-O ) :   1.9760
B(  3-C ,  5-C ) :   1.0655 B(  5-C ,  6-C ) :   1.6558 B(  5-C , 12-C ) :   0.9767
B(  6-C ,  7-C ) :   0.9675 B(  6-C ,  8-N ) :   1.1611 B(  7-C , 25-H ) :   0.9604
B(  7-C , 26-H ) :   0.9604 B(  7-C , 27-H ) :   0.9910 B(  8-N ,  9-C ) :   1.1838
B(  8-N , 28-H ) :   0.9480 B(  9-C , 10-S ) :   1.6050 B(  9-C , 11-N ) :   1.3061
B( 11-N , 12-C ) :   0.9852 B( 11-N , 29-H ) :   0.9516 B( 12-C , 13-C ) :   0.9364
B( 12-C , 30-H ) :   1.0028 B( 13-C , 14-C ) :   1.3522 B( 13-C , 19-C ) :   1.3837
B( 14-C , 15-C ) :   1.3918 B( 14-C , 31-H ) :   0.9724 B( 15-C , 16-C ) :   1.3631
B( 15-C , 32-H ) :   0.9706 B( 16-C , 17-C ) :   1.3315 B( 16-C , 33-H ) :   0.9853
B( 17-C , 18-O ) :   1.1099 B( 17-C , 19-C ) :   1.3720 B( 18-O , 34-H ) :   0.9800
B( 19-C , 35-H ) :   0.9583

MP2 TOTAL ENERGY:    -1274.338516983 Eh
FINAL SINGLE POINT ENERGY     -1274.338516982930

DIPOLE MOMENT
-------------
                                X             Y             Z
Electronic contribution:      9.89436      10.08639       9.54582
Nuclear contribution   :    -10.90840     -11.90386      -9.94672
                        -----------------------------------------
Total Dipole Moment    :     -1.01404      -1.81747      -0.40090
                        -----------------------------------------
Magnitude (a.u.)       :      2.11948
Magnitude (Debye)      :      5.38728

Rotational constants in cm-1:     0.011283     0.008721     0.006041
Rotational constants in MHz :   338.270455   261.434700   181.098290

                             ****ORCA TERMINATED NORMALLY****
TOTAL RUN TIME: 0 days 2 hours 4 minutes 10 seconds 79 msec
