                         Program Version 5.0.0 -  RELEASE  -
|  1> ! ri-mp2 cc-pvtz cc-pvtz/c TightSCF NoKeepInts
|  2>
|  3> %scf
|  4>   MaxCore 4096
|  5> end
|  6> *xyz  0  1
|  7>     C       14.7439159   14.8007034   14.4952235
|  8>     C       15.4236494   14.4837186   15.8378599
|  9>     O       16.2727870   15.5987505   16.1604416
| 10>     C       17.3510669   15.4113220   16.9761714
| 11>     O       17.7631410   14.2997814   17.2658927
| 12>     C       17.8239693   16.6521566   17.6797701
| 13>     C       17.5238679   17.9249920   17.3081195
| 14>     C       16.6824999   18.3839681   16.1344120
| 15>     N       18.0788325   19.0013864   18.0086422
| 16>     C       19.0469776   18.8948857   18.9718463
| 17>     S       19.7471714   20.2281565   19.6557873
| 18>     N       19.4055708   17.6228929   19.3386277
| 19>     C       18.7181596   16.3945553   18.8984485
| 20>     C       17.9182659   15.7895561   20.0494581
| 21>     C       18.1251999   14.4521313   20.4350102
| 22>     C       17.3909405   13.8891292   21.4922901
| 23>     C       16.4402439   14.6696179   22.1716971
| 24>     C       16.2281970   16.0009404   21.7887128
| 25>     O       15.3066004   16.7554797   22.4388995
| 26>     C       16.9602226   16.5583633   20.7356642
| 27>     H       14.1404166   15.7135177   14.5727901
| 28>     H       14.0846416   13.9772783   14.1946005
| 29>     H       15.4934418   14.9453139   13.7071441
| 30>     H       14.6790377   14.3256049   16.6290261
| 31>     H       16.0099172   13.5618736   15.7200336
| 32>     H       17.0105206   17.8992047   15.2064134
| 33>     H       16.7402706   19.4665361   15.9686770
| 34>     H       15.6267003   18.1309892   16.2929807
| 35>     H       17.8286013   19.9433583   17.7537261
| 36>     H       20.0985446   17.5708345   20.0741446
| 37>     H       19.4910206   15.6715309   18.5998964
| 38>     H       18.8477084   13.8410667   19.8994520
| 39>     H       17.5564734   12.8514513   21.7762029
| 40>     H       15.8697035   14.2382386   22.9873424
| 41>     H       14.9361061   16.2109233   23.1494750
| 42>     H       16.7826164   17.5917908   20.4591204
| 43> *
| 44>
| 45>                          ****END OF INPUT****

CARTESIAN COORDINATES (ANGSTROEM)
---------------------------------
  C     14.743916   14.800703   14.495223
  C     15.423649   14.483719   15.837860
  O     16.272787   15.598750   16.160442
  C     17.351067   15.411322   16.976171
  O     17.763141   14.299781   17.265893
  C     17.823969   16.652157   17.679770
  C     17.523868   17.924992   17.308119
  C     16.682500   18.383968   16.134412
  N     18.078833   19.001386   18.008642
  C     19.046978   18.894886   18.971846
  S     19.747171   20.228157   19.655787
  N     19.405571   17.622893   19.338628
  C     18.718160   16.394555   18.898449
  C     17.918266   15.789556   20.049458
  C     18.125200   14.452131   20.435010
  C     17.390940   13.889129   21.492290
  C     16.440244   14.669618   22.171697
  C     16.228197   16.000940   21.788713
  O     15.306600   16.755480   22.438899
  C     16.960223   16.558363   20.735664
  H     14.140417   15.713518   14.572790
  H     14.084642   13.977278   14.194600
  H     15.493442   14.945314   13.707144
  H     14.679038   14.325605   16.629026
  H     16.009917   13.561874   15.720034
  H     17.010521   17.899205   15.206413
  H     16.740271   19.466536   15.968677
  H     15.626700   18.130989   16.292981
  H     17.828601   19.943358   17.753726
  H     20.098545   17.570834   20.074145
  H     19.491021   15.671531   18.599896
  H     18.847708   13.841067   19.899452
  H     17.556473   12.851451   21.776203
  H     15.869703   14.238239   22.987342
  H     14.936106   16.210923   23.149475
  H     16.782616   17.591791   20.459120

 Total Charge           Charge          ....    0
 Multiplicity           Mult            ....    1
 Number of Electrons    NEL             ....  154
 Basis Dimension        Dim             ....  828

ORBITAL ENERGIES
----------------

  NO   OCC          E(Eh)            E(eV)
   0   2.0000     -91.887958     -2500.3984
   1   2.0000     -20.603302      -560.6444
   2   2.0000     -20.591180      -560.3145
   3   2.0000     -20.545726      -559.0776
   4   2.0000     -15.628364      -425.2694
   5   2.0000     -15.606503      -424.6745
   6   2.0000     -11.395653      -310.0915
   7   2.0000     -11.382815      -309.7421
   8   2.0000     -11.336390      -308.4789
   9   2.0000     -11.306940      -307.6775
  10   2.0000     -11.305278      -307.6323
  11   2.0000     -11.298658      -307.4521
  12   2.0000     -11.260507      -306.4140
  13   2.0000     -11.259003      -306.3730
  14   2.0000     -11.252893      -306.2068
  15   2.0000     -11.247039      -306.0475
  16   2.0000     -11.236714      -305.7665
  17   2.0000     -11.234383      -305.7031
  18   2.0000     -11.232865      -305.6618
  19   2.0000     -11.229798      -305.5783
  20   2.0000      -8.893021      -241.9914
  21   2.0000      -6.574599      -178.9039
  22   2.0000      -6.572592      -178.8493
  23   2.0000      -6.572006      -178.8334
  24   2.0000      -1.454515       -39.5794
  25   2.0000      -1.410913       -38.3929
  26   2.0000      -1.357356       -36.9355
  27   2.0000      -1.339257       -36.4430
  28   2.0000      -1.236807       -33.6552
  29   2.0000      -1.151609       -31.3369
  30   2.0000      -1.119328       -30.4585
  31   2.0000      -1.044688       -28.4274
  32   2.0000      -1.036795       -28.2126
  33   2.0000      -1.008966       -27.4554
  34   2.0000      -0.997401       -27.1407
  35   2.0000      -0.983056       -26.7503
  36   2.0000      -0.920783       -25.0558
  37   2.0000      -0.888515       -24.1777
  38   2.0000      -0.846941       -23.0464
  39   2.0000      -0.834586       -22.7102
  40   2.0000      -0.827269       -22.5111
  41   2.0000      -0.817911       -22.2565
  42   2.0000      -0.761899       -20.7323
  43   2.0000      -0.735913       -20.0252
  44   2.0000      -0.724457       -19.7135
  45   2.0000      -0.689905       -18.7733
  46   2.0000      -0.683859       -18.6087
  47   2.0000      -0.680624       -18.5207
  48   2.0000      -0.675622       -18.3846
  49   2.0000      -0.655418       -17.8348
  50   2.0000      -0.651176       -17.7194
  51   2.0000      -0.642833       -17.4924
  52   2.0000      -0.633920       -17.2498
  53   2.0000      -0.604139       -16.4394
  54   2.0000      -0.600395       -16.3376
  55   2.0000      -0.599094       -16.3022
  56   2.0000      -0.594531       -16.1780
  57   2.0000      -0.580048       -15.7839
  58   2.0000      -0.572690       -15.5837
  59   2.0000      -0.563190       -15.3252
  60   2.0000      -0.562129       -15.2963
  61   2.0000      -0.546697       -14.8764
  62   2.0000      -0.542973       -14.7751
  63   2.0000      -0.526606       -14.3297
  64   2.0000      -0.516653       -14.0588
  65   2.0000      -0.509027       -13.8513
  66   2.0000      -0.500882       -13.6297
  67   2.0000      -0.494984       -13.4692
  68   2.0000      -0.481432       -13.1004
  69   2.0000      -0.462969       -12.5980
  70   2.0000      -0.462027       -12.5724
  71   2.0000      -0.452963       -12.3257
  72   2.0000      -0.354145        -9.6368
  73   2.0000      -0.343500        -9.3471
  74   2.0000      -0.327065        -8.8999
  75   2.0000      -0.315394        -8.5823
  76   2.0000      -0.313306        -8.5255
  77   0.0000       0.075850         2.0640
  78   0.0000       0.113487         3.0881
  79   0.0000       0.120510         3.2793
  80   0.0000       0.135927         3.6988
  81   0.0000       0.138748         3.7755

MULLIKEN ATOMIC CHARGES
-----------------------
   0 C :   -0.268415
   1 C :    0.031404
   2 O :   -0.341646
   3 C :    0.447532
   4 O :   -0.427107
   5 C :   -0.178276
   6 C :    0.142512
   7 C :   -0.288442
   8 N :   -0.122061
   9 C :    0.201416
  10 S :   -0.439308
  11 N :   -0.196898
  12 C :    0.035142
  13 C :    0.057188
  14 C :   -0.159943
  15 C :   -0.133920
  16 C :   -0.278986
  17 C :    0.311301
  18 O :   -0.359251
  19 C :   -0.272508
  20 H :    0.091235
  21 H :    0.097717
  22 H :    0.097225
  23 H :    0.094511
  24 H :    0.113653
  25 H :    0.126453
  26 H :    0.103953
  27 H :    0.127583
  28 H :    0.196754
  29 H :    0.193537
  30 H :    0.153563
  31 H :    0.153047
  32 H :    0.158831
  33 H :    0.127834
  34 H :    0.239992
  35 H :    0.164377
Sum of atomic charges:   -0.0000000

LOEWDIN ATOMIC CHARGES
----------------------
   0 C :    0.105698
   1 C :   -0.013811
   2 O :    0.305920
   3 C :   -0.414002
   4 O :    0.104329
   5 C :   -0.091240
   6 C :   -0.065837
   7 C :    0.124903
   8 N :    0.404816
   9 C :   -0.458921
  10 S :   -0.036016
  11 N :    0.397864
  12 C :   -0.046459
  13 C :   -0.038780
  14 C :    0.022334
  15 C :    0.040979
  16 C :   -0.002372
  17 C :   -0.192657
  18 O :    0.392906
  19 C :    0.028358
  20 H :   -0.030138
  21 H :   -0.023736
  22 H :   -0.026215
  23 H :   -0.029917
  24 H :   -0.027028
  25 H :   -0.008718
  26 H :   -0.020966
  27 H :   -0.010158
  28 H :   -0.059191
  29 H :   -0.063667
  30 H :   -0.005002
  31 H :   -0.025335
  32 H :   -0.021280
  33 H :   -0.036476
  34 H :   -0.154979
  35 H :   -0.025206

  Mayer bond orders larger than 0.100000
B(  0-C ,  1-C ) :   0.9723 B(  0-C , 20-H ) :   0.9792 B(  0-C , 21-H ) :   0.9776
B(  0-C , 22-H ) :   0.9773 B(  1-C ,  2-O ) :   0.8943 B(  1-C , 23-H ) :   0.9768
B(  1-C , 24-H ) :   0.9765 B(  2-O ,  3-C ) :   1.1627 B(  3-C ,  4-O ) :   1.9882
B(  3-C ,  5-C ) :   1.0509 B(  5-C ,  6-C ) :   1.6459 B(  5-C , 12-C ) :   0.9665
B(  6-C ,  7-C ) :   0.9543 B(  6-C ,  8-N ) :   1.1471 B(  7-C , 25-H ) :   0.9660
B(  7-C , 26-H ) :   0.9923 B(  7-C , 27-H ) :   0.9631 B(  8-N ,  9-C ) :   1.1782
B(  8-N , 28-H ) :   0.9489 B(  9-C , 10-S ) :   1.6108 B(  9-C , 11-N ) :   1.3044
B( 11-N , 12-C ) :   0.9921 B( 11-N , 29-H ) :   0.9520 B( 12-C , 13-C ) :   0.9477
B( 12-C , 30-H ) :   0.9999 B( 13-C , 14-C ) :   1.3763 B( 13-C , 19-C ) :   1.3692
B( 14-C , 15-C ) :   1.3948 B( 14-C , 31-H ) :   0.9649 B( 15-C , 16-C ) :   1.3626
B( 15-C , 32-H ) :   0.9715 B( 16-C , 17-C ) :   1.3315 B( 16-C , 33-H ) :   0.9861
B( 17-C , 18-O ) :   1.1078 B( 17-C , 19-C ) :   1.3794 B( 18-O , 34-H ) :   0.9807
B( 19-C , 35-H ) :   0.9585

MP2 TOTAL ENERGY:    -1274.346784494 Eh
FINAL SINGLE POINT ENERGY     -1274.346784493524

DIPOLE MOMENT
-------------
                                X             Y             Z
Electronic contribution:     11.62390       8.36619      11.99832
Nuclear contribution   :    -13.26080      -9.55576     -12.92324
                        -----------------------------------------
Total Dipole Moment    :     -1.63691      -1.18958      -0.92492
                        -----------------------------------------
Magnitude (a.u.)       :      2.22487
Magnitude (Debye)      :      5.65516

Rotational constants in cm-1:     0.010398     0.008752     0.005764
Rotational constants in MHz :   311.719180   262.374876   172.811555

                             ****ORCA TERMINATED NORMALLY****
TOTAL RUN TIME: 0 days 1 hours 50 minutes 2 seconds 832 msec
