                         Program Version 5.0.0 -  RELEASE  -
|  1> ! ri-mp2 cc-pvtz cc-pvtz/c TightSCF NoKeepInts
|  2>
|  3> %scf
|  4>   MaxCore 4096
|  5> end
|  6> *xyz  0  1
|  7>     C       14.1979418   15.3978081   16.2180292
|  8>     C       15.4037662   15.5032034   17.1660739
|  9>     O       16.5758877   15.1417912   16.4059442
| 10>     C       17.8143767   15.7272049   16.5095249
| 11>     O       18.8025989   15.0879897   16.2001065
| 12>     C       17.9299816   16.8916589   17.4357482
| 13>     C       17.3612916   18.0896442   17.1698028
| 14>     C       16.5501717   18.4558200   15.9454266
| 15>     N       17.5462974   19.1575858   18.0500176
| 16>     C       18.3531797   19.1220132   19.1581568
| 17>     S       18.5529674   20.4461049   20.1280252
| 18>     N       18.9811211   17.9299623   19.4283659
| 19>     C       18.7916149   16.6731794   18.6760262
| 20>     C       18.1796947   15.5836484   19.5501370
| 21>     C       18.6865041   14.2723168   19.5023164
| 22>     C       18.1077229   13.2525652   20.2759203
| 23>     C       17.0086901   13.5443934   21.1014935
| 24>     C       16.4952459   14.8473974   21.1451348
| 25>     O       15.4233866   15.1294960   21.9273209
| 26>     C       17.0731018   15.8609183   20.3741208
| 27>     H       13.2676113   15.6312750   16.7500239
| 28>     H       14.1150929   14.3811121   15.8132606
| 29>     H       14.2999595   16.0958745   15.3781803
| 30>     H       15.4383940   16.5181970   17.5712338
| 31>     H       15.2847848   14.8102833   18.0098812
| 32>     H       16.5856430   17.6764539   15.1741550
| 33>     H       16.9329745   19.3745457   15.4828838
| 34>     H       15.4971042   18.6208970   16.2041958
| 35>     H       17.1059349   20.0449024   17.8626998
| 36>     H       19.5522230   17.9284261   20.2642143
| 37>     H       19.7811534   16.3299101   18.3392850
| 38>     H       19.5227202   14.0388706   18.8464551
| 39>     H       18.5066307   12.2407129   20.2258740
| 40>     H       16.5564576   12.7580304   21.6968893
| 41>     H       15.2077947   14.3261030   22.4252023
| 42>     H       16.6569786   16.8617045   20.4218743
| 43> *
| 44>
| 45>                          ****END OF INPUT****

CARTESIAN COORDINATES (ANGSTROEM)
---------------------------------
  C     14.197942   15.397808   16.218029
  C     15.403766   15.503203   17.166074
  O     16.575888   15.141791   16.405944
  C     17.814377   15.727205   16.509525
  O     18.802599   15.087990   16.200107
  C     17.929982   16.891659   17.435748
  C     17.361292   18.089644   17.169803
  C     16.550172   18.455820   15.945427
  N     17.546297   19.157586   18.050018
  C     18.353180   19.122013   19.158157
  S     18.552967   20.446105   20.128025
  N     18.981121   17.929962   19.428366
  C     18.791615   16.673179   18.676026
  C     18.179695   15.583648   19.550137
  C     18.686504   14.272317   19.502316
  C     18.107723   13.252565   20.275920
  C     17.008690   13.544393   21.101494
  C     16.495246   14.847397   21.145135
  O     15.423387   15.129496   21.927321
  C     17.073102   15.860918   20.374121
  H     13.267611   15.631275   16.750024
  H     14.115093   14.381112   15.813261
  H     14.299959   16.095875   15.378180
  H     15.438394   16.518197   17.571234
  H     15.284785   14.810283   18.009881
  H     16.585643   17.676454   15.174155
  H     16.932975   19.374546   15.482884
  H     15.497104   18.620897   16.204196
  H     17.105935   20.044902   17.862700
  H     19.552223   17.928426   20.264214
  H     19.781153   16.329910   18.339285
  H     19.522720   14.038871   18.846455
  H     18.506631   12.240713   20.225874
  H     16.556458   12.758030   21.696889
  H     15.207795   14.326103   22.425202
  H     16.656979   16.861704   20.421874

 Total Charge           Charge          ....    0
 Multiplicity           Mult            ....    1
 Number of Electrons    NEL             ....  154
 Basis Dimension        Dim             ....  828

ORBITAL ENERGIES
----------------

  NO   OCC          E(Eh)            E(eV)
   0   2.0000     -91.890184     -2500.4590
   1   2.0000     -20.600822      -560.5769
   2   2.0000     -20.600300      -560.5627
   3   2.0000     -20.550013      -559.1943
   4   2.0000     -15.627279      -425.2399
   5   2.0000     -15.611928      -424.8222
   6   2.0000     -11.397952      -310.1540
   7   2.0000     -11.387144      -309.8599
   8   2.0000     -11.328819      -308.2728
   9   2.0000     -11.316886      -307.9481
  10   2.0000     -11.315097      -307.8994
  11   2.0000     -11.303339      -307.5795
  12   2.0000     -11.270201      -306.6777
  13   2.0000     -11.264546      -306.5239
  14   2.0000     -11.263516      -306.4958
  15   2.0000     -11.256941      -306.3169
  16   2.0000     -11.246432      -306.0310
  17   2.0000     -11.242475      -305.9233
  18   2.0000     -11.239728      -305.8486
  19   2.0000     -11.234985      -305.7195
  20   2.0000      -8.895299      -242.0534
  21   2.0000      -6.576887      -178.9662
  22   2.0000      -6.574861      -178.9111
  23   2.0000      -6.574286      -178.8954
  24   2.0000      -1.447478       -39.3879
  25   2.0000      -1.420110       -38.6432
  26   2.0000      -1.358949       -36.9789
  27   2.0000      -1.340408       -36.4744
  28   2.0000      -1.240169       -33.7467
  29   2.0000      -1.161815       -31.6146
  30   2.0000      -1.126300       -30.6482
  31   2.0000      -1.049604       -28.5612
  32   2.0000      -1.041650       -28.3447
  33   2.0000      -1.019074       -27.7304
  34   2.0000      -1.005511       -27.3613
  35   2.0000      -0.989930       -26.9374
  36   2.0000      -0.928248       -25.2589
  37   2.0000      -0.884605       -24.0713
  38   2.0000      -0.854934       -23.2639
  39   2.0000      -0.842288       -22.9198
  40   2.0000      -0.837420       -22.7873
  41   2.0000      -0.836695       -22.7676
  42   2.0000      -0.757787       -20.6204
  43   2.0000      -0.739638       -20.1266
  44   2.0000      -0.732382       -19.9291
  45   2.0000      -0.697836       -18.9891
  46   2.0000      -0.688541       -18.7362
  47   2.0000      -0.680851       -18.5269
  48   2.0000      -0.676839       -18.4177
  49   2.0000      -0.666564       -18.1381
  50   2.0000      -0.652995       -17.7689
  51   2.0000      -0.645690       -17.5701
  52   2.0000      -0.640303       -17.4235
  53   2.0000      -0.613185       -16.6856
  54   2.0000      -0.608559       -16.5597
  55   2.0000      -0.604337       -16.4449
  56   2.0000      -0.602237       -16.3877
  57   2.0000      -0.588486       -16.0135
  58   2.0000      -0.578810       -15.7502
  59   2.0000      -0.569321       -15.4920
  60   2.0000      -0.563392       -15.3307
  61   2.0000      -0.560923       -15.2635
  62   2.0000      -0.543759       -14.7964
  63   2.0000      -0.532278       -14.4840
  64   2.0000      -0.523964       -14.2578
  65   2.0000      -0.516176       -14.0459
  66   2.0000      -0.503308       -13.6957
  67   2.0000      -0.502630       -13.6773
  68   2.0000      -0.489237       -13.3128
  69   2.0000      -0.470698       -12.8083
  70   2.0000      -0.454263       -12.3611
  71   2.0000      -0.448768       -12.2116
  72   2.0000      -0.357056        -9.7160
  73   2.0000      -0.352235        -9.5848
  74   2.0000      -0.329866        -8.9761
  75   2.0000      -0.324784        -8.8378
  76   2.0000      -0.318410        -8.6644
  77   0.0000       0.085020         2.3135
  78   0.0000       0.104598         2.8462
  79   0.0000       0.112863         3.0711
  80   0.0000       0.127833         3.4785
  81   0.0000       0.130889         3.5617

MULLIKEN ATOMIC CHARGES
-----------------------
   0 C :   -0.260938
   1 C :    0.011749
   2 O :   -0.315529
   3 C :    0.395314
   4 O :   -0.381676
   5 C :   -0.187524
   6 C :    0.132165
   7 C :   -0.325825
   8 N :   -0.136011
   9 C :    0.205603
  10 S :   -0.440852
  11 N :   -0.212105
  12 C :    0.065406
  13 C :    0.031193
  14 C :   -0.190535
  15 C :   -0.129578
  16 C :   -0.276230
  17 C :    0.314427
  18 O :   -0.359174
  19 C :   -0.280443
  20 H :    0.091407
  21 H :    0.110518
  22 H :    0.089038
  23 H :    0.094144
  24 H :    0.130034
  25 H :    0.126734
  26 H :    0.140571
  27 H :    0.122350
  28 H :    0.196346
  29 H :    0.197927
  30 H :    0.163746
  31 H :    0.166124
  32 H :    0.163538
  33 H :    0.132818
  34 H :    0.241983
  35 H :    0.173286
Sum of atomic charges:    0.0000000

LOEWDIN ATOMIC CHARGES
----------------------
   0 C :    0.106841
   1 C :   -0.018150
   2 O :    0.308612
   3 C :   -0.417290
   4 O :    0.124817
   5 C :   -0.083183
   6 C :   -0.105575
   7 C :    0.125728
   8 N :    0.400965
   9 C :   -0.455430
  10 S :   -0.037639
  11 N :    0.397191
  12 C :   -0.044491
  13 C :   -0.043618
  14 C :    0.023332
  15 C :    0.045997
  16 C :   -0.000269
  17 C :   -0.194634
  18 O :    0.394254
  19 C :    0.028439
  20 H :   -0.025052
  21 H :   -0.022967
  22 H :   -0.031260
  23 H :   -0.040745
  24 H :   -0.024811
  25 H :   -0.008365
  26 H :   -0.009854
  27 H :   -0.016437
  28 H :   -0.057927
  29 H :   -0.063647
  30 H :   -0.002538
  31 H :   -0.021939
  32 H :   -0.018387
  33 H :   -0.034520
  34 H :   -0.152808
  35 H :   -0.024641

  Mayer bond orders larger than 0.100000
B(  0-C ,  1-C ) :   0.9755 B(  0-C , 20-H ) :   0.9760 B(  0-C , 21-H ) :   0.9792
B(  0-C , 22-H ) :   0.9782 B(  1-C ,  2-O ) :   0.9025 B(  1-C , 23-H ) :   0.9644
B(  1-C , 24-H ) :   0.9736 B(  2-O ,  3-C ) :   1.1859 B(  3-C ,  4-O ) :   2.0982
B(  3-C ,  5-C ) :   0.9269 B(  5-C ,  6-C ) :   1.6908 B(  5-C , 12-C ) :   0.9596
B(  6-C ,  7-C ) :   0.9441 B(  6-C ,  8-N ) :   1.1138 B(  7-C , 25-H ) :   0.9795
B(  7-C , 26-H ) :   0.9722 B(  7-C , 27-H ) :   0.9650 B(  8-N ,  9-C ) :   1.1942
B(  8-N , 28-H ) :   0.9519 B(  9-C , 10-S ) :   1.6116 B(  9-C , 11-N ) :   1.2878
B( 11-N , 12-C ) :   1.0006 B( 11-N , 29-H ) :   0.9490 B( 12-C , 13-C ) :   0.9461
B( 12-C , 30-H ) :   0.9971 B( 13-C , 14-C ) :   1.3857 B( 13-C , 19-C ) :   1.3470
B( 14-C , 15-C ) :   1.3954 B( 14-C , 31-H ) :   0.9617 B( 15-C , 16-C ) :   1.3649
B( 15-C , 32-H ) :   0.9701 B( 16-C , 17-C ) :   1.3276 B( 16-C , 33-H ) :   0.9842
B( 17-C , 18-O ) :   1.1090 B( 17-C , 19-C ) :   1.3706 B( 18-O , 34-H ) :   0.9789
B( 19-C , 35-H ) :   0.9590

MP2 TOTAL ENERGY:    -1274.331691760 Eh
FINAL SINGLE POINT ENERGY     -1274.331691759930

DIPOLE MOMENT
-------------
                                X             Y             Z
Electronic contribution:     11.94203       6.03570       7.69563
Nuclear contribution   :    -13.50956      -7.03173      -7.95590
                        -----------------------------------------
Total Dipole Moment    :     -1.56753      -0.99604      -0.26027
                        -----------------------------------------
Magnitude (a.u.)       :      1.87536
Magnitude (Debye)      :      4.76679

Rotational constants in cm-1:     0.011425     0.009200     0.006818
Rotational constants in MHz :   342.510602   275.807803   204.383752

                             ****ORCA TERMINATED NORMALLY****
TOTAL RUN TIME: 0 days 1 hours 51 minutes 24 seconds 822 msec
