                         Program Version 5.0.0 -  RELEASE  -
|  1> ! ri-mp2 cc-pvtz cc-pvtz/c TightSCF NoKeepInts
|  2>
|  3> %scf
|  4>   MaxCore 4096
|  5> end
|  6> *xyz  0  1
|  7>     C       14.1921680   14.9765445   15.3332021
|  8>     C       15.6180014   14.5922242   15.7624854
|  9>     O       16.3348755   15.8109479   16.0152932
| 10>     C       17.5094439   15.7420271   16.7048262
| 11>     O       18.1386514   14.7006292   16.7999180
| 12>     C       17.7780862   16.9268769   17.5879832
| 13>     C       17.2169864   18.1551975   17.4347090
| 14>     C       16.2392933   18.6088331   16.3697950
| 15>     N       17.5914497   19.2002093   18.2859926
| 16>     C       18.6130299   19.1416578   19.1968106
| 17>     S       19.0774123   20.4657132   20.0725020
| 18>     N       19.2313981   17.9260982   19.3436573
| 19>     C       18.7743942   16.6681285   18.7239701
| 20>     C       18.1750715   15.7411554   19.7785212
| 21>     C       18.6645155   14.4313737   19.9367959
| 22>     C       18.1146729   13.5726857   20.9033727
| 23>     C       17.0652410   14.0264846   21.7202932
| 24>     C       16.5721408   15.3289281   21.5635870
| 25>     O       15.5546121   15.7680740   22.3466384
| 26>     C       17.1211360   16.1811013   20.6003307
| 27>     H       13.6911638   15.5489609   16.1237377
| 28>     H       13.5969520   14.0778819   15.1303170
| 29>     H       14.2140229   15.5871296   14.4220008
| 30>     H       15.5695336   13.9808714   16.6744028
| 31>     H       16.1168574   14.0092557   14.9766817
| 32>     H       16.5896364   18.3214839   15.3705603
| 33>     H       16.0985118   19.6964267   16.3595922
| 34>     H       15.2553398   18.1496348   16.5273033
| 35>     H       17.1496289   20.1008452   18.1931920
| 36>     H       19.9605094   17.9009695   20.0448679
| 37>     H       19.6551419   16.1723799   18.2906970
| 38>     H       19.4644594   14.0721437   19.2939274
| 39>     H       18.4985891   12.5598725   21.0112241
| 40>     H       16.6365110   13.3660571   22.4665718
| 41>     H       15.3407677   15.0569605   22.9690125
| 42>     H       16.7267949   17.1862365   20.4992276
| 43> *
| 44>
| 45>                          ****END OF INPUT****

CARTESIAN COORDINATES (ANGSTROEM)
---------------------------------
  C     14.192168   14.976544   15.333202
  C     15.618001   14.592224   15.762485
  O     16.334875   15.810948   16.015293
  C     17.509444   15.742027   16.704826
  O     18.138651   14.700629   16.799918
  C     17.778086   16.926877   17.587983
  C     17.216986   18.155197   17.434709
  C     16.239293   18.608833   16.369795
  N     17.591450   19.200209   18.285993
  C     18.613030   19.141658   19.196811
  S     19.077412   20.465713   20.072502
  N     19.231398   17.926098   19.343657
  C     18.774394   16.668129   18.723970
  C     18.175071   15.741155   19.778521
  C     18.664516   14.431374   19.936796
  C     18.114673   13.572686   20.903373
  C     17.065241   14.026485   21.720293
  C     16.572141   15.328928   21.563587
  O     15.554612   15.768074   22.346638
  C     17.121136   16.181101   20.600331
  H     13.691164   15.548961   16.123738
  H     13.596952   14.077882   15.130317
  H     14.214023   15.587130   14.422001
  H     15.569534   13.980871   16.674403
  H     16.116857   14.009256   14.976682
  H     16.589636   18.321484   15.370560
  H     16.098512   19.696427   16.359592
  H     15.255340   18.149635   16.527303
  H     17.149629   20.100845   18.193192
  H     19.960509   17.900969   20.044868
  H     19.655142   16.172380   18.290697
  H     19.464459   14.072144   19.293927
  H     18.498589   12.559873   21.011224
  H     16.636511   13.366057   22.466572
  H     15.340768   15.056961   22.969013
  H     16.726795   17.186236   20.499228

 Total Charge           Charge          ....    0
 Multiplicity           Mult            ....    1
 Number of Electrons    NEL             ....  154
 Basis Dimension        Dim             ....  828

ORBITAL ENERGIES
----------------

  NO   OCC          E(Eh)            E(eV)
   0   2.0000     -91.888111     -2500.4026
   1   2.0000     -20.601304      -560.5900
   2   2.0000     -20.592004      -560.3369
   3   2.0000     -20.547022      -559.1129
   4   2.0000     -15.628426      -425.2711
   5   2.0000     -15.606812      -424.6829
   6   2.0000     -11.394781      -310.0678
   7   2.0000     -11.383065      -309.7490
   8   2.0000     -11.335987      -308.4679
   9   2.0000     -11.307802      -307.7009
  10   2.0000     -11.305853      -307.6479
  11   2.0000     -11.299464      -307.4740
  12   2.0000     -11.260506      -306.4139
  13   2.0000     -11.259128      -306.3765
  14   2.0000     -11.253685      -306.2283
  15   2.0000     -11.247896      -306.0708
  16   2.0000     -11.237568      -305.7898
  17   2.0000     -11.235281      -305.7275
  18   2.0000     -11.233692      -305.6843
  19   2.0000     -11.230643      -305.6013
  20   2.0000      -8.893176      -241.9956
  21   2.0000      -6.574754      -178.9081
  22   2.0000      -6.572747      -178.8535
  23   2.0000      -6.572161      -178.8376
  24   2.0000      -1.455490       -39.6059
  25   2.0000      -1.411742       -38.4154
  26   2.0000      -1.357208       -36.9315
  27   2.0000      -1.339350       -36.4456
  28   2.0000      -1.237012       -33.6608
  29   2.0000      -1.152366       -31.3575
  30   2.0000      -1.119726       -30.4693
  31   2.0000      -1.044749       -28.4291
  32   2.0000      -1.037133       -28.2218
  33   2.0000      -1.009740       -27.4764
  34   2.0000      -0.997846       -27.1528
  35   2.0000      -0.983508       -26.7626
  36   2.0000      -0.921209       -25.0674
  37   2.0000      -0.888150       -24.1678
  38   2.0000      -0.847007       -23.0482
  39   2.0000      -0.835150       -22.7256
  40   2.0000      -0.828086       -22.5334
  41   2.0000      -0.818508       -22.2727
  42   2.0000      -0.761584       -20.7238
  43   2.0000      -0.735880       -20.0243
  44   2.0000      -0.725059       -19.7298
  45   2.0000      -0.690911       -18.8007
  46   2.0000      -0.683392       -18.5960
  47   2.0000      -0.682402       -18.5691
  48   2.0000      -0.676251       -18.4017
  49   2.0000      -0.659178       -17.9371
  50   2.0000      -0.650129       -17.6909
  51   2.0000      -0.643623       -17.5139
  52   2.0000      -0.635070       -17.2811
  53   2.0000      -0.601164       -16.3585
  54   2.0000      -0.600519       -16.3410
  55   2.0000      -0.597734       -16.2652
  56   2.0000      -0.595304       -16.1990
  57   2.0000      -0.578641       -15.7456
  58   2.0000      -0.573445       -15.6042
  59   2.0000      -0.564758       -15.3678
  60   2.0000      -0.561723       -15.2853
  61   2.0000      -0.554321       -15.0838
  62   2.0000      -0.541204       -14.7269
  63   2.0000      -0.518388       -14.1061
  64   2.0000      -0.517136       -14.0720
  65   2.0000      -0.511650       -13.9227
  66   2.0000      -0.505566       -13.7571
  67   2.0000      -0.495841       -13.4925
  68   2.0000      -0.480950       -13.0873
  69   2.0000      -0.462456       -12.5841
  70   2.0000      -0.461325       -12.5533
  71   2.0000      -0.455580       -12.3970
  72   2.0000      -0.354152        -9.6370
  73   2.0000      -0.344230        -9.3670
  74   2.0000      -0.327251        -8.9049
  75   2.0000      -0.315707        -8.5908
  76   2.0000      -0.314029        -8.5452
  77   0.0000       0.075516         2.0549
  78   0.0000       0.112222         3.0537
  79   0.0000       0.120202         3.2709
  80   0.0000       0.135638         3.6909
  81   0.0000       0.138746         3.7755

MULLIKEN ATOMIC CHARGES
-----------------------
   0 C :   -0.278334
   1 C :    0.052266
   2 O :   -0.340156
   3 C :    0.427840
   4 O :   -0.420317
   5 C :   -0.169074
   6 C :    0.143565
   7 C :   -0.287826
   8 N :   -0.123041
   9 C :    0.201706
  10 S :   -0.439347
  11 N :   -0.197653
  12 C :    0.038507
  13 C :    0.056122
  14 C :   -0.160490
  15 C :   -0.134073
  16 C :   -0.279466
  17 C :    0.311224
  18 O :   -0.359170
  19 C :   -0.273234
  20 H :    0.095062
  21 H :    0.102480
  22 H :    0.096093
  23 H :    0.091384
  24 H :    0.097594
  25 H :    0.126986
  26 H :    0.104450
  27 H :    0.126819
  28 H :    0.196871
  29 H :    0.193697
  30 H :    0.153645
  31 H :    0.153500
  32 H :    0.159299
  33 H :    0.128212
  34 H :    0.240116
  35 H :    0.164744
Sum of atomic charges:   -0.0000000

LOEWDIN ATOMIC CHARGES
----------------------
   0 C :    0.106983
   1 C :   -0.017719
   2 O :    0.304710
   3 C :   -0.415266
   4 O :    0.107446
   5 C :   -0.091753
   6 C :   -0.067111
   7 C :    0.125164
   8 N :    0.404698
   9 C :   -0.458696
  10 S :   -0.036043
  11 N :    0.397736
  12 C :   -0.046249
  13 C :   -0.038940
  14 C :    0.022183
  15 C :    0.040861
  16 C :   -0.002482
  17 C :   -0.192859
  18 O :    0.392920
  19 C :    0.028169
  20 H :   -0.028085
  21 H :   -0.022691
  22 H :   -0.027796
  23 H :   -0.026508
  24 H :   -0.028819
  25 H :   -0.008413
  26 H :   -0.020758
  27 H :   -0.010269
  28 H :   -0.059117
  29 H :   -0.063726
  30 H :   -0.004835
  31 H :   -0.025205
  32 H :   -0.021154
  33 H :   -0.036394
  34 H :   -0.154884
  35 H :   -0.025097

  Mayer bond orders larger than 0.100000
B(  0-C ,  1-C ) :   0.9698 B(  0-C , 20-H ) :   0.9776 B(  0-C , 21-H ) :   0.9788
B(  0-C , 22-H ) :   0.9772 B(  1-C ,  2-O ) :   0.9069 B(  1-C , 23-H ) :   0.9736
B(  1-C , 24-H ) :   0.9807 B(  2-O ,  3-C ) :   1.1525 B(  3-C ,  4-O ) :   1.9978
B(  3-C ,  5-C ) :   1.0465 B(  5-C ,  6-C ) :   1.6504 B(  5-C , 12-C ) :   0.9665
B(  6-C ,  7-C ) :   0.9537 B(  6-C ,  8-N ) :   1.1436 B(  7-C , 25-H ) :   0.9665
B(  7-C , 26-H ) :   0.9916 B(  7-C , 27-H ) :   0.9631 B(  8-N ,  9-C ) :   1.1796
B(  8-N , 28-H ) :   0.9489 B(  9-C , 10-S ) :   1.6107 B(  9-C , 11-N ) :   1.3038
B( 11-N , 12-C ) :   0.9915 B( 11-N , 29-H ) :   0.9520 B( 12-C , 13-C ) :   0.9472
B( 12-C , 30-H ) :   0.9995 B( 13-C , 14-C ) :   1.3760 B( 13-C , 19-C ) :   1.3693
B( 14-C , 15-C ) :   1.3947 B( 14-C , 31-H ) :   0.9648 B( 15-C , 16-C ) :   1.3625
B( 15-C , 32-H ) :   0.9714 B( 16-C , 17-C ) :   1.3314 B( 16-C , 33-H ) :   0.9860
B( 17-C , 18-O ) :   1.1080 B( 17-C , 19-C ) :   1.3789 B( 18-O , 34-H ) :   0.9805
B( 19-C , 35-H ) :   0.9585

MP2 TOTAL ENERGY:    -1274.345203421 Eh
FINAL SINGLE POINT ENERGY     -1274.345203420858

DIPOLE MOMENT
-------------
                                X             Y             Z
Electronic contribution:     12.08042       8.68007      10.29778
Nuclear contribution   :    -13.56651     -10.01437     -11.20954
                        -----------------------------------------
Total Dipole Moment    :     -1.48609      -1.33430      -0.91176
                        -----------------------------------------
Magnitude (a.u.)       :      2.19548
Magnitude (Debye)      :      5.58046

Rotational constants in cm-1:     0.010330     0.009046     0.006017
Rotational constants in MHz :   309.680267   271.192230   180.395653

                             ****ORCA TERMINATED NORMALLY****
TOTAL RUN TIME: 0 days 1 hours 53 minutes 38 seconds 187 msec
