                         Program Version 5.0.0 -  RELEASE  -
|  1> ! ri-mp2 cc-pvtz cc-pvtz/c TightSCF NoKeepInts
|  2>
|  3> %scf
|  4>   MaxCore 4096
|  5> end
|  6> *xyz  0  1
|  7>     C       15.1370581   14.8290181   16.9945752
|  8>     C       16.4037919   14.0409250   16.5861176
|  9>     O       17.5852669   14.8665064   16.4365103
| 10>     C       17.4993465   16.1913394   16.1193717
| 11>     O       16.9381444   16.5454704   15.0974303
| 12>     C       17.7796636   17.0972204   17.2891295
| 13>     C       17.4522383   18.4150055   17.2842791
| 14>     C       16.6913990   19.1702069   16.2156420
| 15>     N       17.8775545   19.2441195   18.3272838
| 16>     C       18.7987289   18.8867812   19.2763874
| 17>     S       19.3975651   19.9733053   20.3700498
| 18>     N       19.2054302   17.5763417   19.2669329
| 19>     C       18.5692796   16.5089796   18.4725103
| 20>     C       17.7198056   15.6360028   19.3920744
| 21>     C       18.0279658   14.2730813   19.5630785
| 22>     C       17.2549003   13.4653783   20.4139442
| 23>     C       16.1692061   14.0262928   21.1075400
| 24>     C       15.8680368   15.3861433   20.9520898
| 25>     O       14.8211910   15.9312957   21.6208832
| 26>     C       16.6389798   16.1872568   20.1042166
| 27>     H       15.3064043   15.4281017   17.8939664
| 28>     H       14.3161054   14.1339891   17.2076717
| 29>     H       14.8027869   15.4938077   16.1884180
| 30>     H       16.6030480   13.2571953   17.3278828
| 31>     H       16.1998925   13.5420524   15.6296087
| 32>     H       17.2554697   19.1781667   15.2741386
| 33>     H       16.4865559   20.2116216   16.4899103
| 34>     H       15.7267470   18.6871539   16.0144597
| 35>     H       17.5977800   20.2120074   18.3386852
| 36>     H       19.8649901   17.3341551   19.9951627
| 37>     H       19.3737308   15.8863033   18.0562474
| 38>     H       18.8660409   13.8357882   19.0265238
| 39>     H       17.4995878   12.4115217   20.5359518
| 40>     H       15.5693409   13.4068722   21.7663247
| 41>     H       14.4507648   15.2439668   22.1948441
| 42>     H       16.3922026   17.2386266   20.0041574
| 43> *
| 44>
| 45>                          ****END OF INPUT****

CARTESIAN COORDINATES (ANGSTROEM)
---------------------------------
  C     15.137058   14.829018   16.994575
  C     16.403792   14.040925   16.586118
  O     17.585267   14.866506   16.436510
  C     17.499347   16.191339   16.119372
  O     16.938144   16.545470   15.097430
  C     17.779664   17.097220   17.289130
  C     17.452238   18.415005   17.284279
  C     16.691399   19.170207   16.215642
  N     17.877554   19.244119   18.327284
  C     18.798729   18.886781   19.276387
  S     19.397565   19.973305   20.370050
  N     19.205430   17.576342   19.266933
  C     18.569280   16.508980   18.472510
  C     17.719806   15.636003   19.392074
  C     18.027966   14.273081   19.563078
  C     17.254900   13.465378   20.413944
  C     16.169206   14.026293   21.107540
  C     15.868037   15.386143   20.952090
  O     14.821191   15.931296   21.620883
  C     16.638980   16.187257   20.104217
  H     15.306404   15.428102   17.893966
  H     14.316105   14.133989   17.207672
  H     14.802787   15.493808   16.188418
  H     16.603048   13.257195   17.327883
  H     16.199893   13.542052   15.629609
  H     17.255470   19.178167   15.274139
  H     16.486556   20.211622   16.489910
  H     15.726747   18.687154   16.014460
  H     17.597780   20.212007   18.338685
  H     19.864990   17.334155   19.995163
  H     19.373731   15.886303   18.056247
  H     18.866041   13.835788   19.026524
  H     17.499588   12.411522   20.535952
  H     15.569341   13.406872   21.766325
  H     14.450765   15.243967   22.194844
  H     16.392203   17.238627   20.004157

 Total Charge           Charge          ....    0
 Multiplicity           Mult            ....    1
 Number of Electrons    NEL             ....  154
 Basis Dimension        Dim             ....  828

ORBITAL ENERGIES
----------------

  NO   OCC          E(Eh)            E(eV)
   0   2.0000     -91.890944     -2500.4797
   1   2.0000     -20.599936      -560.5528
   2   2.0000     -20.581969      -560.0638
   3   2.0000     -20.546895      -559.1094
   4   2.0000     -15.631132      -425.3447
   5   2.0000     -15.609539      -424.7571
   6   2.0000     -11.393986      -310.0461
   7   2.0000     -11.385464      -309.8142
   8   2.0000     -11.337239      -308.5020
   9   2.0000     -11.317385      -307.9617
  10   2.0000     -11.311758      -307.8086
  11   2.0000     -11.299478      -307.4744
  12   2.0000     -11.262943      -306.4802
  13   2.0000     -11.259784      -306.3943
  14   2.0000     -11.259044      -306.3742
  15   2.0000     -11.253491      -306.2231
  16   2.0000     -11.247003      -306.0465
  17   2.0000     -11.241650      -305.9008
  18   2.0000     -11.241505      -305.8969
  19   2.0000     -11.223705      -305.4125
  20   2.0000      -8.895965      -242.0715
  21   2.0000      -6.577529      -178.9837
  22   2.0000      -6.575537      -178.9294
  23   2.0000      -6.574939      -178.9132
  24   2.0000      -1.444809       -39.3152
  25   2.0000      -1.419671       -38.6312
  26   2.0000      -1.350359       -36.7451
  27   2.0000      -1.342114       -36.5208
  28   2.0000      -1.240299       -33.7503
  29   2.0000      -1.160563       -31.5805
  30   2.0000      -1.121114       -30.5071
  31   2.0000      -1.045084       -28.4382
  32   2.0000      -1.031107       -28.0579
  33   2.0000      -1.019052       -27.7298
  34   2.0000      -0.998524       -27.1712
  35   2.0000      -0.986501       -26.8441
  36   2.0000      -0.924841       -25.1662
  37   2.0000      -0.896712       -24.4008
  38   2.0000      -0.848597       -23.0915
  39   2.0000      -0.842529       -22.9264
  40   2.0000      -0.837796       -22.7976
  41   2.0000      -0.817904       -22.2563
  42   2.0000      -0.745520       -20.2866
  43   2.0000      -0.734390       -19.9838
  44   2.0000      -0.721827       -19.6419
  45   2.0000      -0.699155       -19.0250
  46   2.0000      -0.691450       -18.8153
  47   2.0000      -0.673392       -18.3239
  48   2.0000      -0.670278       -18.2392
  49   2.0000      -0.661933       -18.0121
  50   2.0000      -0.652241       -17.7484
  51   2.0000      -0.644201       -17.5296
  52   2.0000      -0.636478       -17.3194
  53   2.0000      -0.625164       -17.0116
  54   2.0000      -0.610211       -16.6047
  55   2.0000      -0.602769       -16.4022
  56   2.0000      -0.600647       -16.3444
  57   2.0000      -0.580481       -15.7957
  58   2.0000      -0.571982       -15.5644
  59   2.0000      -0.565476       -15.3874
  60   2.0000      -0.547495       -14.8981
  61   2.0000      -0.544373       -14.8131
  62   2.0000      -0.533876       -14.5275
  63   2.0000      -0.530851       -14.4452
  64   2.0000      -0.527728       -14.3602
  65   2.0000      -0.515826       -14.0363
  66   2.0000      -0.503924       -13.7125
  67   2.0000      -0.497334       -13.5332
  68   2.0000      -0.482022       -13.1165
  69   2.0000      -0.463465       -12.6115
  70   2.0000      -0.455005       -12.3813
  71   2.0000      -0.443173       -12.0594
  72   2.0000      -0.356859        -9.7106
  73   2.0000      -0.351846        -9.5742
  74   2.0000      -0.330223        -8.9858
  75   2.0000      -0.325490        -8.8570
  76   2.0000      -0.317875        -8.6498
  77   0.0000       0.068627         1.8674
  78   0.0000       0.102493         2.7890
  79   0.0000       0.121796         3.3142
  80   0.0000       0.129187         3.5154
  81   0.0000       0.134083         3.6486

MULLIKEN ATOMIC CHARGES
-----------------------
   0 C :   -0.336418
   1 C :    0.036980
   2 O :   -0.397906
   3 C :    0.513646
   4 O :   -0.417414
   5 C :   -0.250116
   6 C :    0.148879
   7 C :   -0.271557
   8 N :   -0.123241
   9 C :    0.200984
  10 S :   -0.433999
  11 N :   -0.195142
  12 C :    0.041578
  13 C :    0.062370
  14 C :   -0.201273
  15 C :   -0.127768
  16 C :   -0.276268
  17 C :    0.316511
  18 O :   -0.358161
  19 C :   -0.277910
  20 H :    0.110952
  21 H :    0.108609
  22 H :    0.121346
  23 H :    0.112450
  24 H :    0.120648
  25 H :    0.135570
  26 H :    0.094841
  27 H :    0.128717
  28 H :    0.198360
  29 H :    0.191804
  30 H :    0.151982
  31 H :    0.160000
  32 H :    0.165747
  33 H :    0.133092
  34 H :    0.240996
  35 H :    0.171108
Sum of atomic charges:    0.0000000

LOEWDIN ATOMIC CHARGES
----------------------
   0 C :    0.107042
   1 C :   -0.010217
   2 O :    0.280609
   3 C :   -0.420777
   4 O :    0.116015
   5 C :   -0.097909
   6 C :   -0.058756
   7 C :    0.131145
   8 N :    0.406761
   9 C :   -0.458512
  10 S :   -0.031804
  11 N :    0.396562
  12 C :   -0.052295
  13 C :   -0.039176
  14 C :    0.017870
  15 C :    0.039597
  16 C :   -0.001577
  17 C :   -0.190795
  18 O :    0.396454
  19 C :    0.032169
  20 H :   -0.032906
  21 H :   -0.023151
  22 H :   -0.027435
  23 H :   -0.027762
  24 H :   -0.028340
  25 H :   -0.003021
  26 H :   -0.023218
  27 H :   -0.006031
  28 H :   -0.057630
  29 H :   -0.064912
  30 H :   -0.006836
  31 H :   -0.028174
  32 H :   -0.020644
  33 H :   -0.034786
  34 H :   -0.153192
  35 H :   -0.024366

  Mayer bond orders larger than 0.100000
B(  0-C ,  1-C ) :   0.9556 B(  0-C , 20-H ) :   0.9689 B(  0-C , 21-H ) :   0.9773
B(  0-C , 22-H ) :   0.9728 B(  1-C ,  2-O ) :   0.8806 B(  1-C , 23-H ) :   0.9766
B(  1-C , 24-H ) :   0.9866 B(  2-O ,  3-C ) :   1.1023 B(  3-C ,  4-O ) :   2.0044
B(  3-C ,  5-C ) :   1.0568 B(  5-C ,  6-C ) :   1.6556 B(  5-C , 12-C ) :   0.9673
B(  6-C ,  7-C ) :   0.9690 B(  6-C ,  8-N ) :   1.1493 B(  7-C , 25-H ) :   0.9574
B(  7-C , 26-H ) :   0.9890 B(  7-C , 27-H ) :   0.9642 B(  8-N ,  9-C ) :   1.1783
B(  8-N , 28-H ) :   0.9484 B(  9-C , 10-S ) :   1.6184 B(  9-C , 11-N ) :   1.2997
B( 11-N , 12-C ) :   0.9868 B( 11-N , 29-H ) :   0.9536 B( 12-C , 13-C ) :   0.9404
B( 12-C , 30-H ) :   1.0031 B( 13-C , 14-C ) :   1.3511 B( 13-C , 19-C ) :   1.3681
B( 14-C , 15-C ) :   1.3815 B( 14-C , 31-H ) :   0.9700 B( 15-C , 16-C ) :   1.3668
B( 15-C , 32-H ) :   0.9692 B( 16-C , 17-C ) :   1.3285 B( 16-C , 33-H ) :   0.9836
B( 17-C , 18-O ) :   1.1122 B( 17-C , 19-C ) :   1.3743 B( 18-O , 34-H ) :   0.9797
B( 19-C , 35-H ) :   0.9588

MP2 TOTAL ENERGY:    -1274.330493813 Eh
FINAL SINGLE POINT ENERGY     -1274.330493812608

DIPOLE MOMENT
-------------
                                X             Y             Z
Electronic contribution:     10.07260       8.47759       5.80486
Nuclear contribution   :    -11.17337     -10.09491      -5.73880
                        -----------------------------------------
Total Dipole Moment    :     -1.10077      -1.61732       0.06606
                        -----------------------------------------
Magnitude (a.u.)       :      1.95749
Magnitude (Debye)      :      4.97556

Rotational constants in cm-1:     0.012041     0.009622     0.006631
Rotational constants in MHz :   360.967429   288.461748   198.802794

                             ****ORCA TERMINATED NORMALLY****
TOTAL RUN TIME: 0 days 2 hours 11 minutes 44 seconds 853 msec
