                         Program Version 5.0.0 -  RELEASE  -
|  1> ! ri-mp2 cc-pvtz cc-pvtz/c TightSCF NoKeepInts
|  2>
|  3> %scf
|  4>   MaxCore 4096
|  5> end
|  6> *xyz  0  1
|  7>     C       15.3214667   13.3683225   16.8290304
|  8>     C       15.4821249   14.6918191   16.0573500
|  9>     O       16.2949631   15.5370604   16.8795323
| 10>     C       16.6250685   16.7945668   16.4748937
| 11>     O       16.1726012   17.2987908   15.4603413
| 12>     C       17.4518252   17.5100798   17.5053068
| 13>     C       17.4996938   18.8641170   17.5831147
| 14>     C       16.7319058   19.8558465   16.7349916
| 15>     N       18.3645822   19.4846224   18.4903780
| 16>     C       19.3088474   18.8348282   19.2387898
| 17>     S       20.3626173   19.6489772   20.2188794
| 18>     N       19.3411317   17.4686094   19.1368354
| 19>     C       18.3789560   16.6454655   18.3848991
| 20>     C       17.7020129   15.6619553   19.3388027
| 21>     C       18.1840098   14.3405660   19.4163934
| 22>     C       17.5831554   13.4041228   20.2727012
| 23>     C       16.4884592   13.7917344   21.0617955
| 24>     C       16.0186842   15.1117241   21.0063547
| 25>     O       14.9702057   15.4861658   21.7821734
| 26>     C       16.6232848   16.0453392   20.1558900
| 27>     H       14.6096046   13.4997797   17.6549957
| 28>     H       16.2779405   13.0425235   17.2574374
| 29>     H       14.9452754   12.5730732   16.1751143
| 30>     H       16.0086828   14.5069974   15.1120106
| 31>     H       14.5059922   15.1411720   15.8303048
| 32>     H       15.6724641   19.5806873   16.6548075
| 33>     H       17.1433808   19.8710134   15.7176514
| 34>     H       16.7764960   20.8786222   17.1277987
| 35>     H       18.3581470   20.4881951   18.5843604
| 36>     H       20.0212618   17.0190270   19.7363085
| 37>     H       18.9641916   16.0425519   17.6757108
| 38>     H       19.0251176   14.0337719   18.8009335
| 39>     H       17.9631726   12.3847445   20.3201257
| 40>     H       16.0140701   13.0688587   21.7170063
| 41>     H       14.7095608   14.7149573   22.3083236
| 42>     H       16.2460462   17.0613117   20.1326575
| 43> *
| 44>
| 45>                          ****END OF INPUT****

CARTESIAN COORDINATES (ANGSTROEM)
---------------------------------
  C     15.321467   13.368322   16.829030
  C     15.482125   14.691819   16.057350
  O     16.294963   15.537060   16.879532
  C     16.625069   16.794567   16.474894
  O     16.172601   17.298791   15.460341
  C     17.451825   17.510080   17.505307
  C     17.499694   18.864117   17.583115
  C     16.731906   19.855846   16.734992
  N     18.364582   19.484622   18.490378
  C     19.308847   18.834828   19.238790
  S     20.362617   19.648977   20.218879
  N     19.341132   17.468609   19.136835
  C     18.378956   16.645466   18.384899
  C     17.702013   15.661955   19.338803
  C     18.184010   14.340566   19.416393
  C     17.583155   13.404123   20.272701
  C     16.488459   13.791734   21.061795
  C     16.018684   15.111724   21.006355
  O     14.970206   15.486166   21.782173
  C     16.623285   16.045339   20.155890
  H     14.609605   13.499780   17.654996
  H     16.277940   13.042523   17.257437
  H     14.945275   12.573073   16.175114
  H     16.008683   14.506997   15.112011
  H     14.505992   15.141172   15.830305
  H     15.672464   19.580687   16.654808
  H     17.143381   19.871013   15.717651
  H     16.776496   20.878622   17.127799
  H     18.358147   20.488195   18.584360
  H     20.021262   17.019027   19.736308
  H     18.964192   16.042552   17.675711
  H     19.025118   14.033772   18.800933
  H     17.963173   12.384744   20.320126
  H     16.014070   13.068859   21.717006
  H     14.709561   14.714957   22.308324
  H     16.246046   17.061312   20.132658

 Total Charge           Charge          ....    0
 Multiplicity           Mult            ....    1
 Number of Electrons    NEL             ....  154
 Basis Dimension        Dim             ....  828

ORBITAL ENERGIES
----------------

  NO   OCC          E(Eh)            E(eV)
   0   2.0000     -91.887870     -2500.3961
   1   2.0000     -20.601713      -560.6011
   2   2.0000     -20.596595      -560.4618
   3   2.0000     -20.544707      -559.0499
   4   2.0000     -15.627462      -425.2449
   5   2.0000     -15.607970      -424.7145
   6   2.0000     -11.394454      -310.0589
   7   2.0000     -11.383208      -309.7528
   8   2.0000     -11.334949      -308.4397
   9   2.0000     -11.313794      -307.8640
  10   2.0000     -11.311565      -307.8033
  11   2.0000     -11.295916      -307.3775
  12   2.0000     -11.261039      -306.4285
  13   2.0000     -11.260163      -306.4046
  14   2.0000     -11.254999      -306.2641
  15   2.0000     -11.252793      -306.2041
  16   2.0000     -11.242133      -305.9140
  17   2.0000     -11.237384      -305.7848
  18   2.0000     -11.237042      -305.7755
  19   2.0000     -11.227320      -305.5109
  20   2.0000      -8.892989      -241.9905
  21   2.0000      -6.574572      -178.9032
  22   2.0000      -6.572558      -178.8484
  23   2.0000      -6.571977      -178.8326
  24   2.0000      -1.454480       -39.5784
  25   2.0000      -1.416129       -38.5348
  26   2.0000      -1.356647       -36.9162
  27   2.0000      -1.339088       -36.4384
  28   2.0000      -1.238480       -33.7007
  29   2.0000      -1.156326       -31.4652
  30   2.0000      -1.120378       -30.4870
  31   2.0000      -1.043088       -28.3839
  32   2.0000      -1.039884       -28.2967
  33   2.0000      -1.014565       -27.6077
  34   2.0000      -0.996290       -27.1104
  35   2.0000      -0.983510       -26.7627
  36   2.0000      -0.922518       -25.1030
  37   2.0000      -0.888533       -24.1782
  38   2.0000      -0.846573       -23.0364
  39   2.0000      -0.837159       -22.7803
  40   2.0000      -0.832981       -22.6666
  41   2.0000      -0.816092       -22.2070
  42   2.0000      -0.765744       -20.8370
  43   2.0000      -0.731071       -19.8934
  44   2.0000      -0.723233       -19.6802
  45   2.0000      -0.695143       -18.9158
  46   2.0000      -0.687890       -18.7184
  47   2.0000      -0.679150       -18.4806
  48   2.0000      -0.675780       -18.3889
  49   2.0000      -0.666835       -18.1455
  50   2.0000      -0.648070       -17.6349
  51   2.0000      -0.645350       -17.5609
  52   2.0000      -0.635389       -17.2898
  53   2.0000      -0.607189       -16.5224
  54   2.0000      -0.600415       -16.3381
  55   2.0000      -0.598381       -16.2828
  56   2.0000      -0.584853       -15.9147
  57   2.0000      -0.577304       -15.7092
  58   2.0000      -0.571715       -15.5572
  59   2.0000      -0.570290       -15.5184
  60   2.0000      -0.562172       -15.2975
  61   2.0000      -0.551482       -15.0066
  62   2.0000      -0.537779       -14.6337
  63   2.0000      -0.525405       -14.2970
  64   2.0000      -0.515060       -14.0155
  65   2.0000      -0.512483       -13.9454
  66   2.0000      -0.510072       -13.8798
  67   2.0000      -0.498707       -13.5705
  68   2.0000      -0.480145       -13.0654
  69   2.0000      -0.462833       -12.5943
  70   2.0000      -0.458961       -12.4890
  71   2.0000      -0.450292       -12.2531
  72   2.0000      -0.353224        -9.6117
  73   2.0000      -0.347433        -9.4541
  74   2.0000      -0.327560        -8.9134
  75   2.0000      -0.321130        -8.7384
  76   2.0000      -0.316591        -8.6149
  77   0.0000       0.080194         2.1822
  78   0.0000       0.107812         2.9337
  79   0.0000       0.121399         3.3034
  80   0.0000       0.131879         3.5886
  81   0.0000       0.135088         3.6759

MULLIKEN ATOMIC CHARGES
-----------------------
   0 C :   -0.267207
   1 C :    0.045861
   2 O :   -0.325324
   3 C :    0.419230
   4 O :   -0.428845
   5 C :   -0.221802
   6 C :    0.168751
   7 C :   -0.268169
   8 N :   -0.127523
   9 C :    0.219163
  10 S :   -0.444247
  11 N :   -0.212180
  12 C :    0.061528
  13 C :    0.099430
  14 C :   -0.223135
  15 C :   -0.123539
  16 C :   -0.280981
  17 C :    0.315885
  18 O :   -0.357951
  19 C :   -0.249797
  20 H :    0.097315
  21 H :    0.097249
  22 H :    0.097283
  23 H :    0.084915
  24 H :    0.095818
  25 H :    0.126622
  26 H :    0.133891
  27 H :    0.095048
  28 H :    0.196227
  29 H :    0.198808
  30 H :    0.138839
  31 H :    0.148071
  32 H :    0.161856
  33 H :    0.129670
  34 H :    0.241093
  35 H :    0.158148
Sum of atomic charges:    0.0000000

LOEWDIN ATOMIC CHARGES
----------------------
   0 C :    0.108364
   1 C :   -0.018235
   2 O :    0.323522
   3 C :   -0.420548
   4 O :    0.096737
   5 C :   -0.091335
   6 C :   -0.064093
   7 C :    0.131180
   8 N :    0.405517
   9 C :   -0.455042
  10 S :   -0.037055
  11 N :    0.395389
  12 C :   -0.051908
  13 C :   -0.033214
  14 C :    0.008035
  15 C :    0.040811
  16 C :   -0.003065
  17 C :   -0.187630
  18 O :    0.394168
  19 C :    0.033982
  20 H :   -0.026145
  21 H :   -0.026242
  22 H :   -0.027350
  23 H :   -0.031817
  24 H :   -0.027904
  25 H :   -0.006025
  26 H :   -0.003560
  27 H :   -0.022699
  28 H :   -0.057555
  29 H :   -0.064585
  30 H :   -0.012251
  31 H :   -0.033068
  32 H :   -0.020852
  33 H :   -0.035961
  34 H :   -0.153557
  35 H :   -0.026009

  Mayer bond orders larger than 0.100000
B(  0-C ,  1-C ) :   0.9680 B(  0-C , 20-H ) :   0.9797 B(  0-C , 21-H ) :   0.9721
B(  0-C , 22-H ) :   0.9805 B(  1-C ,  2-O ) :   0.9119 B(  1-C , 23-H ) :   0.9818
B(  1-C , 24-H ) :   0.9769 B(  2-O ,  3-C ) :   1.1940 B(  3-C ,  4-O ) :   1.9786
B(  3-C ,  5-C ) :   1.0382 B(  5-C ,  6-C ) :   1.6623 B(  5-C , 12-C ) :   0.9683
B(  6-C ,  7-C ) :   0.9665 B(  6-C ,  8-N ) :   1.1616 B(  7-C , 25-H ) :   0.9666
B(  7-C , 26-H ) :   0.9575 B(  7-C , 27-H ) :   0.9871 B(  8-N ,  9-C ) :   1.1875
B(  8-N , 28-H ) :   0.9486 B(  9-C , 10-S ) :   1.5991 B(  9-C , 11-N ) :   1.3087
B( 11-N , 12-C ) :   0.9744 B( 11-N , 29-H ) :   0.9484 B( 12-C , 13-C ) :   0.9541
B( 12-C , 30-H ) :   1.0066 B( 13-C , 14-C ) :   1.3415 B( 13-C , 19-C ) :   1.3763
B( 14-C , 15-C ) :   1.3918 B( 14-C , 31-H ) :   0.9751 B( 15-C , 16-C ) :   1.3651
B( 15-C , 32-H ) :   0.9700 B( 16-C , 17-C ) :   1.3257 B( 16-C , 33-H ) :   0.9858
B( 17-C , 18-O ) :   1.1037 B( 17-C , 19-C ) :   1.3752 B( 18-O , 34-H ) :   0.9795
B( 19-C , 35-H ) :   0.9607

MP2 TOTAL ENERGY:    -1274.345714476 Eh
FINAL SINGLE POINT ENERGY     -1274.345714475543

DIPOLE MOMENT
-------------
                                X             Y             Z
Electronic contribution:      9.31698      10.69506       7.07247
Nuclear contribution   :    -10.49530     -12.34788      -7.47813
                        -----------------------------------------
Total Dipole Moment    :     -1.17832      -1.65282      -0.40566
                        -----------------------------------------
Magnitude (a.u.)       :      2.06998
Magnitude (Debye)      :      5.26147

Rotational constants in cm-1:     0.012353     0.008377     0.005973
Rotational constants in MHz :   370.346179   251.137518   179.064783

                             ****ORCA TERMINATED NORMALLY****
TOTAL RUN TIME: 0 days 2 hours 1 minutes 8 seconds 93 msec
