                         Program Version 5.0.0 -  RELEASE  -
|  1> ! ri-mp2 cc-pvtz cc-pvtz/c TightSCF NoKeepInts
|  2>
|  3> %scf
|  4>   MaxCore 4096
|  5> end
|  6> *xyz  0  1
|  7>     C       15.2846700   13.5717990   16.1092862
|  8>     C       16.2732150   14.4844635   16.8527272
|  9>     O       16.8726474   15.3412885   15.8704048
| 10>     C       16.9249154   16.7026086   16.0051732
| 11>     O       16.5850966   17.3901859   15.0609169
| 12>     C       17.4705647   17.2829620   17.2907758
| 13>     C       17.3273658   18.6049968   17.5773583
| 14>     C       16.4924993   19.6268145   16.8353205
| 15>     N       18.0561476   19.1752646   18.6272299
| 16>     C       19.1511351   18.5852317   19.2032463
| 17>     S       20.1556099   19.4023031   20.2323376
| 18>     N       19.3841446   17.2793689   18.8513858
| 19>     C       18.3788048   16.4251948   18.1950928
| 20>     C       17.6463122   15.6576422   19.2954751
| 21>     C       18.1295159   14.3992642   19.7033457
| 22>     C       17.4792660   13.6741830   20.7156794
| 23>     C       16.3414575   14.2155333   21.3367646
| 24>     C       15.8677686   15.4758464   20.9495304
| 25>     O       14.7734220   16.0058549   21.5507833
| 26>     C       16.5143263   16.1937623   19.9386777
| 27>     H       14.7885202   12.8888611   16.8095067
| 28>     H       15.8060388   12.9714052   15.3532250
| 29>     H       14.5135119   14.1674703   15.6044521
| 30>     H       15.7157808   15.0635864   17.5996699
| 31>     H       17.0353751   13.8714508   17.3475809
| 32>     H       15.5008354   19.2225886   16.5958643
| 33>     H       16.9723614   19.8970666   15.8855758
| 34>     H       16.3384880   20.5482673   17.4089655
| 35>     H       17.9095604   20.1429903   18.8669295
| 36>     H       20.1930450   16.8628225   19.2937879
| 37>     H       18.9098917   15.7044491   17.5568929
| 38>     H       19.0149579   13.9798894   19.2323629
| 39>     H       17.8609725   12.7011517   21.0214176
| 40>     H       15.8376873   13.6608932   22.1219626
| 41>     H       14.5092815   15.4025905   22.2622516
| 42>     H       16.1318071   17.1719488   19.6720432
| 43> *
| 44>
| 45>                          ****END OF INPUT****

CARTESIAN COORDINATES (ANGSTROEM)
---------------------------------
  C     15.284670   13.571799   16.109286
  C     16.273215   14.484463   16.852727
  O     16.872647   15.341288   15.870405
  C     16.924915   16.702609   16.005173
  O     16.585097   17.390186   15.060917
  C     17.470565   17.282962   17.290776
  C     17.327366   18.604997   17.577358
  C     16.492499   19.626814   16.835321
  N     18.056148   19.175265   18.627230
  C     19.151135   18.585232   19.203246
  S     20.155610   19.402303   20.232338
  N     19.384145   17.279369   18.851386
  C     18.378805   16.425195   18.195093
  C     17.646312   15.657642   19.295475
  C     18.129516   14.399264   19.703346
  C     17.479266   13.674183   20.715679
  C     16.341458   14.215533   21.336765
  C     15.867769   15.475846   20.949530
  O     14.773422   16.005855   21.550783
  C     16.514326   16.193762   19.938678
  H     14.788520   12.888861   16.809507
  H     15.806039   12.971405   15.353225
  H     14.513512   14.167470   15.604452
  H     15.715781   15.063586   17.599670
  H     17.035375   13.871451   17.347581
  H     15.500835   19.222589   16.595864
  H     16.972361   19.897067   15.885576
  H     16.338488   20.548267   17.408966
  H     17.909560   20.142990   18.866930
  H     20.193045   16.862823   19.293788
  H     18.909892   15.704449   17.556893
  H     19.014958   13.979889   19.232363
  H     17.860972   12.701152   21.021418
  H     15.837687   13.660893   22.121963
  H     14.509282   15.402590   22.262252
  H     16.131807   17.171949   19.672043

 Total Charge           Charge          ....    0
 Multiplicity           Mult            ....    1
 Number of Electrons    NEL             ....  154
 Basis Dimension        Dim             ....  828

ORBITAL ENERGIES
----------------

  NO   OCC          E(Eh)            E(eV)
   0   2.0000     -91.892640     -2500.5259
   1   2.0000     -20.604887      -560.6875
   2   2.0000     -20.590809      -560.3044
   3   2.0000     -20.540895      -558.9462
   4   2.0000     -15.632879      -425.3923
   5   2.0000     -15.612008      -424.8243
   6   2.0000     -11.393075      -310.0213
   7   2.0000     -11.386764      -309.8496
   8   2.0000     -11.338657      -308.5405
   9   2.0000     -11.322784      -308.1086
  10   2.0000     -11.318493      -307.9918
  11   2.0000     -11.297456      -307.4194
  12   2.0000     -11.269431      -306.6568
  13   2.0000     -11.264788      -306.5305
  14   2.0000     -11.262186      -306.4597
  15   2.0000     -11.253786      -306.2311
  16   2.0000     -11.250621      -306.1450
  17   2.0000     -11.246714      -306.0387
  18   2.0000     -11.245519      -306.0061
  19   2.0000     -11.226075      -305.4770
  20   2.0000      -8.897606      -242.1162
  21   2.0000      -6.579160      -179.0280
  22   2.0000      -6.577179      -178.9742
  23   2.0000      -6.576574      -178.9577
  24   2.0000      -1.444866       -39.3168
  25   2.0000      -1.424457       -38.7614
  26   2.0000      -1.353481       -36.8301
  27   2.0000      -1.344790       -36.5936
  28   2.0000      -1.243308       -33.8321
  29   2.0000      -1.165375       -31.7115
  30   2.0000      -1.122366       -30.5411
  31   2.0000      -1.048993       -28.5446
  32   2.0000      -1.034995       -28.1637
  33   2.0000      -1.024262       -27.8716
  34   2.0000      -1.001002       -27.2386
  35   2.0000      -0.987495       -26.8711
  36   2.0000      -0.928275       -25.2596
  37   2.0000      -0.879653       -23.9366
  38   2.0000      -0.852646       -23.2017
  39   2.0000      -0.849664       -23.1205
  40   2.0000      -0.842006       -22.9121
  41   2.0000      -0.833843       -22.6900
  42   2.0000      -0.762864       -20.7586
  43   2.0000      -0.738580       -20.0978
  44   2.0000      -0.717834       -19.5333
  45   2.0000      -0.704820       -19.1791
  46   2.0000      -0.696551       -18.9541
  47   2.0000      -0.677332       -18.4311
  48   2.0000      -0.672283       -18.2938
  49   2.0000      -0.668846       -18.2002
  50   2.0000      -0.653571       -17.7846
  51   2.0000      -0.647174       -17.6105
  52   2.0000      -0.642681       -17.4882
  53   2.0000      -0.616954       -16.7882
  54   2.0000      -0.607964       -16.5435
  55   2.0000      -0.603152       -16.4126
  56   2.0000      -0.588565       -16.0157
  57   2.0000      -0.584447       -15.9036
  58   2.0000      -0.574470       -15.6321
  59   2.0000      -0.572263       -15.5721
  60   2.0000      -0.565017       -15.3749
  61   2.0000      -0.547755       -14.9052
  62   2.0000      -0.540259       -14.7012
  63   2.0000      -0.534344       -14.5402
  64   2.0000      -0.521089       -14.1795
  65   2.0000      -0.515368       -14.0239
  66   2.0000      -0.510786       -13.8992
  67   2.0000      -0.503637       -13.7047
  68   2.0000      -0.483475       -13.1560
  69   2.0000      -0.465359       -12.6631
  70   2.0000      -0.451218       -12.2783
  71   2.0000      -0.444577       -12.0975
  72   2.0000      -0.362762        -9.8713
  73   2.0000      -0.356828        -9.7098
  74   2.0000      -0.333556        -9.0765
  75   2.0000      -0.328313        -8.9339
  76   2.0000      -0.319003        -8.6805
  77   0.0000       0.071866         1.9556
  78   0.0000       0.098247         2.6734
  79   0.0000       0.116425         3.1681
  80   0.0000       0.123865         3.3705
  81   0.0000       0.129049         3.5116

MULLIKEN ATOMIC CHARGES
-----------------------
   0 C :   -0.254976
   1 C :    0.018565
   2 O :   -0.328009
   3 C :    0.454216
   4 O :   -0.387719
   5 C :   -0.262684
   6 C :    0.127780
   7 C :   -0.270196
   8 N :   -0.122040
   9 C :    0.216682
  10 S :   -0.434524
  11 N :   -0.204250
  12 C :    0.055785
  13 C :    0.057871
  14 C :   -0.230329
  15 C :   -0.127120
  16 C :   -0.275174
  17 C :    0.315098
  18 O :   -0.355684
  19 C :   -0.254921
  20 H :    0.087177
  21 H :    0.099692
  22 H :    0.101511
  23 H :    0.100472
  24 H :    0.093879
  25 H :    0.124547
  26 H :    0.142591
  27 H :    0.093641
  28 H :    0.199643
  29 H :    0.190031
  30 H :    0.157983
  31 H :    0.157233
  32 H :    0.163625
  33 H :    0.133185
  34 H :    0.243049
  35 H :    0.173371
Sum of atomic charges:   -0.0000000

LOEWDIN ATOMIC CHARGES
----------------------
   0 C :    0.109492
   1 C :   -0.030267
   2 O :    0.303901
   3 C :   -0.425562
   4 O :    0.117677
   5 C :   -0.098840
   6 C :   -0.058263
   7 C :    0.129648
   8 N :    0.408919
   9 C :   -0.453613
  10 S :   -0.029416
  11 N :    0.396058
  12 C :   -0.051756
  13 C :   -0.037109
  14 C :    0.006650
  15 C :    0.043640
  16 C :   -0.000472
  17 C :   -0.189301
  18 O :    0.396650
  19 C :    0.028072
  20 H :   -0.027415
  21 H :   -0.025775
  22 H :   -0.023903
  23 H :   -0.031353
  24 H :   -0.033781
  25 H :   -0.006354
  26 H :   -0.001533
  27 H :   -0.023045
  28 H :   -0.056710
  29 H :   -0.067483
  30 H :   -0.004550
  31 H :   -0.031855
  32 H :   -0.018704
  33 H :   -0.033954
  34 H :   -0.151451
  35 H :   -0.028241

  Mayer bond orders larger than 0.100000
B(  0-C ,  1-C ) :   0.9834 B(  0-C , 20-H ) :   0.9779 B(  0-C , 21-H ) :   0.9806
B(  0-C , 22-H ) :   0.9781 B(  1-C ,  2-O ) :   0.8883 B(  1-C , 23-H ) :   0.9641
B(  1-C , 24-H ) :   0.9736 B(  2-O ,  3-C ) :   1.1639 B(  3-C ,  4-O ) :   2.0658
B(  3-C ,  5-C ) :   1.0021 B(  5-C ,  6-C ) :   1.6508 B(  5-C , 12-C ) :   0.9602
B(  6-C ,  7-C ) :   0.9780 B(  6-C ,  8-N ) :   1.1486 B(  7-C , 25-H ) :   0.9670
B(  7-C , 26-H ) :   0.9526 B(  7-C , 27-H ) :   0.9858 B(  8-N ,  9-C ) :   1.1841
B(  8-N , 28-H ) :   0.9489 B(  9-C , 10-S ) :   1.6153 B(  9-C , 11-N ) :   1.2955
B( 11-N , 12-C ) :   0.9542 B( 11-N , 29-H ) :   0.9538 B( 12-C , 13-C ) :   0.9588
B( 12-C , 30-H ) :   0.9981 B( 13-C , 14-C ) :   1.3425 B( 13-C , 19-C ) :   1.3633
B( 14-C , 15-C ) :   1.3982 B( 14-C , 31-H ) :   0.9725 B( 15-C , 16-C ) :   1.3657
B( 15-C , 32-H ) :   0.9694 B( 16-C , 17-C ) :   1.3322 B( 16-C , 33-H ) :   0.9837
B( 17-C , 18-O ) :   1.1175 B( 17-C , 19-C ) :   1.3682 B( 18-O , 34-H ) :   0.9783
B( 19-C , 35-H ) :   0.9526

MP2 TOTAL ENERGY:    -1274.332261252 Eh
FINAL SINGLE POINT ENERGY     -1274.332261252494

DIPOLE MOMENT
-------------
                                X             Y             Z
Electronic contribution:      9.54917      10.00719       5.28556
Nuclear contribution   :    -10.70682     -11.59031      -4.41789
                        -----------------------------------------
Total Dipole Moment    :     -1.15765      -1.58312       0.86767
                        -----------------------------------------
Magnitude (a.u.)       :      2.14459
Magnitude (Debye)      :      5.45112

Rotational constants in cm-1:     0.011143     0.009440     0.006449
Rotational constants in MHz :   334.047353   283.000364   193.349753

                             ****ORCA TERMINATED NORMALLY****
TOTAL RUN TIME: 0 days 1 hours 59 minutes 43 seconds 9 msec
