                         Program Version 5.0.0 -  RELEASE  -
|  1> ! ri-mp2 cc-pvtz cc-pvtz/c TightSCF NoKeepInts
|  2>
|  3> %scf
|  4>   MaxCore 4096
|  5> end
|  6> *xyz  0  1
|  7>     C       14.8737987   14.4785574   17.3331585
|  8>     C       15.5263640   15.6431797   16.5704788
|  9>     O       16.8151356   15.1745255   16.1211644
| 10>     C       18.0378204   15.6765728   16.4978995
| 11>     O       19.0200347   14.9606048   16.4349750
| 12>     C       18.0395231   16.8883520   17.3721389
| 13>     C       17.5539305   18.0842817   16.9649081
| 14>     C       16.9580636   18.4109645   15.6120887
| 15>     N       17.6414209   19.1941998   17.8078322
| 16>     C       18.2940449   19.2067180   19.0134288
| 17>     S       18.4053582   20.5816576   19.9249965
| 18>     N       18.8462968   18.0194845   19.4290498
| 19>     C       18.7041709   16.7226770   18.7368018
| 20>     C       17.9251625   15.7214699   19.5837968
| 21>     C       18.3695393   14.3910932   19.6914304
| 22>     C       17.6475790   13.4539070   20.4490217
| 23>     C       16.4676084   13.8482848   21.1023135
| 24>     C       16.0163402   15.1701765   20.9901096
| 25>     O       14.8680883   15.5502022   21.6044903
| 26>     C       16.7364797   16.1010913   20.2347501
| 27>     H       15.4982955   14.1742164   18.1821860
| 28>     H       14.7445277   13.6101174   16.6752251
| 29>     H       13.8891465   14.7700242   17.7181102
| 30>     H       14.9044484   15.9131066   15.7072843
| 31>     H       15.5816453   16.5044571   17.2438769
| 32>     H       17.1401926   17.6182793   14.8757806
| 33>     H       17.3998378   19.3273780   15.2000957
| 34>     H       15.8741373   18.5623814   15.6832319
| 35>     H       17.2561878   20.0786374   17.5152092
| 36>     H       19.3030697   18.0541446   20.3317675
| 37>     H       19.7140215   16.3190725   18.5703771
| 38>     H       19.2718762   14.0783413   19.1699882
| 39>     H       18.0005621   12.4264269   20.5203568
| 40>     H       15.9054589   13.1260919   21.6851588
| 41>     H       14.5506303   14.7933127   22.1201546
| 42>     H       16.3662028   17.1180120   20.1603636
| 43> *
| 44>
| 45>                          ****END OF INPUT****

CARTESIAN COORDINATES (ANGSTROEM)
---------------------------------
  C     14.873799   14.478557   17.333158
  C     15.526364   15.643180   16.570479
  O     16.815136   15.174525   16.121164
  C     18.037820   15.676573   16.497899
  O     19.020035   14.960605   16.434975
  C     18.039523   16.888352   17.372139
  C     17.553930   18.084282   16.964908
  C     16.958064   18.410964   15.612089
  N     17.641421   19.194200   17.807832
  C     18.294045   19.206718   19.013429
  S     18.405358   20.581658   19.924996
  N     18.846297   18.019485   19.429050
  C     18.704171   16.722677   18.736802
  C     17.925162   15.721470   19.583797
  C     18.369539   14.391093   19.691430
  C     17.647579   13.453907   20.449022
  C     16.467608   13.848285   21.102314
  C     16.016340   15.170176   20.990110
  O     14.868088   15.550202   21.604490
  C     16.736480   16.101091   20.234750
  H     15.498295   14.174216   18.182186
  H     14.744528   13.610117   16.675225
  H     13.889146   14.770024   17.718110
  H     14.904448   15.913107   15.707284
  H     15.581645   16.504457   17.243877
  H     17.140193   17.618279   14.875781
  H     17.399838   19.327378   15.200096
  H     15.874137   18.562381   15.683232
  H     17.256188   20.078637   17.515209
  H     19.303070   18.054145   20.331768
  H     19.714022   16.319073   18.570377
  H     19.271876   14.078341   19.169988
  H     18.000562   12.426427   20.520357
  H     15.905459   13.126092   21.685159
  H     14.550630   14.793313   22.120155
  H     16.366203   17.118012   20.160364

 Total Charge           Charge          ....    0
 Multiplicity           Mult            ....    1
 Number of Electrons    NEL             ....  154
 Basis Dimension        Dim             ....  828

ORBITAL ENERGIES
----------------

  NO   OCC          E(Eh)            E(eV)
   0   2.0000     -91.890810     -2500.4761
   1   2.0000     -20.601357      -560.5914
   2   2.0000     -20.600348      -560.5640
   3   2.0000     -20.548212      -559.1453
   4   2.0000     -15.628475      -425.2724
   5   2.0000     -15.612114      -424.8272
   6   2.0000     -11.398246      -310.1620
   7   2.0000     -11.387534      -309.8705
   8   2.0000     -11.331143      -308.3361
   9   2.0000     -11.317175      -307.9560
  10   2.0000     -11.314663      -307.8876
  11   2.0000     -11.304197      -307.6028
  12   2.0000     -11.269845      -306.6681
  13   2.0000     -11.265130      -306.5398
  14   2.0000     -11.263993      -306.5088
  15   2.0000     -11.257360      -306.3283
  16   2.0000     -11.246474      -306.0321
  17   2.0000     -11.242812      -305.9325
  18   2.0000     -11.239810      -305.8508
  19   2.0000     -11.226255      -305.4819
  20   2.0000      -8.895915      -242.0701
  21   2.0000      -6.577499      -178.9829
  22   2.0000      -6.575476      -178.9278
  23   2.0000      -6.574899      -178.9121
  24   2.0000      -1.446962       -39.3738
  25   2.0000      -1.420112       -38.6432
  26   2.0000      -1.358432       -36.9648
  27   2.0000      -1.341372       -36.5006
  28   2.0000      -1.240770       -33.7631
  29   2.0000      -1.162030       -31.6205
  30   2.0000      -1.126506       -30.6538
  31   2.0000      -1.049653       -28.5625
  32   2.0000      -1.037774       -28.2393
  33   2.0000      -1.019340       -27.7377
  34   2.0000      -1.005924       -27.3726
  35   2.0000      -0.990168       -26.9438
  36   2.0000      -0.928539       -25.2668
  37   2.0000      -0.883752       -24.0481
  38   2.0000      -0.855582       -23.2816
  39   2.0000      -0.842477       -22.9250
  40   2.0000      -0.837523       -22.7901
  41   2.0000      -0.835818       -22.7438
  42   2.0000      -0.754760       -20.5381
  43   2.0000      -0.741081       -20.1658
  44   2.0000      -0.731700       -19.9106
  45   2.0000      -0.698498       -19.0071
  46   2.0000      -0.689159       -18.7530
  47   2.0000      -0.681109       -18.5339
  48   2.0000      -0.677340       -18.4314
  49   2.0000      -0.660518       -17.9736
  50   2.0000      -0.656497       -17.8642
  51   2.0000      -0.646732       -17.5985
  52   2.0000      -0.640533       -17.4298
  53   2.0000      -0.613060       -16.6822
  54   2.0000      -0.608856       -16.5678
  55   2.0000      -0.607000       -16.5173
  56   2.0000      -0.601189       -16.3592
  57   2.0000      -0.584903       -15.9160
  58   2.0000      -0.579155       -15.7596
  59   2.0000      -0.569439       -15.4952
  60   2.0000      -0.560903       -15.2630
  61   2.0000      -0.556658       -15.1474
  62   2.0000      -0.547571       -14.9002
  63   2.0000      -0.530046       -14.4233
  64   2.0000      -0.519642       -14.1402
  65   2.0000      -0.514249       -13.9934
  66   2.0000      -0.503037       -13.6883
  67   2.0000      -0.502189       -13.6653
  68   2.0000      -0.487926       -13.2771
  69   2.0000      -0.471540       -12.8313
  70   2.0000      -0.452076       -12.3016
  71   2.0000      -0.449299       -12.2261
  72   2.0000      -0.357752        -9.7349
  73   2.0000      -0.352977        -9.6050
  74   2.0000      -0.330410        -8.9909
  75   2.0000      -0.325111        -8.8467
  76   2.0000      -0.319083        -8.6827
  77   0.0000       0.082646         2.2489
  78   0.0000       0.103599         2.8191
  79   0.0000       0.112957         3.0737
  80   0.0000       0.127514         3.4698
  81   0.0000       0.133993         3.6461

MULLIKEN ATOMIC CHARGES
-----------------------
   0 C :   -0.264026
   1 C :    0.010601
   2 O :   -0.315219
   3 C :    0.399913
   4 O :   -0.385685
   5 C :   -0.186777
   6 C :    0.131185
   7 C :   -0.320958
   8 N :   -0.136207
   9 C :    0.202477
  10 S :   -0.439436
  11 N :   -0.211196
  12 C :    0.067644
  13 C :    0.023628
  14 C :   -0.193473
  15 C :   -0.128053
  16 C :   -0.278835
  17 C :    0.311565
  18 O :   -0.360651
  19 C :   -0.268906
  20 H :    0.108477
  21 H :    0.107664
  22 H :    0.090203
  23 H :    0.111135
  24 H :    0.096317
  25 H :    0.129514
  26 H :    0.135392
  27 H :    0.122438
  28 H :    0.197105
  29 H :    0.197745
  30 H :    0.164338
  31 H :    0.168433
  32 H :    0.163852
  33 H :    0.132321
  34 H :    0.241890
  35 H :    0.175586
Sum of atomic charges:   -0.0000000

LOEWDIN ATOMIC CHARGES
----------------------
   0 C :    0.109148
   1 C :   -0.021742
   2 O :    0.309532
   3 C :   -0.417398
   4 O :    0.121294
   5 C :   -0.084570
   6 C :   -0.100871
   7 C :    0.126340
   8 N :    0.401587
   9 C :   -0.456411
  10 S :   -0.036579
  11 N :    0.397420
  12 C :   -0.044505
  13 C :   -0.043708
  14 C :    0.022416
  15 C :    0.045128
  16 C :   -0.000659
  17 C :   -0.193396
  18 O :    0.395290
  19 C :    0.027045
  20 H :   -0.022744
  21 H :   -0.025736
  22 H :   -0.026458
  23 H :   -0.031379
  24 H :   -0.039973
  25 H :   -0.006983
  26 H :   -0.010319
  27 H :   -0.016233
  28 H :   -0.057657
  29 H :   -0.063491
  30 H :   -0.002260
  31 H :   -0.021586
  32 H :   -0.018355
  33 H :   -0.034665
  34 H :   -0.152769
  35 H :   -0.024752

  Mayer bond orders larger than 0.100000
B(  0-C ,  1-C ) :   0.9800 B(  0-C , 20-H ) :   0.9704 B(  0-C , 21-H ) :   0.9812
B(  0-C , 22-H ) :   0.9754 B(  1-C ,  2-O ) :   0.9034 B(  1-C , 23-H ) :   0.9783
B(  1-C , 24-H ) :   0.9612 B(  2-O ,  3-C ) :   1.1907 B(  3-C ,  4-O ) :   2.0883
B(  3-C ,  5-C ) :   0.9288 B(  5-C ,  6-C ) :   1.6839 B(  5-C , 12-C ) :   0.9592
B(  6-C ,  7-C ) :   0.9466 B(  6-C ,  8-N ) :   1.1172 B(  7-C , 25-H ) :   0.9789
B(  7-C , 26-H ) :   0.9737 B(  7-C , 27-H ) :   0.9644 B(  8-N ,  9-C ) :   1.1924
B(  8-N , 28-H ) :   0.9516 B(  9-C , 10-S ) :   1.6128 B(  9-C , 11-N ) :   1.2889
B( 11-N , 12-C ) :   0.9990 B( 11-N , 29-H ) :   0.9496 B( 12-C , 13-C ) :   0.9431
B( 12-C , 30-H ) :   0.9965 B( 13-C , 14-C ) :   1.3887 B( 13-C , 19-C ) :   1.3502
B( 14-C , 15-C ) :   1.3941 B( 14-C , 31-H ) :   0.9606 B( 15-C , 16-C ) :   1.3609
B( 15-C , 32-H ) :   0.9706 B( 16-C , 17-C ) :   1.3303 B( 16-C , 33-H ) :   0.9852
B( 17-C , 18-O ) :   1.1069 B( 17-C , 19-C ) :   1.3719 B( 18-O , 34-H ) :   0.9790
B( 19-C , 35-H ) :   0.9564

MP2 TOTAL ENERGY:    -1274.335159832 Eh
FINAL SINGLE POINT ENERGY     -1274.335159832377

DIPOLE MOMENT
-------------
                                X             Y             Z
Electronic contribution:     10.15970       8.08430       5.88915
Nuclear contribution   :    -11.69278      -8.99950      -6.30328
                        -----------------------------------------
Total Dipole Moment    :     -1.53308      -0.91520      -0.41413
                        -----------------------------------------
Magnitude (a.u.)       :      1.83288
Magnitude (Debye)      :      4.65880

Rotational constants in cm-1:     0.012373     0.009174     0.006885
Rotational constants in MHz :   370.921988   275.032627   206.417675

                             ****ORCA TERMINATED NORMALLY****
TOTAL RUN TIME: 0 days 2 hours 12 minutes 58 seconds 334 msec
