                         Program Version 5.0.0 -  RELEASE  -
|  1> ! ri-mp2 cc-pvtz cc-pvtz/c TightSCF NoKeepInts
|  2>
|  3> %scf
|  4>   MaxCore 4096
|  5> end
|  6> *xyz  0  1
|  7>     C       15.4098365   13.5583469   16.6752116
|  8>     C       16.5705294   14.1052942   15.8243873
|  9>     O       17.2321113   15.1269932   16.5903821
| 10>     C       16.8172827   16.4278103   16.5026811
| 11>     O       15.9759336   16.7949180   15.6996638
| 12>     C       17.5328874   17.3289884   17.4705376
| 13>     C       17.3655510   18.6758173   17.4730165
| 14>     C       16.4830855   19.4913942   16.5524356
| 15>     N       18.0760367   19.4691594   18.3787688
| 16>     C       19.0292208   19.0074517   19.2466152
| 17>     S       19.8836566   20.0264730   20.2302339
| 18>     N       19.2417697   17.6526111   19.2587591
| 19>     C       18.4552189   16.6605279   18.5032211
| 20>     C       17.6745629   15.7743360   19.4699120
| 21>     C       17.9961867   14.4107846   19.6063736
| 22>     C       17.2739481   13.5905704   20.4894190
| 23>     C       16.2228340   14.1383529   21.2443543
| 24>     C       15.9029447   15.4968148   21.1143968
| 25>     O       14.8891917   16.0287832   21.8426338
| 26>     C       16.6237418   16.3106629   20.2351019
| 27>     H       15.7756211   13.1962740   17.6443094
| 28>     H       14.9132002   12.7270300   16.1606722
| 29>     H       14.6632419   14.3413834   16.8589301
| 30>     H       17.2767034   13.2890547   15.6258907
| 31>     H       16.2090633   14.4846579   14.8586699
| 32>     H       15.4319918   19.1966925   16.6667987
| 33>     H       16.7577893   19.3217723   15.5035917
| 34>     H       16.5469099   20.5695152   16.7404781
| 35>     H       17.9332495   20.4664593   18.3844507
| 36>     H       19.9220478   17.3382689   19.9386428
| 37>     H       19.1688775   16.0307808   17.9536916
| 38>     H       18.8034441   13.9831754   19.0179381
| 39>     H       17.5284986   12.5365828   20.5856522
| 40>     H       15.6618363   13.5090908   21.9273814
| 41>     H       14.5335875   15.3244373   22.4049309
| 42>     H       16.3644077   17.3607343   20.1538665
| 43> *
| 44>
| 45>                          ****END OF INPUT****

CARTESIAN COORDINATES (ANGSTROEM)
---------------------------------
  C     15.409836   13.558347   16.675212
  C     16.570529   14.105294   15.824387
  O     17.232111   15.126993   16.590382
  C     16.817283   16.427810   16.502681
  O     15.975934   16.794918   15.699664
  C     17.532887   17.328988   17.470538
  C     17.365551   18.675817   17.473016
  C     16.483086   19.491394   16.552436
  N     18.076037   19.469159   18.378769
  C     19.029221   19.007452   19.246615
  S     19.883657   20.026473   20.230234
  N     19.241770   17.652611   19.258759
  C     18.455219   16.660528   18.503221
  C     17.674563   15.774336   19.469912
  C     17.996187   14.410785   19.606374
  C     17.273948   13.590570   20.489419
  C     16.222834   14.138353   21.244354
  C     15.902945   15.496815   21.114397
  O     14.889192   16.028783   21.842634
  C     16.623742   16.310663   20.235102
  H     15.775621   13.196274   17.644309
  H     14.913200   12.727030   16.160672
  H     14.663242   14.341383   16.858930
  H     17.276703   13.289055   15.625891
  H     16.209063   14.484658   14.858670
  H     15.431992   19.196692   16.666799
  H     16.757789   19.321772   15.503592
  H     16.546910   20.569515   16.740478
  H     17.933249   20.466459   18.384451
  H     19.922048   17.338269   19.938643
  H     19.168877   16.030781   17.953692
  H     18.803444   13.983175   19.017938
  H     17.528499   12.536583   20.585652
  H     15.661836   13.509091   21.927381
  H     14.533587   15.324437   22.404931
  H     16.364408   17.360734   20.153866

 Total Charge           Charge          ....    0
 Multiplicity           Mult            ....    1
 Number of Electrons    NEL             ....  154
 Basis Dimension        Dim             ....  828

ORBITAL ENERGIES
----------------

  NO   OCC          E(Eh)            E(eV)
   0   2.0000     -91.888652     -2500.4173
   1   2.0000     -20.601909      -560.6065
   2   2.0000     -20.596284      -560.4534
   3   2.0000     -20.541564      -558.9644
   4   2.0000     -15.628805      -425.2814
   5   2.0000     -15.608110      -424.7183
   6   2.0000     -11.395463      -310.0863
   7   2.0000     -11.383833      -309.7698
   8   2.0000     -11.335813      -308.4632
   9   2.0000     -11.313490      -307.8557
  10   2.0000     -11.308627      -307.7234
  11   2.0000     -11.295802      -307.3744
  12   2.0000     -11.259280      -306.3806
  13   2.0000     -11.258888      -306.3699
  14   2.0000     -11.254773      -306.2580
  15   2.0000     -11.251893      -306.1796
  16   2.0000     -11.242989      -305.9373
  17   2.0000     -11.238382      -305.8119
  18   2.0000     -11.237843      -305.7972
  19   2.0000     -11.223148      -305.3974
  20   2.0000      -8.893717      -242.0103
  21   2.0000      -6.575293      -178.9228
  22   2.0000      -6.573287      -178.8682
  23   2.0000      -6.572701      -178.8523
  24   2.0000      -1.451500       -39.4973
  25   2.0000      -1.415956       -38.5301
  26   2.0000      -1.354877       -36.8681
  27   2.0000      -1.339785       -36.4574
  28   2.0000      -1.238289       -33.6956
  29   2.0000      -1.157489       -31.4969
  30   2.0000      -1.120373       -30.4869
  31   2.0000      -1.042700       -28.3733
  32   2.0000      -1.036456       -28.2034
  33   2.0000      -1.014858       -27.6157
  34   2.0000      -0.995105       -27.0782
  35   2.0000      -0.984009       -26.7762
  36   2.0000      -0.922312       -25.0974
  37   2.0000      -0.892893       -24.2969
  38   2.0000      -0.846736       -23.0408
  39   2.0000      -0.837409       -22.7871
  40   2.0000      -0.833787       -22.6885
  41   2.0000      -0.815706       -22.1965
  42   2.0000      -0.758981       -20.6529
  43   2.0000      -0.732292       -19.9267
  44   2.0000      -0.723031       -19.6747
  45   2.0000      -0.695648       -18.9295
  46   2.0000      -0.688606       -18.7379
  47   2.0000      -0.679600       -18.4929
  48   2.0000      -0.670534       -18.2461
  49   2.0000      -0.660191       -17.9647
  50   2.0000      -0.647779       -17.6270
  51   2.0000      -0.641331       -17.4515
  52   2.0000      -0.631153       -17.1746
  53   2.0000      -0.609290       -16.5796
  54   2.0000      -0.606392       -16.5008
  55   2.0000      -0.599377       -16.3099
  56   2.0000      -0.598543       -16.2872
  57   2.0000      -0.577452       -15.7133
  58   2.0000      -0.570489       -15.5238
  59   2.0000      -0.568238       -15.4625
  60   2.0000      -0.561196       -15.2709
  61   2.0000      -0.543833       -14.7984
  62   2.0000      -0.533169       -14.5083
  63   2.0000      -0.531186       -14.4543
  64   2.0000      -0.524686       -14.2774
  65   2.0000      -0.513095       -13.9620
  66   2.0000      -0.500864       -13.6292
  67   2.0000      -0.499044       -13.5797
  68   2.0000      -0.482468       -13.1286
  69   2.0000      -0.463791       -12.6204
  70   2.0000      -0.454184       -12.3590
  71   2.0000      -0.448310       -12.1991
  72   2.0000      -0.354106        -9.6357
  73   2.0000      -0.349366        -9.5067
  74   2.0000      -0.328040        -8.9264
  75   2.0000      -0.320911        -8.7324
  76   2.0000      -0.315922        -8.5967
  77   0.0000       0.076814         2.0902
  78   0.0000       0.106480         2.8975
  79   0.0000       0.125051         3.4028
  80   0.0000       0.132900         3.6164
  81   0.0000       0.138731         3.7751

MULLIKEN ATOMIC CHARGES
-----------------------
   0 C :   -0.287221
   1 C :    0.014429
   2 O :   -0.350637
   3 C :    0.470592
   4 O :   -0.437653
   5 C :   -0.225299
   6 C :    0.151069
   7 C :   -0.273771
   8 N :   -0.120266
   9 C :    0.211549
  10 S :   -0.440479
  11 N :   -0.205113
  12 C :    0.055824
  13 C :    0.068732
  14 C :   -0.189042
  15 C :   -0.135647
  16 C :   -0.276864
  17 C :    0.315897
  18 O :   -0.356599
  19 C :   -0.267047
  20 H :    0.100814
  21 H :    0.096730
  22 H :    0.105669
  23 H :    0.107673
  24 H :    0.119147
  25 H :    0.132061
  26 H :    0.130728
  27 H :    0.095080
  28 H :    0.197063
  29 H :    0.194901
  30 H :    0.150089
  31 H :    0.148698
  32 H :    0.162593
  33 H :    0.130307
  34 H :    0.240626
  35 H :    0.165366
Sum of atomic charges:   -0.0000000

LOEWDIN ATOMIC CHARGES
----------------------
   0 C :    0.104994
   1 C :   -0.017518
   2 O :    0.310391
   3 C :   -0.413400
   4 O :    0.094114
   5 C :   -0.093998
   6 C :   -0.059343
   7 C :    0.131526
   8 N :    0.406509
   9 C :   -0.456321
  10 S :   -0.035869
  11 N :    0.396515
  12 C :   -0.052316
  13 C :   -0.039151
  14 C :    0.014368
  15 C :    0.039267
  16 C :   -0.001591
  17 C :   -0.189340
  18 O :    0.395273
  19 C :    0.032018
  20 H :   -0.027288
  21 H :   -0.027957
  22 H :   -0.024983
  23 H :   -0.027244
  24 H :   -0.027885
  25 H :   -0.004547
  26 H :   -0.004037
  27 H :   -0.023439
  28 H :   -0.057601
  29 H :   -0.064525
  30 H :   -0.011532
  31 H :   -0.030335
  32 H :   -0.021699
  33 H :   -0.035513
  34 H :   -0.153950
  35 H :   -0.023593

  Mayer bond orders larger than 0.100000
B(  0-C ,  1-C ) :   0.9645 B(  0-C , 20-H ) :   0.9721 B(  0-C , 21-H ) :   0.9768
B(  0-C , 22-H ) :   0.9777 B(  1-C ,  2-O ) :   0.8936 B(  1-C , 23-H ) :   0.9849
B(  1-C , 24-H ) :   0.9772 B(  2-O ,  3-C ) :   1.1708 B(  3-C ,  4-O ) :   1.9606
B(  3-C ,  5-C ) :   1.0614 B(  5-C ,  6-C ) :   1.6550 B(  5-C , 12-C ) :   0.9721
B(  6-C ,  7-C ) :   0.9667 B(  6-C ,  8-N ) :   1.1658 B(  7-C , 25-H ) :   0.9605
B(  7-C , 26-H ) :   0.9604 B(  7-C , 27-H ) :   0.9904 B(  8-N ,  9-C ) :   1.1833
B(  8-N , 28-H ) :   0.9479 B(  9-C , 10-S ) :   1.6066 B(  9-C , 11-N ) :   1.3055
B( 11-N , 12-C ) :   0.9876 B( 11-N , 29-H ) :   0.9513 B( 12-C , 13-C ) :   0.9362
B( 12-C , 30-H ) :   1.0024 B( 13-C , 14-C ) :   1.3527 B( 13-C , 19-C ) :   1.3824
B( 14-C , 15-C ) :   1.3908 B( 14-C , 31-H ) :   0.9721 B( 15-C , 16-C ) :   1.3598
B( 15-C , 32-H ) :   0.9706 B( 16-C , 17-C ) :   1.3319 B( 16-C , 33-H ) :   0.9851
B( 17-C , 18-O ) :   1.1101 B( 17-C , 19-C ) :   1.3712 B( 18-O , 34-H ) :   0.9799
B( 19-C , 35-H ) :   0.9581

MP2 TOTAL ENERGY:    -1274.352056202 Eh
FINAL SINGLE POINT ENERGY     -1274.352056201845

DIPOLE MOMENT
-------------
                                X             Y             Z
Electronic contribution:      8.86045      11.26696       7.57329
Nuclear contribution   :     -9.70072     -13.04181      -8.06424
                        -----------------------------------------
Total Dipole Moment    :     -0.84027      -1.77485      -0.49095
                        -----------------------------------------
Magnitude (a.u.)       :      2.02415
Magnitude (Debye)      :      5.14499

Rotational constants in cm-1:     0.012122     0.008638     0.006212
Rotational constants in MHz :   363.395864   258.964849   186.244710

                             ****ORCA TERMINATED NORMALLY****
TOTAL RUN TIME: 0 days 1 hours 32 minutes 25 seconds 833 msec
