                         Program Version 5.0.0 -  RELEASE  -
|  1> ! ri-mp2 cc-pvtz cc-pvtz/c TightSCF NoKeepInts
|  2>
|  3> %scf
|  4>   MaxCore 4096
|  5> end
|  6> *xyz  0  1
|  7>     C       15.3259448   13.8589771   15.3108051
|  8>     C       15.6939847   14.2777542   16.7466565
|  9>     O       16.8123421   15.1808585   16.6910115
| 10>     C       16.5823193   16.5261857   16.6147775
| 11>     O       15.5952516   16.9825426   16.0634503
| 12>     C       17.4748638   17.3159859   17.5327528
| 13>     C       17.4105580   18.6689629   17.6213802
| 14>     C       16.4862550   19.5945936   16.8594388
| 15>     N       18.2899727   19.3595258   18.4606468
| 16>     C       19.3249152   18.7883644   19.1517270
| 17>     S       20.3827924   19.6909565   20.0473167
| 18>     N       19.4436596   17.4251435   19.0598127
| 19>     C       18.4784795   16.5311494   18.3945898
| 20>     C       17.7810247   15.6626953   19.4381926
| 21>     C       18.0508323   14.2830998   19.5120207
| 22>     C       17.4049712   13.4781692   20.4654535
| 23>     C       16.4843808   14.0576662   21.3551688
| 24>     C       16.2179732   15.4321697   21.2886047
| 25>     O       15.3308430   15.9948524   22.1472121
| 26>     C       16.8613962   16.2303957   20.3378805
| 27>     H       14.9912727   14.7240775   14.7246297
| 28>     H       14.5136373   13.1224154   15.3222878
| 29>     H       16.1896346   13.4111070   14.8042093
| 30>     H       14.8347601   14.7410106   17.2512486
| 31>     H       15.9803903   13.3835887   17.3150722
| 32>     H       15.4402742   19.4008439   17.1298973
| 33>     H       16.5796279   19.4310351   15.7783136
| 34>     H       16.6879887   20.6551093   17.0503209
| 35>     H       18.2187068   20.3614645   18.5390035
| 36>     H       20.1945101   17.0294468   19.6107105
| 37>     H       19.0498003   15.8748446   17.7230280
| 38>     H       18.7591025   13.8319774   18.8221006
| 39>     H       17.6196662   12.4119628   20.5140451
| 40>     H       15.9840170   13.4406508   22.0943272
| 41>     H       15.0247325   15.2993426   22.7484147
| 42>     H       16.6461185   17.2930748   20.3074921
| 43> *
| 44>
| 45>                          ****END OF INPUT****

CARTESIAN COORDINATES (ANGSTROEM)
---------------------------------
  C     15.325945   13.858977   15.310805
  C     15.693985   14.277754   16.746657
  O     16.812342   15.180858   16.691011
  C     16.582319   16.526186   16.614777
  O     15.595252   16.982543   16.063450
  C     17.474864   17.315986   17.532753
  C     17.410558   18.668963   17.621380
  C     16.486255   19.594594   16.859439
  N     18.289973   19.359526   18.460647
  C     19.324915   18.788364   19.151727
  S     20.382792   19.690956   20.047317
  N     19.443660   17.425143   19.059813
  C     18.478479   16.531149   18.394590
  C     17.781025   15.662695   19.438193
  C     18.050832   14.283100   19.512021
  C     17.404971   13.478169   20.465453
  C     16.484381   14.057666   21.355169
  C     16.217973   15.432170   21.288605
  O     15.330843   15.994852   22.147212
  C     16.861396   16.230396   20.337880
  H     14.991273   14.724077   14.724630
  H     14.513637   13.122415   15.322288
  H     16.189635   13.411107   14.804209
  H     14.834760   14.741011   17.251249
  H     15.980390   13.383589   17.315072
  H     15.440274   19.400844   17.129897
  H     16.579628   19.431035   15.778314
  H     16.687989   20.655109   17.050321
  H     18.218707   20.361465   18.539003
  H     20.194510   17.029447   19.610710
  H     19.049800   15.874845   17.723028
  H     18.759103   13.831977   18.822101
  H     17.619666   12.411963   20.514045
  H     15.984017   13.440651   22.094327
  H     15.024733   15.299343   22.748415
  H     16.646119   17.293075   20.307492

 Total Charge           Charge          ....    0
 Multiplicity           Mult            ....    1
 Number of Electrons    NEL             ....  154
 Basis Dimension        Dim             ....  828

ORBITAL ENERGIES
----------------

  NO   OCC          E(Eh)            E(eV)
   0   2.0000     -91.889269     -2500.4341
   1   2.0000     -20.597748      -560.4932
   2   2.0000     -20.594739      -560.4113
   3   2.0000     -20.544570      -559.0462
   4   2.0000     -15.629530      -425.3011
   5   2.0000     -15.608653      -424.7331
   6   2.0000     -11.395374      -310.0839
   7   2.0000     -11.384387      -309.7849
   8   2.0000     -11.336151      -308.4723
   9   2.0000     -11.315107      -307.8997
  10   2.0000     -11.309718      -307.7531
  11   2.0000     -11.296346      -307.3892
  12   2.0000     -11.260871      -306.4239
  13   2.0000     -11.259136      -306.3767
  14   2.0000     -11.256581      -306.3071
  15   2.0000     -11.252711      -306.2018
  16   2.0000     -11.244170      -305.9694
  17   2.0000     -11.239473      -305.8416
  18   2.0000     -11.239216      -305.8346
  19   2.0000     -11.219715      -305.3040
  20   2.0000      -8.894329      -242.0270
  21   2.0000      -6.575902      -178.9394
  22   2.0000      -6.573898      -178.8849
  23   2.0000      -6.573311      -178.8689
  24   2.0000      -1.450651       -39.4742
  25   2.0000      -1.417394       -38.5692
  26   2.0000      -1.354794       -36.8658
  27   2.0000      -1.340495       -36.4767
  28   2.0000      -1.239007       -33.7151
  29   2.0000      -1.158629       -31.5279
  30   2.0000      -1.120693       -30.4956
  31   2.0000      -1.043433       -28.3933
  32   2.0000      -1.034314       -28.1451
  33   2.0000      -1.016325       -27.6556
  34   2.0000      -0.995511       -27.0892
  35   2.0000      -0.984158       -26.7803
  36   2.0000      -0.923206       -25.1217
  37   2.0000      -0.888339       -24.1729
  38   2.0000      -0.847733       -23.0680
  39   2.0000      -0.838894       -22.8275
  40   2.0000      -0.835139       -22.7253
  41   2.0000      -0.821216       -22.3464
  42   2.0000      -0.757610       -20.6156
  43   2.0000      -0.732851       -19.9419
  44   2.0000      -0.723115       -19.6770
  45   2.0000      -0.696731       -18.9590
  46   2.0000      -0.689034       -18.7496
  47   2.0000      -0.680174       -18.5085
  48   2.0000      -0.671024       -18.2595
  49   2.0000      -0.654106       -17.7991
  50   2.0000      -0.647156       -17.6100
  51   2.0000      -0.645616       -17.5681
  52   2.0000      -0.631225       -17.1765
  53   2.0000      -0.608560       -16.5597
  54   2.0000      -0.607288       -16.5251
  55   2.0000      -0.599967       -16.3259
  56   2.0000      -0.599552       -16.3146
  57   2.0000      -0.580651       -15.8003
  58   2.0000      -0.573429       -15.6038
  59   2.0000      -0.570623       -15.5274
  60   2.0000      -0.564305       -15.3555
  61   2.0000      -0.539214       -14.6728
  62   2.0000      -0.535170       -14.5627
  63   2.0000      -0.525951       -14.3118
  64   2.0000      -0.518232       -14.1018
  65   2.0000      -0.513860       -13.9828
  66   2.0000      -0.501554       -13.6480
  67   2.0000      -0.497608       -13.5406
  68   2.0000      -0.487422       -13.2634
  69   2.0000      -0.464154       -12.6303
  70   2.0000      -0.454856       -12.3773
  71   2.0000      -0.445940       -12.1346
  72   2.0000      -0.354489        -9.6461
  73   2.0000      -0.350506        -9.5377
  74   2.0000      -0.328722        -8.9450
  75   2.0000      -0.322639        -8.7795
  76   2.0000      -0.316538        -8.6134
  77   0.0000       0.073858         2.0098
  78   0.0000       0.104788         2.8514
  79   0.0000       0.124801         3.3960
  80   0.0000       0.131844         3.5877
  81   0.0000       0.137566         3.7433

MULLIKEN ATOMIC CHARGES
-----------------------
   0 C :   -0.278167
   1 C :    0.042663
   2 O :   -0.366197
   3 C :    0.451475
   4 O :   -0.426349
   5 C :   -0.215852
   6 C :    0.155188
   7 C :   -0.272414
   8 N :   -0.122032
   9 C :    0.212457
  10 S :   -0.439689
  11 N :   -0.205853
  12 C :    0.063896
  13 C :    0.062661
  14 C :   -0.197365
  15 C :   -0.126617
  16 C :   -0.280890
  17 C :    0.315954
  18 O :   -0.356103
  19 C :   -0.267564
  20 H :    0.116186
  21 H :    0.090310
  22 H :    0.090113
  23 H :    0.094940
  24 H :    0.107282
  25 H :    0.132657
  26 H :    0.129641
  27 H :    0.095596
  28 H :    0.197476
  29 H :    0.194862
  30 H :    0.150106
  31 H :    0.151423
  32 H :    0.162763
  33 H :    0.130894
  34 H :    0.240958
  35 H :    0.165592
Sum of atomic charges:    0.0000000

LOEWDIN ATOMIC CHARGES
----------------------
   0 C :    0.104634
   1 C :   -0.016087
   2 O :    0.302557
   3 C :   -0.414756
   4 O :    0.104111
   5 C :   -0.095502
   6 C :   -0.059048
   7 C :    0.131435
   8 N :    0.406646
   9 C :   -0.456218
  10 S :   -0.035141
  11 N :    0.396262
  12 C :   -0.052211
  13 C :   -0.037794
  14 C :    0.014670
  15 C :    0.038781
  16 C :   -0.002320
  17 C :   -0.189519
  18 O :    0.395527
  19 C :    0.031013
  20 H :   -0.024683
  21 H :   -0.029348
  22 H :   -0.029754
  23 H :   -0.028106
  24 H :   -0.026879
  25 H :   -0.004628
  26 H :   -0.004151
  27 H :   -0.023207
  28 H :   -0.057502
  29 H :   -0.064668
  30 H :   -0.010165
  31 H :   -0.029912
  32 H :   -0.021206
  33 H :   -0.035459
  34 H :   -0.153658
  35 H :   -0.023717

  Mayer bond orders larger than 0.100000
B(  0-C ,  1-C ) :   0.9783 B(  0-C , 20-H ) :   0.9750 B(  0-C , 21-H ) :   0.9779
B(  0-C , 22-H ) :   0.9768 B(  1-C ,  2-O ) :   0.8828 B(  1-C , 23-H ) :   0.9719
B(  1-C , 24-H ) :   0.9786 B(  2-O ,  3-C ) :   1.1338 B(  3-C ,  4-O ) :   1.9706
B(  3-C ,  5-C ) :   1.0656 B(  5-C ,  6-C ) :   1.6519 B(  5-C , 12-C ) :   0.9720
B(  6-C ,  7-C ) :   0.9669 B(  6-C ,  8-N ) :   1.1615 B(  7-C , 25-H ) :   0.9594
B(  7-C , 26-H ) :   0.9612 B(  7-C , 27-H ) :   0.9907 B(  8-N ,  9-C ) :   1.1828
B(  8-N , 28-H ) :   0.9477 B(  9-C , 10-S ) :   1.6071 B(  9-C , 11-N ) :   1.3059
B( 11-N , 12-C ) :   0.9820 B( 11-N , 29-H ) :   0.9516 B( 12-C , 13-C ) :   0.9355
B( 12-C , 30-H ) :   1.0023 B( 13-C , 14-C ) :   1.3510 B( 13-C , 19-C ) :   1.3824
B( 14-C , 15-C ) :   1.3878 B( 14-C , 31-H ) :   0.9727 B( 15-C , 16-C ) :   1.3638
B( 15-C , 32-H ) :   0.9700 B( 16-C , 17-C ) :   1.3309 B( 16-C , 33-H ) :   0.9847
B( 17-C , 18-O ) :   1.1109 B( 17-C , 19-C ) :   1.3714 B( 18-O , 34-H ) :   0.9796
B( 19-C , 35-H ) :   0.9583

MP2 TOTAL ENERGY:    -1274.342744410 Eh
FINAL SINGLE POINT ENERGY     -1274.342744409978

DIPOLE MOMENT
-------------
                                X             Y             Z
Electronic contribution:     10.30525       9.99778       8.85638
Nuclear contribution   :    -11.36954     -11.58576      -9.04434
                        -----------------------------------------
Total Dipole Moment    :     -1.06429      -1.58798      -0.18796
                        -----------------------------------------
Magnitude (a.u.)       :      1.92087
Magnitude (Debye)      :      4.88246

Rotational constants in cm-1:     0.011734     0.008661     0.006124
Rotational constants in MHz :   351.775562   259.660725   183.607868

                             ****ORCA TERMINATED NORMALLY****
TOTAL RUN TIME: 0 days 2 hours 54 minutes 29 seconds 70 msec
