                         Program Version 5.0.0 -  RELEASE  -
|  1> ! ri-mp2 cc-pvtz cc-pvtz/c TightSCF NoKeepInts
|  2>
|  3> %scf
|  4>   MaxCore 4096
|  5> end
|  6> *xyz  0  1
|  7>     C       14.9497357   13.9511824   15.4268665
|  8>     C       15.3165816   14.8834020   16.5937925
|  9>     O       16.3230846   15.7964111   16.1218882
| 10>     C       17.5697072   15.7182611   16.6689179
| 11>     O       18.1014624   14.6389748   16.8701227
| 12>     C       17.9026555   16.9212110   17.4988824
| 13>     C       17.4964732   18.1818042   17.2035078
| 14>     C       16.6887965   18.6320315   16.0039686
| 15>     N       17.8932123   19.2481356   18.0163250
| 16>     C       18.7937620   19.1546145   19.0449179
| 17>     S       19.2957655   20.4868030   19.8867084
| 18>     N       19.2577929   17.8974044   19.3410145
| 19>     C       18.7533184   16.6467497   18.7425597
| 20>     C       17.9616466   15.8420373   19.7700925
| 21>     C       18.3032467   14.5052260   20.0458242
| 22>     C       17.5694800   13.7564112   20.9810717
| 23>     C       16.4830440   14.3483861   21.6472859
| 24>     C       16.1367289   15.6782484   21.3725959
| 25>     O       15.0828016   16.2502281   22.0075531
| 26>     C       16.8683565   16.4206936   20.4404593
| 27>     H       15.8254593   13.3693454   15.1119403
| 28>     H       14.5888803   14.5283382   14.5666271
| 29>     H       14.1623331   13.2493864   15.7271101
| 30>     H       14.4269173   15.4451187   16.9060527
| 31>     H       15.6691107   14.2965377   17.4541865
| 32>     H       17.0295725   18.1293553   15.0900894
| 33>     H       16.7700307   19.7109776   15.8242180
| 34>     H       15.6266273   18.3940947   16.1411258
| 35>     H       17.5645489   20.1789545   17.8143337
| 36>     H       19.8976486   17.8531373   20.1237450
| 37>     H       19.6227574   16.0501976   18.4303222
| 38>     H       19.1314292   14.0391866   19.5172917
| 39>     H       17.8410306   12.7213394   21.1808211
| 40>     H       15.9126749   13.7729655   22.3688407
| 41>     H       14.7453341   15.6056064   22.6475811
| 42>     H       16.5849929   17.4492427   20.2453599
| 43> *
| 44>
| 45>                          ****END OF INPUT****

CARTESIAN COORDINATES (ANGSTROEM)
---------------------------------
  C     14.949736   13.951182   15.426866
  C     15.316582   14.883402   16.593792
  O     16.323085   15.796411   16.121888
  C     17.569707   15.718261   16.668918
  O     18.101462   14.638975   16.870123
  C     17.902656   16.921211   17.498882
  C     17.496473   18.181804   17.203508
  C     16.688796   18.632031   16.003969
  N     17.893212   19.248136   18.016325
  C     18.793762   19.154615   19.044918
  S     19.295765   20.486803   19.886708
  N     19.257793   17.897404   19.341014
  C     18.753318   16.646750   18.742560
  C     17.961647   15.842037   19.770092
  C     18.303247   14.505226   20.045824
  C     17.569480   13.756411   20.981072
  C     16.483044   14.348386   21.647286
  C     16.136729   15.678248   21.372596
  O     15.082802   16.250228   22.007553
  C     16.868357   16.420694   20.440459
  H     15.825459   13.369345   15.111940
  H     14.588880   14.528338   14.566627
  H     14.162333   13.249386   15.727110
  H     14.426917   15.445119   16.906053
  H     15.669111   14.296538   17.454186
  H     17.029573   18.129355   15.090089
  H     16.770031   19.710978   15.824218
  H     15.626627   18.394095   16.141126
  H     17.564549   20.178954   17.814334
  H     19.897649   17.853137   20.123745
  H     19.622757   16.050198   18.430322
  H     19.131429   14.039187   19.517292
  H     17.841031   12.721339   21.180821
  H     15.912675   13.772965   22.368841
  H     14.745334   15.605606   22.647581
  H     16.584993   17.449243   20.245360

 Total Charge           Charge          ....    0
 Multiplicity           Mult            ....    1
 Number of Electrons    NEL             ....  154
 Basis Dimension        Dim             ....  828

ORBITAL ENERGIES
----------------

  NO   OCC          E(Eh)            E(eV)
   0   2.0000     -91.888626     -2500.4166
   1   2.0000     -20.594928      -560.4165
   2   2.0000     -20.588398      -560.2388
   3   2.0000     -20.553884      -559.2996
   4   2.0000     -15.628336      -425.2686
   5   2.0000     -15.607983      -424.7148
   6   2.0000     -11.395577      -310.0894
   7   2.0000     -11.383997      -309.7743
   8   2.0000     -11.333679      -308.4051
   9   2.0000     -11.311106      -307.7909
  10   2.0000     -11.308089      -307.7087
  11   2.0000     -11.299247      -307.4682
  12   2.0000     -11.259918      -306.3979
  13   2.0000     -11.259840      -306.3958
  14   2.0000     -11.256801      -306.3131
  15   2.0000     -11.251315      -306.1638
  16   2.0000     -11.240921      -305.8810
  17   2.0000     -11.236847      -305.7702
  18   2.0000     -11.234078      -305.6948
  19   2.0000     -11.224591      -305.4366
  20   2.0000      -8.893698      -242.0098
  21   2.0000      -6.575276      -178.9224
  22   2.0000      -6.573267      -178.8677
  23   2.0000      -6.572683      -178.8518
  24   2.0000      -1.453489       -39.5515
  25   2.0000      -1.414686       -38.4956
  26   2.0000      -1.357206       -36.9315
  27   2.0000      -1.339437       -36.4479
  28   2.0000      -1.237616       -33.6772
  29   2.0000      -1.155365       -31.4391
  30   2.0000      -1.121010       -30.5042
  31   2.0000      -1.044041       -28.4098
  32   2.0000      -1.033599       -28.1257
  33   2.0000      -1.012776       -27.5590
  34   2.0000      -0.998602       -27.1733
  35   2.0000      -0.983900       -26.7733
  36   2.0000      -0.922849       -25.1120
  37   2.0000      -0.883662       -24.0457
  38   2.0000      -0.848419       -23.0867
  39   2.0000      -0.838063       -22.8049
  40   2.0000      -0.831364       -22.6226
  41   2.0000      -0.824585       -22.4381
  42   2.0000      -0.755655       -20.5624
  43   2.0000      -0.735011       -20.0007
  44   2.0000      -0.727626       -19.7997
  45   2.0000      -0.693274       -18.8650
  46   2.0000      -0.686228       -18.6732
  47   2.0000      -0.680778       -18.5249
  48   2.0000      -0.673067       -18.3151
  49   2.0000      -0.660181       -17.9645
  50   2.0000      -0.647037       -17.6068
  51   2.0000      -0.641388       -17.4531
  52   2.0000      -0.631515       -17.1844
  53   2.0000      -0.610927       -16.6242
  54   2.0000      -0.603073       -16.4105
  55   2.0000      -0.601945       -16.3798
  56   2.0000      -0.598175       -16.2772
  57   2.0000      -0.582383       -15.8474
  58   2.0000      -0.575785       -15.6679
  59   2.0000      -0.565551       -15.3894
  60   2.0000      -0.562402       -15.3037
  61   2.0000      -0.548553       -14.9269
  62   2.0000      -0.534156       -14.5351
  63   2.0000      -0.520528       -14.1643
  64   2.0000      -0.515592       -14.0300
  65   2.0000      -0.511511       -13.9189
  66   2.0000      -0.502951       -13.6860
  67   2.0000      -0.497419       -13.5355
  68   2.0000      -0.482094       -13.1184
  69   2.0000      -0.464025       -12.6267
  70   2.0000      -0.457761       -12.4563
  71   2.0000      -0.452416       -12.3109
  72   2.0000      -0.353952        -9.6315
  73   2.0000      -0.347114        -9.4454
  74   2.0000      -0.327898        -8.9226
  75   2.0000      -0.318280        -8.6608
  76   2.0000      -0.315496        -8.5851
  77   0.0000       0.072246         1.9659
  78   0.0000       0.106987         2.9113
  79   0.0000       0.119763         3.2589
  80   0.0000       0.133377         3.6294
  81   0.0000       0.137081         3.7302

MULLIKEN ATOMIC CHARGES
-----------------------
   0 C :   -0.264150
   1 C :    0.047158
   2 O :   -0.370564
   3 C :    0.435192
   4 O :   -0.405954
   5 C :   -0.174017
   6 C :    0.138419
   7 C :   -0.280805
   8 N :   -0.124319
   9 C :    0.202975
  10 S :   -0.439745
  11 N :   -0.200713
  12 C :    0.051359
  13 C :    0.047752
  14 C :   -0.165030
  15 C :   -0.134136
  16 C :   -0.280781
  17 C :    0.312108
  18 O :   -0.358394
  19 C :   -0.276151
  20 H :    0.107187
  21 H :    0.090646
  22 H :    0.087060
  23 H :    0.094225
  24 H :    0.106848
  25 H :    0.124160
  26 H :    0.103400
  27 H :    0.125785
  28 H :    0.197141
  29 H :    0.194151
  30 H :    0.154576
  31 H :    0.156073
  32 H :    0.160820
  33 H :    0.130036
  34 H :    0.240600
  35 H :    0.167088
Sum of atomic charges:    0.0000000

LOEWDIN ATOMIC CHARGES
----------------------
   0 C :    0.105277
   1 C :   -0.013710
   2 O :    0.295355
   3 C :   -0.417067
   4 O :    0.121550
   5 C :   -0.092971
   6 C :   -0.072522
   7 C :    0.126017
   8 N :    0.404206
   9 C :   -0.457706
  10 S :   -0.036353
  11 N :    0.397167
  12 C :   -0.045561
  13 C :   -0.040320
  14 C :    0.020945
  15 C :    0.040660
  16 C :   -0.002321
  17 C :   -0.193377
  18 O :    0.393371
  19 C :    0.028299
  20 H :   -0.022906
  21 H :   -0.029243
  22 H :   -0.028437
  23 H :   -0.030490
  24 H :   -0.024746
  25 H :   -0.008099
  26 H :   -0.019768
  27 H :   -0.009731
  28 H :   -0.058763
  29 H :   -0.064006
  30 H :   -0.004786
  31 H :   -0.024842
  32 H :   -0.020587
  33 H :   -0.035837
  34 H :   -0.154301
  35 H :   -0.024399

  Mayer bond orders larger than 0.100000
B(  0-C ,  1-C ) :   0.9782 B(  0-C , 20-H ) :   0.9767 B(  0-C , 21-H ) :   0.9787
B(  0-C , 22-H ) :   0.9761 B(  1-C ,  2-O ) :   0.8844 B(  1-C , 23-H ) :   0.9804
B(  1-C , 24-H ) :   0.9694 B(  2-O ,  3-C ) :   1.0908 B(  3-C ,  4-O ) :   2.0081
B(  3-C ,  5-C ) :   1.0410 B(  5-C ,  6-C ) :   1.6632 B(  5-C , 12-C ) :   0.9651
B(  6-C ,  7-C ) :   0.9521 B(  6-C ,  8-N ) :   1.1390 B(  7-C , 25-H ) :   0.9698
B(  7-C , 26-H ) :   0.9887 B(  7-C , 27-H ) :   0.9634 B(  8-N ,  9-C ) :   1.1836
B(  8-N , 28-H ) :   0.9497 B(  9-C , 10-S ) :   1.6106 B(  9-C , 11-N ) :   1.3005
B( 11-N , 12-C ) :   0.9923 B( 11-N , 29-H ) :   0.9516 B( 12-C , 13-C ) :   0.9446
B( 12-C , 30-H ) :   0.9984 B( 13-C , 14-C ) :   1.3768 B( 13-C , 19-C ) :   1.3687
B( 14-C , 15-C ) :   1.3942 B( 14-C , 31-H ) :   0.9640 B( 15-C , 16-C ) :   1.3633
B( 15-C , 32-H ) :   0.9709 B( 16-C , 17-C ) :   1.3307 B( 16-C , 33-H ) :   0.9853
B( 17-C , 18-O ) :   1.1093 B( 17-C , 19-C ) :   1.3762 B( 18-O , 34-H ) :   0.9801
B( 19-C , 35-H ) :   0.9579

MP2 TOTAL ENERGY:    -1274.328549576 Eh
FINAL SINGLE POINT ENERGY     -1274.328549576062

DIPOLE MOMENT
-------------
                                X             Y             Z
Electronic contribution:     10.99951      10.40475       9.17778
Nuclear contribution   :    -12.47493     -11.60995      -9.75745
                        -----------------------------------------
Total Dipole Moment    :     -1.47542      -1.20520      -0.57967
                        -----------------------------------------
Magnitude (a.u.)       :      1.99133
Magnitude (Debye)      :      5.06156

Rotational constants in cm-1:     0.011228     0.009016     0.006179
Rotational constants in MHz :   336.616074   270.288564   185.243263

                             ****ORCA TERMINATED NORMALLY****
TOTAL RUN TIME: 0 days 1 hours 41 minutes 36 seconds 768 msec
