                         Program Version 5.0.0 -  RELEASE  -
|  1> ! ri-mp2 cc-pvtz cc-pvtz/c TightSCF NoKeepInts
|  2>
|  3> %scf
|  4>   MaxCore 4096
|  5> end
|  6> *xyz  0  1
|  7>     C       15.8943432   13.2784017   15.6488186
|  8>     C       15.4523690   14.4804463   16.4997981
|  9>     O       16.5919646   15.3471234   16.6380791
| 10>     C       16.4225400   16.7032882   16.6332388
| 11>     O       15.4701830   17.2393915   16.0927953
| 12>     C       17.4006622   17.4094637   17.5315579
| 13>     C       17.4278349   18.7605846   17.6577321
| 14>     C       16.5340225   19.7641620   16.9610047
| 15>     N       18.3836020   19.3693576   18.4766500
| 16>     C       19.4045232   18.7133413   19.1110399
| 17>     S       20.5532268   19.5204922   19.9855914
| 18>     N       19.4287242   17.3481503   18.9816620
| 19>     C       18.3825439   16.5374347   18.3320597
| 20>     C       17.6664793   15.6865510   19.3775984
| 21>     C       17.8003281   14.2852487   19.3701279
| 22>     C       17.1358685   13.4982467   20.3257039
| 23>     C       16.3337284   14.1172612   21.2995138
| 24>     C       16.2023179   15.5127015   21.3131567
| 25>     O       15.4292300   16.1132829   22.2525970
| 26>     C       16.8637066   16.2931201   20.3599460
| 27>     H       15.0618452   12.5776868   15.5117033
| 28>     H       16.7189138   12.7426817   16.1350397
| 29>     H       16.2307609   13.6098954   14.6584458
| 30>     H       14.6202351   14.9823484   15.9876786
| 31>     H       15.1044401   14.1517987   17.4880009
| 32>     H       15.4874366   19.6172923   17.2573462
| 33>     H       16.5860165   19.6380056   15.8721034
| 34>     H       16.7996829   20.8038477   17.1852604
| 35>     H       18.3821090   20.3713228   18.5822211
| 36>     H       20.1720890   16.8892326   19.4922061
| 37>     H       18.8848465   15.8651971   17.6221974
| 38>     H       18.4151669   13.8039871   18.6142100
| 39>     H       17.2441657   12.4151329   20.3102737
| 40>     H       15.8193734   13.5140540   22.0404092
| 41>     H       15.0880718   15.4196930   22.8368515
| 42>     H       16.7536485   17.3717741   20.3913812
| 43> *
| 44>
| 45>                          ****END OF INPUT****

CARTESIAN COORDINATES (ANGSTROEM)
---------------------------------
  C     15.894343   13.278402   15.648819
  C     15.452369   14.480446   16.499798
  O     16.591965   15.347123   16.638079
  C     16.422540   16.703288   16.633239
  O     15.470183   17.239391   16.092795
  C     17.400662   17.409464   17.531558
  C     17.427835   18.760585   17.657732
  C     16.534022   19.764162   16.961005
  N     18.383602   19.369358   18.476650
  C     19.404523   18.713341   19.111040
  S     20.553227   19.520492   19.985591
  N     19.428724   17.348150   18.981662
  C     18.382544   16.537435   18.332060
  C     17.666479   15.686551   19.377598
  C     17.800328   14.285249   19.370128
  C     17.135869   13.498247   20.325704
  C     16.333728   14.117261   21.299514
  C     16.202318   15.512702   21.313157
  O     15.429230   16.113283   22.252597
  C     16.863707   16.293120   20.359946
  H     15.061845   12.577687   15.511703
  H     16.718914   12.742682   16.135040
  H     16.230761   13.609895   14.658446
  H     14.620235   14.982348   15.987679
  H     15.104440   14.151799   17.488001
  H     15.487437   19.617292   17.257346
  H     16.586016   19.638006   15.872103
  H     16.799683   20.803848   17.185260
  H     18.382109   20.371323   18.582221
  H     20.172089   16.889233   19.492206
  H     18.884846   15.865197   17.622197
  H     18.415167   13.803987   18.614210
  H     17.244166   12.415133   20.310274
  H     15.819373   13.514054   22.040409
  H     15.088072   15.419693   22.836852
  H     16.753649   17.371774   20.391381

 Total Charge           Charge          ....    0
 Multiplicity           Mult            ....    1
 Number of Electrons    NEL             ....  154
 Basis Dimension        Dim             ....  828

ORBITAL ENERGIES
----------------

  NO   OCC          E(Eh)            E(eV)
   0   2.0000     -91.889098     -2500.4295
   1   2.0000     -20.598072      -560.5020
   2   2.0000     -20.597122      -560.4762
   3   2.0000     -20.542405      -558.9873
   4   2.0000     -15.629242      -425.2933
   5   2.0000     -15.608501      -424.7289
   6   2.0000     -11.394700      -310.0656
   7   2.0000     -11.384213      -309.7802
   8   2.0000     -11.335903      -308.4656
   9   2.0000     -11.314496      -307.8831
  10   2.0000     -11.309416      -307.7449
  11   2.0000     -11.294224      -307.3315
  12   2.0000     -11.260321      -306.4089
  13   2.0000     -11.258718      -306.3653
  14   2.0000     -11.256002      -306.2914
  15   2.0000     -11.252115      -306.1856
  16   2.0000     -11.243751      -305.9580
  17   2.0000     -11.239102      -305.8315
  18   2.0000     -11.238842      -305.8245
  19   2.0000     -11.228959      -305.5555
  20   2.0000      -8.894157      -242.0223
  21   2.0000      -6.575731      -178.9347
  22   2.0000      -6.573727      -178.8802
  23   2.0000      -6.573139      -178.8642
  24   2.0000      -1.450571       -39.4720
  25   2.0000      -1.416779       -38.5525
  26   2.0000      -1.354584       -36.8601
  27   2.0000      -1.340207       -36.4689
  28   2.0000      -1.238723       -33.7074
  29   2.0000      -1.158194       -31.5160
  30   2.0000      -1.120506       -30.4905
  31   2.0000      -1.043396       -28.3922
  32   2.0000      -1.039075       -28.2747
  33   2.0000      -1.015817       -27.6418
  34   2.0000      -0.995847       -27.0984
  35   2.0000      -0.984461       -26.7885
  36   2.0000      -0.922841       -25.1118
  37   2.0000      -0.887362       -24.1464
  38   2.0000      -0.847033       -23.0489
  39   2.0000      -0.838113       -22.8062
  40   2.0000      -0.834661       -22.7123
  41   2.0000      -0.819262       -22.2933
  42   2.0000      -0.763980       -20.7890
  43   2.0000      -0.733107       -19.9489
  44   2.0000      -0.722860       -19.6700
  45   2.0000      -0.696102       -18.9419
  46   2.0000      -0.687595       -18.7104
  47   2.0000      -0.679441       -18.4885
  48   2.0000      -0.673996       -18.3404
  49   2.0000      -0.656880       -17.8746
  50   2.0000      -0.646722       -17.5982
  51   2.0000      -0.643621       -17.5138
  52   2.0000      -0.633889       -17.2490
  53   2.0000      -0.610100       -16.6017
  54   2.0000      -0.607307       -16.5257
  55   2.0000      -0.600173       -16.3315
  56   2.0000      -0.598671       -16.2907
  57   2.0000      -0.578347       -15.7376
  58   2.0000      -0.570991       -15.5375
  59   2.0000      -0.565862       -15.3979
  60   2.0000      -0.562332       -15.3018
  61   2.0000      -0.540347       -14.7036
  62   2.0000      -0.538231       -14.6460
  63   2.0000      -0.527520       -14.3546
  64   2.0000      -0.525590       -14.3020
  65   2.0000      -0.513802       -13.9813
  66   2.0000      -0.501956       -13.6589
  67   2.0000      -0.496493       -13.5103
  68   2.0000      -0.486720       -13.2443
  69   2.0000      -0.465332       -12.6623
  70   2.0000      -0.457299       -12.4437
  71   2.0000      -0.446760       -12.1570
  72   2.0000      -0.354372        -9.6429
  73   2.0000      -0.350013        -9.5243
  74   2.0000      -0.328484        -8.9385
  75   2.0000      -0.322138        -8.7658
  76   2.0000      -0.316297        -8.6069
  77   0.0000       0.074937         2.0392
  78   0.0000       0.105533         2.8717
  79   0.0000       0.124261         3.3813
  80   0.0000       0.131368         3.5747
  81   0.0000       0.135603         3.6899

MULLIKEN ATOMIC CHARGES
-----------------------
   0 C :   -0.261545
   1 C :    0.009845
   2 O :   -0.361598
   3 C :    0.472854
   4 O :   -0.428252
   5 C :   -0.235199
   6 C :    0.153402
   7 C :   -0.272254
   8 N :   -0.121971
   9 C :    0.210825
  10 S :   -0.439454
  11 N :   -0.204429
  12 C :    0.059099
  13 C :    0.063208
  14 C :   -0.191606
  15 C :   -0.131334
  16 C :   -0.279999
  17 C :    0.316009
  18 O :   -0.356004
  19 C :   -0.267822
  20 H :    0.089705
  21 H :    0.089383
  22 H :    0.098854
  23 H :    0.129325
  24 H :    0.108668
  25 H :    0.132809
  26 H :    0.130185
  27 H :    0.095067
  28 H :    0.197629
  29 H :    0.194705
  30 H :    0.150124
  31 H :    0.151534
  32 H :    0.161296
  33 H :    0.130782
  34 H :    0.240723
  35 H :    0.165438
Sum of atomic charges:   -0.0000000

LOEWDIN ATOMIC CHARGES
----------------------
   0 C :    0.105899
   1 C :   -0.013799
   2 O :    0.307399
   3 C :   -0.414460
   4 O :    0.099172
   5 C :   -0.095642
   6 C :   -0.058938
   7 C :    0.131587
   8 N :    0.406582
   9 C :   -0.456515
  10 S :   -0.035150
  11 N :    0.396390
  12 C :   -0.052384
  13 C :   -0.038455
  14 C :    0.014305
  15 C :    0.038213
  16 C :   -0.002443
  17 C :   -0.189494
  18 O :    0.395504
  19 C :    0.031530
  20 H :   -0.025635
  21 H :   -0.031076
  22 H :   -0.025293
  23 H :   -0.027896
  24 H :   -0.030264
  25 H :   -0.004423
  26 H :   -0.004033
  27 H :   -0.023368
  28 H :   -0.057529
  29 H :   -0.064580
  30 H :   -0.010580
  31 H :   -0.030575
  32 H :   -0.021324
  33 H :   -0.035502
  34 H :   -0.153799
  35 H :   -0.023426

  Mayer bond orders larger than 0.100000
B(  0-C ,  1-C ) :   0.9755 B(  0-C , 20-H ) :   0.9762 B(  0-C , 21-H ) :   0.9797
B(  0-C , 22-H ) :   0.9783 B(  1-C ,  2-O ) :   0.8757 B(  1-C , 23-H ) :   0.9755
B(  1-C , 24-H ) :   0.9720 B(  2-O ,  3-C ) :   1.1563 B(  3-C ,  4-O ) :   1.9889
B(  3-C ,  5-C ) :   1.0562 B(  5-C ,  6-C ) :   1.6548 B(  5-C , 12-C ) :   0.9720
B(  6-C ,  7-C ) :   0.9668 B(  6-C ,  8-N ) :   1.1626 B(  7-C , 25-H ) :   0.9595
B(  7-C , 26-H ) :   0.9611 B(  7-C , 27-H ) :   0.9905 B(  8-N ,  9-C ) :   1.1831
B(  8-N , 28-H ) :   0.9479 B(  9-C , 10-S ) :   1.6080 B(  9-C , 11-N ) :   1.3048
B( 11-N , 12-C ) :   0.9877 B( 11-N , 29-H ) :   0.9517 B( 12-C , 13-C ) :   0.9341
B( 12-C , 30-H ) :   1.0026 B( 13-C , 14-C ) :   1.3542 B( 13-C , 19-C ) :   1.3837
B( 14-C , 15-C ) :   1.3898 B( 14-C , 31-H ) :   0.9722 B( 15-C , 16-C ) :   1.3622
B( 15-C , 32-H ) :   0.9705 B( 16-C , 17-C ) :   1.3317 B( 16-C , 33-H ) :   0.9849
B( 17-C , 18-O ) :   1.1112 B( 17-C , 19-C ) :   1.3718 B( 18-O , 34-H ) :   0.9798
B( 19-C , 35-H ) :   0.9579

MP2 TOTAL ENERGY:    -1274.346696325 Eh
FINAL SINGLE POINT ENERGY     -1274.346696324568

DIPOLE MOMENT
-------------
                                X             Y             Z
Electronic contribution:      9.34499      10.88012       8.33188
Nuclear contribution   :    -10.52632     -12.46122      -8.61206
                        -----------------------------------------
Total Dipole Moment    :     -1.18132      -1.58110      -0.28018
                        -----------------------------------------
Magnitude (a.u.)       :      1.99346
Magnitude (Debye)      :      5.06698

Rotational constants in cm-1:     0.011786     0.008479     0.006169
Rotational constants in MHz :   353.334938   254.204637   184.933617

                             ****ORCA TERMINATED NORMALLY****
TOTAL RUN TIME: 0 days 1 hours 58 minutes 44 seconds 183 msec
