                         Program Version 5.0.0 -  RELEASE  -
|  1> ! ri-mp2 cc-pvtz cc-pvtz/c TightSCF NoKeepInts
|  2>
|  3> %scf
|  4>   MaxCore 4096
|  5> end
|  6> *xyz  0  1
|  7>     C       15.4353927   14.1813872   17.3471949
|  8>     C       16.3793725   14.1558075   16.1334503
|  9>     O       17.5452001   14.9687316   16.3890811
| 10>     C       17.4879868   16.2990070   16.0804393
| 11>     O       16.9377391   16.6747723   15.0596265
| 12>     C       17.7097438   17.1870608   17.2749193
| 13>     C       17.3313880   18.4916733   17.2972683
| 14>     C       16.5464256   19.2436120   16.2436127
| 15>     N       17.7223637   19.3130323   18.3598165
| 16>     C       18.6690140   18.9759129   19.2910919
| 17>     S       19.2372496   20.0650850   20.3986249
| 18>     N       19.1347962   17.6861914   19.2442011
| 19>     C       18.5220986   16.6082152   18.4465049
| 20>     C       17.7117970   15.7131945   19.3778296
| 21>     C       18.1862791   14.4314951   19.7159283
| 22>     C       17.4733193   13.6181875   20.6132439
| 23>     C       16.2767819   14.0905827   21.1792456
| 24>     C       15.8054041   15.3691290   20.8509419
| 25>     O       14.6517041   15.8290555   21.3968554
| 26>     C       16.5189770   16.1778334   19.9610194
| 27>     H       15.9133383   13.7246322   18.2197333
| 28>     H       14.5221234   13.6143798   17.1307943
| 29>     H       15.1446666   15.2088439   17.5975643
| 30>     H       16.6978681   13.1191890   15.9648026
| 31>     H       15.8492989   14.4873468   15.2300716
| 32>     H       15.6091773   18.7210281   16.0139130
| 33>     H       17.1206413   19.3109778   15.3106871
| 34>     H       16.2866479   20.2638131   16.5493426
| 35>     H       17.4014793   20.2674410   18.3951732
| 36>     H       19.8131156   17.4571686   19.9591633
| 37>     H       19.3368877   16.0073519   18.0185156
| 38>     H       19.1125872   14.0643081   19.2822074
| 39>     H       17.8486499   12.6284307   20.8677165
| 40>     H       15.7223007   13.4661466   21.8720662
| 41>     H       14.3396161   15.1604517   22.0250625
| 42>     H       16.1455684   17.1705245   19.7362906
| 43> *
| 44>
| 45>                          ****END OF INPUT****

CARTESIAN COORDINATES (ANGSTROEM)
---------------------------------
  C     15.435393   14.181387   17.347195
  C     16.379372   14.155807   16.133450
  O     17.545200   14.968732   16.389081
  C     17.487987   16.299007   16.080439
  O     16.937739   16.674772   15.059627
  C     17.709744   17.187061   17.274919
  C     17.331388   18.491673   17.297268
  C     16.546426   19.243612   16.243613
  N     17.722364   19.313032   18.359817
  C     18.669014   18.975913   19.291092
  S     19.237250   20.065085   20.398625
  N     19.134796   17.686191   19.244201
  C     18.522099   16.608215   18.446505
  C     17.711797   15.713195   19.377830
  C     18.186279   14.431495   19.715928
  C     17.473319   13.618187   20.613244
  C     16.276782   14.090583   21.179246
  C     15.805404   15.369129   20.850942
  O     14.651704   15.829055   21.396855
  C     16.518977   16.177833   19.961019
  H     15.913338   13.724632   18.219733
  H     14.522123   13.614380   17.130794
  H     15.144667   15.208844   17.597564
  H     16.697868   13.119189   15.964803
  H     15.849299   14.487347   15.230072
  H     15.609177   18.721028   16.013913
  H     17.120641   19.310978   15.310687
  H     16.286648   20.263813   16.549343
  H     17.401479   20.267441   18.395173
  H     19.813116   17.457169   19.959163
  H     19.336888   16.007352   18.018516
  H     19.112587   14.064308   19.282207
  H     17.848650   12.628431   20.867717
  H     15.722301   13.466147   21.872066
  H     14.339616   15.160452   22.025063
  H     16.145568   17.170524   19.736291

 Total Charge           Charge          ....    0
 Multiplicity           Mult            ....    1
 Number of Electrons    NEL             ....  154
 Basis Dimension        Dim             ....  828

ORBITAL ENERGIES
----------------

  NO   OCC          E(Eh)            E(eV)
   0   2.0000     -91.890062     -2500.4557
   1   2.0000     -20.598871      -560.5238
   2   2.0000     -20.589599      -560.2715
   3   2.0000     -20.546612      -559.1017
   4   2.0000     -15.630569      -425.3294
   5   2.0000     -15.608573      -424.7309
   6   2.0000     -11.394608      -310.0630
   7   2.0000     -11.384543      -309.7892
   8   2.0000     -11.337024      -308.4961
   9   2.0000     -11.315884      -307.9209
  10   2.0000     -11.310798      -307.7824
  11   2.0000     -11.294336      -307.3345
  12   2.0000     -11.261181      -306.4323
  13   2.0000     -11.260361      -306.4100
  14   2.0000     -11.257387      -306.3291
  15   2.0000     -11.253189      -306.2148
  16   2.0000     -11.245198      -305.9974
  17   2.0000     -11.239845      -305.8517
  18   2.0000     -11.239420      -305.8402
  19   2.0000     -11.220142      -305.3156
  20   2.0000      -8.895081      -242.0475
  21   2.0000      -6.576646      -178.9596
  22   2.0000      -6.574653      -178.9054
  23   2.0000      -6.574058      -178.8892
  24   2.0000      -1.449178       -39.4341
  25   2.0000      -1.418520       -38.5999
  26   2.0000      -1.352322       -36.7986
  27   2.0000      -1.341595       -36.5067
  28   2.0000      -1.239724       -33.7346
  29   2.0000      -1.158969       -31.5371
  30   2.0000      -1.120690       -30.4955
  31   2.0000      -1.043732       -28.4014
  32   2.0000      -1.032800       -28.1039
  33   2.0000      -1.017137       -27.6777
  34   2.0000      -0.997643       -27.1473
  35   2.0000      -0.985165       -26.8077
  36   2.0000      -0.924025       -25.1440
  37   2.0000      -0.890485       -24.2313
  38   2.0000      -0.847729       -23.0679
  39   2.0000      -0.840647       -22.8752
  40   2.0000      -0.835566       -22.7369
  41   2.0000      -0.815325       -22.1861
  42   2.0000      -0.756511       -20.5857
  43   2.0000      -0.733724       -19.9656
  44   2.0000      -0.722176       -19.6514
  45   2.0000      -0.698247       -19.0003
  46   2.0000      -0.690090       -18.7783
  47   2.0000      -0.678492       -18.4627
  48   2.0000      -0.668441       -18.1892
  49   2.0000      -0.667112       -18.1530
  50   2.0000      -0.648820       -17.6553
  51   2.0000      -0.645252       -17.5582
  52   2.0000      -0.637300       -17.3418
  53   2.0000      -0.609571       -16.5873
  54   2.0000      -0.603250       -16.4153
  55   2.0000      -0.600005       -16.3270
  56   2.0000      -0.594931       -16.1889
  57   2.0000      -0.579461       -15.7679
  58   2.0000      -0.571782       -15.5590
  59   2.0000      -0.565325       -15.3833
  60   2.0000      -0.560481       -15.2515
  61   2.0000      -0.548199       -14.9173
  62   2.0000      -0.538192       -14.6450
  63   2.0000      -0.527084       -14.3427
  64   2.0000      -0.523043       -14.2327
  65   2.0000      -0.514257       -13.9936
  66   2.0000      -0.503629       -13.7044
  67   2.0000      -0.500196       -13.6110
  68   2.0000      -0.477272       -12.9872
  69   2.0000      -0.463285       -12.6066
  70   2.0000      -0.451710       -12.2917
  71   2.0000      -0.445482       -12.1222
  72   2.0000      -0.357331        -9.7235
  73   2.0000      -0.350869        -9.5476
  74   2.0000      -0.329405        -8.9636
  75   2.0000      -0.324090        -8.8189
  76   2.0000      -0.316825        -8.6212
  77   0.0000       0.070063         1.9065
  78   0.0000       0.104671         2.8482
  79   0.0000       0.121129         3.2961
  80   0.0000       0.130845         3.5605
  81   0.0000       0.135218         3.6795

MULLIKEN ATOMIC CHARGES
-----------------------
   0 C :   -0.317110
   1 C :    0.037638
   2 O :   -0.378559
   3 C :    0.474358
   4 O :   -0.418106
   5 C :   -0.231030
   6 C :    0.149411
   7 C :   -0.270429
   8 N :   -0.124479
   9 C :    0.210762
  10 S :   -0.436462
  11 N :   -0.197690
  12 C :    0.033106
  13 C :    0.093139
  14 C :   -0.187738
  15 C :   -0.132913
  16 C :   -0.280526
  17 C :    0.324109
  18 O :   -0.359376
  19 C :   -0.284374
  20 H :    0.108893
  21 H :    0.114498
  22 H :    0.103119
  23 H :    0.104901
  24 H :    0.115821
  25 H :    0.127357
  26 H :    0.135613
  27 H :    0.094277
  28 H :    0.198566
  29 H :    0.192207
  30 H :    0.149009
  31 H :    0.147268
  32 H :    0.162342
  33 H :    0.131571
  34 H :    0.241600
  35 H :    0.169227
Sum of atomic charges:   -0.0000000

LOEWDIN ATOMIC CHARGES
----------------------
   0 C :    0.104144
   1 C :   -0.014341
   2 O :    0.288189
   3 C :   -0.415757
   4 O :    0.111557
   5 C :   -0.097165
   6 C :   -0.059352
   7 C :    0.130292
   8 N :    0.406978
   9 C :   -0.456505
  10 S :   -0.032777
  11 N :    0.396597
  12 C :   -0.053025
  13 C :   -0.036029
  14 C :    0.012133
  15 C :    0.040083
  16 C :   -0.002067
  17 C :   -0.189199
  18 O :    0.396189
  19 C :    0.034432
  20 H :   -0.026009
  21 H :   -0.026259
  22 H :   -0.029648
  23 H :   -0.025494
  24 H :   -0.028948
  25 H :   -0.006167
  26 H :   -0.003266
  27 H :   -0.023277
  28 H :   -0.057722
  29 H :   -0.065513
  30 H :   -0.006874
  31 H :   -0.029883
  32 H :   -0.020729
  33 H :   -0.035233
  34 H :   -0.153232
  35 H :   -0.026123

  Mayer bond orders larger than 0.100000
B(  0-C ,  1-C ) :   0.9628 B(  0-C , 20-H ) :   0.9731 B(  0-C , 21-H ) :   0.9776
B(  0-C , 22-H ) :   0.9735 B(  1-C ,  2-O ) :   0.8840 B(  1-C , 23-H ) :   0.9863
B(  1-C , 24-H ) :   0.9779 B(  2-O ,  3-C ) :   1.1145 B(  3-C ,  4-O ) :   1.9930
B(  3-C ,  5-C ) :   1.0651 B(  5-C ,  6-C ) :   1.6542 B(  5-C , 12-C ) :   0.9748
B(  6-C ,  7-C ) :   0.9714 B(  6-C ,  8-N ) :   1.1518 B(  7-C , 25-H ) :   0.9643
B(  7-C , 26-H ) :   0.9571 B(  7-C , 27-H ) :   0.9888 B(  8-N ,  9-C ) :   1.1782
B(  8-N , 28-H ) :   0.9484 B(  9-C , 10-S ) :   1.6133 B(  9-C , 11-N ) :   1.3026
B( 11-N , 12-C ) :   0.9745 B( 11-N , 29-H ) :   0.9540 B( 12-C , 13-C ) :   0.9441
B( 12-C , 30-H ) :   1.0045 B( 13-C , 14-C ) :   1.3544 B( 13-C , 19-C ) :   1.3591
B( 14-C , 15-C ) :   1.3872 B( 14-C , 31-H ) :   0.9739 B( 15-C , 16-C ) :   1.3626
B( 15-C , 32-H ) :   0.9711 B( 16-C , 17-C ) :   1.3312 B( 16-C , 33-H ) :   0.9849
B( 17-C , 18-O ) :   1.1117 B( 17-C , 19-C ) :   1.3674 B( 18-O , 34-H ) :   0.9794
B( 19-C , 35-H ) :   0.9580

MP2 TOTAL ENERGY:    -1274.335679980 Eh
FINAL SINGLE POINT ENERGY     -1274.335679980043

DIPOLE MOMENT
-------------
                                X             Y             Z
Electronic contribution:      9.13017       9.81740       5.30076
Nuclear contribution   :    -10.11045     -11.48155      -5.36651
                        -----------------------------------------
Total Dipole Moment    :     -0.98028      -1.66415      -0.06576
                        -----------------------------------------
Magnitude (a.u.)       :      1.93253
Magnitude (Debye)      :      4.91209

Rotational constants in cm-1:     0.011922     0.009537     0.006563
Rotational constants in MHz :   357.409869   285.913443   196.759409

                             ****ORCA TERMINATED NORMALLY****
TOTAL RUN TIME: 0 days 1 hours 58 minutes 23 seconds 859 msec
