                         Program Version 5.0.0 -  RELEASE  -
|  1> ! ri-mp2 cc-pvtz cc-pvtz/c TightSCF NoKeepInts
|  2>
|  3> %scf
|  4>   MaxCore 4096
|  5> end
|  6> *xyz  0  1
|  7>     C       14.8801495   15.5256109   17.5141597
|  8>     C       15.6818317   15.1612276   16.2510380
|  9>     O       17.0257591   14.8176017   16.6245592
| 10>     C       18.0789517   15.6766617   16.4698570
| 11>     O       19.1804377   15.1891283   16.2976574
| 12>     C       17.9670693   16.8599732   17.3703747
| 13>     C       17.4191830   18.0264529   16.9625139
| 14>     C       16.8487042   18.3327898   15.5952905
| 15>     N       17.4056071   19.1272187   17.8219824
| 16>     C       18.0288157   19.1701556   19.0420690
| 17>     S       18.0236598   20.5384626   19.9706177
| 18>     N       18.6558550   18.0202950   19.4557383
| 19>     C       18.6116303   16.7224241   18.7516361
| 20>     C       17.9241014   15.6496694   19.5928567
| 21>     C       18.4138228   14.3305801   19.5810274
| 22>     C       17.7880772   13.3257896   20.3372918
| 23>     C       16.6607717   13.6408294   21.1144052
| 24>     C       16.1672134   14.9521435   21.1273942
| 25>     O       15.0709124   15.2568163   21.8663907
| 26>     C       16.7921833   15.9509276   20.3740543
| 27>     H       14.9653742   14.7297281   18.2651425
| 28>     H       13.8180291   15.6514333   17.2719959
| 29>     H       15.2371450   16.4597677   17.9614101
| 30>     H       15.2148192   14.2782941   15.7953431
| 31>     H       15.6528984   15.9655633   15.5087459
| 32>     H       17.2016550   17.6266168   14.8337992
| 33>     H       17.1541109   19.3311812   15.2564007
| 34>     H       15.7522844   18.3065790   15.6112756
| 35>     H       16.9626116   19.9850341   17.5327459
| 36>     H       19.0917615   18.0754804   20.3675347
| 37>     H       19.6517206   16.4012080   18.5930140
| 38>     H       19.2749234   14.0800093   18.9649470
| 39>     H       18.1739342   12.3082256   20.3118190
| 40>     H       16.1723306   12.8667273   21.6967510
| 41>     H       14.8124143   14.4548353   22.3450205
| 42>     H       16.3862512   16.9565584   20.3971408
| 43> *
| 44>
| 45>                          ****END OF INPUT****

CARTESIAN COORDINATES (ANGSTROEM)
---------------------------------
  C     14.880149   15.525611   17.514160
  C     15.681832   15.161228   16.251038
  O     17.025759   14.817602   16.624559
  C     18.078952   15.676662   16.469857
  O     19.180438   15.189128   16.297657
  C     17.967069   16.859973   17.370375
  C     17.419183   18.026453   16.962514
  C     16.848704   18.332790   15.595290
  N     17.405607   19.127219   17.821982
  C     18.028816   19.170156   19.042069
  S     18.023660   20.538463   19.970618
  N     18.655855   18.020295   19.455738
  C     18.611630   16.722424   18.751636
  C     17.924101   15.649669   19.592857
  C     18.413823   14.330580   19.581027
  C     17.788077   13.325790   20.337292
  C     16.660772   13.640829   21.114405
  C     16.167213   14.952144   21.127394
  O     15.070912   15.256816   21.866391
  C     16.792183   15.950928   20.374054
  H     14.965374   14.729728   18.265142
  H     13.818029   15.651433   17.271996
  H     15.237145   16.459768   17.961410
  H     15.214819   14.278294   15.795343
  H     15.652898   15.965563   15.508746
  H     17.201655   17.626617   14.833799
  H     17.154111   19.331181   15.256401
  H     15.752284   18.306579   15.611276
  H     16.962612   19.985034   17.532746
  H     19.091762   18.075480   20.367535
  H     19.651721   16.401208   18.593014
  H     19.274923   14.080009   18.964947
  H     18.173934   12.308226   20.311819
  H     16.172331   12.866727   21.696751
  H     14.812414   14.454835   22.345021
  H     16.386251   16.956558   20.397141

 Total Charge           Charge          ....    0
 Multiplicity           Mult            ....    1
 Number of Electrons    NEL             ....  154
 Basis Dimension        Dim             ....  828

ORBITAL ENERGIES
----------------

  NO   OCC          E(Eh)            E(eV)
   0   2.0000     -91.887331     -2500.3814
   1   2.0000     -20.597603      -560.4893
   2   2.0000     -20.596127      -560.4491
   3   2.0000     -20.562257      -559.5275
   4   2.0000     -15.622775      -425.1173
   5   2.0000     -15.609841      -424.7654
   6   2.0000     -11.397188      -310.1332
   7   2.0000     -11.384107      -309.7773
   8   2.0000     -11.321931      -308.0854
   9   2.0000     -11.315324      -307.9056
  10   2.0000     -11.312065      -307.8169
  11   2.0000     -11.307169      -307.6837
  12   2.0000     -11.270780      -306.6935
  13   2.0000     -11.265279      -306.5438
  14   2.0000     -11.259819      -306.3953
  15   2.0000     -11.252601      -306.1988
  16   2.0000     -11.242026      -305.9111
  17   2.0000     -11.237656      -305.7922
  18   2.0000     -11.235208      -305.7256
  19   2.0000     -11.229297      -305.5647
  20   2.0000      -8.892471      -241.9764
  21   2.0000      -6.574071      -178.8896
  22   2.0000      -6.572034      -178.8341
  23   2.0000      -6.571469      -178.8188
  24   2.0000      -1.456608       -39.6363
  25   2.0000      -1.415934       -38.5295
  26   2.0000      -1.364350       -37.1258
  27   2.0000      -1.337229       -36.3878
  28   2.0000      -1.237505       -33.6742
  29   2.0000      -1.157076       -31.4856
  30   2.0000      -1.123281       -30.5660
  31   2.0000      -1.046678       -28.4816
  32   2.0000      -1.039398       -28.2835
  33   2.0000      -1.014984       -27.6191
  34   2.0000      -1.003483       -27.3062
  35   2.0000      -0.987504       -26.8714
  36   2.0000      -0.925903       -25.1951
  37   2.0000      -0.891622       -24.2623
  38   2.0000      -0.851906       -23.1815
  39   2.0000      -0.838264       -22.8103
  40   2.0000      -0.832917       -22.6648
  41   2.0000      -0.830864       -22.6090
  42   2.0000      -0.757636       -20.6163
  43   2.0000      -0.737025       -20.0555
  44   2.0000      -0.729250       -19.8439
  45   2.0000      -0.694338       -18.8939
  46   2.0000      -0.688731       -18.7413
  47   2.0000      -0.682576       -18.5738
  48   2.0000      -0.676129       -18.3984
  49   2.0000      -0.665193       -18.1008
  50   2.0000      -0.650715       -17.7069
  51   2.0000      -0.640249       -17.4221
  52   2.0000      -0.638410       -17.3720
  53   2.0000      -0.614573       -16.7234
  54   2.0000      -0.609056       -16.5733
  55   2.0000      -0.604878       -16.4596
  56   2.0000      -0.600595       -16.3430
  57   2.0000      -0.589472       -16.0404
  58   2.0000      -0.582318       -15.8457
  59   2.0000      -0.573595       -15.6083
  60   2.0000      -0.564102       -15.3500
  61   2.0000      -0.556312       -15.1380
  62   2.0000      -0.541898       -14.7458
  63   2.0000      -0.525332       -14.2950
  64   2.0000      -0.517623       -14.0852
  65   2.0000      -0.511288       -13.9128
  66   2.0000      -0.500734       -13.6257
  67   2.0000      -0.499540       -13.5932
  68   2.0000      -0.488015       -13.2796
  69   2.0000      -0.464810       -12.6481
  70   2.0000      -0.458011       -12.4631
  71   2.0000      -0.453092       -12.3293
  72   2.0000      -0.354334        -9.6419
  73   2.0000      -0.346404        -9.4261
  74   2.0000      -0.327186        -8.9032
  75   2.0000      -0.320010        -8.7079
  76   2.0000      -0.315517        -8.5857
  77   0.0000       0.088855         2.4179
  78   0.0000       0.099150         2.6980
  79   0.0000       0.111791         3.0420
  80   0.0000       0.126695         3.4476
  81   0.0000       0.130994         3.5645

MULLIKEN ATOMIC CHARGES
-----------------------
   0 C :   -0.296583
   1 C :   -0.004784
   2 O :   -0.313378
   3 C :    0.383978
   4 O :   -0.357158
   5 C :   -0.147191
   6 C :    0.121579
   7 C :   -0.333679
   8 N :   -0.133531
   9 C :    0.207787
  10 S :   -0.445644
  11 N :   -0.222765
  12 C :    0.062980
  13 C :    0.060883
  14 C :   -0.197217
  15 C :   -0.133451
  16 C :   -0.276637
  17 C :    0.313986
  18 O :   -0.360690
  19 C :   -0.288754
  20 H :    0.120009
  21 H :    0.108548
  22 H :    0.100698
  23 H :    0.129019
  24 H :    0.087759
  25 H :    0.119185
  26 H :    0.132588
  27 H :    0.124197
  28 H :    0.194663
  29 H :    0.200993
  30 H :    0.168484
  31 H :    0.161999
  32 H :    0.161607
  33 H :    0.131370
  34 H :    0.240936
  35 H :    0.178213
Sum of atomic charges:    0.0000000

LOEWDIN ATOMIC CHARGES
----------------------
   0 C :    0.104511
   1 C :   -0.027440
   2 O :    0.320030
   3 C :   -0.423240
   4 O :    0.146605
   5 C :   -0.076197
   6 C :   -0.113917
   7 C :    0.120511
   8 N :    0.399529
   9 C :   -0.456274
  10 S :   -0.041880
  11 N :    0.398393
  12 C :   -0.040946
  13 C :   -0.040350
  14 C :    0.024674
  15 C :    0.044116
  16 C :   -0.002324
  17 C :   -0.194033
  18 O :    0.394642
  19 C :    0.030379
  20 H :   -0.019357
  21 H :   -0.027478
  22 H :   -0.034475
  23 H :   -0.021879
  24 H :   -0.039417
  25 H :   -0.012404
  26 H :   -0.010725
  27 H :   -0.017495
  28 H :   -0.060056
  29 H :   -0.063576
  30 H :   -0.002299
  31 H :   -0.023228
  32 H :   -0.019432
  33 H :   -0.035516
  34 H :   -0.153942
  35 H :   -0.025507

  Mayer bond orders larger than 0.100000
B(  0-C ,  1-C ) :   0.9661 B(  0-C , 20-H ) :   0.9722 B(  0-C , 21-H ) :   0.9773
B(  0-C , 22-H ) :   0.9723 B(  1-C ,  2-O ) :   0.9117 B(  1-C , 23-H ) :   0.9846
B(  1-C , 24-H ) :   0.9774 B(  2-O ,  3-C ) :   1.0977 B(  3-C ,  4-O ) :   2.0995
B(  3-C ,  5-C ) :   0.9236 B(  5-C ,  6-C ) :   1.7246 B(  5-C , 12-C ) :   0.9585
B(  6-C ,  7-C ) :   0.9344 B(  6-C ,  8-N ) :   1.0963 B(  7-C , 25-H ) :   0.9829
B(  7-C , 26-H ) :   0.9759 B(  7-C , 27-H ) :   0.9662 B(  8-N ,  9-C ) :   1.2014
B(  8-N , 28-H ) :   0.9540 B(  9-C , 10-S ) :   1.6046 B(  9-C , 11-N ) :   1.2844
B( 11-N , 12-C ) :   0.9890 B( 11-N , 29-H ) :   0.9473 B( 12-C , 13-C ) :   0.9495
B( 12-C , 30-H ) :   0.9977 B( 13-C , 14-C ) :   1.3819 B( 13-C , 19-C ) :   1.3370
B( 14-C , 15-C ) :   1.4024 B( 14-C , 31-H ) :   0.9646 B( 15-C , 16-C ) :   1.3588
B( 15-C , 32-H ) :   0.9707 B( 16-C , 17-C ) :   1.3316 B( 16-C , 33-H ) :   0.9850
B( 17-C , 18-O ) :   1.1057 B( 17-C , 19-C ) :   1.3674 B( 18-O , 34-H ) :   0.9799
B( 19-C , 35-H ) :   0.9568

MP2 TOTAL ENERGY:    -1274.311761709 Eh
FINAL SINGLE POINT ENERGY     -1274.311761708536

DIPOLE MOMENT
-------------
                                X             Y             Z
Electronic contribution:      9.67823       6.10286       6.48852
Nuclear contribution   :    -11.17239      -7.35800      -7.44692
                        -----------------------------------------
Total Dipole Moment    :     -1.49416      -1.25514      -0.95839
                        -----------------------------------------
Magnitude (a.u.)       :      2.17403
Magnitude (Debye)      :      5.52594

Rotational constants in cm-1:     0.012256     0.009417     0.006959
Rotational constants in MHz :   367.426881   282.308412   208.629894

                             ****ORCA TERMINATED NORMALLY****
TOTAL RUN TIME: 0 days 2 hours 20 minutes 54 seconds 202 msec
