                         Program Version 5.0.0 -  RELEASE  -
|  1> ! ri-mp2 cc-pvtz cc-pvtz/c TightSCF NoKeepInts
|  2>
|  3> %scf
|  4>   MaxCore 4096
|  5> end
|  6> *xyz  0  1
|  7>     C       14.6796903   14.7123191   14.6634519
|  8>     C       15.4235740   14.5031598   15.9931046
|  9>     O       16.3386675   15.6018401   16.1479898
| 10>     C       17.4535093   15.4441803   16.9196743
| 11>     O       17.8897325   14.3427109   17.2120763
| 12>     C       17.8756728   16.6889370   17.6468363
| 13>     C       17.5504808   17.9549938   17.2747274
| 14>     C       16.7335529   18.3952185   16.0769526
| 15>     N       18.0538739   19.0417749   17.9975184
| 16>     C       18.9957540   18.9554580   18.9884908
| 17>     S       19.6357443   20.3029091   19.7029267
| 18>     N       19.3809684   17.6914454   19.3564548
| 19>     C       18.7450648   16.4465208   18.8861117
| 20>     C       17.9335976   15.8051316   20.0089309
| 21>     C       18.1735659   14.4717724   20.3893332
| 22>     C       17.4282446   13.8752920   21.4201837
| 23>     C       16.4329984   14.6178387   22.0779882
| 24>     C       16.1880154   15.9448933   21.6998671
| 25>     O       15.2233950   16.6626542   22.3289250
| 26>     C       16.9311327   16.5356633   20.6731023
| 27>     H       14.1231490   15.6575906   14.6755548
| 28>     H       13.9677977   13.8963524   14.4890075
| 29>     H       15.3867552   14.7358658   13.8248071
| 30>     H       14.7209679   14.4661629   16.8359336
| 31>     H       15.9595846   13.5453172   15.9427160
| 32>     H       17.0796768   17.8956580   15.1634692
| 33>     H       16.7966938   19.4749169   15.8950913
| 34>     H       15.6746558   18.1448336   16.2179074
| 35>     H       17.7835876   19.9780386   17.7419445
| 36>     H       20.0533501   17.6538818   20.1117115
| 37>     H       19.5478007   15.7510005   18.6013758
| 38>     H       18.9310345   13.8897553   19.8699610
| 39>     H       17.6199829   12.8411153   21.7004027
| 40>     H       15.8538985   14.1605127   22.8732225
| 41>     H       14.8533613   16.1011239   23.0264314
| 42>     H       16.7274685   17.5651614   20.3998178
| 43> *
| 44>
| 45>                          ****END OF INPUT****

CARTESIAN COORDINATES (ANGSTROEM)
---------------------------------
  C     14.679690   14.712319   14.663452
  C     15.423574   14.503160   15.993105
  O     16.338667   15.601840   16.147990
  C     17.453509   15.444180   16.919674
  O     17.889733   14.342711   17.212076
  C     17.875673   16.688937   17.646836
  C     17.550481   17.954994   17.274727
  C     16.733553   18.395218   16.076953
  N     18.053874   19.041775   17.997518
  C     18.995754   18.955458   18.988491
  S     19.635744   20.302909   19.702927
  N     19.380968   17.691445   19.356455
  C     18.745065   16.446521   18.886112
  C     17.933598   15.805132   20.008931
  C     18.173566   14.471772   20.389333
  C     17.428245   13.875292   21.420184
  C     16.432998   14.617839   22.077988
  C     16.188015   15.944893   21.699867
  O     15.223395   16.662654   22.328925
  C     16.931133   16.535663   20.673102
  H     14.123149   15.657591   14.675555
  H     13.967798   13.896352   14.489007
  H     15.386755   14.735866   13.824807
  H     14.720968   14.466163   16.835934
  H     15.959585   13.545317   15.942716
  H     17.079677   17.895658   15.163469
  H     16.796694   19.474917   15.895091
  H     15.674656   18.144834   16.217907
  H     17.783588   19.978039   17.741944
  H     20.053350   17.653882   20.111711
  H     19.547801   15.751000   18.601376
  H     18.931034   13.889755   19.869961
  H     17.619983   12.841115   21.700403
  H     15.853898   14.160513   22.873222
  H     14.853361   16.101124   23.026431
  H     16.727469   17.565161   20.399818

 Total Charge           Charge          ....    0
 Multiplicity           Mult            ....    1
 Number of Electrons    NEL             ....  154
 Basis Dimension        Dim             ....  828

ORBITAL ENERGIES
----------------

  NO   OCC          E(Eh)            E(eV)
   0   2.0000     -91.887977     -2500.3990
   1   2.0000     -20.600970      -560.5809
   2   2.0000     -20.591727      -560.3294
   3   2.0000     -20.546997      -559.1122
   4   2.0000     -15.628261      -425.2666
   5   2.0000     -15.606653      -424.6786
   6   2.0000     -11.395625      -310.0907
   7   2.0000     -11.382930      -309.7453
   8   2.0000     -11.335783      -308.4624
   9   2.0000     -11.307525      -307.6934
  10   2.0000     -11.305692      -307.6435
  11   2.0000     -11.298442      -307.4462
  12   2.0000     -11.260335      -306.4093
  13   2.0000     -11.259063      -306.3747
  14   2.0000     -11.253433      -306.2215
  15   2.0000     -11.247627      -306.0635
  16   2.0000     -11.237290      -305.7822
  17   2.0000     -11.233667      -305.6836
  18   2.0000     -11.233409      -305.6766
  19   2.0000     -11.230391      -305.5945
  20   2.0000      -8.893043      -241.9920
  21   2.0000      -6.574621      -178.9045
  22   2.0000      -6.572614      -178.8499
  23   2.0000      -6.572028      -178.8340
  24   2.0000      -1.454153       -39.5695
  25   2.0000      -1.411463       -38.4079
  26   2.0000      -1.357393       -36.9365
  27   2.0000      -1.339195       -36.4414
  28   2.0000      -1.236850       -33.6564
  29   2.0000      -1.152093       -31.3500
  30   2.0000      -1.119528       -30.4639
  31   2.0000      -1.044425       -28.4202
  32   2.0000      -1.036772       -28.2120
  33   2.0000      -1.009470       -27.4691
  34   2.0000      -0.997530       -27.1442
  35   2.0000      -0.983149       -26.7528
  36   2.0000      -0.921023       -25.0623
  37   2.0000      -0.887597       -24.1527
  38   2.0000      -0.847000       -23.0480
  39   2.0000      -0.835027       -22.7222
  40   2.0000      -0.827832       -22.5265
  41   2.0000      -0.818796       -22.2806
  42   2.0000      -0.761223       -20.7139
  43   2.0000      -0.735899       -20.0248
  44   2.0000      -0.724898       -19.7255
  45   2.0000      -0.690306       -18.7842
  46   2.0000      -0.684197       -18.6180
  47   2.0000      -0.680373       -18.5139
  48   2.0000      -0.675241       -18.3742
  49   2.0000      -0.654165       -17.8007
  50   2.0000      -0.651603       -17.7310
  51   2.0000      -0.642761       -17.4904
  52   2.0000      -0.633696       -17.2437
  53   2.0000      -0.607710       -16.5366
  54   2.0000      -0.600693       -16.3457
  55   2.0000      -0.599866       -16.3232
  56   2.0000      -0.595070       -16.1927
  57   2.0000      -0.578895       -15.7525
  58   2.0000      -0.573255       -15.5991
  59   2.0000      -0.562665       -15.3109
  60   2.0000      -0.561861       -15.2890
  61   2.0000      -0.544722       -14.8226
  62   2.0000      -0.542744       -14.7688
  63   2.0000      -0.527149       -14.3445
  64   2.0000      -0.517178       -14.0731
  65   2.0000      -0.509329       -13.8595
  66   2.0000      -0.500604       -13.6221
  67   2.0000      -0.495216       -13.4755
  68   2.0000      -0.481372       -13.0988
  69   2.0000      -0.463374       -12.6090
  70   2.0000      -0.461776       -12.5656
  71   2.0000      -0.452406       -12.3106
  72   2.0000      -0.354043        -9.6340
  73   2.0000      -0.343959        -9.3596
  74   2.0000      -0.327116        -8.9013
  75   2.0000      -0.315528        -8.5860
  76   2.0000      -0.313838        -8.5400
  77   0.0000       0.075354         2.0505
  78   0.0000       0.112417         3.0590
  79   0.0000       0.120442         3.2774
  80   0.0000       0.135669         3.6917
  81   0.0000       0.138587         3.7712

MULLIKEN ATOMIC CHARGES
-----------------------
   0 C :   -0.267203
   1 C :    0.030456
   2 O :   -0.347516
   3 C :    0.450479
   4 O :   -0.422505
   5 C :   -0.180725
   6 C :    0.142136
   7 C :   -0.287481
   8 N :   -0.122901
   9 C :    0.201728
  10 S :   -0.439524
  11 N :   -0.197505
  12 C :    0.037648
  13 C :    0.055435
  14 C :   -0.160491
  15 C :   -0.133829
  16 C :   -0.279239
  17 C :    0.311064
  18 O :   -0.359159
  19 C :   -0.272389
  20 H :    0.090506
  21 H :    0.095845
  22 H :    0.097944
  23 H :    0.095153
  24 H :    0.115677
  25 H :    0.126153
  26 H :    0.103677
  27 H :    0.126934
  28 H :    0.196864
  29 H :    0.193664
  30 H :    0.153827
  31 H :    0.153357
  32 H :    0.159057
  33 H :    0.128057
  34 H :    0.240064
  35 H :    0.164743
Sum of atomic charges:   -0.0000000

LOEWDIN ATOMIC CHARGES
----------------------
   0 C :    0.105859
   1 C :   -0.013664
   2 O :    0.303948
   3 C :   -0.413656
   4 O :    0.107404
   5 C :   -0.091481
   6 C :   -0.067129
   7 C :    0.125005
   8 N :    0.404691
   9 C :   -0.458720
  10 S :   -0.036177
  11 N :    0.397725
  12 C :   -0.046265
  13 C :   -0.038888
  14 C :    0.022129
  15 C :    0.040977
  16 C :   -0.002414
  17 C :   -0.192788
  18 O :    0.392934
  19 C :    0.028316
  20 H :   -0.030370
  21 H :   -0.024093
  22 H :   -0.025743
  23 H :   -0.030282
  24 H :   -0.027037
  25 H :   -0.008540
  26 H :   -0.020761
  27 H :   -0.010287
  28 H :   -0.059114
  29 H :   -0.063740
  30 H :   -0.004918
  31 H :   -0.025291
  32 H :   -0.021213
  33 H :   -0.036421
  34 H :   -0.154914
  35 H :   -0.025083

  Mayer bond orders larger than 0.100000
B(  0-C ,  1-C ) :   0.9731 B(  0-C , 20-H ) :   0.9794 B(  0-C , 21-H ) :   0.9773
B(  0-C , 22-H ) :   0.9775 B(  1-C ,  2-O ) :   0.8935 B(  1-C , 23-H ) :   0.9756
B(  1-C , 24-H ) :   0.9762 B(  2-O ,  3-C ) :   1.1463 B(  3-C ,  4-O ) :   1.9966
B(  3-C ,  5-C ) :   1.0459 B(  5-C ,  6-C ) :   1.6501 B(  5-C , 12-C ) :   0.9659
B(  6-C ,  7-C ) :   0.9539 B(  6-C ,  8-N ) :   1.1445 B(  7-C , 25-H ) :   0.9667
B(  7-C , 26-H ) :   0.9916 B(  7-C , 27-H ) :   0.9631 B(  8-N ,  9-C ) :   1.1795
B(  8-N , 28-H ) :   0.9490 B(  9-C , 10-S ) :   1.6106 B(  9-C , 11-N ) :   1.3037
B( 11-N , 12-C ) :   0.9915 B( 11-N , 29-H ) :   0.9520 B( 12-C , 13-C ) :   0.9475
B( 12-C , 30-H ) :   0.9994 B( 13-C , 14-C ) :   1.3766 B( 13-C , 19-C ) :   1.3691
B( 14-C , 15-C ) :   1.3948 B( 14-C , 31-H ) :   0.9648 B( 15-C , 16-C ) :   1.3627
B( 15-C , 32-H ) :   0.9714 B( 16-C , 17-C ) :   1.3314 B( 16-C , 33-H ) :   0.9860
B( 17-C , 18-O ) :   1.1080 B( 17-C , 19-C ) :   1.3790 B( 18-O , 34-H ) :   0.9806
B( 19-C , 35-H ) :   0.9584

MP2 TOTAL ENERGY:    -1274.343568165 Eh
FINAL SINGLE POINT ENERGY     -1274.343568164907

DIPOLE MOMENT
-------------
                                X             Y             Z
Electronic contribution:     11.72160       8.68764      11.49645
Nuclear contribution   :    -13.33307      -9.91078     -12.37127
                        -----------------------------------------
Total Dipole Moment    :     -1.61147      -1.22314      -0.87483
                        -----------------------------------------
Magnitude (a.u.)       :      2.20414
Magnitude (Debye)      :      5.60247

Rotational constants in cm-1:     0.010384     0.008882     0.005848
Rotational constants in MHz :   311.312150   266.280925   175.330791

                             ****ORCA TERMINATED NORMALLY****
TOTAL RUN TIME: 0 days 1 hours 50 minutes 48 seconds 936 msec
