                         Program Version 5.0.0 -  RELEASE  -
|  1> ! ri-mp2 cc-pvtz cc-pvtz/c TightSCF NoKeepInts
|  2>
|  3> %scf
|  4>   MaxCore 4096
|  5> end
|  6> *xyz  0  1
|  7>     C       15.3404010   14.3248573   17.0823371
|  8>     C       15.5196246   15.0057475   15.7045193
|  9>     O       16.5693723   16.0011839   15.6977617
| 10>     C       17.6820817   15.8904409   16.4807420
| 11>     O       18.2948009   14.8407473   16.5834280
| 12>     C       17.8813693   17.0353312   17.4300654
| 13>     C       17.3952671   18.2897405   17.2443643
| 14>     C       16.6015085   18.8138761   16.0655177
| 15>     N       17.6796631   19.2896883   18.1800578
| 16>     C       18.5419686   19.1530597   19.2359150
| 17>     S       18.9111156   20.4229023   20.2292220
| 18>     N       19.0822550   17.9066067   19.4274419
| 19>     C       18.6911385   16.6936058   18.6848639
| 20>     C       17.9104077   15.7400260   19.5857936
| 21>     C       18.3147709   14.3995452   19.7252389
| 22>     C       17.5879382   13.5123151   20.5365153
| 23>     C       16.4452474   13.9681955   21.2153685
| 24>     C       16.0372870   15.3017089   21.0772373
| 25>     O       14.9285835   15.7426071   21.7232563
| 26>     C       16.7625843   16.1824019   20.2687770
| 27>     H       16.1826121   13.6651744   17.3249108
| 28>     H       14.4337572   13.7081767   17.0828743
| 29>     H       15.2394965   15.0715000   17.8797863
| 30>     H       15.7580807   14.2292630   14.9656949
| 31>     H       14.5761597   15.4758961   15.3991255
| 32>     H       15.5738938   18.4307100   16.0896671
| 33>     H       17.0567434   18.5001289   15.1177161
| 34>     H       16.5474706   19.9091612   16.0466704
| 35>     H       17.2936878   20.2121122   18.0567126
| 36>     H       19.6914670   17.8249861   20.2312985
| 37>     H       19.6129895   16.1880350   18.3624453
| 38>     H       19.1863079   14.0391315   19.1839261
| 39>     H       17.9080164   12.4760970   20.6299338
| 40>     H       15.8794142   13.2855119   21.8404779
| 41>     H       14.6003468   15.0112266   22.2676213
| 42>     H       16.4291709   17.2103023   20.1767162
| 43> *
| 44>
| 45>                          ****END OF INPUT****

CARTESIAN COORDINATES (ANGSTROEM)
---------------------------------
  C     15.340401   14.324857   17.082337
  C     15.519625   15.005747   15.704519
  O     16.569372   16.001184   15.697762
  C     17.682082   15.890441   16.480742
  O     18.294801   14.840747   16.583428
  C     17.881369   17.035331   17.430065
  C     17.395267   18.289741   17.244364
  C     16.601509   18.813876   16.065518
  N     17.679663   19.289688   18.180058
  C     18.541969   19.153060   19.235915
  S     18.911116   20.422902   20.229222
  N     19.082255   17.906607   19.427442
  C     18.691139   16.693606   18.684864
  C     17.910408   15.740026   19.585794
  C     18.314771   14.399545   19.725239
  C     17.587938   13.512315   20.536515
  C     16.445247   13.968196   21.215368
  C     16.037287   15.301709   21.077237
  O     14.928583   15.742607   21.723256
  C     16.762584   16.182402   20.268777
  H     16.182612   13.665174   17.324911
  H     14.433757   13.708177   17.082874
  H     15.239496   15.071500   17.879786
  H     15.758081   14.229263   14.965695
  H     14.576160   15.475896   15.399125
  H     15.573894   18.430710   16.089667
  H     17.056743   18.500129   15.117716
  H     16.547471   19.909161   16.046670
  H     17.293688   20.212112   18.056713
  H     19.691467   17.824986   20.231299
  H     19.612990   16.188035   18.362445
  H     19.186308   14.039131   19.183926
  H     17.908016   12.476097   20.629934
  H     15.879414   13.285512   21.840478
  H     14.600347   15.011227   22.267621
  H     16.429171   17.210302   20.176716

 Total Charge           Charge          ....    0
 Multiplicity           Mult            ....    1
 Number of Electrons    NEL             ....  154
 Basis Dimension        Dim             ....  828

ORBITAL ENERGIES
----------------

  NO   OCC          E(Eh)            E(eV)
   0   2.0000     -91.888891     -2500.4239
   1   2.0000     -20.594862      -560.4147
   2   2.0000     -20.589252      -560.2620
   3   2.0000     -20.549278      -559.1743
   4   2.0000     -15.628961      -425.2856
   5   2.0000     -15.607890      -424.7123
   6   2.0000     -11.395588      -310.0897
   7   2.0000     -11.384029      -309.7752
   8   2.0000     -11.335803      -308.4629
   9   2.0000     -11.310842      -307.7837
  10   2.0000     -11.307196      -307.6844
  11   2.0000     -11.303631      -307.5874
  12   2.0000     -11.260108      -306.4031
  13   2.0000     -11.259333      -306.3820
  14   2.0000     -11.256293      -306.2993
  15   2.0000     -11.251002      -306.1553
  16   2.0000     -11.240674      -305.8743
  17   2.0000     -11.236395      -305.7579
  18   2.0000     -11.233377      -305.6757
  19   2.0000     -11.224258      -305.4276
  20   2.0000      -8.893957      -242.0169
  21   2.0000      -6.575533      -178.9294
  22   2.0000      -6.573526      -178.8747
  23   2.0000      -6.572940      -178.8588
  24   2.0000      -1.447953       -39.4008
  25   2.0000      -1.414660       -38.4949
  26   2.0000      -1.354761       -36.8649
  27   2.0000      -1.339942       -36.4617
  28   2.0000      -1.237850       -33.6836
  29   2.0000      -1.155128       -31.4326
  30   2.0000      -1.120590       -30.4928
  31   2.0000      -1.043182       -28.3864
  32   2.0000      -1.031255       -28.0619
  33   2.0000      -1.012626       -27.5549
  34   2.0000      -0.999059       -27.1858
  35   2.0000      -0.984705       -26.7952
  36   2.0000      -0.923247       -25.1228
  37   2.0000      -0.895925       -24.3794
  38   2.0000      -0.848615       -23.0920
  39   2.0000      -0.837649       -22.7936
  40   2.0000      -0.831088       -22.6150
  41   2.0000      -0.817117       -22.2349
  42   2.0000      -0.744895       -20.2696
  43   2.0000      -0.731763       -19.9123
  44   2.0000      -0.726995       -19.7826
  45   2.0000      -0.692793       -18.8519
  46   2.0000      -0.685983       -18.6665
  47   2.0000      -0.676527       -18.4092
  48   2.0000      -0.672173       -18.2908
  49   2.0000      -0.659506       -17.9461
  50   2.0000      -0.653157       -17.7733
  51   2.0000      -0.645502       -17.5650
  52   2.0000      -0.633918       -17.2498
  53   2.0000      -0.621259       -16.9053
  54   2.0000      -0.603128       -16.4119
  55   2.0000      -0.601719       -16.3736
  56   2.0000      -0.598640       -16.2898
  57   2.0000      -0.578139       -15.7320
  58   2.0000      -0.575301       -15.6547
  59   2.0000      -0.563837       -15.3428
  60   2.0000      -0.552070       -15.0226
  61   2.0000      -0.546021       -14.8580
  62   2.0000      -0.535759       -14.5787
  63   2.0000      -0.527507       -14.3542
  64   2.0000      -0.519202       -14.1282
  65   2.0000      -0.510350       -13.8873
  66   2.0000      -0.499991       -13.6054
  67   2.0000      -0.495693       -13.4885
  68   2.0000      -0.479855       -13.0575
  69   2.0000      -0.464486       -12.6393
  70   2.0000      -0.456438       -12.4203
  71   2.0000      -0.449387       -12.2284
  72   2.0000      -0.354383        -9.6433
  73   2.0000      -0.346791        -9.4367
  74   2.0000      -0.328100        -8.9280
  75   2.0000      -0.318188        -8.6583
  76   2.0000      -0.315715        -8.5910
  77   0.0000       0.072851         1.9824
  78   0.0000       0.107839         2.9345
  79   0.0000       0.120164         3.2698
  80   0.0000       0.132847         3.6150
  81   0.0000       0.140473         3.8225

MULLIKEN ATOMIC CHARGES
-----------------------
   0 C :   -0.333023
   1 C :    0.057878
   2 O :   -0.379213
   3 C :    0.469092
   4 O :   -0.417020
   5 C :   -0.192556
   6 C :    0.142539
   7 C :   -0.282184
   8 N :   -0.122849
   9 C :    0.201031
  10 S :   -0.438660
  11 N :   -0.201037
  12 C :    0.048830
  13 C :    0.056870
  14 C :   -0.171111
  15 C :   -0.134590
  16 C :   -0.276632
  17 C :    0.319512
  18 O :   -0.360863
  19 C :   -0.291534
  20 H :    0.129779
  21 H :    0.107845
  22 H :    0.102541
  23 H :    0.102738
  24 H :    0.100923
  25 H :    0.122732
  26 H :    0.128960
  27 H :    0.103494
  28 H :    0.197116
  29 H :    0.194207
  30 H :    0.154590
  31 H :    0.158714
  32 H :    0.161799
  33 H :    0.130364
  34 H :    0.240523
  35 H :    0.169195
Sum of atomic charges:   -0.0000000

LOEWDIN ATOMIC CHARGES
----------------------
   0 C :    0.105822
   1 C :   -0.011885
   2 O :    0.288835
   3 C :   -0.417123
   4 O :    0.116451
   5 C :   -0.093636
   6 C :   -0.068517
   7 C :    0.125737
   8 N :    0.404733
   9 C :   -0.458401
  10 S :   -0.035623
  11 N :    0.397643
  12 C :   -0.045840
  13 C :   -0.040074
  14 C :    0.022630
  15 C :    0.041481
  16 C :   -0.002132
  17 C :   -0.193699
  18 O :    0.393752
  19 C :    0.028444
  20 H :   -0.023873
  21 H :   -0.025496
  22 H :   -0.028480
  23 H :   -0.028312
  24 H :   -0.026632
  25 H :   -0.010320
  26 H :   -0.007009
  27 H :   -0.020553
  28 H :   -0.058869
  29 H :   -0.063847
  30 H :   -0.004664
  31 H :   -0.024746
  32 H :   -0.020669
  33 H :   -0.035854
  34 H :   -0.154271
  35 H :   -0.024999

  Mayer bond orders larger than 0.100000
B(  0-C ,  1-C ) :   0.9599 B(  0-C , 20-H ) :   0.9688 B(  0-C , 21-H ) :   0.9760
B(  0-C , 22-H ) :   0.9697 B(  1-C ,  2-O ) :   0.8975 B(  1-C , 23-H ) :   0.9851
B(  1-C , 24-H ) :   0.9818 B(  2-O ,  3-C ) :   1.0998 B(  3-C ,  4-O ) :   2.0090
B(  3-C ,  5-C ) :   1.0404 B(  5-C ,  6-C ) :   1.6572 B(  5-C , 12-C ) :   0.9625
B(  6-C ,  7-C ) :   0.9535 B(  6-C ,  8-N ) :   1.1456 B(  7-C , 25-H ) :   0.9646
B(  7-C , 26-H ) :   0.9666 B(  7-C , 27-H ) :   0.9901 B(  8-N ,  9-C ) :   1.1810
B(  8-N , 28-H ) :   0.9490 B(  9-C , 10-S ) :   1.6117 B(  9-C , 11-N ) :   1.3023
B( 11-N , 12-C ) :   0.9911 B( 11-N , 29-H ) :   0.9517 B( 12-C , 13-C ) :   0.9448
B( 12-C , 30-H ) :   0.9994 B( 13-C , 14-C ) :   1.3767 B( 13-C , 19-C ) :   1.3592
B( 14-C , 15-C ) :   1.3925 B( 14-C , 31-H ) :   0.9630 B( 15-C , 16-C ) :   1.3624
B( 15-C , 32-H ) :   0.9706 B( 16-C , 17-C ) :   1.3319 B( 16-C , 33-H ) :   0.9848
B( 17-C , 18-O ) :   1.1081 B( 17-C , 19-C ) :   1.3693 B( 18-O , 34-H ) :   0.9802
B( 19-C , 35-H ) :   0.9592

MP2 TOTAL ENERGY:    -1274.335686407 Eh
FINAL SINGLE POINT ENERGY     -1274.335686406901

DIPOLE MOMENT
-------------
                                X             Y             Z
Electronic contribution:      9.74624       9.61181       6.89675
Nuclear contribution   :    -11.22591     -10.86062      -7.69037
                        -----------------------------------------
Total Dipole Moment    :     -1.47967      -1.24882      -0.79362
                        -----------------------------------------
Magnitude (a.u.)       :      2.09256
Magnitude (Debye)      :      5.31886

Rotational constants in cm-1:     0.011794     0.009382     0.006541
Rotational constants in MHz :   353.579491   281.259270   196.102089

                             ****ORCA TERMINATED NORMALLY****
TOTAL RUN TIME: 0 days 2 hours 6 minutes 19 seconds 741 msec
