                         Program Version 5.0.0 -  RELEASE  -
|  1> ! ri-mp2 cc-pvtz cc-pvtz/c TightSCF NoKeepInts
|  2>
|  3> %scf
|  4>   MaxCore 4096
|  5> end
|  6> *xyz  0  1
|  7>     C       14.1619510   15.2371018   16.2658186
|  8>     C       15.4343345   15.5030509   17.0863412
|  9>     O       16.5577671   15.3091010   16.2027296
| 10>     C       17.8255057   15.7418398   16.4972814
| 11>     O       18.7800277   15.0192937   16.2778487
| 12>     C       17.9347948   16.9069525   17.4269934
| 13>     C       17.3509768   18.1025624   17.1774671
| 14>     C       16.5391692   18.4830005   15.9571114
| 15>     N       17.5325064   19.1636910   18.0670376
| 16>     C       18.3592350   19.1312810   19.1602662
| 17>     S       18.5631510   20.4524436   20.1332549
| 18>     N       19.0047638   17.9449208   19.4115781
| 19>     C       18.8037351   16.6879752   18.6631137
| 20>     C       18.1878240   15.6073954   19.5459023
| 21>     C       18.7013799   14.2979968   19.5242265
| 22>     C       18.1189356   13.2874446   20.3071227
| 23>     C       17.0096824   13.5865918   21.1162359
| 24>     C       16.4899552   14.8876931   21.1345129
| 25>     O       15.4088234   15.1768844   21.9011717
| 26>     C       17.0712650   15.8918186   20.3538659
| 27>     H       13.2687039   15.3461287   16.8929168
| 28>     H       14.1728227   14.2180366   15.8587374
| 29>     H       14.0847391   15.9422529   15.4290514
| 30>     H       15.3790623   16.5178302   17.4923842
| 31>     H       15.4967586   14.8008100   17.9288589
| 32>     H       16.6549697   17.7592561   15.1407599
| 33>     H       16.8566375   19.4554812   15.5597742
| 34>     H       15.4709109   18.5491331   16.1963846
| 35>     H       17.0783865   20.0468675   17.8936253
| 36>     H       19.5907916   17.9447509   20.2370208
| 37>     H       19.7894281   16.3369047   18.3231954
| 38>     H       19.5460445   14.0585570   18.8814961
| 39>     H       18.5234034   12.2769854   20.2773247
| 40>     H       16.5548889   12.8074054   21.7191009
| 41>     H       15.1928366   14.3810328   22.4108575
| 42>     H       16.6508319   16.8915290   20.3826320
| 43> *
| 44>
| 45>                          ****END OF INPUT****

CARTESIAN COORDINATES (ANGSTROEM)
---------------------------------
  C     14.161951   15.237102   16.265819
  C     15.434334   15.503051   17.086341
  O     16.557767   15.309101   16.202730
  C     17.825506   15.741840   16.497281
  O     18.780028   15.019294   16.277849
  C     17.934795   16.906952   17.426993
  C     17.350977   18.102562   17.177467
  C     16.539169   18.483000   15.957111
  N     17.532506   19.163691   18.067038
  C     18.359235   19.131281   19.160266
  S     18.563151   20.452444   20.133255
  N     19.004764   17.944921   19.411578
  C     18.803735   16.687975   18.663114
  C     18.187824   15.607395   19.545902
  C     18.701380   14.297997   19.524227
  C     18.118936   13.287445   20.307123
  C     17.009682   13.586592   21.116236
  C     16.489955   14.887693   21.134513
  O     15.408823   15.176884   21.901172
  C     17.071265   15.891819   20.353866
  H     13.268704   15.346129   16.892917
  H     14.172823   14.218037   15.858737
  H     14.084739   15.942253   15.429051
  H     15.379062   16.517830   17.492384
  H     15.496759   14.800810   17.928859
  H     16.654970   17.759256   15.140760
  H     16.856638   19.455481   15.559774
  H     15.470911   18.549133   16.196385
  H     17.078387   20.046868   17.893625
  H     19.590792   17.944751   20.237021
  H     19.789428   16.336905   18.323195
  H     19.546044   14.058557   18.881496
  H     18.523403   12.276985   20.277325
  H     16.554889   12.807405   21.719101
  H     15.192837   14.381033   22.410857
  H     16.650832   16.891529   20.382632

 Total Charge           Charge          ....    0
 Multiplicity           Mult            ....    1
 Number of Electrons    NEL             ....  154
 Basis Dimension        Dim             ....  828

ORBITAL ENERGIES
----------------

  NO   OCC          E(Eh)            E(eV)
   0   2.0000     -91.890665     -2500.4721
   1   2.0000     -20.599970      -560.5537
   2   2.0000     -20.597780      -560.4941
   3   2.0000     -20.551334      -559.2302
   4   2.0000     -15.628616      -425.2763
   5   2.0000     -15.611657      -424.8148
   6   2.0000     -11.396762      -310.1217
   7   2.0000     -11.387306      -309.8644
   8   2.0000     -11.331666      -308.3503
   9   2.0000     -11.316559      -307.9392
  10   2.0000     -11.313659      -307.8603
  11   2.0000     -11.303224      -307.5764
  12   2.0000     -11.268501      -306.6315
  13   2.0000     -11.263868      -306.5054
  14   2.0000     -11.262809      -306.4766
  15   2.0000     -11.256596      -306.3076
  16   2.0000     -11.246192      -306.0244
  17   2.0000     -11.242126      -305.9138
  18   2.0000     -11.239254      -305.8357
  19   2.0000     -11.234749      -305.7131
  20   2.0000      -8.895769      -242.0662
  21   2.0000      -6.577353      -178.9789
  22   2.0000      -6.575332      -178.9239
  23   2.0000      -6.574753      -178.9081
  24   2.0000      -1.447986       -39.4017
  25   2.0000      -1.419787       -38.6344
  26   2.0000      -1.359508       -36.9941
  27   2.0000      -1.341168       -36.4950
  28   2.0000      -1.240416       -33.7534
  29   2.0000      -1.161380       -31.6028
  30   2.0000      -1.125799       -30.6345
  31   2.0000      -1.048937       -28.5430
  32   2.0000      -1.040822       -28.3222
  33   2.0000      -1.018647       -27.7188
  34   2.0000      -1.005071       -27.3494
  35   2.0000      -0.989733       -26.9320
  36   2.0000      -0.927843       -25.2479
  37   2.0000      -0.881132       -23.9768
  38   2.0000      -0.855245       -23.2724
  39   2.0000      -0.842751       -22.9324
  40   2.0000      -0.837201       -22.7814
  41   2.0000      -0.836311       -22.7572
  42   2.0000      -0.757935       -20.6245
  43   2.0000      -0.739989       -20.1361
  44   2.0000      -0.732160       -19.9231
  45   2.0000      -0.697561       -18.9816
  46   2.0000      -0.688201       -18.7269
  47   2.0000      -0.682499       -18.5717
  48   2.0000      -0.676701       -18.4140
  49   2.0000      -0.664132       -18.0720
  50   2.0000      -0.652769       -17.7627
  51   2.0000      -0.646855       -17.6018
  52   2.0000      -0.640932       -17.4406
  53   2.0000      -0.612655       -16.6712
  54   2.0000      -0.608220       -16.5505
  55   2.0000      -0.604776       -16.4568
  56   2.0000      -0.603477       -16.4214
  57   2.0000      -0.586487       -15.9591
  58   2.0000      -0.578295       -15.7362
  59   2.0000      -0.568236       -15.4625
  60   2.0000      -0.561248       -15.2723
  61   2.0000      -0.558407       -15.1950
  62   2.0000      -0.543210       -14.7815
  63   2.0000      -0.530067       -14.4239
  64   2.0000      -0.524830       -14.2813
  65   2.0000      -0.516143       -14.0450
  66   2.0000      -0.502658       -13.6780
  67   2.0000      -0.500685       -13.6243
  68   2.0000      -0.490218       -13.3395
  69   2.0000      -0.469756       -12.7827
  70   2.0000      -0.457823       -12.4580
  71   2.0000      -0.449751       -12.2383
  72   2.0000      -0.357530        -9.7289
  73   2.0000      -0.351947        -9.5770
  74   2.0000      -0.330227        -8.9859
  75   2.0000      -0.324456        -8.8289
  76   2.0000      -0.318790        -8.6747
  77   0.0000       0.080120         2.1802
  78   0.0000       0.104310         2.8384
  79   0.0000       0.114057         3.1036
  80   0.0000       0.128568         3.4985
  81   0.0000       0.132123         3.5952

MULLIKEN ATOMIC CHARGES
-----------------------
   0 C :   -0.261635
   1 C :    0.013845
   2 O :   -0.324009
   3 C :    0.412260
   4 O :   -0.381157
   5 C :   -0.206558
   6 C :    0.139893
   7 C :   -0.318921
   8 N :   -0.133333
   9 C :    0.203310
  10 S :   -0.439382
  11 N :   -0.209344
  12 C :    0.062234
  13 C :    0.030189
  14 C :   -0.187229
  15 C :   -0.131132
  16 C :   -0.277152
  17 C :    0.316573
  18 O :   -0.358979
  19 C :   -0.282332
  20 H :    0.091647
  21 H :    0.109138
  22 H :    0.092417
  23 H :    0.092076
  24 H :    0.126103
  25 H :    0.133731
  26 H :    0.133937
  27 H :    0.119932
  28 H :    0.196873
  29 H :    0.197028
  30 H :    0.162578
  31 H :    0.166618
  32 H :    0.163560
  33 H :    0.132682
  34 H :    0.241896
  35 H :    0.172642
Sum of atomic charges:    0.0000000

LOEWDIN ATOMIC CHARGES
----------------------
   0 C :    0.109930
   1 C :   -0.020685
   2 O :    0.301340
   3 C :   -0.416153
   4 O :    0.126849
   5 C :   -0.086296
   6 C :   -0.097495
   7 C :    0.126684
   8 N :    0.401986
   9 C :   -0.456227
  10 S :   -0.036370
  11 N :    0.397139
  12 C :   -0.045138
  13 C :   -0.044330
  14 C :    0.022398
  15 C :    0.044988
  16 C :   -0.000659
  17 C :   -0.195031
  18 O :    0.394200
  19 C :    0.028141
  20 H :   -0.024257
  21 H :   -0.022855
  22 H :   -0.029512
  23 H :   -0.040461
  24 H :   -0.026199
  25 H :   -0.007291
  26 H :   -0.011308
  27 H :   -0.016808
  28 H :   -0.057525
  29 H :   -0.063621
  30 H :   -0.002827
  31 H :   -0.022002
  32 H :   -0.018562
  33 H :   -0.034569
  34 H :   -0.152883
  35 H :   -0.024594

  Mayer bond orders larger than 0.100000
B(  0-C ,  1-C ) :   0.9786 B(  0-C , 20-H ) :   0.9763 B(  0-C , 21-H ) :   0.9793
B(  0-C , 22-H ) :   0.9783 B(  1-C ,  2-O ) :   0.9002 B(  1-C , 23-H ) :   0.9659
B(  1-C , 24-H ) :   0.9734 B(  2-O ,  3-C ) :   1.1775 B(  3-C ,  4-O ) :   2.1003
B(  3-C ,  5-C ) :   0.9305 B(  5-C ,  6-C ) :   1.6826 B(  5-C , 12-C ) :   0.9611
B(  6-C ,  7-C ) :   0.9443 B(  6-C ,  8-N ) :   1.1204 B(  7-C , 25-H ) :   0.9767
B(  7-C , 26-H ) :   0.9752 B(  7-C , 27-H ) :   0.9642 B(  8-N ,  9-C ) :   1.1904
B(  8-N , 28-H ) :   0.9514 B(  9-C , 10-S ) :   1.6128 B(  9-C , 11-N ) :   1.2905
B( 11-N , 12-C ) :   1.0002 B( 11-N , 29-H ) :   0.9499 B( 12-C , 13-C ) :   0.9436
B( 12-C , 30-H ) :   0.9976 B( 13-C , 14-C ) :   1.3860 B( 13-C , 19-C ) :   1.3507
B( 14-C , 15-C ) :   1.3950 B( 14-C , 31-H ) :   0.9610 B( 15-C , 16-C ) :   1.3646
B( 15-C , 32-H ) :   0.9702 B( 16-C , 17-C ) :   1.3274 B( 16-C , 33-H ) :   0.9843
B( 17-C , 18-O ) :   1.1101 B( 17-C , 19-C ) :   1.3702 B( 18-O , 34-H ) :   0.9790
B( 19-C , 35-H ) :   0.9588

MP2 TOTAL ENERGY:    -1274.334198129 Eh
FINAL SINGLE POINT ENERGY     -1274.334198129364

DIPOLE MOMENT
-------------
                                X             Y             Z
Electronic contribution:     11.99551       6.53154       7.44871
Nuclear contribution   :    -13.51116      -7.52605      -7.69524
                        -----------------------------------------
Total Dipole Moment    :     -1.51565      -0.99451      -0.24653
                        -----------------------------------------
Magnitude (a.u.)       :      1.82949
Magnitude (Debye)      :      4.65019

Rotational constants in cm-1:     0.011333     0.009219     0.006800
Rotational constants in MHz :   339.752077   276.383596   203.850260

                             ****ORCA TERMINATED NORMALLY****
TOTAL RUN TIME: 0 days 2 hours 7 minutes 13 seconds 194 msec
