                         Program Version 5.0.0 -  RELEASE  -
|  1> ! ri-mp2 cc-pvtz cc-pvtz/c TightSCF NoKeepInts
|  2>
|  3> %scf
|  4>   MaxCore 4096
|  5> end
|  6> *xyz  0  1
|  7>     C       16.0153239   13.0870792   16.3414193
|  8>     C       15.6406654   14.5443936   16.6581038
|  9>     O       16.8235434   15.3417579   16.4831836
| 10>     C       16.6799045   16.6969547   16.4094724
| 11>     O       15.7556755   17.2052361   15.7984418
| 12>     C       17.5214178   17.4261071   17.4214109
| 13>     C       17.5009534   18.7780055   17.5429198
| 14>     C       16.6770455   19.7587065   16.7359868
| 15>     N       18.3348271   19.4118172   18.4689270
| 16>     C       19.2921239   18.7835812   19.2197464
| 17>     S       20.3096104   19.6210242   20.2193579
| 18>     N       19.3694037   17.4199471   19.0959570
| 19>     C       18.4245874   16.5812830   18.3364844
| 20>     C       17.6203151   15.7169250   19.3034643
| 21>     C       17.8750362   14.3361689   19.4020509
| 22>     C       17.1296794   13.5323611   20.2808237
| 23>     C       16.1248387   14.1146052   21.0720322
| 24>     C       15.8746455   15.4908316   20.9832298
| 25>     O       14.9062885   16.0562635   21.7468711
| 26>     C       16.6165573   16.2878106   20.1060658
| 27>     H       16.7970867   12.7315787   17.0235043
| 28>     H       16.3848299   12.9984846   15.3121770
| 29>     H       15.1412636   12.4337472   16.4503883
| 30>     H       14.8484796   14.8663224   15.9681494
| 31>     H       15.2670365   14.6326797   17.6871168
| 32>     H       15.6059646   19.6003765   16.9161479
| 33>     H       16.8515627   19.6189617   15.6615706
| 34>     H       16.9026850   20.8051905   16.9722510
| 35>     H       18.2938740   20.4133436   18.5709415
| 36>     H       20.0616810   16.9817523   19.6897365
| 37>     H       19.0190366   15.9179362   17.6923710
| 38>     H       18.6484734   13.8828880   18.7876799
| 39>     H       17.3325020   12.4648114   20.3478045
| 40>     H       15.5473570   13.4983506   21.7533896
| 41>     H       14.5414410   15.3629348   22.3171538
| 42>     H       16.4112839   17.3517824   20.0576692
| 43> *
| 44>
| 45>                          ****END OF INPUT****

CARTESIAN COORDINATES (ANGSTROEM)
---------------------------------
  C     16.015324   13.087079   16.341419
  C     15.640665   14.544394   16.658104
  O     16.823543   15.341758   16.483184
  C     16.679904   16.696955   16.409472
  O     15.755676   17.205236   15.798442
  C     17.521418   17.426107   17.421411
  C     17.500953   18.778005   17.542920
  C     16.677045   19.758706   16.735987
  N     18.334827   19.411817   18.468927
  C     19.292124   18.783581   19.219746
  S     20.309610   19.621024   20.219358
  N     19.369404   17.419947   19.095957
  C     18.424587   16.581283   18.336484
  C     17.620315   15.716925   19.303464
  C     17.875036   14.336169   19.402051
  C     17.129679   13.532361   20.280824
  C     16.124839   14.114605   21.072032
  C     15.874645   15.490832   20.983230
  O     14.906289   16.056264   21.746871
  C     16.616557   16.287811   20.106066
  H     16.797087   12.731579   17.023504
  H     16.384830   12.998485   15.312177
  H     15.141264   12.433747   16.450388
  H     14.848480   14.866322   15.968149
  H     15.267036   14.632680   17.687117
  H     15.605965   19.600376   16.916148
  H     16.851563   19.618962   15.661571
  H     16.902685   20.805190   16.972251
  H     18.293874   20.413344   18.570941
  H     20.061681   16.981752   19.689736
  H     19.019037   15.917936   17.692371
  H     18.648473   13.882888   18.787680
  H     17.332502   12.464811   20.347804
  H     15.547357   13.498351   21.753390
  H     14.541441   15.362935   22.317154
  H     16.411284   17.351782   20.057669

 Total Charge           Charge          ....    0
 Multiplicity           Mult            ....    1
 Number of Electrons    NEL             ....  154
 Basis Dimension        Dim             ....  828

ORBITAL ENERGIES
----------------

  NO   OCC          E(Eh)            E(eV)
   0   2.0000     -91.889724     -2500.4465
   1   2.0000     -20.599620      -560.5442
   2   2.0000     -20.591590      -560.3256
   3   2.0000     -20.544233      -559.0370
   4   2.0000     -15.629948      -425.3125
   5   2.0000     -15.609258      -424.7495
   6   2.0000     -11.393324      -310.0281
   7   2.0000     -11.384841      -309.7973
   8   2.0000     -11.336415      -308.4795
   9   2.0000     -11.317333      -307.9603
  10   2.0000     -11.310643      -307.7783
  11   2.0000     -11.293144      -307.3021
  12   2.0000     -11.262672      -306.4729
  13   2.0000     -11.259078      -306.3751
  14   2.0000     -11.258776      -306.3669
  15   2.0000     -11.252755      -306.2030
  16   2.0000     -11.246352      -306.0288
  17   2.0000     -11.241361      -305.8930
  18   2.0000     -11.241122      -305.8865
  19   2.0000     -11.227301      -305.5104
  20   2.0000      -8.894781      -242.0393
  21   2.0000      -6.576353      -178.9517
  22   2.0000      -6.574350      -178.8972
  23   2.0000      -6.573761      -178.8811
  24   2.0000      -1.450326       -39.4654
  25   2.0000      -1.419298       -38.6211
  26   2.0000      -1.353577       -36.8327
  27   2.0000      -1.340990       -36.4902
  28   2.0000      -1.239656       -33.7328
  29   2.0000      -1.160571       -31.5807
  30   2.0000      -1.121199       -30.5094
  31   2.0000      -1.044801       -28.4305
  32   2.0000      -1.036962       -28.2172
  33   2.0000      -1.018535       -27.7157
  34   2.0000      -0.996677       -27.1210
  35   2.0000      -0.985245       -26.8099
  36   2.0000      -0.924181       -25.1482
  37   2.0000      -0.883393       -24.0383
  38   2.0000      -0.848033       -23.0762
  39   2.0000      -0.839968       -22.8567
  40   2.0000      -0.836847       -22.7718
  41   2.0000      -0.822071       -22.3697
  42   2.0000      -0.762992       -20.7621
  43   2.0000      -0.735002       -20.0004
  44   2.0000      -0.723792       -19.6954
  45   2.0000      -0.698635       -19.0108
  46   2.0000      -0.688680       -18.7399
  47   2.0000      -0.678446       -18.4614
  48   2.0000      -0.674704       -18.3596
  49   2.0000      -0.657741       -17.8980
  50   2.0000      -0.647482       -17.6189
  51   2.0000      -0.643830       -17.5195
  52   2.0000      -0.635509       -17.2931
  53   2.0000      -0.612001       -16.6534
  54   2.0000      -0.610086       -16.6013
  55   2.0000      -0.602436       -16.3931
  56   2.0000      -0.600018       -16.3273
  57   2.0000      -0.580118       -15.7858
  58   2.0000      -0.571748       -15.5580
  59   2.0000      -0.565880       -15.3984
  60   2.0000      -0.557440       -15.1687
  61   2.0000      -0.540247       -14.7009
  62   2.0000      -0.536500       -14.5989
  63   2.0000      -0.527759       -14.3611
  64   2.0000      -0.521566       -14.1925
  65   2.0000      -0.514799       -14.0084
  66   2.0000      -0.504671       -13.7328
  67   2.0000      -0.499496       -13.5920
  68   2.0000      -0.487182       -13.2569
  69   2.0000      -0.465470       -12.6661
  70   2.0000      -0.457573       -12.4512
  71   2.0000      -0.445272       -12.1165
  72   2.0000      -0.355151        -9.6641
  73   2.0000      -0.352550        -9.5934
  74   2.0000      -0.329406        -8.9636
  75   2.0000      -0.324696        -8.8354
  76   2.0000      -0.317129        -8.6295
  77   0.0000       0.072468         1.9720
  78   0.0000       0.102899         2.8000
  79   0.0000       0.123813         3.3691
  80   0.0000       0.130164         3.5419
  81   0.0000       0.135325         3.6824

MULLIKEN ATOMIC CHARGES
-----------------------
   0 C :   -0.266016
   1 C :    0.010650
   2 O :   -0.370737
   3 C :    0.483713
   4 O :   -0.419936
   5 C :   -0.261725
   6 C :    0.160833
   7 C :   -0.269956
   8 N :   -0.123550
   9 C :    0.213642
  10 S :   -0.439504
  11 N :   -0.206834
  12 C :    0.068557
  13 C :    0.030387
  14 C :   -0.178978
  15 C :   -0.132068
  16 C :   -0.277119
  17 C :    0.310625
  18 O :   -0.355827
  19 C :   -0.252351
  20 H :    0.088880
  21 H :    0.101636
  22 H :    0.090342
  23 H :    0.129082
  24 H :    0.106598
  25 H :    0.132562
  26 H :    0.130348
  27 H :    0.095340
  28 H :    0.197698
  29 H :    0.195024
  30 H :    0.149173
  31 H :    0.154910
  32 H :    0.163571
  33 H :    0.132540
  34 H :    0.241275
  35 H :    0.167210
Sum of atomic charges:    0.0000000

LOEWDIN ATOMIC CHARGES
----------------------
   0 C :    0.108058
   1 C :   -0.017991
   2 O :    0.300161
   3 C :   -0.415671
   4 O :    0.106759
   5 C :   -0.097172
   6 C :   -0.058927
   7 C :    0.131622
   8 N :    0.406818
   9 C :   -0.455900
  10 S :   -0.034860
  11 N :    0.396136
  12 C :   -0.052329
  13 C :   -0.038017
  14 C :    0.014826
  15 C :    0.040532
  16 C :   -0.002409
  17 C :   -0.190223
  18 O :    0.396299
  19 C :    0.030765
  20 H :   -0.032202
  21 H :   -0.025852
  22 H :   -0.025115
  23 H :   -0.028027
  24 H :   -0.030823
  25 H :   -0.004539
  26 H :   -0.003881
  27 H :   -0.023219
  28 H :   -0.057390
  29 H :   -0.064816
  30 H :   -0.009739
  31 H :   -0.030454
  32 H :   -0.020619
  33 H :   -0.034938
  34 H :   -0.153236
  35 H :   -0.023625

  Mayer bond orders larger than 0.100000
B(  0-C ,  1-C ) :   0.9756 B(  0-C , 20-H ) :   0.9780 B(  0-C , 21-H ) :   0.9780
B(  0-C , 22-H ) :   0.9770 B(  1-C ,  2-O ) :   0.8759 B(  1-C , 23-H ) :   0.9794
B(  1-C , 24-H ) :   0.9669 B(  2-O ,  3-C ) :   1.1345 B(  3-C ,  4-O ) :   2.0008
B(  3-C ,  5-C ) :   1.0619 B(  5-C ,  6-C ) :   1.6504 B(  5-C , 12-C ) :   0.9722
B(  6-C ,  7-C ) :   0.9660 B(  6-C ,  8-N ) :   1.1614 B(  7-C , 25-H ) :   0.9592
B(  7-C , 26-H ) :   0.9612 B(  7-C , 27-H ) :   0.9905 B(  8-N ,  9-C ) :   1.1832
B(  8-N , 28-H ) :   0.9478 B(  9-C , 10-S ) :   1.6066 B(  9-C , 11-N ) :   1.3065
B( 11-N , 12-C ) :   0.9791 B( 11-N , 29-H ) :   0.9519 B( 12-C , 13-C ) :   0.9379
B( 12-C , 30-H ) :   1.0015 B( 13-C , 14-C ) :   1.3578 B( 13-C , 19-C ) :   1.3811
B( 14-C , 15-C ) :   1.3869 B( 14-C , 31-H ) :   0.9716 B( 15-C , 16-C ) :   1.3637
B( 15-C , 32-H ) :   0.9696 B( 16-C , 17-C ) :   1.3297 B( 16-C , 33-H ) :   0.9843
B( 17-C , 18-O ) :   1.1131 B( 17-C , 19-C ) :   1.3723 B( 18-O , 34-H ) :   0.9793
B( 19-C , 35-H ) :   0.9578

MP2 TOTAL ENERGY:    -1274.341721797 Eh
FINAL SINGLE POINT ENERGY     -1274.341721796701

DIPOLE MOMENT
-------------
                                X             Y             Z
Electronic contribution:      8.75776      11.33571       6.71410
Nuclear contribution   :     -9.82661     -12.88062      -6.84936
                        -----------------------------------------
Total Dipole Moment    :     -1.06885      -1.54491      -0.13527
                        -----------------------------------------
Magnitude (a.u.)       :      1.88348
Magnitude (Debye)      :      4.78743

Rotational constants in cm-1:     0.012590     0.008460     0.006349
Rotational constants in MHz :   377.435466   253.612330   190.334934

                             ****ORCA TERMINATED NORMALLY****
TOTAL RUN TIME: 0 days 2 hours 3 minutes 19 seconds 647 msec
