                         Program Version 5.0.0 -  RELEASE  -
|  1> ! ri-mp2 cc-pvtz cc-pvtz/c TightSCF NoKeepInts
|  2>
|  3> %scf
|  4>   MaxCore 4096
|  5> end
|  6> *xyz  0  1
|  7>     C       14.8538849   15.3076822   17.5401524
|  8>     C       15.7013889   15.1855427   16.2625849
|  9>     O       17.0446310   14.8440241   16.6375819
| 10>     C       18.0925072   15.7041147   16.4643298
| 11>     O       19.1952143   15.2207074   16.2888776
| 12>     C       17.9762188   16.8853117   17.3675586
| 13>     C       17.4482227   18.0594472   16.9550682
| 14>     C       16.9106480   18.3821132   15.5780052
| 15>     N       17.4351321   19.1580291   17.8172977
| 16>     C       18.0429095   19.1916397   19.0453605
| 17>     S       18.0411808   20.5580329   19.9767623
| 18>     N       18.6527954   18.0344841   19.4639558
| 19>     C       18.6034614   16.7385470   18.7566760
| 20>     C       17.9028615   15.6686235   19.5912160
| 21>     C       18.3757549   14.3434564   19.5688527
| 22>     C       17.7388949   13.3409923   20.3188747
| 23>     C       16.6176706   13.6645376   21.1012020
| 24>     C       16.1416861   14.9821413   21.1260569
| 25>     O       15.0517008   15.2954219   21.8707574
| 26>     C       16.7779705   15.9786759   20.3792019
| 27>     H       14.9850343   14.4241385   18.1781935
| 28>     H       13.7896503   15.3961191   17.2909366
| 29>     H       15.1422095   16.1950698   18.1152750
| 30>     H       15.2928184   14.3702488   15.6512783
| 31>     H       15.6510931   16.1013013   15.6668085
| 32>     H       17.2265152   17.6475335   14.8272329
| 33>     H       17.2803494   19.3561633   15.2322231
| 34>     H       15.8145099   18.4235443   15.5821464
| 35>     H       17.0060625   20.0215141   17.5239461
| 36>     H       19.0785049   18.0832791   20.3809223
| 37>     H       19.6425638   16.4096537   18.6075012
| 38>     H       19.2321752   14.0864716   18.9488772
| 39>     H       18.1116144   12.3187995   20.2846640
| 40>     H       16.1206275   12.8923722   21.6788200
| 41>     H       14.7833878   14.4929858   22.3431621
| 42>     H       16.3851493   16.9892806   20.4116403
| 43> *
| 44>
| 45>                          ****END OF INPUT****

CARTESIAN COORDINATES (ANGSTROEM)
---------------------------------
  C     14.853885   15.307682   17.540152
  C     15.701389   15.185543   16.262585
  O     17.044631   14.844024   16.637582
  C     18.092507   15.704115   16.464330
  O     19.195214   15.220707   16.288878
  C     17.976219   16.885312   17.367559
  C     17.448223   18.059447   16.955068
  C     16.910648   18.382113   15.578005
  N     17.435132   19.158029   17.817298
  C     18.042910   19.191640   19.045361
  S     18.041181   20.558033   19.976762
  N     18.652795   18.034484   19.463956
  C     18.603461   16.738547   18.756676
  C     17.902861   15.668624   19.591216
  C     18.375755   14.343456   19.568853
  C     17.738895   13.340992   20.318875
  C     16.617671   13.664538   21.101202
  C     16.141686   14.982141   21.126057
  O     15.051701   15.295422   21.870757
  C     16.777970   15.978676   20.379202
  H     14.985034   14.424138   18.178193
  H     13.789650   15.396119   17.290937
  H     15.142209   16.195070   18.115275
  H     15.292818   14.370249   15.651278
  H     15.651093   16.101301   15.666808
  H     17.226515   17.647533   14.827233
  H     17.280349   19.356163   15.232223
  H     15.814510   18.423544   15.582146
  H     17.006062   20.021514   17.523946
  H     19.078505   18.083279   20.380922
  H     19.642564   16.409654   18.607501
  H     19.232175   14.086472   18.948877
  H     18.111614   12.318800   20.284664
  H     16.120628   12.892372   21.678820
  H     14.783388   14.492986   22.343162
  H     16.385149   16.989281   20.411640

 Total Charge           Charge          ....    0
 Multiplicity           Mult            ....    1
 Number of Electrons    NEL             ....  154
 Basis Dimension        Dim             ....  828

ORBITAL ENERGIES
----------------

  NO   OCC          E(Eh)            E(eV)
   0   2.0000     -91.887159     -2500.3767
   1   2.0000     -20.597957      -560.4989
   2   2.0000     -20.596135      -560.4493
   3   2.0000     -20.562758      -559.5411
   4   2.0000     -15.622290      -425.1041
   5   2.0000     -15.609811      -424.7646
   6   2.0000     -11.397194      -310.1334
   7   2.0000     -11.383960      -309.7733
   8   2.0000     -11.322011      -308.0876
   9   2.0000     -11.315662      -307.9148
  10   2.0000     -11.312143      -307.8191
  11   2.0000     -11.306186      -307.6570
  12   2.0000     -11.270785      -306.6936
  13   2.0000     -11.266021      -306.5640
  14   2.0000     -11.260070      -306.4021
  15   2.0000     -11.252688      -306.2012
  16   2.0000     -11.242008      -305.9106
  17   2.0000     -11.237692      -305.7931
  18   2.0000     -11.235228      -305.7261
  19   2.0000     -11.228554      -305.5445
  20   2.0000      -8.892304      -241.9719
  21   2.0000      -6.573905      -178.8850
  22   2.0000      -6.571866      -178.8296
  23   2.0000      -6.571303      -178.8143
  24   2.0000      -1.457572       -39.6626
  25   2.0000      -1.415925       -38.5293
  26   2.0000      -1.365062       -37.1452
  27   2.0000      -1.337037       -36.3826
  28   2.0000      -1.237431       -33.6722
  29   2.0000      -1.157033       -31.4845
  30   2.0000      -1.123174       -30.5631
  31   2.0000      -1.046580       -28.4789
  32   2.0000      -1.039683       -28.2912
  33   2.0000      -1.015084       -27.6218
  34   2.0000      -1.003423       -27.3045
  35   2.0000      -0.987181       -26.8625
  36   2.0000      -0.925838       -25.1933
  37   2.0000      -0.889525       -24.2052
  38   2.0000      -0.851940       -23.1825
  39   2.0000      -0.838316       -22.8117
  40   2.0000      -0.832899       -22.6643
  41   2.0000      -0.831759       -22.6333
  42   2.0000      -0.759026       -20.6541
  43   2.0000      -0.736711       -20.0469
  44   2.0000      -0.729168       -19.8417
  45   2.0000      -0.694680       -18.9032
  46   2.0000      -0.689535       -18.7632
  47   2.0000      -0.682848       -18.5812
  48   2.0000      -0.676351       -18.4044
  49   2.0000      -0.664787       -18.0898
  50   2.0000      -0.650912       -17.7122
  51   2.0000      -0.638956       -17.3869
  52   2.0000      -0.635497       -17.2928
  53   2.0000      -0.618374       -16.8268
  54   2.0000      -0.610341       -16.6082
  55   2.0000      -0.604859       -16.4591
  56   2.0000      -0.600387       -16.3374
  57   2.0000      -0.589556       -16.0426
  58   2.0000      -0.578514       -15.7422
  59   2.0000      -0.572975       -15.5914
  60   2.0000      -0.563836       -15.3428
  61   2.0000      -0.556277       -15.1371
  62   2.0000      -0.540396       -14.7049
  63   2.0000      -0.525710       -14.3053
  64   2.0000      -0.517921       -14.0933
  65   2.0000      -0.511328       -13.9139
  66   2.0000      -0.500940       -13.6313
  67   2.0000      -0.499617       -13.5953
  68   2.0000      -0.488405       -13.2902
  69   2.0000      -0.465451       -12.6656
  70   2.0000      -0.458237       -12.4693
  71   2.0000      -0.452465       -12.3122
  72   2.0000      -0.354743        -9.6531
  73   2.0000      -0.346429        -9.4268
  74   2.0000      -0.327051        -8.8995
  75   2.0000      -0.319917        -8.7054
  76   2.0000      -0.315579        -8.5873
  77   0.0000       0.089979         2.4484
  78   0.0000       0.099083         2.6962
  79   0.0000       0.110792         3.0148
  80   0.0000       0.126145         3.4326
  81   0.0000       0.130875         3.5613

MULLIKEN ATOMIC CHARGES
-----------------------
   0 C :   -0.290152
   1 C :   -0.003415
   2 O :   -0.310791
   3 C :    0.381441
   4 O :   -0.356975
   5 C :   -0.146924
   6 C :    0.126765
   7 C :   -0.333373
   8 N :   -0.135767
   9 C :    0.208655
  10 S :   -0.446189
  11 N :   -0.224592
  12 C :    0.062712
  13 C :    0.062094
  14 C :   -0.197997
  15 C :   -0.132717
  16 C :   -0.280695
  17 C :    0.325198
  18 O :   -0.360297
  19 C :   -0.298951
  20 H :    0.116079
  21 H :    0.106097
  22 H :    0.103246
  23 H :    0.126285
  24 H :    0.083658
  25 H :    0.117708
  26 H :    0.134190
  27 H :    0.123506
  28 H :    0.194377
  29 H :    0.201600
  30 H :    0.168505
  31 H :    0.161828
  32 H :    0.161839
  33 H :    0.131351
  34 H :    0.240894
  35 H :    0.180807
Sum of atomic charges:   -0.0000000

LOEWDIN ATOMIC CHARGES
----------------------
   0 C :    0.105813
   1 C :   -0.028107
   2 O :    0.323375
   3 C :   -0.424799
   4 O :    0.146598
   5 C :   -0.075544
   6 C :   -0.115042
   7 C :    0.119397
   8 N :    0.399260
   9 C :   -0.456248
  10 S :   -0.042314
  11 N :    0.398287
  12 C :   -0.040348
  13 C :   -0.040278
  14 C :    0.024568
  15 C :    0.043740
  16 C :   -0.002397
  17 C :   -0.193198
  18 O :    0.394804
  19 C :    0.029653
  20 H :   -0.019545
  21 H :   -0.027619
  22 H :   -0.031957
  23 H :   -0.024370
  24 H :   -0.038870
  25 H :   -0.012670
  26 H :   -0.010458
  27 H :   -0.017840
  28 H :   -0.059997
  29 H :   -0.063580
  30 H :   -0.002414
  31 H :   -0.023263
  32 H :   -0.019471
  33 H :   -0.035579
  34 H :   -0.153923
  35 H :   -0.025664

  Mayer bond orders larger than 0.100000
B(  0-C ,  1-C ) :   0.9696 B(  0-C , 20-H ) :   0.9720 B(  0-C , 21-H ) :   0.9778
B(  0-C , 22-H ) :   0.9719 B(  1-C ,  2-O ) :   0.9149 B(  1-C , 23-H ) :   0.9851
B(  1-C , 24-H ) :   0.9756 B(  2-O ,  3-C ) :   1.0947 B(  3-C ,  4-O ) :   2.1000
B(  3-C ,  5-C ) :   0.9257 B(  5-C ,  6-C ) :   1.7258 B(  5-C , 12-C ) :   0.9597
B(  6-C ,  7-C ) :   0.9344 B(  6-C ,  8-N ) :   1.0991 B(  7-C , 25-H ) :   0.9837
B(  7-C , 26-H ) :   0.9739 B(  7-C , 27-H ) :   0.9675 B(  8-N ,  9-C ) :   1.2030
B(  8-N , 28-H ) :   0.9543 B(  9-C , 10-S ) :   1.6036 B(  9-C , 11-N ) :   1.2845
B( 11-N , 12-C ) :   0.9877 B( 11-N , 29-H ) :   0.9468 B( 12-C , 13-C ) :   0.9486
B( 12-C , 30-H ) :   0.9978 B( 13-C , 14-C ) :   1.3819 B( 13-C , 19-C ) :   1.3364
B( 14-C , 15-C ) :   1.4030 B( 14-C , 31-H ) :   0.9649 B( 15-C , 16-C ) :   1.3567
B( 15-C , 32-H ) :   0.9706 B( 16-C , 17-C ) :   1.3333 B( 16-C , 33-H ) :   0.9851
B( 17-C , 18-O ) :   1.1059 B( 17-C , 19-C ) :   1.3603 B( 18-O , 34-H ) :   0.9799
B( 19-C , 35-H ) :   0.9561

MP2 TOTAL ENERGY:    -1274.311430999 Eh
FINAL SINGLE POINT ENERGY     -1274.311430998559

DIPOLE MOMENT
-------------
                                X             Y             Z
Electronic contribution:      9.67556       6.54404       6.46769
Nuclear contribution   :    -11.16620      -7.80576      -7.43956
                        -----------------------------------------
Total Dipole Moment    :     -1.49064      -1.26172      -0.97186
                        -----------------------------------------
Magnitude (a.u.)       :      2.18139
Magnitude (Debye)      :      5.54465

Rotational constants in cm-1:     0.012290     0.009369     0.006905
Rotational constants in MHz :   368.448010   280.885995   206.998711

                             ****ORCA TERMINATED NORMALLY****
TOTAL RUN TIME: 0 days 1 hours 43 minutes 14 seconds 583 msec
