                         Program Version 5.0.0 -  RELEASE  -
|  1> ! ri-mp2 cc-pvtz cc-pvtz/c TightSCF NoKeepInts
|  2>
|  3> %scf
|  4>   MaxCore 4096
|  5> end
|  6> *xyz  0  1
|  7>     C       15.0507372   14.2545649   16.9002623
|  8>     C       16.4355196   13.9589678   16.2801095
|  9>     O       17.3763549   15.0295218   16.5150033
| 10>     C       17.0305354   16.3462353   16.3825892
| 11>     O       16.2312483   16.7268653   15.5444644
| 12>     C       17.7057276   17.2314543   17.3931753
| 13>     C       17.5724172   18.5819728   17.3820619
| 14>     C       16.7699433   19.4153477   16.4059563
| 15>     N       18.2457696   19.3609040   18.3277925
| 16>     C       19.1370662   18.8794471   19.2490764
| 17>     S       19.9576938   19.8806094   20.2787001
| 18>     N       19.3172965   17.5200788   19.2745846
| 19>     C       18.5479089   16.5446479   18.4807416
| 20>     C       17.6887366   15.6888336   19.4071610
| 21>     C       17.9709948   14.3207572   19.5803704
| 22>     C       17.1746162   13.5275647   20.4234131
| 23>     C       16.0892408   14.1074590   21.1020794
| 24>     C       15.8092914   15.4708865   20.9370303
| 25>     O       14.7618520   16.0335625   21.5903938
| 26>     C       16.6029486   16.2574431   20.0965437
| 27>     H       15.1503551   14.5550612   17.9506473
| 28>     H       14.4228163   13.3563767   16.8649457
| 29>     H       14.5207427   15.0460957   16.3570632
| 30>     H       16.8366467   13.0295153   16.7039211
| 31>     H       16.3131209   13.8107583   15.1989858
| 32>     H       17.0992215   19.2275015   15.3760356
| 33>     H       16.8564419   20.4927720   16.5888061
| 34>     H       15.7054659   19.1536434   16.4612910
| 35>     H       18.1268654   20.3613568   18.3232133
| 36>     H       19.9524904   17.1922421   19.9907416
| 37>     H       19.2732039   15.8909445   17.9760957
| 38>     H       18.8064679   13.8690549   19.0522164
| 39>     H       17.3997007   12.4699226   20.5493409
| 40>     H       15.4715247   13.4992413   21.7546779
| 41>     H       14.3632625   15.3486391   22.1479903
| 42>     H       16.3727745   17.3117509   19.9865189
| 43> *
| 44>
| 45>                          ****END OF INPUT****

CARTESIAN COORDINATES (ANGSTROEM)
---------------------------------
  C     15.050737   14.254565   16.900262
  C     16.435520   13.958968   16.280109
  O     17.376355   15.029522   16.515003
  C     17.030535   16.346235   16.382589
  O     16.231248   16.726865   15.544464
  C     17.705728   17.231454   17.393175
  C     17.572417   18.581973   17.382062
  C     16.769943   19.415348   16.405956
  N     18.245770   19.360904   18.327793
  C     19.137066   18.879447   19.249076
  S     19.957694   19.880609   20.278700
  N     19.317297   17.520079   19.274585
  C     18.547909   16.544648   18.480742
  C     17.688737   15.688834   19.407161
  C     17.970995   14.320757   19.580370
  C     17.174616   13.527565   20.423413
  C     16.089241   14.107459   21.102079
  C     15.809291   15.470887   20.937030
  O     14.761852   16.033562   21.590394
  C     16.602949   16.257443   20.096544
  H     15.150355   14.555061   17.950647
  H     14.422816   13.356377   16.864946
  H     14.520743   15.046096   16.357063
  H     16.836647   13.029515   16.703921
  H     16.313121   13.810758   15.198986
  H     17.099221   19.227501   15.376036
  H     16.856442   20.492772   16.588806
  H     15.705466   19.153643   16.461291
  H     18.126865   20.361357   18.323213
  H     19.952490   17.192242   19.990742
  H     19.273204   15.890944   17.976096
  H     18.806468   13.869055   19.052216
  H     17.399701   12.469923   20.549341
  H     15.471525   13.499241   21.754678
  H     14.363262   15.348639   22.147990
  H     16.372774   17.311751   19.986519

 Total Charge           Charge          ....    0
 Multiplicity           Mult            ....    1
 Number of Electrons    NEL             ....  154
 Basis Dimension        Dim             ....  828

ORBITAL ENERGIES
----------------

  NO   OCC          E(Eh)            E(eV)
   0   2.0000     -91.889260     -2500.4339
   1   2.0000     -20.598647      -560.5177
   2   2.0000     -20.593900      -560.3885
   3   2.0000     -20.541718      -558.9686
   4   2.0000     -15.629418      -425.2981
   5   2.0000     -15.608691      -424.7341
   6   2.0000     -11.394531      -310.0610
   7   2.0000     -11.384411      -309.7856
   8   2.0000     -11.336175      -308.4730
   9   2.0000     -11.316160      -307.9284
  10   2.0000     -11.309394      -307.7443
  11   2.0000     -11.299097      -307.4641
  12   2.0000     -11.261663      -306.4454
  13   2.0000     -11.258634      -306.3630
  14   2.0000     -11.257742      -306.3387
  15   2.0000     -11.252249      -306.1892
  16   2.0000     -11.245495      -306.0055
  17   2.0000     -11.240562      -305.8712
  18   2.0000     -11.240383      -305.8664
  19   2.0000     -11.221463      -305.3515
  20   2.0000      -8.894319      -242.0267
  21   2.0000      -6.575893      -178.9391
  22   2.0000      -6.573889      -178.8846
  23   2.0000      -6.573302      -178.8686
  24   2.0000      -1.446485       -39.3609
  25   2.0000      -1.418368       -38.5958
  26   2.0000      -1.352414       -36.8011
  27   2.0000      -1.340381       -36.4736
  28   2.0000      -1.238964       -33.7139
  29   2.0000      -1.159743       -31.5582
  30   2.0000      -1.120910       -30.5015
  31   2.0000      -1.044026       -28.4094
  32   2.0000      -1.033194       -28.1146
  33   2.0000      -1.017433       -27.6858
  34   2.0000      -0.996113       -27.1056
  35   2.0000      -0.984868       -26.7996
  36   2.0000      -0.923430       -25.1278
  37   2.0000      -0.896778       -24.4026
  38   2.0000      -0.847619       -23.0649
  39   2.0000      -0.839646       -22.8479
  40   2.0000      -0.836207       -22.7543
  41   2.0000      -0.816519       -22.2186
  42   2.0000      -0.747724       -20.3466
  43   2.0000      -0.733532       -19.9604
  44   2.0000      -0.722776       -19.6677
  45   2.0000      -0.697632       -18.9835
  46   2.0000      -0.689392       -18.7593
  47   2.0000      -0.675796       -18.3893
  48   2.0000      -0.671004       -18.2589
  49   2.0000      -0.661036       -17.9877
  50   2.0000      -0.650340       -17.6967
  51   2.0000      -0.641312       -17.4510
  52   2.0000      -0.634488       -17.2653
  53   2.0000      -0.618221       -16.8227
  54   2.0000      -0.608891       -16.5688
  55   2.0000      -0.601898       -16.3785
  56   2.0000      -0.599756       -16.3202
  57   2.0000      -0.579122       -15.7587
  58   2.0000      -0.571095       -15.5403
  59   2.0000      -0.566871       -15.4253
  60   2.0000      -0.554718       -15.0946
  61   2.0000      -0.543485       -14.7890
  62   2.0000      -0.534250       -14.5377
  63   2.0000      -0.526516       -14.3272
  64   2.0000      -0.524249       -14.2656
  65   2.0000      -0.513829       -13.9820
  66   2.0000      -0.502088       -13.6625
  67   2.0000      -0.500705       -13.6249
  68   2.0000      -0.482790       -13.1374
  69   2.0000      -0.464943       -12.6517
  70   2.0000      -0.453660       -12.3447
  71   2.0000      -0.443791       -12.0762
  72   2.0000      -0.354631        -9.6500
  73   2.0000      -0.351417        -9.5625
  74   2.0000      -0.328848        -8.9484
  75   2.0000      -0.323945        -8.8150
  76   2.0000      -0.316639        -8.6162
  77   0.0000       0.074609         2.0302
  78   0.0000       0.104183         2.8350
  79   0.0000       0.124316         3.3828
  80   0.0000       0.131318         3.5733
  81   0.0000       0.136992         3.7277

MULLIKEN ATOMIC CHARGES
-----------------------
   0 C :   -0.326381
   1 C :    0.032046
   2 O :   -0.374582
   3 C :    0.476820
   4 O :   -0.431381
   5 C :   -0.237613
   6 C :    0.155563
   7 C :   -0.272160
   8 N :   -0.121533
   9 C :    0.211371
  10 S :   -0.439568
  11 N :   -0.205887
  12 C :    0.066813
  13 C :    0.035025
  14 C :   -0.177126
  15 C :   -0.135992
  16 C :   -0.272600
  17 C :    0.307996
  18 O :   -0.358754
  19 C :   -0.254931
  20 H :    0.110178
  21 H :    0.100461
  22 H :    0.125814
  23 H :    0.110419
  24 H :    0.118093
  25 H :    0.131934
  26 H :    0.095379
  27 H :    0.131531
  28 H :    0.197489
  29 H :    0.194813
  30 H :    0.151242
  31 H :    0.154678
  32 H :    0.161657
  33 H :    0.131747
  34 H :    0.240951
  35 H :    0.166487
Sum of atomic charges:    0.0000000

LOEWDIN ATOMIC CHARGES
----------------------
   0 C :    0.105133
   1 C :   -0.014370
   2 O :    0.297190
   3 C :   -0.415440
   4 O :    0.101399
   5 C :   -0.095387
   6 C :   -0.058703
   7 C :    0.131761
   8 N :    0.406665
   9 C :   -0.456297
  10 S :   -0.035193
  11 N :    0.396503
  12 C :   -0.051821
  13 C :   -0.039848
  14 C :    0.015482
  15 C :    0.039161
  16 C :   -0.001943
  17 C :   -0.190943
  18 O :    0.396261
  19 C :    0.030998
  20 H :   -0.026805
  21 H :   -0.026434
  22 H :   -0.026429
  23 H :   -0.025857
  24 H :   -0.028331
  25 H :   -0.003576
  26 H :   -0.023379
  27 H :   -0.004804
  28 H :   -0.057504
  29 H :   -0.064618
  30 H :   -0.010414
  31 H :   -0.029430
  32 H :   -0.020970
  33 H :   -0.035170
  34 H :   -0.153441
  35 H :   -0.023446

  Mayer bond orders larger than 0.100000
B(  0-C ,  1-C ) :   0.9560 B(  0-C , 20-H ) :   0.9692 B(  0-C , 21-H ) :   0.9781
B(  0-C , 22-H ) :   0.9735 B(  1-C ,  2-O ) :   0.8879 B(  1-C , 23-H ) :   0.9825
B(  1-C , 24-H ) :   0.9861 B(  2-O ,  3-C ) :   1.1472 B(  3-C ,  4-O ) :   1.9813
B(  3-C ,  5-C ) :   1.0566 B(  5-C ,  6-C ) :   1.6531 B(  5-C , 12-C ) :   0.9694
B(  6-C ,  7-C ) :   0.9658 B(  6-C ,  8-N ) :   1.1640 B(  7-C , 25-H ) :   0.9603
B(  7-C , 26-H ) :   0.9902 B(  7-C , 27-H ) :   0.9605 B(  8-N ,  9-C ) :   1.1831
B(  8-N , 28-H ) :   0.9478 B(  9-C , 10-S ) :   1.6078 B(  9-C , 11-N ) :   1.3054
B( 11-N , 12-C ) :   0.9867 B( 11-N , 29-H ) :   0.9517 B( 12-C , 13-C ) :   0.9352
B( 12-C , 30-H ) :   1.0017 B( 13-C , 14-C ) :   1.3585 B( 13-C , 19-C ) :   1.3858
B( 14-C , 15-C ) :   1.3867 B( 14-C , 31-H ) :   0.9707 B( 15-C , 16-C ) :   1.3622
B( 15-C , 32-H ) :   0.9709 B( 16-C , 17-C ) :   1.3319 B( 16-C , 33-H ) :   0.9846
B( 17-C , 18-O ) :   1.1111 B( 17-C , 19-C ) :   1.3700 B( 18-O , 34-H ) :   0.9796
B( 19-C , 35-H ) :   0.9581

MP2 TOTAL ENERGY:    -1274.346072385 Eh
FINAL SINGLE POINT ENERGY     -1274.346072384792

DIPOLE MOMENT
-------------
                                X             Y             Z
Electronic contribution:     10.07915       9.69520       6.50836
Nuclear contribution   :    -11.08728     -11.42086      -6.73189
                        -----------------------------------------
Total Dipole Moment    :     -1.00813      -1.72567      -0.22352
                        -----------------------------------------
Magnitude (a.u.)       :      2.01102
Magnitude (Debye)      :      5.11162

Rotational constants in cm-1:     0.012570     0.008806     0.006424
Rotational constants in MHz :   376.839223   263.988389   192.591064

                             ****ORCA TERMINATED NORMALLY****
TOTAL RUN TIME: 0 days 2 hours 10 minutes 13 seconds 603 msec
