                         Program Version 5.0.0 -  RELEASE  -
|  1> ! ri-mp2 cc-pvtz cc-pvtz/c TightSCF NoKeepInts
|  2>
|  3> %scf
|  4>   MaxCore 4096
|  5> end
|  6> *xyz  0  1
|  7>     C       15.2139119   14.7582455   17.2394882
|  8>     C       15.6345934   14.9257606   15.7630534
|  9>     O       16.6667359   15.9242111   15.6252679
| 10>     C       17.7847385   15.8652321   16.4051523
| 11>     O       18.3835587   14.8139684   16.5595722
| 12>     C       17.8947009   16.9932331   17.3907855
| 13>     C       17.3562987   18.2270692   17.2100541
| 14>     C       16.5713837   18.7326467   16.0171518
| 15>     N       17.5740889   19.2263209   18.1642113
| 16>     C       18.4380767   19.1226414   19.2224589
| 17>     S       18.7414852   20.3999188   20.2283355
| 18>     N       19.0388282   17.9025581   19.4034712
| 19>     C       18.6950210   16.6762417   18.6592977
| 20>     C       17.9347730   15.7038109   19.5570883
| 21>     C       18.3852424   14.3802774   19.7160877
| 22>     C       17.6805057   13.4760769   20.5282120
| 23>     C       16.5136922   13.8976283   21.1880326
| 24>     C       16.0603366   15.2142807   21.0310008
| 25>     O       14.9283299   15.6218191   21.6582106
| 26>     C       16.7642999   16.1122192   20.2227892
| 27>     H       16.0095991   14.2852342   17.8283861
| 28>     H       14.3268930   14.1176086   17.3113959
| 29>     H       14.9709284   15.7274563   17.6922678
| 30>     H       15.9977147   13.9621379   15.3807515
| 31>     H       14.7639573   15.2205050   15.1634391
| 32>     H       15.5604532   18.3067221   16.0100975
| 33>     H       17.0628134   18.4503109   15.0776000
| 34>     H       16.4719468   19.8249014   16.0096112
| 35>     H       17.1440736   20.1299010   18.0469750
| 36>     H       19.6491492   17.8433264   20.2084554
| 37>     H       19.6361256   16.1976509   18.3518158
| 38>     H       19.2759460   14.0458263   19.1895517
| 39>     H       18.0361890   12.4530057   20.6367326
| 40>     H       15.9646285   13.2014773   21.8132570
| 41>     H       14.6199364   14.8850834   22.2069592
| 42>     H       16.3960445   17.1266924   20.1169832
| 43> *
| 44>
| 45>                          ****END OF INPUT****

CARTESIAN COORDINATES (ANGSTROEM)
---------------------------------
  C     15.213912   14.758245   17.239488
  C     15.634593   14.925761   15.763053
  O     16.666736   15.924211   15.625268
  C     17.784738   15.865232   16.405152
  O     18.383559   14.813968   16.559572
  C     17.894701   16.993233   17.390785
  C     17.356299   18.227069   17.210054
  C     16.571384   18.732647   16.017152
  N     17.574089   19.226321   18.164211
  C     18.438077   19.122641   19.222459
  S     18.741485   20.399919   20.228335
  N     19.038828   17.902558   19.403471
  C     18.695021   16.676242   18.659298
  C     17.934773   15.703811   19.557088
  C     18.385242   14.380277   19.716088
  C     17.680506   13.476077   20.528212
  C     16.513692   13.897628   21.188033
  C     16.060337   15.214281   21.031001
  O     14.928330   15.621819   21.658211
  C     16.764300   16.112219   20.222789
  H     16.009599   14.285234   17.828386
  H     14.326893   14.117609   17.311396
  H     14.970928   15.727456   17.692268
  H     15.997715   13.962138   15.380751
  H     14.763957   15.220505   15.163439
  H     15.560453   18.306722   16.010098
  H     17.062813   18.450311   15.077600
  H     16.471947   19.824901   16.009611
  H     17.144074   20.129901   18.046975
  H     19.649149   17.843326   20.208455
  H     19.636126   16.197651   18.351816
  H     19.275946   14.045826   19.189552
  H     18.036189   12.453006   20.636733
  H     15.964628   13.201477   21.813257
  H     14.619936   14.885083   22.206959
  H     16.396044   17.126692   20.116983

 Total Charge           Charge          ....    0
 Multiplicity           Mult            ....    1
 Number of Electrons    NEL             ....  154
 Basis Dimension        Dim             ....  828

ORBITAL ENERGIES
----------------

  NO   OCC          E(Eh)            E(eV)
   0   2.0000     -91.889468     -2500.4395
   1   2.0000     -20.595027      -560.4192
   2   2.0000     -20.586839      -560.1964
   3   2.0000     -20.550863      -559.2174
   4   2.0000     -15.629853      -425.3099
   5   2.0000     -15.608239      -424.7218
   6   2.0000     -11.395168      -310.0783
   7   2.0000     -11.384498      -309.7879
   8   2.0000     -11.336627      -308.4853
   9   2.0000     -11.310922      -307.7858
  10   2.0000     -11.307804      -307.7010
  11   2.0000     -11.301357      -307.5256
  12   2.0000     -11.261138      -306.4311
  13   2.0000     -11.260149      -306.4042
  14   2.0000     -11.256366      -306.3013
  15   2.0000     -11.251326      -306.1641
  16   2.0000     -11.241003      -305.8833
  17   2.0000     -11.236361      -305.7569
  18   2.0000     -11.233798      -305.6872
  19   2.0000     -11.224643      -305.4381
  20   2.0000      -8.894525      -242.0323
  21   2.0000      -6.576100      -178.9448
  22   2.0000      -6.574095      -178.8902
  23   2.0000      -6.573506      -178.8742
  24   2.0000      -1.449986       -39.4561
  25   2.0000      -1.414801       -38.4987
  26   2.0000      -1.354532       -36.8587
  27   2.0000      -1.340763       -36.4840
  28   2.0000      -1.238464       -33.7003
  29   2.0000      -1.155354       -31.4388
  30   2.0000      -1.120946       -30.5025
  31   2.0000      -1.043531       -28.3959
  32   2.0000      -1.030789       -28.0492
  33   2.0000      -1.012844       -27.5609
  34   2.0000      -0.999829       -27.2067
  35   2.0000      -0.985593       -26.8194
  36   2.0000      -0.923722       -25.1358
  37   2.0000      -0.894475       -24.3399
  38   2.0000      -0.848925       -23.1004
  39   2.0000      -0.838083       -22.8054
  40   2.0000      -0.831343       -22.6220
  41   2.0000      -0.816071       -22.2064
  42   2.0000      -0.747945       -20.3526
  43   2.0000      -0.733945       -19.9717
  44   2.0000      -0.727465       -19.7953
  45   2.0000      -0.693383       -18.8679
  46   2.0000      -0.686727       -18.6868
  47   2.0000      -0.677030       -18.4229
  48   2.0000      -0.671948       -18.2846
  49   2.0000      -0.659087       -17.9347
  50   2.0000      -0.654149       -17.8003
  51   2.0000      -0.645800       -17.5731
  52   2.0000      -0.635336       -17.2884
  53   2.0000      -0.616024       -16.7629
  54   2.0000      -0.602903       -16.4058
  55   2.0000      -0.602307       -16.3896
  56   2.0000      -0.598884       -16.2965
  57   2.0000      -0.579973       -15.7819
  58   2.0000      -0.575650       -15.6642
  59   2.0000      -0.563125       -15.3234
  60   2.0000      -0.552426       -15.0323
  61   2.0000      -0.547247       -14.8914
  62   2.0000      -0.535785       -14.5794
  63   2.0000      -0.532282       -14.4841
  64   2.0000      -0.520527       -14.1643
  65   2.0000      -0.511390       -13.9156
  66   2.0000      -0.499236       -13.5849
  67   2.0000      -0.492293       -13.3960
  68   2.0000      -0.481110       -13.0917
  69   2.0000      -0.464072       -12.6281
  70   2.0000      -0.457158       -12.4399
  71   2.0000      -0.449071       -12.2198
  72   2.0000      -0.355283        -9.6677
  73   2.0000      -0.346861        -9.4386
  74   2.0000      -0.328605        -8.9418
  75   2.0000      -0.318723        -8.6729
  76   2.0000      -0.316352        -8.6084
  77   0.0000       0.070614         1.9215
  78   0.0000       0.107531         2.9261
  79   0.0000       0.118763         3.2317
  80   0.0000       0.132710         3.6112
  81   0.0000       0.139793         3.8040

MULLIKEN ATOMIC CHARGES
-----------------------
   0 C :   -0.338751
   1 C :    0.045532
   2 O :   -0.381703
   3 C :    0.461040
   4 O :   -0.411693
   5 C :   -0.192240
   6 C :    0.146431
   7 C :   -0.282244
   8 N :   -0.123340
   9 C :    0.198926
  10 S :   -0.437497
  11 N :   -0.198091
  12 C :    0.045295
  13 C :    0.040914
  14 C :   -0.161325
  15 C :   -0.134590
  16 C :   -0.278755
  17 C :    0.316578
  18 O :   -0.361017
  19 C :   -0.276830
  20 H :    0.130781
  21 H :    0.112414
  22 H :    0.102688
  23 H :    0.109344
  24 H :    0.108528
  25 H :    0.121440
  26 H :    0.129436
  27 H :    0.104260
  28 H :    0.197361
  29 H :    0.193479
  30 H :    0.154416
  31 H :    0.157025
  32 H :    0.160932
  33 H :    0.130410
  34 H :    0.240805
  35 H :    0.170040
Sum of atomic charges:   -0.0000000

LOEWDIN ATOMIC CHARGES
----------------------
   0 C :    0.104968
   1 C :   -0.016973
   2 O :    0.288434
   3 C :   -0.417429
   4 O :    0.118287
   5 C :   -0.093464
   6 C :   -0.068516
   7 C :    0.125832
   8 N :    0.405134
   9 C :   -0.458919
  10 S :   -0.034772
  11 N :    0.397714
  12 C :   -0.045707
  13 C :   -0.041063
  14 C :    0.020726
  15 C :    0.040627
  16 C :   -0.002217
  17 C :   -0.193117
  18 O :    0.393939
  19 C :    0.031156
  20 H :   -0.021682
  21 H :   -0.024858
  22 H :   -0.030523
  23 H :   -0.027238
  24 H :   -0.025003
  25 H :   -0.010964
  26 H :   -0.006812
  27 H :   -0.020309
  28 H :   -0.058774
  29 H :   -0.063801
  30 H :   -0.004143
  31 H :   -0.024654
  32 H :   -0.020477
  33 H :   -0.035734
  34 H :   -0.154197
  35 H :   -0.025473

  Mayer bond orders larger than 0.100000
B(  0-C ,  1-C ) :   0.9582 B(  0-C , 20-H ) :   0.9663 B(  0-C , 21-H ) :   0.9766
B(  0-C , 22-H ) :   0.9720 B(  1-C ,  2-O ) :   0.8941 B(  1-C , 23-H ) :   0.9846
B(  1-C , 24-H ) :   0.9834 B(  2-O ,  3-C ) :   1.0914 B(  3-C ,  4-O ) :   2.0129
B(  3-C ,  5-C ) :   1.0408 B(  5-C ,  6-C ) :   1.6554 B(  5-C , 12-C ) :   0.9663
B(  6-C ,  7-C ) :   0.9552 B(  6-C ,  8-N ) :   1.1421 B(  7-C , 25-H ) :   0.9642
B(  7-C , 26-H ) :   0.9665 B(  7-C , 27-H ) :   0.9901 B(  8-N ,  9-C ) :   1.1799
B(  8-N , 28-H ) :   0.9490 B(  9-C , 10-S ) :   1.6133 B(  9-C , 11-N ) :   1.3021
B( 11-N , 12-C ) :   0.9902 B( 11-N , 29-H ) :   0.9523 B( 12-C , 13-C ) :   0.9446
B( 12-C , 30-H ) :   0.9992 B( 13-C , 14-C ) :   1.3809 B( 13-C , 19-C ) :   1.3598
B( 14-C , 15-C ) :   1.3935 B( 14-C , 31-H ) :   0.9636 B( 15-C , 16-C ) :   1.3622
B( 15-C , 32-H ) :   0.9713 B( 16-C , 17-C ) :   1.3320 B( 16-C , 33-H ) :   0.9851
B( 17-C , 18-O ) :   1.1085 B( 17-C , 19-C ) :   1.3718 B( 18-O , 34-H ) :   0.9803
B( 19-C , 35-H ) :   0.9584

MP2 TOTAL ENERGY:    -1274.333585406 Eh
FINAL SINGLE POINT ENERGY     -1274.333585405745

DIPOLE MOMENT
-------------
                                X             Y             Z
Electronic contribution:      9.79910       8.76199       6.31660
Nuclear contribution   :    -11.19214      -9.97410      -7.07019
                        -----------------------------------------
Total Dipole Moment    :     -1.39304      -1.21211      -0.75359
                        -----------------------------------------
Magnitude (a.u.)       :      1.99441
Magnitude (Debye)      :      5.06939

Rotational constants in cm-1:     0.011726     0.009601     0.006708
Rotational constants in MHz :   351.523751   287.817784   201.110577

                             ****ORCA TERMINATED NORMALLY****
TOTAL RUN TIME: 0 days 1 hours 44 minutes 3 seconds 538 msec
