                         Program Version 5.0.0 -  RELEASE  -
|  1> ! ri-mp2 cc-pvtz cc-pvtz/c TightSCF NoKeepInts
|  2>
|  3> %scf
|  4>   MaxCore 4096
|  5> end
|  6> *xyz  0  1
|  7>     C       14.1764838   15.1124752   16.3390601
|  8>     C       15.4293962   15.5596839   17.1090701
|  9>     O       16.5650627   15.2873830   16.2634768
| 10>     C       17.8206199   15.8025914   16.4693531
| 11>     O       18.7984518   15.1364188   16.1845290
| 12>     C       17.9260218   16.9442941   17.4265051
| 13>     C       17.3561159   18.1488279   17.1910254
| 14>     C       16.5607271   18.5570829   15.9689156
| 15>     N       17.5419468   19.1947403   18.0972936
| 16>     C       18.3596373   19.1369494   19.1963424
| 17>     S       18.5682387   20.4404580   20.1918611
| 18>     N       18.9928397   17.9409212   19.4333858
| 19>     C       18.7894554   16.6984795   18.6613288
| 20>     C       18.1722699   15.5999121   19.5207885
| 21>     C       18.6547511   14.2813759   19.4339580
| 22>     C       18.0721884   13.2540684   20.1945558
| 23>     C       16.9941365   13.5456614   21.0473494
| 24>     C       16.5051691   14.8560808   21.1309197
| 25>     O       15.4536781   15.1385521   21.9401015
| 26>     C       17.0862259   15.8769690   20.3720189
| 27>     H       13.2746535   15.2742358   16.9419900
| 28>     H       14.2372750   14.0448422   16.0925081
| 29>     H       14.0729759   15.6772185   15.4042561
| 30>     H       15.3227866   16.6213552   17.3498570
| 31>     H       15.5177397   14.9981566   18.0489451
| 32>     H       16.5503921   17.7783987   15.1963585
| 33>     H       16.9915624   19.4541356   15.5060189
| 34>     H       15.5189082   18.7795932   16.2302976
| 35>     H       17.0998473   20.0857035   17.9326963
| 36>     H       19.5737157   17.9226177   20.2622829
| 37>     H       19.7752955   16.3522542   18.3167419
| 38>     H       19.4753830   14.0487952   18.7582561
| 39>     H       18.4525092   12.2369963   20.1142369
| 40>     H       16.5393391   12.7537425   21.6333881
| 41>     H       15.2330278   14.3278307   22.4236502
| 42>     H       16.6881730   16.8831988   20.4506778
| 43> *
| 44>
| 45>                          ****END OF INPUT****

CARTESIAN COORDINATES (ANGSTROEM)
---------------------------------
  C     14.176484   15.112475   16.339060
  C     15.429396   15.559684   17.109070
  O     16.565063   15.287383   16.263477
  C     17.820620   15.802591   16.469353
  O     18.798452   15.136419   16.184529
  C     17.926022   16.944294   17.426505
  C     17.356116   18.148828   17.191025
  C     16.560727   18.557083   15.968916
  N     17.541947   19.194740   18.097294
  C     18.359637   19.136949   19.196342
  S     18.568239   20.440458   20.191861
  N     18.992840   17.940921   19.433386
  C     18.789455   16.698480   18.661329
  C     18.172270   15.599912   19.520788
  C     18.654751   14.281376   19.433958
  C     18.072188   13.254068   20.194556
  C     16.994136   13.545661   21.047349
  C     16.505169   14.856081   21.130920
  O     15.453678   15.138552   21.940102
  C     17.086226   15.876969   20.372019
  H     13.274653   15.274236   16.941990
  H     14.237275   14.044842   16.092508
  H     14.072976   15.677219   15.404256
  H     15.322787   16.621355   17.349857
  H     15.517740   14.998157   18.048945
  H     16.550392   17.778399   15.196359
  H     16.991562   19.454136   15.506019
  H     15.518908   18.779593   16.230298
  H     17.099847   20.085703   17.932696
  H     19.573716   17.922618   20.262283
  H     19.775295   16.352254   18.316742
  H     19.475383   14.048795   18.758256
  H     18.452509   12.236996   20.114237
  H     16.539339   12.753742   21.633388
  H     15.233028   14.327831   22.423650
  H     16.688173   16.883199   20.450678

 Total Charge           Charge          ....    0
 Multiplicity           Mult            ....    1
 Number of Electrons    NEL             ....  154
 Basis Dimension        Dim             ....  828

ORBITAL ENERGIES
----------------

  NO   OCC          E(Eh)            E(eV)
   0   2.0000     -91.890416     -2500.4653
   1   2.0000     -20.600263      -560.5616
   2   2.0000     -20.599409      -560.5384
   3   2.0000     -20.550873      -559.2177
   4   2.0000     -15.627753      -425.2528
   5   2.0000     -15.611826      -424.8194
   6   2.0000     -11.397435      -310.1400
   7   2.0000     -11.387224      -309.8621
   8   2.0000     -11.330305      -308.3133
   9   2.0000     -11.317013      -307.9516
  10   2.0000     -11.314620      -307.8865
  11   2.0000     -11.302672      -307.5613
  12   2.0000     -11.269455      -306.6575
  13   2.0000     -11.264418      -306.5204
  14   2.0000     -11.263551      -306.4968
  15   2.0000     -11.257175      -306.3233
  16   2.0000     -11.246607      -306.0357
  17   2.0000     -11.242410      -305.9215
  18   2.0000     -11.239706      -305.8479
  19   2.0000     -11.233993      -305.6925
  20   2.0000      -8.895527      -242.0596
  21   2.0000      -6.577113      -178.9723
  22   2.0000      -6.575089      -178.9173
  23   2.0000      -6.574512      -178.9016
  24   2.0000      -1.447990       -39.4018
  25   2.0000      -1.420094       -38.6427
  26   2.0000      -1.359554       -36.9953
  27   2.0000      -1.340756       -36.4838
  28   2.0000      -1.240325       -33.7510
  29   2.0000      -1.161832       -31.6151
  30   2.0000      -1.126070       -30.6419
  31   2.0000      -1.049418       -28.5561
  32   2.0000      -1.040682       -28.3184
  33   2.0000      -1.019212       -27.7342
  34   2.0000      -1.005482       -27.3606
  35   2.0000      -0.989781       -26.9333
  36   2.0000      -0.928178       -25.2570
  37   2.0000      -0.881081       -23.9754
  38   2.0000      -0.855509       -23.2796
  39   2.0000      -0.842595       -22.9282
  40   2.0000      -0.837622       -22.7929
  41   2.0000      -0.836700       -22.7678
  42   2.0000      -0.757702       -20.6181
  43   2.0000      -0.740040       -20.1375
  44   2.0000      -0.732426       -19.9303
  45   2.0000      -0.697760       -18.9870
  46   2.0000      -0.688434       -18.7332
  47   2.0000      -0.681805       -18.5529
  48   2.0000      -0.676974       -18.4214
  49   2.0000      -0.665202       -18.1011
  50   2.0000      -0.653098       -17.7717
  51   2.0000      -0.648995       -17.6601
  52   2.0000      -0.640450       -17.4275
  53   2.0000      -0.612218       -16.6593
  54   2.0000      -0.608345       -16.5539
  55   2.0000      -0.604216       -16.4416
  56   2.0000      -0.600743       -16.3470
  57   2.0000      -0.587385       -15.9836
  58   2.0000      -0.578498       -15.7417
  59   2.0000      -0.568884       -15.4801
  60   2.0000      -0.561896       -15.2900
  61   2.0000      -0.559230       -15.2174
  62   2.0000      -0.546097       -14.8601
  63   2.0000      -0.528500       -14.3812
  64   2.0000      -0.524555       -14.2739
  65   2.0000      -0.515977       -14.0405
  66   2.0000      -0.502852       -13.6833
  67   2.0000      -0.502580       -13.6759
  68   2.0000      -0.489817       -13.3286
  69   2.0000      -0.469876       -12.7860
  70   2.0000      -0.455808       -12.4032
  71   2.0000      -0.449747       -12.2382
  72   2.0000      -0.357602        -9.7309
  73   2.0000      -0.352170        -9.5830
  74   2.0000      -0.330055        -8.9812
  75   2.0000      -0.325042        -8.8448
  76   2.0000      -0.318743        -8.6734
  77   0.0000       0.083187         2.2636
  78   0.0000       0.104528         2.8443
  79   0.0000       0.112554         3.0627
  80   0.0000       0.128147         3.4870
  81   0.0000       0.130728         3.5573

MULLIKEN ATOMIC CHARGES
-----------------------
   0 C :   -0.258593
   1 C :    0.015095
   2 O :   -0.315845
   3 C :    0.401082
   4 O :   -0.381413
   5 C :   -0.192593
   6 C :    0.133136
   7 C :   -0.321567
   8 N :   -0.133687
   9 C :    0.203745
  10 S :   -0.440180
  11 N :   -0.212705
  12 C :    0.065608
  13 C :    0.024514
  14 C :   -0.191292
  15 C :   -0.132096
  16 C :   -0.275302
  17 C :    0.319282
  18 O :   -0.359188
  19 C :   -0.281994
  20 H :    0.090232
  21 H :    0.108076
  22 H :    0.093599
  23 H :    0.089715
  24 H :    0.124923
  25 H :    0.129019
  26 H :    0.139701
  27 H :    0.119563
  28 H :    0.196211
  29 H :    0.197871
  30 H :    0.163843
  31 H :    0.168332
  32 H :    0.163929
  33 H :    0.132957
  34 H :    0.241817
  35 H :    0.174203
Sum of atomic charges:    0.0000000

LOEWDIN ATOMIC CHARGES
----------------------
   0 C :    0.110282
   1 C :   -0.021215
   2 O :    0.304091
   3 C :   -0.415931
   4 O :    0.125568
   5 C :   -0.083668
   6 C :   -0.102217
   7 C :    0.125060
   8 N :    0.401604
   9 C :   -0.455895
  10 S :   -0.037061
  11 N :    0.397207
  12 C :   -0.044612
  13 C :   -0.044386
  14 C :    0.022259
  15 C :    0.045422
  16 C :   -0.000542
  17 C :   -0.195113
  18 O :    0.394593
  19 C :    0.027703
  20 H :   -0.024698
  21 H :   -0.023076
  22 H :   -0.028545
  23 H :   -0.039610
  24 H :   -0.026924
  25 H :   -0.007948
  26 H :   -0.009813
  27 H :   -0.017196
  28 H :   -0.057448
  29 H :   -0.063668
  30 H :   -0.002527
  31 H :   -0.021759
  32 H :   -0.018325
  33 H :   -0.034473
  34 H :   -0.152825
  35 H :   -0.024313

  Mayer bond orders larger than 0.100000
B(  0-C ,  1-C ) :   0.9813 B(  0-C , 20-H ) :   0.9767 B(  0-C , 21-H ) :   0.9791
B(  0-C , 22-H ) :   0.9782 B(  1-C ,  2-O ) :   0.9045 B(  1-C , 23-H ) :   0.9658
B(  1-C , 24-H ) :   0.9706 B(  2-O ,  3-C ) :   1.1856 B(  3-C ,  4-O ) :   2.0994
B(  3-C ,  5-C ) :   0.9229 B(  5-C ,  6-C ) :   1.6892 B(  5-C , 12-C ) :   0.9612
B(  6-C ,  7-C ) :   0.9436 B(  6-C ,  8-N ) :   1.1168 B(  7-C , 25-H ) :   0.9790
B(  7-C , 26-H ) :   0.9703 B(  7-C , 27-H ) :   0.9659 B(  8-N ,  9-C ) :   1.1930
B(  8-N , 28-H ) :   0.9519 B(  9-C , 10-S ) :   1.6120 B(  9-C , 11-N ) :   1.2890
B( 11-N , 12-C ) :   0.9986 B( 11-N , 29-H ) :   0.9493 B( 12-C , 13-C ) :   0.9433
B( 12-C , 30-H ) :   0.9974 B( 13-C , 14-C ) :   1.3866 B( 13-C , 19-C ) :   1.3492
B( 14-C , 15-C ) :   1.3955 B( 14-C , 31-H ) :   0.9607 B( 15-C , 16-C ) :   1.3643
B( 15-C , 32-H ) :   0.9700 B( 16-C , 17-C ) :   1.3276 B( 16-C , 33-H ) :   0.9842
B( 17-C , 18-O ) :   1.1094 B( 17-C , 19-C ) :   1.3673 B( 18-O , 34-H ) :   0.9790
B( 19-C , 35-H ) :   0.9587

MP2 TOTAL ENERGY:    -1274.333667672 Eh
FINAL SINGLE POINT ENERGY     -1274.333667672303

DIPOLE MOMENT
-------------
                                X             Y             Z
Electronic contribution:     11.96337       6.66987       7.44124
Nuclear contribution   :    -13.51114      -7.66805      -7.70642
                        -----------------------------------------
Total Dipole Moment    :     -1.54777      -0.99818      -0.26518
                        -----------------------------------------
Magnitude (a.u.)       :      1.86072
Magnitude (Debye)      :      4.72959

Rotational constants in cm-1:     0.011457     0.009168     0.006771
Rotational constants in MHz :   343.462185   274.849465   202.980141

                             ****ORCA TERMINATED NORMALLY****
TOTAL RUN TIME: 0 days 2 hours 6 minutes 51 seconds 388 msec
