                         Program Version 5.0.0 -  RELEASE  -
|  1> ! ri-mp2 cc-pvtz cc-pvtz/c TightSCF NoKeepInts
|  2>
|  3> %scf
|  4>   MaxCore 4096
|  5> end
|  6> *xyz  0  1
|  7>     C       15.4214539   14.0904663   16.9620340
|  8>     C       15.3096912   15.3311736   16.0484317
|  9>     O       16.5863886   15.9134252   15.6885676
| 10>     C       17.6919048   15.8009044   16.4819564
| 11>     O       18.2946306   14.7481304   16.6040755
| 12>     C       17.9143782   16.9680096   17.3988252
| 13>     C       17.4740484   18.2312102   17.1645104
| 14>     C       16.7237082   18.7449234   15.9528641
| 15>     N       17.7754917   19.2511206   18.0727037
| 16>     C       18.6145682   19.1210892   19.1477726
| 17>     S       19.0040448   20.4092798   20.1090032
| 18>     N       19.1138844   17.8657679   19.3861236
| 19>     C       18.7025399   16.6426898   18.6716727
| 20>     C       17.8926006   15.7328044   19.5907734
| 21>     C       18.2759334   14.3931215   19.7856855
| 22>     C       17.5227072   13.5460502   20.6156405
| 23>     C       16.3748124   14.0417178   21.2569397
| 24>     C       15.9877557   15.3745389   21.0630402
| 25>     O       14.8741654   15.8536028   21.6723866
| 26>     C       16.7390495   16.2152055   20.2358838
| 27>     H       16.0390952   13.3137399   16.4932731
| 28>     H       14.4284261   13.6637693   17.1467130
| 29>     H       15.8588437   14.3456887   17.9348890
| 30>     H       14.7674149   15.0629915   15.1325414
| 31>     H       14.7116029   16.0861875   16.5747977
| 32>     H       17.1614778   18.3528718   15.0260384
| 33>     H       16.7490752   19.8388543   15.8761460
| 34>     H       15.6715275   18.4384307   15.9863036
| 35>     H       17.4224297   20.1812885   17.9134714
| 36>     H       19.7076051   17.7909969   20.2022339
| 37>     H       19.6157652   16.1076692   18.3727821
| 38>     H       19.1515685   14.0014898   19.2733218
| 39>     H       17.8264884   12.5096413   20.7521759
| 40>     H       15.7888497   13.3898107   21.8962804
| 41>     H       14.5301867   15.1494228   22.2424894
| 42>     H       16.4228864   17.2439156   20.1016524
| 43> *
| 44>
| 45>                          ****END OF INPUT****

CARTESIAN COORDINATES (ANGSTROEM)
---------------------------------
  C     15.421454   14.090466   16.962034
  C     15.309691   15.331174   16.048432
  O     16.586389   15.913425   15.688568
  C     17.691905   15.800904   16.481956
  O     18.294631   14.748130   16.604076
  C     17.914378   16.968010   17.398825
  C     17.474048   18.231210   17.164510
  C     16.723708   18.744923   15.952864
  N     17.775492   19.251121   18.072704
  C     18.614568   19.121089   19.147773
  S     19.004045   20.409280   20.109003
  N     19.113884   17.865768   19.386124
  C     18.702540   16.642690   18.671673
  C     17.892601   15.732804   19.590773
  C     18.275933   14.393121   19.785685
  C     17.522707   13.546050   20.615641
  C     16.374812   14.041718   21.256940
  C     15.987756   15.374539   21.063040
  O     14.874165   15.853603   21.672387
  C     16.739050   16.215205   20.235884
  H     16.039095   13.313740   16.493273
  H     14.428426   13.663769   17.146713
  H     15.858844   14.345689   17.934889
  H     14.767415   15.062991   15.132541
  H     14.711603   16.086188   16.574798
  H     17.161478   18.352872   15.026038
  H     16.749075   19.838854   15.876146
  H     15.671527   18.438431   15.986304
  H     17.422430   20.181289   17.913471
  H     19.707605   17.790997   20.202234
  H     19.615765   16.107669   18.372782
  H     19.151568   14.001490   19.273322
  H     17.826488   12.509641   20.752176
  H     15.788850   13.389811   21.896280
  H     14.530187   15.149423   22.242489
  H     16.422886   17.243916   20.101652

 Total Charge           Charge          ....    0
 Multiplicity           Mult            ....    1
 Number of Electrons    NEL             ....  154
 Basis Dimension        Dim             ....  828

ORBITAL ENERGIES
----------------

  NO   OCC          E(Eh)            E(eV)
   0   2.0000     -91.889705     -2500.4460
   1   2.0000     -20.596397      -560.4565
   2   2.0000     -20.584316      -560.1277
   3   2.0000     -20.551943      -559.2468
   4   2.0000     -15.629997      -425.3138
   5   2.0000     -15.608669      -424.7335
   6   2.0000     -11.395339      -310.0829
   7   2.0000     -11.384898      -309.7988
   8   2.0000     -11.337233      -308.5018
   9   2.0000     -11.312784      -307.8365
  10   2.0000     -11.307771      -307.7001
  11   2.0000     -11.306756      -307.6725
  12   2.0000     -11.261016      -306.4278
  13   2.0000     -11.260504      -306.4139
  14   2.0000     -11.257959      -306.3446
  15   2.0000     -11.252678      -306.2009
  16   2.0000     -11.242428      -305.9220
  17   2.0000     -11.238407      -305.8126
  18   2.0000     -11.235124      -305.7233
  19   2.0000     -11.223866      -305.4169
  20   2.0000      -8.894772      -242.0390
  21   2.0000      -6.576347      -178.9515
  22   2.0000      -6.574340      -178.8969
  23   2.0000      -6.573753      -178.8809
  24   2.0000      -1.445565       -39.3358
  25   2.0000      -1.416191       -38.5365
  26   2.0000      -1.355404       -36.8824
  27   2.0000      -1.341001       -36.4905
  28   2.0000      -1.238888       -33.7119
  29   2.0000      -1.156876       -31.4802
  30   2.0000      -1.121389       -30.5146
  31   2.0000      -1.044390       -28.4193
  32   2.0000      -1.031900       -28.0794
  33   2.0000      -1.014349       -27.6018
  34   2.0000      -1.000598       -27.2276
  35   2.0000      -0.985679       -26.8217
  36   2.0000      -0.924449       -25.1555
  37   2.0000      -0.893492       -24.3131
  38   2.0000      -0.850659       -23.1476
  39   2.0000      -0.839451       -22.8426
  40   2.0000      -0.832768       -22.6608
  41   2.0000      -0.823016       -22.3954
  42   2.0000      -0.743951       -20.2439
  43   2.0000      -0.728795       -19.8315
  44   2.0000      -0.726434       -19.7673
  45   2.0000      -0.694198       -18.8901
  46   2.0000      -0.685825       -18.6622
  47   2.0000      -0.678838       -18.4721
  48   2.0000      -0.675339       -18.3769
  49   2.0000      -0.665372       -18.1057
  50   2.0000      -0.649457       -17.6726
  51   2.0000      -0.646994       -17.6056
  52   2.0000      -0.636632       -17.3236
  53   2.0000      -0.620112       -16.8741
  54   2.0000      -0.605135       -16.4666
  55   2.0000      -0.603147       -16.4125
  56   2.0000      -0.600074       -16.3288
  57   2.0000      -0.578145       -15.7321
  58   2.0000      -0.575128       -15.6500
  59   2.0000      -0.566073       -15.4036
  60   2.0000      -0.551774       -15.0145
  61   2.0000      -0.547937       -14.9101
  62   2.0000      -0.537181       -14.6174
  63   2.0000      -0.528039       -14.3687
  64   2.0000      -0.519780       -14.1439
  65   2.0000      -0.511673       -13.9233
  66   2.0000      -0.500178       -13.6105
  67   2.0000      -0.492781       -13.4092
  68   2.0000      -0.482367       -13.1259
  69   2.0000      -0.465476       -12.6662
  70   2.0000      -0.455704       -12.4003
  71   2.0000      -0.449157       -12.2222
  72   2.0000      -0.355841        -9.6829
  73   2.0000      -0.348740        -9.4897
  74   2.0000      -0.328959        -8.9514
  75   2.0000      -0.320004        -8.7077
  76   2.0000      -0.316965        -8.6250
  77   0.0000       0.071256         1.9390
  78   0.0000       0.105673         2.8755
  79   0.0000       0.120135         3.2690
  80   0.0000       0.131990         3.5916
  81   0.0000       0.138626         3.7722

MULLIKEN ATOMIC CHARGES
-----------------------
   0 C :   -0.301348
   1 C :    0.046872
   2 O :   -0.383078
   3 C :    0.457946
   4 O :   -0.394957
   5 C :   -0.204984
   6 C :    0.145138
   7 C :   -0.287793
   8 N :   -0.123684
   9 C :    0.201121
  10 S :   -0.438130
  11 N :   -0.200843
  12 C :    0.055045
  13 C :    0.011447
  14 C :   -0.150573
  15 C :   -0.138668
  16 C :   -0.272049
  17 C :    0.302205
  18 O :   -0.359949
  19 C :   -0.251032
  20 H :    0.117844
  21 H :    0.101808
  22 H :    0.113606
  23 H :    0.108688
  24 H :    0.079668
  25 H :    0.133188
  26 H :    0.106767
  27 H :    0.120750
  28 H :    0.197262
  29 H :    0.194438
  30 H :    0.155022
  31 H :    0.157468
  32 H :    0.160679
  33 H :    0.131075
  34 H :    0.240973
  35 H :    0.168081
Sum of atomic charges:    0.0000000

LOEWDIN ATOMIC CHARGES
----------------------
   0 C :    0.108268
   1 C :   -0.014461
   2 O :    0.283095
   3 C :   -0.419001
   4 O :    0.127627
   5 C :   -0.095078
   6 C :   -0.069265
   7 C :    0.126348
   8 N :    0.404824
   9 C :   -0.458561
  10 S :   -0.034997
  11 N :    0.397574
  12 C :   -0.046289
  13 C :   -0.042653
  14 C :    0.021898
  15 C :    0.041994
  16 C :   -0.001785
  17 C :   -0.193980
  18 O :    0.393890
  19 C :    0.026784
  20 H :   -0.022262
  21 H :   -0.025727
  22 H :   -0.024863
  23 H :   -0.023245
  24 H :   -0.037245
  25 H :   -0.006011
  26 H :   -0.019587
  27 H :   -0.012093
  28 H :   -0.058608
  29 H :   -0.063742
  30 H :   -0.004534
  31 H :   -0.024226
  32 H :   -0.020089
  33 H :   -0.035449
  34 H :   -0.153900
  35 H :   -0.024654

  Mayer bond orders larger than 0.100000
B(  0-C ,  1-C ) :   0.9771 B(  0-C , 20-H ) :   0.9715 B(  0-C , 21-H ) :   0.9747
B(  0-C , 22-H ) :   0.9654 B(  1-C ,  2-O ) :   0.9004 B(  1-C , 23-H ) :   0.9795
B(  1-C , 24-H ) :   0.9746 B(  2-O ,  3-C ) :   1.0890 B(  3-C ,  4-O ) :   2.0430
B(  3-C ,  5-C ) :   1.0208 B(  5-C ,  6-C ) :   1.6605 B(  5-C , 12-C ) :   0.9625
B(  6-C ,  7-C ) :   0.9517 B(  6-C ,  8-N ) :   1.1462 B(  7-C , 25-H ) :   0.9660
B(  7-C , 26-H ) :   0.9889 B(  7-C , 27-H ) :   0.9671 B(  8-N ,  9-C ) :   1.1810
B(  8-N , 28-H ) :   0.9490 B(  9-C , 10-S ) :   1.6121 B(  9-C , 11-N ) :   1.3024
B( 11-N , 12-C ) :   0.9914 B( 11-N , 29-H ) :   0.9519 B( 12-C , 13-C ) :   0.9439
B( 12-C , 30-H ) :   0.9991 B( 13-C , 14-C ) :   1.3840 B( 13-C , 19-C ) :   1.3711
B( 14-C , 15-C ) :   1.3936 B( 14-C , 31-H ) :   0.9632 B( 15-C , 16-C ) :   1.3621
B( 15-C , 32-H ) :   0.9715 B( 16-C , 17-C ) :   1.3320 B( 16-C , 33-H ) :   0.9849
B( 17-C , 18-O ) :   1.1108 B( 17-C , 19-C ) :   1.3733 B( 18-O , 34-H ) :   0.9798
B( 19-C , 35-H ) :   0.9575

MP2 TOTAL ENERGY:    -1274.330775576 Eh
FINAL SINGLE POINT ENERGY     -1274.330775575815

DIPOLE MOMENT
-------------
                                X             Y             Z
Electronic contribution:      9.97483       9.36755       6.54958
Nuclear contribution   :    -11.50470     -10.46524      -7.13556
                        -----------------------------------------
Total Dipole Moment    :     -1.52987      -1.09769      -0.58598
                        -----------------------------------------
Magnitude (a.u.)       :      1.97200
Magnitude (Debye)      :      5.01242

Rotational constants in cm-1:     0.011896     0.009346     0.006593
Rotational constants in MHz :   356.645654   280.192317   197.658933

                             ****ORCA TERMINATED NORMALLY****
TOTAL RUN TIME: 0 days 2 hours 9 minutes 6 seconds 682 msec
