                         Program Version 5.0.0 -  RELEASE  -
|  1> ! ri-mp2 cc-pvtz cc-pvtz/c TightSCF NoKeepInts
|  2>
|  3> %scf
|  4>   MaxCore 4096
|  5> end
|  6> *xyz  0  1
|  7>     C       14.8430851   14.8656687   17.0287692
|  8>     C       15.7665518   14.7492902   15.8022622
|  9>     O       16.6046614   15.9183501   15.7646956
| 10>     C       17.7915355   15.9017422   16.4384844
| 11>     O       18.4508983   14.8808910   16.5466974
| 12>     C       17.9138397   17.0256976   17.4242744
| 13>     C       17.3565364   18.2522839   17.2574598
| 14>     C       16.5503152   18.7488339   16.0752209
| 15>     N       17.5738551   19.2495328   18.2135942
| 16>     C       18.4453883   19.1472473   19.2660537
| 17>     S       18.7407761   20.4202403   20.2797933
| 18>     N       19.0601306   17.9321256   19.4356776
| 19>     C       18.7317158   16.7082637   18.6800267
| 20>     C       17.9901561   15.7113435   19.5672650
| 21>     C       18.4454386   14.3850893   19.6836868
| 22>     C       17.7575152   13.4587079   20.4851477
| 23>     C       16.6024291   13.8604692   21.1771243
| 24>     C       16.1432672   15.1793829   21.0615320
| 25>     O       15.0222412   15.5678927   21.7198007
| 26>     C       16.8299393   16.0990366   20.2628098
| 27>     H       15.4271800   14.8325126   17.9570590
| 28>     H       14.1270667   14.0353049   17.0501004
| 29>     H       14.2791553   15.8062372   17.0059574
| 30>     H       16.3532542   13.8210019   15.8386033
| 31>     H       15.1473076   14.7222055   14.8965630
| 32>     H       15.5338866   18.3365856   16.1003015
| 33>     H       17.0136666   18.4429487   15.1288997
| 34>     H       16.4668859   19.8421808   16.0518292
| 35>     H       17.1318913   20.1485182   18.1059288
| 36>     H       19.6752998   17.8739697   20.2370133
| 37>     H       19.6781799   16.2492765   18.3593957
| 38>     H       19.3275093   14.0665849   19.1332059
| 39>     H       18.1174312   12.4342117   20.5612946
| 40>     H       16.0667148   13.1474646   21.7948938
| 41>     H       14.7248412   14.8164414   22.2544132
| 42>     H       16.4564535   17.1144664   20.1881659
| 43> *
| 44>
| 45>                          ****END OF INPUT****

CARTESIAN COORDINATES (ANGSTROEM)
---------------------------------
  C     14.843085   14.865669   17.028769
  C     15.766552   14.749290   15.802262
  O     16.604661   15.918350   15.764696
  C     17.791535   15.901742   16.438484
  O     18.450898   14.880891   16.546697
  C     17.913840   17.025698   17.424274
  C     17.356536   18.252284   17.257460
  C     16.550315   18.748834   16.075221
  N     17.573855   19.249533   18.213594
  C     18.445388   19.147247   19.266054
  S     18.740776   20.420240   20.279793
  N     19.060131   17.932126   19.435678
  C     18.731716   16.708264   18.680027
  C     17.990156   15.711343   19.567265
  C     18.445439   14.385089   19.683687
  C     17.757515   13.458708   20.485148
  C     16.602429   13.860469   21.177124
  C     16.143267   15.179383   21.061532
  O     15.022241   15.567893   21.719801
  C     16.829939   16.099037   20.262810
  H     15.427180   14.832513   17.957059
  H     14.127067   14.035305   17.050100
  H     14.279155   15.806237   17.005957
  H     16.353254   13.821002   15.838603
  H     15.147308   14.722205   14.896563
  H     15.533887   18.336586   16.100302
  H     17.013667   18.442949   15.128900
  H     16.466886   19.842181   16.051829
  H     17.131891   20.148518   18.105929
  H     19.675300   17.873970   20.237013
  H     19.678180   16.249277   18.359396
  H     19.327509   14.066585   19.133206
  H     18.117431   12.434212   20.561295
  H     16.066715   13.147465   21.794894
  H     14.724841   14.816441   22.254413
  H     16.456453   17.114466   20.188166

 Total Charge           Charge          ....    0
 Multiplicity           Mult            ....    1
 Number of Electrons    NEL             ....  154
 Basis Dimension        Dim             ....  828

ORBITAL ENERGIES
----------------

  NO   OCC          E(Eh)            E(eV)
   0   2.0000     -91.888704     -2500.4188
   1   2.0000     -20.594619      -560.4081
   2   2.0000     -20.593126      -560.3674
   3   2.0000     -20.551043      -559.2223
   4   2.0000     -15.628454      -425.2719
   5   2.0000     -15.607836      -424.7108
   6   2.0000     -11.395859      -310.0971
   7   2.0000     -11.383892      -309.7714
   8   2.0000     -11.334254      -308.4207
   9   2.0000     -11.310771      -307.7817
  10   2.0000     -11.307835      -307.7018
  11   2.0000     -11.297843      -307.4299
  12   2.0000     -11.260147      -306.4042
  13   2.0000     -11.259424      -306.3845
  14   2.0000     -11.256571      -306.3069
  15   2.0000     -11.251173      -306.1600
  16   2.0000     -11.240769      -305.8769
  17   2.0000     -11.236431      -305.7588
  18   2.0000     -11.233743      -305.6857
  19   2.0000     -11.226278      -305.4826
  20   2.0000      -8.893767      -242.0117
  21   2.0000      -6.575344      -178.9242
  22   2.0000      -6.573337      -178.8696
  23   2.0000      -6.572751      -178.8537
  24   2.0000      -1.453066       -39.5399
  25   2.0000      -1.414428       -38.4885
  26   2.0000      -1.357122       -36.9292
  27   2.0000      -1.339565       -36.4514
  28   2.0000      -1.237579       -33.6762
  29   2.0000      -1.155226       -31.4353
  30   2.0000      -1.120840       -30.4996
  31   2.0000      -1.043751       -28.4019
  32   2.0000      -1.033327       -28.1183
  33   2.0000      -1.012660       -27.5559
  34   2.0000      -0.998913       -27.1818
  35   2.0000      -0.984698       -26.7950
  36   2.0000      -0.922945       -25.1146
  37   2.0000      -0.891197       -24.2507
  38   2.0000      -0.847649       -23.0657
  39   2.0000      -0.837332       -22.7850
  40   2.0000      -0.831098       -22.6153
  41   2.0000      -0.815685       -22.1959
  42   2.0000      -0.755626       -20.5616
  43   2.0000      -0.736198       -20.0330
  44   2.0000      -0.727179       -19.7875
  45   2.0000      -0.693292       -18.8654
  46   2.0000      -0.685923       -18.6649
  47   2.0000      -0.678048       -18.4506
  48   2.0000      -0.674108       -18.3434
  49   2.0000      -0.660454       -17.9719
  50   2.0000      -0.651810       -17.7367
  51   2.0000      -0.645364       -17.5612
  52   2.0000      -0.635384       -17.2897
  53   2.0000      -0.605655       -16.4807
  54   2.0000      -0.601949       -16.3799
  55   2.0000      -0.598782       -16.2937
  56   2.0000      -0.596534       -16.2325
  57   2.0000      -0.581781       -15.8311
  58   2.0000      -0.575322       -15.6553
  59   2.0000      -0.562239       -15.2993
  60   2.0000      -0.559126       -15.2146
  61   2.0000      -0.553081       -15.0501
  62   2.0000      -0.540544       -14.7089
  63   2.0000      -0.525158       -14.2903
  64   2.0000      -0.520001       -14.1500
  65   2.0000      -0.511407       -13.9161
  66   2.0000      -0.498798       -13.5730
  67   2.0000      -0.494916       -13.4674
  68   2.0000      -0.481522       -13.1029
  69   2.0000      -0.463956       -12.6249
  70   2.0000      -0.460046       -12.5185
  71   2.0000      -0.450190       -12.2503
  72   2.0000      -0.354303        -9.6411
  73   2.0000      -0.346791        -9.4367
  74   2.0000      -0.327922        -8.9232
  75   2.0000      -0.318345        -8.6626
  76   2.0000      -0.315538        -8.5862
  77   0.0000       0.073343         1.9958
  78   0.0000       0.108571         2.9544
  79   0.0000       0.119515         3.2522
  80   0.0000       0.133179         3.6240
  81   0.0000       0.140904         3.8342

MULLIKEN ATOMIC CHARGES
-----------------------
   0 C :   -0.294179
   1 C :    0.028647
   2 O :   -0.364872
   3 C :    0.448323
   4 O :   -0.413709
   5 C :   -0.172886
   6 C :    0.135908
   7 C :   -0.283500
   8 N :   -0.123600
   9 C :    0.199524
  10 S :   -0.438832
  11 N :   -0.199663
  12 C :    0.049559
  13 C :    0.042031
  14 C :   -0.160915
  15 C :   -0.137712
  16 C :   -0.275270
  17 C :    0.315857
  18 O :   -0.361235
  19 C :   -0.282125
  20 H :    0.117811
  21 H :    0.101755
  22 H :    0.091096
  23 H :    0.115486
  24 H :    0.104192
  25 H :    0.125247
  26 H :    0.125382
  27 H :    0.103128
  28 H :    0.197161
  29 H :    0.193803
  30 H :    0.155694
  31 H :    0.158788
  32 H :    0.160651
  33 H :    0.130436
  34 H :    0.240463
  35 H :    0.167553
Sum of atomic charges:    0.0000000

LOEWDIN ATOMIC CHARGES
----------------------
   0 C :    0.105050
   1 C :   -0.017228
   2 O :    0.298580
   3 C :   -0.414027
   4 O :    0.115381
   5 C :   -0.092661
   6 C :   -0.070846
   7 C :    0.125823
   8 N :    0.404555
   9 C :   -0.458367
  10 S :   -0.035906
  11 N :    0.397429
  12 C :   -0.045438
  13 C :   -0.041358
  14 C :    0.021268
  15 C :    0.041073
  16 C :   -0.002537
  17 C :   -0.194267
  18 O :    0.394135
  19 C :    0.028969
  20 H :   -0.024084
  21 H :   -0.025765
  22 H :   -0.030050
  23 H :   -0.026852
  24 H :   -0.026867
  25 H :   -0.011052
  26 H :   -0.007857
  27 H :   -0.020140
  28 H :   -0.058886
  29 H :   -0.064027
  30 H :   -0.004321
  31 H :   -0.024400
  32 H :   -0.020510
  33 H :   -0.035816
  34 H :   -0.154321
  35 H :   -0.024679

  Mayer bond orders larger than 0.100000
B(  0-C ,  1-C ) :   0.9648 B(  0-C , 20-H ) :   0.9693 B(  0-C , 21-H ) :   0.9780
B(  0-C , 22-H ) :   0.9783 B(  1-C ,  2-O ) :   0.8891 B(  1-C , 23-H ) :   0.9747
B(  1-C , 24-H ) :   0.9849 B(  2-O ,  3-C ) :   1.1171 B(  3-C ,  4-O ) :   2.0027
B(  3-C ,  5-C ) :   1.0321 B(  5-C ,  6-C ) :   1.6649 B(  5-C , 12-C ) :   0.9624
B(  6-C ,  7-C ) :   0.9539 B(  6-C ,  8-N ) :   1.1392 B(  7-C , 25-H ) :   0.9632
B(  7-C , 26-H ) :   0.9688 B(  7-C , 27-H ) :   0.9892 B(  8-N ,  9-C ) :   1.1823
B(  8-N , 28-H ) :   0.9495 B(  9-C , 10-S ) :   1.6121 B(  9-C , 11-N ) :   1.3004
B( 11-N , 12-C ) :   0.9914 B( 11-N , 29-H ) :   0.9519 B( 12-C , 13-C ) :   0.9443
B( 12-C , 30-H ) :   0.9990 B( 13-C , 14-C ) :   1.3797 B( 13-C , 19-C ) :   1.3645
B( 14-C , 15-C ) :   1.3943 B( 14-C , 31-H ) :   0.9623 B( 15-C , 16-C ) :   1.3629
B( 15-C , 32-H ) :   0.9713 B( 16-C , 17-C ) :   1.3308 B( 16-C , 33-H ) :   0.9851
B( 17-C , 18-O ) :   1.1083 B( 17-C , 19-C ) :   1.3733 B( 18-O , 34-H ) :   0.9802
B( 19-C , 35-H ) :   0.9596

MP2 TOTAL ENERGY:    -1274.336890077 Eh
FINAL SINGLE POINT ENERGY     -1274.336890077386

DIPOLE MOMENT
-------------
                                X             Y             Z
Electronic contribution:     10.41393       8.80641       6.88954
Nuclear contribution   :    -11.75330     -10.13439      -7.74103
                        -----------------------------------------
Total Dipole Moment    :     -1.33938      -1.32798      -0.85150
                        -----------------------------------------
Magnitude (a.u.)       :      2.06942
Magnitude (Debye)      :      5.26005

Rotational constants in cm-1:     0.011633     0.009415     0.006661
Rotational constants in MHz :   348.757427   282.265618   199.689461

                             ****ORCA TERMINATED NORMALLY****
TOTAL RUN TIME: 0 days 2 hours 12 minutes 31 seconds 422 msec
