                         Program Version 5.0.0 -  RELEASE  -
|  1> ! ri-mp2 cc-pvtz cc-pvtz/c TightSCF NoKeepInts
|  2>
|  3> %scf
|  4>   MaxCore 4096
|  5> end
|  6> *xyz  0  1
|  7>     C       14.9517010   15.9373339   17.2392769
|  8>     C       15.6018112   14.9383124   16.2617503
|  9>     O       16.8979620   15.2957821   15.7131183
| 10>     C       18.0137584   15.6853651   16.4131354
| 11>     O       18.9672953   14.9297259   16.4577459
| 12>     C       17.9014884   16.8309001   17.3690297
| 13>     C       17.3517692   18.0225767   17.0271377
| 14>     C       16.7940636   18.4405168   15.6810145
| 15>     N       17.3850722   19.0878935   17.9299636
| 16>     C       18.0879427   19.0936387   19.1058937
| 17>     S       18.1610576   20.4358046   20.0689481
| 18>     N       18.7349813   17.9305010   19.4407641
| 19>     C       18.6089797   16.6486822   18.7189637
| 20>     C       17.9301028   15.5870277   19.5852452
| 21>     C       18.3655431   14.2496714   19.5302045
| 22>     C       17.7489439   13.2590465   20.3121880
| 23>     C       16.6863114   13.6059627   21.1628819
| 24>     C       16.2502054   14.9357781   21.2261820
| 25>     O       15.2194410   15.2736726   22.0409926
| 26>     C       16.8663685   15.9200429   20.4467575
| 27>     H       15.5375717   16.0643732   18.1513272
| 28>     H       13.9699086   15.5577545   17.5478937
| 29>     H       14.7840853   16.9097385   16.7678857
| 30>     H       15.7081333   13.9791012   16.7862062
| 31>     H       14.9095150   14.7669656   15.4273578
| 32>     H       16.8053578   17.6347623   14.9399441
| 33>     H       17.3900702   19.2593858   15.2583848
| 34>     H       15.7599205   18.7940344   15.7695825
| 35>     H       16.9375500   19.9586448   17.6905361
| 36>     H       19.2361648   17.9588262   20.3197389
| 37>     H       19.6293704   16.2953726   18.5084774
| 38>     H       19.1843554   13.9737120   18.8691146
| 39>     H       18.0956632   12.2285939   20.2544072
| 40>     H       16.2063503   12.8435471   21.7675702
| 41>     H       14.9633065   14.4780093   22.5314292
| 42>     H       16.5048779   16.9409437   20.5129508
| 43> *
| 44>
| 45>                          ****END OF INPUT****

CARTESIAN COORDINATES (ANGSTROEM)
---------------------------------
  C     14.951701   15.937334   17.239277
  C     15.601811   14.938312   16.261750
  O     16.897962   15.295782   15.713118
  C     18.013758   15.685365   16.413135
  O     18.967295   14.929726   16.457746
  C     17.901488   16.830900   17.369030
  C     17.351769   18.022577   17.027138
  C     16.794064   18.440517   15.681014
  N     17.385072   19.087893   17.929964
  C     18.087943   19.093639   19.105894
  S     18.161058   20.435805   20.068948
  N     18.734981   17.930501   19.440764
  C     18.608980   16.648682   18.718964
  C     17.930103   15.587028   19.585245
  C     18.365543   14.249671   19.530204
  C     17.748944   13.259046   20.312188
  C     16.686311   13.605963   21.162882
  C     16.250205   14.935778   21.226182
  O     15.219441   15.273673   22.040993
  C     16.866369   15.920043   20.446758
  H     15.537572   16.064373   18.151327
  H     13.969909   15.557754   17.547894
  H     14.784085   16.909738   16.767886
  H     15.708133   13.979101   16.786206
  H     14.909515   14.766966   15.427358
  H     16.805358   17.634762   14.939944
  H     17.390070   19.259386   15.258385
  H     15.759920   18.794034   15.769583
  H     16.937550   19.958645   17.690536
  H     19.236165   17.958826   20.319739
  H     19.629370   16.295373   18.508477
  H     19.184355   13.973712   18.869115
  H     18.095663   12.228594   20.254407
  H     16.206350   12.843547   21.767570
  H     14.963306   14.478009   22.531429
  H     16.504878   16.940944   20.512951

 Total Charge           Charge          ....    0
 Multiplicity           Mult            ....    1
 Number of Electrons    NEL             ....  154
 Basis Dimension        Dim             ....  828

ORBITAL ENERGIES
----------------

  NO   OCC          E(Eh)            E(eV)
   0   2.0000     -91.890782     -2500.4753
   1   2.0000     -20.598192      -560.5053
   2   2.0000     -20.587423      -560.2123
   3   2.0000     -20.551616      -559.2379
   4   2.0000     -15.628843      -425.2824
   5   2.0000     -15.610860      -424.7931
   6   2.0000     -11.397671      -310.1464
   7   2.0000     -11.386810      -309.8508
   8   2.0000     -11.333907      -308.4113
   9   2.0000     -11.315034      -307.8977
  10   2.0000     -11.312959      -307.8413
  11   2.0000     -11.309554      -307.7486
  12   2.0000     -11.264471      -306.5218
  13   2.0000     -11.264140      -306.5128
  14   2.0000     -11.262719      -306.4742
  15   2.0000     -11.255112      -306.2672
  16   2.0000     -11.244380      -305.9751
  17   2.0000     -11.240620      -305.8728
  18   2.0000     -11.236619      -305.7639
  19   2.0000     -11.232972      -305.6647
  20   2.0000      -8.895869      -242.0689
  21   2.0000      -6.577452      -178.9816
  22   2.0000      -6.575433      -178.9266
  23   2.0000      -6.574851      -178.9108
  24   2.0000      -1.443311       -39.2745
  25   2.0000      -1.418000       -38.5858
  26   2.0000      -1.353494       -36.8304
  27   2.0000      -1.341613       -36.5072
  28   2.0000      -1.240431       -33.7538
  29   2.0000      -1.158987       -31.5376
  30   2.0000      -1.123681       -30.5769
  31   2.0000      -1.046505       -28.4769
  32   2.0000      -1.038508       -28.2592
  33   2.0000      -1.017406       -27.6850
  34   2.0000      -1.004363       -27.3301
  35   2.0000      -0.989681       -26.9306
  36   2.0000      -0.927143       -25.2288
  37   2.0000      -0.897140       -24.4124
  38   2.0000      -0.852456       -23.1965
  39   2.0000      -0.841106       -22.8877
  40   2.0000      -0.835005       -22.7216
  41   2.0000      -0.826320       -22.4853
  42   2.0000      -0.749281       -20.3890
  43   2.0000      -0.734031       -19.9740
  44   2.0000      -0.729514       -19.8511
  45   2.0000      -0.696157       -18.9434
  46   2.0000      -0.687371       -18.7043
  47   2.0000      -0.675691       -18.3865
  48   2.0000      -0.674303       -18.3487
  49   2.0000      -0.663331       -18.0502
  50   2.0000      -0.653379       -17.7793
  51   2.0000      -0.649576       -17.6759
  52   2.0000      -0.641192       -17.4477
  53   2.0000      -0.613274       -16.6880
  54   2.0000      -0.606013       -16.4905
  55   2.0000      -0.602247       -16.3880
  56   2.0000      -0.601264       -16.3612
  57   2.0000      -0.594246       -16.1703
  58   2.0000      -0.575464       -15.6592
  59   2.0000      -0.572796       -15.5866
  60   2.0000      -0.564319       -15.3559
  61   2.0000      -0.555884       -15.1264
  62   2.0000      -0.544079       -14.8051
  63   2.0000      -0.530466       -14.4347
  64   2.0000      -0.521738       -14.1972
  65   2.0000      -0.513811       -13.9815
  66   2.0000      -0.501541       -13.6476
  67   2.0000      -0.488119       -13.2824
  68   2.0000      -0.484592       -13.1864
  69   2.0000      -0.466452       -12.6928
  70   2.0000      -0.459851       -12.5132
  71   2.0000      -0.448515       -12.2047
  72   2.0000      -0.356847        -9.7103
  73   2.0000      -0.349231        -9.5031
  74   2.0000      -0.330229        -8.9860
  75   2.0000      -0.323104        -8.7921
  76   2.0000      -0.319335        -8.6895
  77   0.0000       0.078467         2.1352
  78   0.0000       0.105440         2.8692
  79   0.0000       0.117852         3.2069
  80   0.0000       0.127547         3.4707
  81   0.0000       0.130838         3.5603

MULLIKEN ATOMIC CHARGES
-----------------------
   0 C :   -0.340104
   1 C :    0.051465
   2 O :   -0.366682
   3 C :    0.440828
   4 O :   -0.381391
   5 C :   -0.240116
   6 C :    0.173383
   7 C :   -0.325040
   8 N :   -0.135562
   9 C :    0.197561
  10 S :   -0.438256
  11 N :   -0.223139
  12 C :    0.092207
  13 C :    0.021651
  14 C :   -0.215366
  15 C :   -0.136563
  16 C :   -0.275665
  17 C :    0.324661
  18 O :   -0.356712
  19 C :   -0.281326
  20 H :    0.125716
  21 H :    0.127671
  22 H :    0.092633
  23 H :    0.104816
  24 H :    0.113571
  25 H :    0.135760
  26 H :    0.141942
  27 H :    0.113632
  28 H :    0.197366
  29 H :    0.200608
  30 H :    0.165799
  31 H :    0.177774
  32 H :    0.164470
  33 H :    0.131838
  34 H :    0.240872
  35 H :    0.179697
Sum of atomic charges:    0.0000000

LOEWDIN ATOMIC CHARGES
----------------------
   0 C :    0.105958
   1 C :   -0.012543
   2 O :    0.277949
   3 C :   -0.414434
   4 O :    0.129476
   5 C :   -0.086082
   6 C :   -0.083582
   7 C :    0.124088
   8 N :    0.404894
   9 C :   -0.458178
  10 S :   -0.035867
  11 N :    0.397615
  12 C :   -0.043329
  13 C :   -0.042943
  14 C :    0.019932
  15 C :    0.042633
  16 C :   -0.001566
  17 C :   -0.193652
  18 O :    0.395122
  19 C :    0.026141
  20 H :   -0.033785
  21 H :   -0.019497
  22 H :   -0.033504
  23 H :   -0.026155
  24 H :   -0.019999
  25 H :   -0.011788
  26 H :   -0.010021
  27 H :   -0.019577
  28 H :   -0.056274
  29 H :   -0.063562
  30 H :   -0.002600
  31 H :   -0.022398
  32 H :   -0.018918
  33 H :   -0.035075
  34 H :   -0.153484
  35 H :   -0.024998

  Mayer bond orders larger than 0.100000
B(  0-C ,  1-C ) :   0.9619 B(  0-C , 20-H ) :   0.9659 B(  0-C , 21-H ) :   0.9779
B(  0-C , 22-H ) :   0.9754 B(  1-C ,  2-O ) :   0.9022 B(  1-C , 23-H ) :   0.9790
B(  1-C , 24-H ) :   0.9815 B(  2-O ,  3-C ) :   1.1270 B(  3-C ,  4-O ) :   2.0698
B(  3-C ,  5-C ) :   0.9719 B(  5-C ,  6-C ) :   1.6563 B(  5-C , 12-C ) :   0.9475
B(  6-C ,  7-C ) :   0.9504 B(  6-C ,  8-N ) :   1.1259 B(  7-C , 25-H ) :   0.9738
B(  7-C , 26-H ) :   0.9678 B(  7-C , 27-H ) :   0.9666 B(  8-N ,  9-C ) :   1.1912
B(  8-N , 28-H ) :   0.9514 B(  9-C , 10-S ) :   1.6121 B(  9-C , 11-N ) :   1.2901
B( 11-N , 12-C ) :   0.9845 B( 11-N , 29-H ) :   0.9491 B( 12-C , 13-C ) :   0.9512
B( 12-C , 30-H ) :   0.9965 B( 13-C , 14-C ) :   1.3900 B( 13-C , 19-C ) :   1.3388
B( 14-C , 15-C ) :   1.4017 B( 14-C , 31-H ) :   0.9565 B( 15-C , 16-C ) :   1.3588
B( 15-C , 32-H ) :   0.9699 B( 16-C , 17-C ) :   1.3320 B( 16-C , 33-H ) :   0.9846
B( 17-C , 18-O ) :   1.1101 B( 17-C , 19-C ) :   1.3674 B( 18-O , 34-H ) :   0.9797
B( 19-C , 35-H ) :   0.9584

MP2 TOTAL ENERGY:    -1274.323706311 Eh
FINAL SINGLE POINT ENERGY     -1274.323706310639

DIPOLE MOMENT
-------------
                                X             Y             Z
Electronic contribution:      9.64784       5.87481       6.35844
Nuclear contribution   :    -11.13681      -7.03100      -6.86424
                        -----------------------------------------
Total Dipole Moment    :     -1.48897      -1.15618      -0.50580
                        -----------------------------------------
Magnitude (a.u.)       :      1.95183
Magnitude (Debye)      :      4.96115

Rotational constants in cm-1:     0.011565     0.009645     0.006783
Rotational constants in MHz :   346.708330   289.154910   203.356810

                             ****ORCA TERMINATED NORMALLY****
TOTAL RUN TIME: 0 days 1 hours 47 minutes 8 seconds 957 msec
