                         Program Version 5.0.0 -  RELEASE  -
|  1> ! ri-mp2 cc-pvtz cc-pvtz/c TightSCF NoKeepInts
|  2>
|  3> %scf
|  4>   MaxCore 4096
|  5> end
|  6> *xyz  0  1
|  7>     C       16.0872635   13.7866672   14.9392276
|  8>     C       15.4226978   14.3814376   16.1923292
|  9>     O       16.3813340   15.2558726   16.8154722
| 10>     C       16.1598224   16.6045864   16.8803904
| 11>     O       15.2169448   17.1436326   16.3260286
| 12>     C       17.2184248   17.3263022   17.6682253
| 13>     C       17.2512924   18.6788978   17.7773804
| 14>     C       16.2836511   19.6719622   17.1699318
| 15>     N       18.2828917   19.3001876   18.4878027
| 16>     C       19.3658786   18.6548865   19.0223755
| 17>     S       20.5947492   19.4759421   19.7651152
| 18>     N       19.3814659   17.2882272   18.9084608
| 19>     C       18.2773535   16.4671559   18.3784988
| 20>     C       17.6693574   15.6317912   19.5016065
| 21>     C       17.7749257   14.2282480   19.4849442
| 22>     C       17.2153682   13.4567488   20.5173785
| 23>     C       16.5468822   14.0934950   21.5769372
| 24>     C       16.4429638   15.4911184   21.5985581
| 25>     O       15.7987694   16.1088642   22.6205532
| 26>     C       17.0006338   16.2561969   20.5695819
| 27>     H       16.3359073   14.5796798   14.2227480
| 28>     H       15.4109786   13.0787242   14.4448963
| 29>     H       17.0095408   13.2548322   15.2037185
| 30>     H       14.4936001   14.8998567   15.9195305
| 31>     H       15.1655523   13.5707712   16.8862414
| 32>     H       15.2655503   19.4915455   17.5381574
| 33>     H       16.2593624   19.5686614   16.0776438
| 34>     H       16.5378149   20.7136533   17.3980789
| 35>     H       18.2887707   20.3034244   18.5800474
| 36>     H       20.1741421   16.8372511   19.3467653
| 37>     H       18.7094541   15.7852583   17.6326622
| 38>     H       18.2861580   13.7332465   18.6636593
| 39>     H       17.3002041   12.3717549   20.4942094
| 40>     H       16.1131935   13.5021273   22.3765758
| 41>     H       15.5085325   15.4221759   23.2393912
| 42>     H       16.9155679   17.3368166   20.6088766
| 43> *
| 44>
| 45>                          ****END OF INPUT****

CARTESIAN COORDINATES (ANGSTROEM)
---------------------------------
  C     16.087263   13.786667   14.939228
  C     15.422698   14.381438   16.192329
  O     16.381334   15.255873   16.815472
  C     16.159822   16.604586   16.880390
  O     15.216945   17.143633   16.326029
  C     17.218425   17.326302   17.668225
  C     17.251292   18.678898   17.777380
  C     16.283651   19.671962   17.169932
  N     18.282892   19.300188   18.487803
  C     19.365879   18.654886   19.022375
  S     20.594749   19.475942   19.765115
  N     19.381466   17.288227   18.908461
  C     18.277354   16.467156   18.378499
  C     17.669357   15.631791   19.501606
  C     17.774926   14.228248   19.484944
  C     17.215368   13.456749   20.517378
  C     16.546882   14.093495   21.576937
  C     16.442964   15.491118   21.598558
  O     15.798769   16.108864   22.620553
  C     17.000634   16.256197   20.569582
  H     16.335907   14.579680   14.222748
  H     15.410979   13.078724   14.444896
  H     17.009541   13.254832   15.203718
  H     14.493600   14.899857   15.919530
  H     15.165552   13.570771   16.886241
  H     15.265550   19.491545   17.538157
  H     16.259362   19.568661   16.077644
  H     16.537815   20.713653   17.398079
  H     18.288771   20.303424   18.580047
  H     20.174142   16.837251   19.346765
  H     18.709454   15.785258   17.632662
  H     18.286158   13.733246   18.663659
  H     17.300204   12.371755   20.494209
  H     16.113194   13.502127   22.376576
  H     15.508532   15.422176   23.239391
  H     16.915568   17.336817   20.608877

 Total Charge           Charge          ....    0
 Multiplicity           Mult            ....    1
 Number of Electrons    NEL             ....  154
 Basis Dimension        Dim             ....  828

ORBITAL ENERGIES
----------------

  NO   OCC          E(Eh)            E(eV)
   0   2.0000     -91.888577     -2500.4153
   1   2.0000     -20.602739      -560.6290
   2   2.0000     -20.595267      -560.4257
   3   2.0000     -20.541341      -558.9583
   4   2.0000     -15.628763      -425.2803
   5   2.0000     -15.607857      -424.7114
   6   2.0000     -11.395811      -310.0958
   7   2.0000     -11.383643      -309.7647
   8   2.0000     -11.335760      -308.4617
   9   2.0000     -11.312312      -307.8236
  10   2.0000     -11.308317      -307.7150
  11   2.0000     -11.295900      -307.3771
  12   2.0000     -11.258783      -306.3671
  13   2.0000     -11.258365      -306.3557
  14   2.0000     -11.253814      -306.2318
  15   2.0000     -11.251702      -306.1744
  16   2.0000     -11.241771      -305.9041
  17   2.0000     -11.237294      -305.7823
  18   2.0000     -11.237094      -305.7769
  19   2.0000     -11.229499      -305.5702
  20   2.0000      -8.893638      -242.0082
  21   2.0000      -6.575213      -178.9206
  22   2.0000      -6.573209      -178.8661
  23   2.0000      -6.572622      -178.8501
  24   2.0000      -1.451215       -39.4896
  25   2.0000      -1.414922       -38.5020
  26   2.0000      -1.355149       -36.8755
  27   2.0000      -1.339712       -36.4554
  28   2.0000      -1.238088       -33.6901
  29   2.0000      -1.156483       -31.4695
  30   2.0000      -1.119928       -30.4748
  31   2.0000      -1.042844       -28.3772
  32   2.0000      -1.039106       -28.2755
  33   2.0000      -1.013762       -27.5859
  34   2.0000      -0.995394       -27.0860
  35   2.0000      -0.983914       -26.7737
  36   2.0000      -0.921879       -25.0856
  37   2.0000      -0.891984       -24.2721
  38   2.0000      -0.846466       -23.0335
  39   2.0000      -0.836611       -22.7653
  40   2.0000      -0.832807       -22.6618
  41   2.0000      -0.817023       -22.2323
  42   2.0000      -0.763225       -20.7684
  43   2.0000      -0.731554       -19.9066
  44   2.0000      -0.722268       -19.6539
  45   2.0000      -0.694415       -18.8960
  46   2.0000      -0.686812       -18.6891
  47   2.0000      -0.680482       -18.5169
  48   2.0000      -0.673281       -18.3209
  49   2.0000      -0.657246       -17.8846
  50   2.0000      -0.645453       -17.5637
  51   2.0000      -0.644032       -17.5250
  52   2.0000      -0.632435       -17.2094
  53   2.0000      -0.607605       -16.5338
  54   2.0000      -0.605395       -16.4736
  55   2.0000      -0.598530       -16.2868
  56   2.0000      -0.597758       -16.2658
  57   2.0000      -0.577602       -15.7173
  58   2.0000      -0.570368       -15.5205
  59   2.0000      -0.568015       -15.4565
  60   2.0000      -0.563169       -15.3246
  61   2.0000      -0.541988       -14.7482
  62   2.0000      -0.539746       -14.6872
  63   2.0000      -0.530941       -14.4476
  64   2.0000      -0.523930       -14.2569
  65   2.0000      -0.512912       -13.9571
  66   2.0000      -0.501123       -13.6362
  67   2.0000      -0.497047       -13.5253
  68   2.0000      -0.485450       -13.2098
  69   2.0000      -0.463636       -12.6162
  70   2.0000      -0.454256       -12.3609
  71   2.0000      -0.449516       -12.2319
  72   2.0000      -0.354092        -9.6353
  73   2.0000      -0.348277        -9.4771
  74   2.0000      -0.327864        -8.9216
  75   2.0000      -0.320080        -8.7098
  76   2.0000      -0.315557        -8.5867
  77   0.0000       0.076893         2.0924
  78   0.0000       0.107843         2.9346
  79   0.0000       0.123105         3.3499
  80   0.0000       0.132682         3.6105
  81   0.0000       0.135838         3.6964

MULLIKEN ATOMIC CHARGES
-----------------------
   0 C :   -0.268447
   1 C :    0.015436
   2 O :   -0.348970
   3 C :    0.477812
   4 O :   -0.436921
   5 C :   -0.225195
   6 C :    0.148432
   7 C :   -0.274358
   8 N :   -0.119986
   9 C :    0.210067
  10 S :   -0.440004
  11 N :   -0.202882
  12 C :    0.044611
  13 C :    0.068048
  14 C :   -0.178490
  15 C :   -0.134105
  16 C :   -0.277760
  17 C :    0.315428
  18 O :   -0.356855
  19 C :   -0.268054
  20 H :    0.099099
  21 H :    0.091729
  22 H :    0.091051
  23 H :    0.124135
  24 H :    0.103768
  25 H :    0.132090
  26 H :    0.130792
  27 H :    0.094772
  28 H :    0.197321
  29 H :    0.194369
  30 H :    0.151349
  31 H :    0.148137
  32 H :    0.159350
  33 H :    0.129157
  34 H :    0.240490
  35 H :    0.164585
Sum of atomic charges:   -0.0000000

LOEWDIN ATOMIC CHARGES
----------------------
   0 C :    0.104133
   1 C :   -0.012603
   2 O :    0.311453
   3 C :   -0.413093
   4 O :    0.093993
   5 C :   -0.094183
   6 C :   -0.058830
   7 C :    0.131411
   8 N :    0.406511
   9 C :   -0.456817
  10 S :   -0.035620
  11 N :    0.396636
  12 C :   -0.052954
  13 C :   -0.038977
  14 C :    0.014277
  15 C :    0.038884
  16 C :   -0.001361
  17 C :   -0.189526
  18 O :    0.395005
  19 C :    0.031638
  20 H :   -0.025774
  21 H :   -0.025837
  22 H :   -0.029766
  23 H :   -0.028020
  24 H :   -0.028897
  25 H :   -0.004460
  26 H :   -0.004101
  27 H :   -0.023503
  28 H :   -0.057610
  29 H :   -0.064531
  30 H :   -0.011633
  31 H :   -0.030572
  32 H :   -0.021671
  33 H :   -0.035725
  34 H :   -0.154091
  35 H :   -0.023786

  Mayer bond orders larger than 0.100000
B(  0-C ,  1-C ) :   0.9706 B(  0-C , 20-H ) :   0.9789 B(  0-C , 21-H ) :   0.9754
B(  0-C , 22-H ) :   0.9791 B(  1-C ,  2-O ) :   0.8849 B(  1-C , 23-H ) :   0.9744
B(  1-C , 24-H ) :   0.9808 B(  2-O ,  3-C ) :   1.1766 B(  3-C ,  4-O ) :   1.9664
B(  3-C ,  5-C ) :   1.0571 B(  5-C ,  6-C ) :   1.6567 B(  5-C , 12-C ) :   0.9719
B(  6-C ,  7-C ) :   0.9674 B(  6-C ,  8-N ) :   1.1653 B(  7-C , 25-H ) :   0.9609
B(  7-C , 26-H ) :   0.9600 B(  7-C , 27-H ) :   0.9903 B(  8-N ,  9-C ) :   1.1825
B(  8-N , 28-H ) :   0.9480 B(  9-C , 10-S ) :   1.6078 B(  9-C , 11-N ) :   1.3047
B( 11-N , 12-C ) :   0.9896 B( 11-N , 29-H ) :   0.9517 B( 12-C , 13-C ) :   0.9362
B( 12-C , 30-H ) :   1.0036 B( 13-C , 14-C ) :   1.3558 B( 13-C , 19-C ) :   1.3825
B( 14-C , 15-C ) :   1.3935 B( 14-C , 31-H ) :   0.9718 B( 15-C , 16-C ) :   1.3640
B( 15-C , 32-H ) :   0.9709 B( 16-C , 17-C ) :   1.3316 B( 16-C , 33-H ) :   0.9854
B( 17-C , 18-O ) :   1.1096 B( 17-C , 19-C ) :   1.3737 B( 18-O , 34-H ) :   0.9801
B( 19-C , 35-H ) :   0.9583

MP2 TOTAL ENERGY:    -1274.350292870 Eh
FINAL SINGLE POINT ENERGY     -1274.350292869909

DIPOLE MOMENT
-------------
                                X             Y             Z
Electronic contribution:      8.74367       9.73158      10.17106
Nuclear contribution   :     -9.92804     -11.34848     -10.55424
                        -----------------------------------------
Total Dipole Moment    :     -1.18437      -1.61690      -0.38318
                        -----------------------------------------
Magnitude (a.u.)       :      2.04057
Magnitude (Debye)      :      5.18673

Rotational constants in cm-1:     0.010768     0.008751     0.006067
Rotational constants in MHz :   322.804399   262.359927   181.895731

                             ****ORCA TERMINATED NORMALLY****
TOTAL RUN TIME: 0 days 1 hours 58 minutes 14 seconds 799 msec
