                         Program Version 5.0.0 -  RELEASE  -
|  1> ! ri-mp2 cc-pvtz cc-pvtz/c TightSCF NoKeepInts
|  2>
|  3> %scf
|  4>   MaxCore 4096
|  5> end
|  6> *xyz  0  1
|  7>     C       15.1434604   15.0685146   16.9988178
|  8>     C       16.3229962   14.1281386   16.6555502
|  9>     O       17.5895294   14.8077439   16.4637571
| 10>     C       17.6494517   16.1214580   16.1009989
| 11>     O       17.2080774   16.4710796   15.0206971
| 12>     C       17.8129363   17.0463413   17.2781321
| 13>     C       17.4368618   18.3503147   17.2401841
| 14>     C       16.6971465   19.0627145   16.1283486
| 15>     N       17.7831111   19.2067576   18.2901804
| 16>     C       18.6862083   18.9000490   19.2739561
| 17>     S       19.2003957   20.0233338   20.3734209
| 18>     N       19.1476811   17.6077537   19.2952759
| 19>     C       18.5769759   16.5038908   18.5004751
| 20>     C       17.7380494   15.6099636   19.4105909
| 21>     C       18.0611967   14.2480183   19.5618072
| 22>     C       17.3021520   13.4208288   20.4065347
| 23>     C       16.2153572   13.9608480   21.1146764
| 24>     C       15.8998260   15.3196017   20.9802879
| 25>     O       14.8519706   15.8448206   21.6632597
| 26>     C       16.6575876   16.1403307   20.1393416
| 27>     H       15.3534206   15.6838955   17.8774548
| 28>     H       14.2454599   14.4776183   17.2155476
| 29>     H       14.9052928   15.7301670   16.1566345
| 30>     H       16.4329259   13.3753093   17.4462956
| 31>     H       16.0707127   13.5935626   15.7304058
| 32>     H       17.3220275   19.1234170   15.2280160
| 33>     H       16.3986300   20.0825871   16.3975432
| 34>     H       15.7859586   18.5147661   15.8570381
| 35>     H       17.4643534   20.1625276   18.2780049
| 36>     H       19.7927015   17.4025329   20.0475859
| 37>     H       19.4176091   15.9058518   18.1212580
| 38>     H       18.8995030   13.8260000   19.0133907
| 39>     H       17.5583149   12.3678791   20.5119784
| 40>     H       15.6259706   13.3262022   21.7684300
| 41>     H       14.4937044   15.1466588   22.2318658
| 42>     H       16.3994439   17.1905228   20.0562581
| 43> *
| 44>
| 45>                          ****END OF INPUT****

CARTESIAN COORDINATES (ANGSTROEM)
---------------------------------
  C     15.143460   15.068515   16.998818
  C     16.322996   14.128139   16.655550
  O     17.589529   14.807744   16.463757
  C     17.649452   16.121458   16.100999
  O     17.208077   16.471080   15.020697
  C     17.812936   17.046341   17.278132
  C     17.436862   18.350315   17.240184
  C     16.697146   19.062714   16.128349
  N     17.783111   19.206758   18.290180
  C     18.686208   18.900049   19.273956
  S     19.200396   20.023334   20.373421
  N     19.147681   17.607754   19.295276
  C     18.576976   16.503891   18.500475
  C     17.738049   15.609964   19.410591
  C     18.061197   14.248018   19.561807
  C     17.302152   13.420829   20.406535
  C     16.215357   13.960848   21.114676
  C     15.899826   15.319602   20.980288
  O     14.851971   15.844821   21.663260
  C     16.657588   16.140331   20.139342
  H     15.353421   15.683896   17.877455
  H     14.245460   14.477618   17.215548
  H     14.905293   15.730167   16.156634
  H     16.432926   13.375309   17.446296
  H     16.070713   13.593563   15.730406
  H     17.322028   19.123417   15.228016
  H     16.398630   20.082587   16.397543
  H     15.785959   18.514766   15.857038
  H     17.464353   20.162528   18.278005
  H     19.792701   17.402533   20.047586
  H     19.417609   15.905852   18.121258
  H     18.899503   13.826000   19.013391
  H     17.558315   12.367879   20.511978
  H     15.625971   13.326202   21.768430
  H     14.493704   15.146659   22.231866
  H     16.399444   17.190523   20.056258

 Total Charge           Charge          ....    0
 Multiplicity           Mult            ....    1
 Number of Electrons    NEL             ....  154
 Basis Dimension        Dim             ....  828

ORBITAL ENERGIES
----------------

  NO   OCC          E(Eh)            E(eV)
   0   2.0000     -91.891210     -2500.4870
   1   2.0000     -20.600000      -560.5545
   2   2.0000     -20.579076      -559.9851
   3   2.0000     -20.549830      -559.1893
   4   2.0000     -15.631046      -425.3424
   5   2.0000     -15.609838      -424.7653
   6   2.0000     -11.394076      -310.0486
   7   2.0000     -11.385697      -309.8206
   8   2.0000     -11.336728      -308.4881
   9   2.0000     -11.317422      -307.9627
  10   2.0000     -11.312796      -307.8368
  11   2.0000     -11.299953      -307.4874
  12   2.0000     -11.263181      -306.4867
  13   2.0000     -11.260011      -306.4005
  14   2.0000     -11.258762      -306.3665
  15   2.0000     -11.253964      -306.2359
  16   2.0000     -11.247061      -306.0481
  17   2.0000     -11.241934      -305.9086
  18   2.0000     -11.241351      -305.8927
  19   2.0000     -11.225228      -305.4540
  20   2.0000      -8.896229      -242.0787
  21   2.0000      -6.577793      -178.9909
  22   2.0000      -6.575800      -178.9366
  23   2.0000      -6.575203      -178.9204
  24   2.0000      -1.445203       -39.3260
  25   2.0000      -1.419752       -38.6334
  26   2.0000      -1.350316       -36.7440
  27   2.0000      -1.342203       -36.5232
  28   2.0000      -1.240494       -33.7556
  29   2.0000      -1.160474       -31.5781
  30   2.0000      -1.121096       -30.5066
  31   2.0000      -1.045241       -28.4425
  32   2.0000      -1.031068       -28.0568
  33   2.0000      -1.019087       -27.7308
  34   2.0000      -0.999440       -27.1961
  35   2.0000      -0.986894       -26.8547
  36   2.0000      -0.925159       -25.1749
  37   2.0000      -0.896814       -24.4035
  38   2.0000      -0.848734       -23.0952
  39   2.0000      -0.842875       -22.9358
  40   2.0000      -0.837897       -22.8003
  41   2.0000      -0.818544       -22.2737
  42   2.0000      -0.745686       -20.2911
  43   2.0000      -0.734641       -19.9906
  44   2.0000      -0.722048       -19.6479
  45   2.0000      -0.699107       -19.0237
  46   2.0000      -0.691320       -18.8118
  47   2.0000      -0.673287       -18.3211
  48   2.0000      -0.670720       -18.2512
  49   2.0000      -0.661948       -18.0125
  50   2.0000      -0.652740       -17.7620
  51   2.0000      -0.645083       -17.5536
  52   2.0000      -0.637413       -17.3449
  53   2.0000      -0.625566       -17.0225
  54   2.0000      -0.610177       -16.6038
  55   2.0000      -0.602721       -16.4009
  56   2.0000      -0.600917       -16.3518
  57   2.0000      -0.580403       -15.7936
  58   2.0000      -0.572576       -15.5806
  59   2.0000      -0.565320       -15.3831
  60   2.0000      -0.547997       -14.9117
  61   2.0000      -0.544149       -14.8070
  62   2.0000      -0.535912       -14.5829
  63   2.0000      -0.531974       -14.4758
  64   2.0000      -0.527686       -14.3591
  65   2.0000      -0.515990       -14.0408
  66   2.0000      -0.504124       -13.7179
  67   2.0000      -0.496553       -13.5119
  68   2.0000      -0.481321       -13.0974
  69   2.0000      -0.464514       -12.6401
  70   2.0000      -0.454369       -12.3640
  71   2.0000      -0.443737       -12.0747
  72   2.0000      -0.357325        -9.7233
  73   2.0000      -0.351207        -9.5568
  74   2.0000      -0.330408        -8.9909
  75   2.0000      -0.325444        -8.8558
  76   2.0000      -0.318224        -8.6593
  77   0.0000       0.067529         1.8376
  78   0.0000       0.102348         2.7850
  79   0.0000       0.120697         3.2843
  80   0.0000       0.128773         3.5041
  81   0.0000       0.133234         3.6255

MULLIKEN ATOMIC CHARGES
-----------------------
   0 C :   -0.341434
   1 C :    0.040211
   2 O :   -0.396809
   3 C :    0.504152
   4 O :   -0.407744
   5 C :   -0.253843
   6 C :    0.153819
   7 C :   -0.272551
   8 N :   -0.122665
   9 C :    0.196689
  10 S :   -0.433003
  11 N :   -0.193761
  12 C :    0.044894
  13 C :    0.069431
  14 C :   -0.204434
  15 C :   -0.130734
  16 C :   -0.276743
  17 C :    0.318848
  18 O :   -0.357345
  19 C :   -0.284700
  20 H :    0.112050
  21 H :    0.113074
  22 H :    0.117267
  23 H :    0.114251
  24 H :    0.120532
  25 H :    0.137310
  26 H :    0.094979
  27 H :    0.126941
  28 H :    0.198139
  29 H :    0.191403
  30 H :    0.150341
  31 H :    0.157386
  32 H :    0.166433
  33 H :    0.133267
  34 H :    0.240995
  35 H :    0.173354
Sum of atomic charges:   -0.0000000

LOEWDIN ATOMIC CHARGES
----------------------
   0 C :    0.106920
   1 C :   -0.008149
   2 O :    0.277417
   3 C :   -0.422552
   4 O :    0.122615
   5 C :   -0.097384
   6 C :   -0.060819
   7 C :    0.130703
   8 N :    0.406683
   9 C :   -0.458976
  10 S :   -0.031486
  11 N :    0.396441
  12 C :   -0.052029
  13 C :   -0.039090
  14 C :    0.018428
  15 C :    0.039280
  16 C :   -0.002042
  17 C :   -0.191055
  18 O :    0.396368
  19 C :    0.032583
  20 H :   -0.035043
  21 H :   -0.022280
  22 H :   -0.028423
  23 H :   -0.027047
  24 H :   -0.028015
  25 H :   -0.003046
  26 H :   -0.023021
  27 H :   -0.007161
  28 H :   -0.057772
  29 H :   -0.064885
  30 H :   -0.006439
  31 H :   -0.027900
  32 H :   -0.020562
  33 H :   -0.034773
  34 H :   -0.153188
  35 H :   -0.024302

  Mayer bond orders larger than 0.100000
B(  0-C ,  1-C ) :   0.9571 B(  0-C , 20-H ) :   0.9687 B(  0-C , 21-H ) :   0.9771
B(  0-C , 22-H ) :   0.9728 B(  1-C ,  2-O ) :   0.8787 B(  1-C , 23-H ) :   0.9751
B(  1-C , 24-H ) :   0.9867 B(  2-O ,  3-C ) :   1.1016 B(  3-C ,  4-O ) :   2.0199
B(  3-C ,  5-C ) :   1.0420 B(  5-C ,  6-C ) :   1.6583 B(  5-C , 12-C ) :   0.9658
B(  6-C ,  7-C ) :   0.9678 B(  6-C ,  8-N ) :   1.1441 B(  7-C , 25-H ) :   0.9570
B(  7-C , 26-H ) :   0.9883 B(  7-C , 27-H ) :   0.9660 B(  8-N ,  9-C ) :   1.1788
B(  8-N , 28-H ) :   0.9486 B(  9-C , 10-S ) :   1.6203 B(  9-C , 11-N ) :   1.2974
B( 11-N , 12-C ) :   0.9892 B( 11-N , 29-H ) :   0.9535 B( 12-C , 13-C ) :   0.9413
B( 12-C , 30-H ) :   1.0043 B( 13-C , 14-C ) :   1.3510 B( 13-C , 19-C ) :   1.3621
B( 14-C , 15-C ) :   1.3851 B( 14-C , 31-H ) :   0.9706 B( 15-C , 16-C ) :   1.3636
B( 15-C , 32-H ) :   0.9694 B( 16-C , 17-C ) :   1.3290 B( 16-C , 33-H ) :   0.9837
B( 17-C , 18-O ) :   1.1132 B( 17-C , 19-C ) :   1.3736 B( 18-O , 34-H ) :   0.9797
B( 19-C , 35-H ) :   0.9584

MP2 TOTAL ENERGY:    -1274.324276555 Eh
FINAL SINGLE POINT ENERGY     -1274.324276554629

DIPOLE MOMENT
-------------
                                X             Y             Z
Electronic contribution:     10.09432       7.90327       5.83479
Nuclear contribution   :    -11.22632      -9.49163      -5.74956
                        -----------------------------------------
Total Dipole Moment    :     -1.13200      -1.58836       0.08523
                        -----------------------------------------
Magnitude (a.u.)       :      1.95233
Magnitude (Debye)      :      4.96242

Rotational constants in cm-1:     0.011922     0.009823     0.006662
Rotational constants in MHz :   357.401815   294.498941   199.723986

                             ****ORCA TERMINATED NORMALLY****
TOTAL RUN TIME: 0 days 2 hours 13 minutes 14 seconds 830 msec
