                         Program Version 5.0.0 -  RELEASE  -
|  1> ! ri-mp2 cc-pvtz cc-pvtz/c TightSCF NoKeepInts
|  2>
|  3> %scf
|  4>   MaxCore 4096
|  5> end
|  6> *xyz  0  1
|  7>     C       15.6013678   13.6709908   15.2277028
|  8>     C       15.2818186   15.1786272   15.1387475
|  9>     O       16.0695770   16.0636721   15.9819809
| 10>     C       17.0852654   15.7469652   16.8484731
| 11>     O       17.5706930   14.6354760   16.9683531
| 12>     C       17.5962971   16.9119837   17.6546339
| 13>     C       17.2530264   18.2166083   17.4745151
| 14>     C       16.2999657   18.8110433   16.4568720
| 15>     N       17.8572623   19.2077233   18.2562911
| 16>     C       18.9054935   19.0028571   19.1134023
| 17>     S       19.6520139   20.2556209   19.8938517
| 18>     N       19.3020623   17.7025440   19.2900477
| 19>     C       18.5850032   16.5267384   18.7634194
| 20>     C       17.8808994   15.7809158   19.8945074
| 21>     C       18.1166684   14.4085305   20.0974711
| 22>     C       17.4707926   13.7158422   21.1352203
| 23>     C       16.5802970   14.4005893   21.9794139
| 24>     C       16.3396296   15.7665639   21.7788439
| 25>     O       15.4756693   16.4293324   22.5886485
| 26>     C       16.9836289   16.4531795   20.7447531
| 27>     H       16.6280452   13.4637855   14.9005671
| 28>     H       14.9254422   13.1018081   14.5784329
| 29>     H       15.4716274   13.2988699   16.2519127
| 30>     H       15.4051118   15.4942501   14.0947783
| 31>     H       14.2223840   15.3189893   15.3890137
| 32>     H       15.2789274   18.4457128   16.6231230
| 33>     H       16.5990159   18.5363911   15.4377219
| 34>     H       16.2635492   19.9064095   16.4975212
| 35>     H       17.5801917   20.1693492   18.1413075
| 36>     H       20.0560635   17.5723854   19.9521168
| 37>     H       19.3359104   15.8540750   18.3241839
| 38>     H       18.7916010   13.8726600   19.4344097
| 39>     H       17.6572300   12.6528453   21.2766807
| 40>     H       16.0777843   13.8690746   22.7805426
| 41>     H       15.1613247   15.7987620   23.2536767
| 42>     H       16.7853596   17.5108283   20.6108626
| 43> *
| 44>
| 45>                          ****END OF INPUT****

CARTESIAN COORDINATES (ANGSTROEM)
---------------------------------
  C     15.601368   13.670991   15.227703
  C     15.281819   15.178627   15.138747
  O     16.069577   16.063672   15.981981
  C     17.085265   15.746965   16.848473
  O     17.570693   14.635476   16.968353
  C     17.596297   16.911984   17.654634
  C     17.253026   18.216608   17.474515
  C     16.299966   18.811043   16.456872
  N     17.857262   19.207723   18.256291
  C     18.905493   19.002857   19.113402
  S     19.652014   20.255621   19.893852
  N     19.302062   17.702544   19.290048
  C     18.585003   16.526738   18.763419
  C     17.880899   15.780916   19.894507
  C     18.116668   14.408530   20.097471
  C     17.470793   13.715842   21.135220
  C     16.580297   14.400589   21.979414
  C     16.339630   15.766564   21.778844
  O     15.475669   16.429332   22.588649
  C     16.983629   16.453180   20.744753
  H     16.628045   13.463786   14.900567
  H     14.925442   13.101808   14.578433
  H     15.471627   13.298870   16.251913
  H     15.405112   15.494250   14.094778
  H     14.222384   15.318989   15.389014
  H     15.278927   18.445713   16.623123
  H     16.599016   18.536391   15.437722
  H     16.263549   19.906409   16.497521
  H     17.580192   20.169349   18.141307
  H     20.056064   17.572385   19.952117
  H     19.335910   15.854075   18.324184
  H     18.791601   13.872660   19.434410
  H     17.657230   12.652845   21.276681
  H     16.077784   13.869075   22.780543
  H     15.161325   15.798762   23.253677
  H     16.785360   17.510828   20.610863

 Total Charge           Charge          ....    0
 Multiplicity           Mult            ....    1
 Number of Electrons    NEL             ....  154
 Basis Dimension        Dim             ....  828

ORBITAL ENERGIES
----------------

  NO   OCC          E(Eh)            E(eV)
   0   2.0000     -91.887120     -2500.3757
   1   2.0000     -20.601662      -560.5997
   2   2.0000     -20.590408      -560.2935
   3   2.0000     -20.542309      -558.9846
   4   2.0000     -15.627309      -425.2407
   5   2.0000     -15.605513      -424.6476
   6   2.0000     -11.399465      -310.1952
   7   2.0000     -11.381647      -309.7104
   8   2.0000     -11.335722      -308.4607
   9   2.0000     -11.307904      -307.7037
  10   2.0000     -11.306104      -307.6547
  11   2.0000     -11.303648      -307.5879
  12   2.0000     -11.259755      -306.3935
  13   2.0000     -11.257822      -306.3409
  14   2.0000     -11.251950      -306.1811
  15   2.0000     -11.246259      -306.0263
  16   2.0000     -11.235895      -305.7442
  17   2.0000     -11.231978      -305.6377
  18   2.0000     -11.228858      -305.5528
  19   2.0000     -11.225265      -305.4550
  20   2.0000      -8.892189      -241.9688
  21   2.0000      -6.573769      -178.8813
  22   2.0000      -6.571762      -178.8267
  23   2.0000      -6.571177      -178.8108
  24   2.0000      -1.444569       -39.3087
  25   2.0000      -1.410139       -38.3718
  26   2.0000      -1.356563       -36.9139
  27   2.0000      -1.338415       -36.4201
  28   2.0000      -1.235890       -33.6303
  29   2.0000      -1.150492       -31.3065
  30   2.0000      -1.117337       -30.4043
  31   2.0000      -1.041535       -28.3416
  32   2.0000      -1.034591       -28.1526
  33   2.0000      -1.008050       -27.4304
  34   2.0000      -0.996043       -27.1037
  35   2.0000      -0.981306       -26.7027
  36   2.0000      -0.920388       -25.0450
  37   2.0000      -0.897589       -24.4246
  38   2.0000      -0.847279       -23.0556
  39   2.0000      -0.834781       -22.7156
  40   2.0000      -0.826465       -22.4893
  41   2.0000      -0.816687       -22.2232
  42   2.0000      -0.742359       -20.2006
  43   2.0000      -0.725440       -19.7402
  44   2.0000      -0.723115       -19.6770
  45   2.0000      -0.688905       -18.7460
  46   2.0000      -0.683239       -18.5919
  47   2.0000      -0.677021       -18.4227
  48   2.0000      -0.673710       -18.3326
  49   2.0000      -0.664218       -18.0743
  50   2.0000      -0.645914       -17.5762
  51   2.0000      -0.642869       -17.4934
  52   2.0000      -0.633544       -17.2396
  53   2.0000      -0.602493       -16.3947
  54   2.0000      -0.599467       -16.3123
  55   2.0000      -0.597412       -16.2564
  56   2.0000      -0.593953       -16.1623
  57   2.0000      -0.583299       -15.8724
  58   2.0000      -0.571722       -15.5574
  59   2.0000      -0.570044       -15.5117
  60   2.0000      -0.558402       -15.1949
  61   2.0000      -0.540783       -14.7154
  62   2.0000      -0.537630       -14.6296
  63   2.0000      -0.526556       -14.3283
  64   2.0000      -0.516123       -14.0444
  65   2.0000      -0.510187       -13.8829
  66   2.0000      -0.498331       -13.5603
  67   2.0000      -0.493937       -13.4407
  68   2.0000      -0.479079       -13.0364
  69   2.0000      -0.462185       -12.5767
  70   2.0000      -0.451100       -12.2750
  71   2.0000      -0.447214       -12.1693
  72   2.0000      -0.353057        -9.6072
  73   2.0000      -0.342648        -9.3239
  74   2.0000      -0.326265        -8.8781
  75   2.0000      -0.314587        -8.5604
  76   2.0000      -0.312262        -8.4971
  77   0.0000       0.076850         2.0912
  78   0.0000       0.115068         3.1311
  79   0.0000       0.121167         3.2971
  80   0.0000       0.136726         3.7205
  81   0.0000       0.139261         3.7895

MULLIKEN ATOMIC CHARGES
-----------------------
   0 C :   -0.287809
   1 C :    0.050069
   2 O :   -0.358416
   3 C :    0.444599
   4 O :   -0.432040
   5 C :   -0.154515
   6 C :    0.140888
   7 C :   -0.286434
   8 N :   -0.119771
   9 C :    0.200569
  10 S :   -0.440445
  11 N :   -0.196382
  12 C :    0.028818
  13 C :    0.060970
  14 C :   -0.162370
  15 C :   -0.134166
  16 C :   -0.279026
  17 C :    0.311651
  18 O :   -0.359312
  19 C :   -0.273115
  20 H :    0.112970
  21 H :    0.097567
  22 H :    0.111419
  23 H :    0.089212
  24 H :    0.090574
  25 H :    0.127117
  26 H :    0.126526
  27 H :    0.103037
  28 H :    0.196168
  29 H :    0.193320
  30 H :    0.154467
  31 H :    0.153475
  32 H :    0.158594
  33 H :    0.127541
  34 H :    0.239866
  35 H :    0.164387
Sum of atomic charges:   -0.0000000

LOEWDIN ATOMIC CHARGES
----------------------
   0 C :    0.102848
   1 C :   -0.007922
   2 O :    0.293429
   3 C :   -0.413087
   4 O :    0.112109
   5 C :   -0.090185
   6 C :   -0.063934
   7 C :    0.124017
   8 N :    0.404693
   9 C :   -0.459757
  10 S :   -0.036951
  11 N :    0.398183
  12 C :   -0.046998
  13 C :   -0.038471
  14 C :    0.021828
  15 C :    0.040381
  16 C :   -0.002634
  17 C :   -0.192619
  18 O :    0.392857
  19 C :    0.028372
  20 H :   -0.024649
  21 H :   -0.027588
  22 H :   -0.024018
  23 H :   -0.028817
  24 H :   -0.027937
  25 H :   -0.009732
  26 H :   -0.008771
  27 H :   -0.021689
  28 H :   -0.059630
  29 H :   -0.063618
  30 H :   -0.005818
  31 H :   -0.025418
  32 H :   -0.021490
  33 H :   -0.036619
  34 H :   -0.155085
  35 H :   -0.025280

  Mayer bond orders larger than 0.100000
B(  0-C ,  1-C ) :   0.9844 B(  0-C , 20-H ) :   0.9730 B(  0-C , 21-H ) :   0.9726
B(  0-C , 22-H ) :   0.9735 B(  1-C ,  2-O ) :   0.8977 B(  1-C , 23-H ) :   0.9778
B(  1-C , 24-H ) :   0.9784 B(  2-O ,  3-C ) :   1.1511 B(  3-C ,  4-O ) :   1.9731
B(  3-C ,  5-C ) :   1.0637 B(  5-C ,  6-C ) :   1.6476 B(  5-C , 12-C ) :   0.9667
B(  6-C ,  7-C ) :   0.9549 B(  6-C ,  8-N ) :   1.1501 B(  7-C , 25-H ) :   0.9650
B(  7-C , 26-H ) :   0.9650 B(  7-C , 27-H ) :   0.9923 B(  8-N ,  9-C ) :   1.1776
B(  8-N , 28-H ) :   0.9487 B(  9-C , 10-S ) :   1.6098 B(  9-C , 11-N ) :   1.3059
B( 11-N , 12-C ) :   0.9915 B( 11-N , 29-H ) :   0.9522 B( 12-C , 13-C ) :   0.9467
B( 12-C , 30-H ) :   1.0010 B( 13-C , 14-C ) :   1.3745 B( 13-C , 19-C ) :   1.3696
B( 14-C , 15-C ) :   1.3946 B( 14-C , 31-H ) :   0.9650 B( 15-C , 16-C ) :   1.3621
B( 15-C , 32-H ) :   0.9716 B( 16-C , 17-C ) :   1.3317 B( 16-C , 33-H ) :   0.9862
B( 17-C , 18-O ) :   1.1078 B( 17-C , 19-C ) :   1.3794 B( 18-O , 34-H ) :   0.9808
B( 19-C , 35-H ) :   0.9583

MP2 TOTAL ENERGY:    -1274.336992625 Eh
FINAL SINGLE POINT ENERGY     -1274.336992624771

DIPOLE MOMENT
-------------
                                X             Y             Z
Electronic contribution:      9.83973      10.16313      11.19152
Nuclear contribution   :    -11.51514     -11.31737     -12.29685
                        -----------------------------------------
Total Dipole Moment    :     -1.67541      -1.15424      -1.10532
                        -----------------------------------------
Magnitude (a.u.)       :      2.31539
Magnitude (Debye)      :      5.88525

Rotational constants in cm-1:     0.010578     0.008822     0.005765
Rotational constants in MHz :   317.127814   264.463173   172.822876

                             ****ORCA TERMINATED NORMALLY****
TOTAL RUN TIME: 0 days 2 hours 1 minutes 2 seconds 438 msec
