                         Program Version 5.0.0 -  RELEASE  -
|  1> ! ri-mp2 cc-pvtz cc-pvtz/c TightSCF NoKeepInts
|  2>
|  3> %scf
|  4>   MaxCore 4096
|  5> end
|  6> *xyz  0  1
|  7>     C       14.8806691   14.2910842   16.1393250
|  8>     C       16.0773443   14.6510262   17.0354403
|  9>     O       17.1305902   15.1114172   16.1699206
| 10>     C       17.4077364   16.4445088   16.0566556
| 11>     O       17.2677655   16.9938623   14.9799613
| 12>     C       17.6736384   17.1926963   17.3356732
| 13>     C       17.3376141   18.5001646   17.4702489
| 14>     C       16.5036583   19.3298712   16.5186570
| 15>     N       17.8209346   19.2376180   18.5551984
| 16>     C       18.8422516   18.8240310   19.3702838
| 17>     S       19.5276060   19.8242463   20.4948195
| 18>     N       19.2785429   17.5344752   19.1916060
| 19>     C       18.5649945   16.5177949   18.3961980
| 20>     C       17.8311279   15.5887824   19.3568751
| 21>     C       18.2504163   14.2533712   19.5084211
| 22>     C       17.5839095   13.3911293   20.3951585
| 23>     C       16.4954014   13.8695123   21.1441122
| 24>     C       16.0857556   15.2027966   21.0090559
| 25>     O       15.0364391   15.6689896   21.7311080
| 26>     C       16.7493238   16.0583309   20.1242982
| 27>     H       14.5344460   15.1714490   15.5830259
| 28>     H       14.0458669   13.9147097   16.7428381
| 29>     H       15.1598932   13.5149960   15.4156384
| 30>     H       15.7648639   15.4170066   17.7543856
| 31>     H       16.3995509   13.7546956   17.5801420
| 32>     H       15.6400661   18.7591847   16.1546417
| 33>     H       17.0971626   19.6165124   15.6406010
| 34>     H       16.1186338   20.2462253   16.9812180
| 35>     H       17.5306288   20.1951276   18.6758771
| 36>     H       20.0225586   17.2520689   19.8169054
| 37>     H       19.3195579   15.9258031   17.8586830
| 38>     H       19.0928010   13.8791055   18.9319388
| 39>     H       17.9134043   12.3587156   20.5026520
| 40>     H       15.9785052   13.2071432   21.8311691
| 41>     H       14.7609514   14.9641644   22.3369711
| 42>     H       16.4223897   17.0893841   20.0442963
| 43> *
| 44>
| 45>                          ****END OF INPUT****

CARTESIAN COORDINATES (ANGSTROEM)
---------------------------------
  C     14.880669   14.291084   16.139325
  C     16.077344   14.651026   17.035440
  O     17.130590   15.111417   16.169921
  C     17.407736   16.444509   16.056656
  O     17.267765   16.993862   14.979961
  C     17.673638   17.192696   17.335673
  C     17.337614   18.500165   17.470249
  C     16.503658   19.329871   16.518657
  N     17.820935   19.237618   18.555198
  C     18.842252   18.824031   19.370284
  S     19.527606   19.824246   20.494819
  N     19.278543   17.534475   19.191606
  C     18.564994   16.517795   18.396198
  C     17.831128   15.588782   19.356875
  C     18.250416   14.253371   19.508421
  C     17.583910   13.391129   20.395158
  C     16.495401   13.869512   21.144112
  C     16.085756   15.202797   21.009056
  O     15.036439   15.668990   21.731108
  C     16.749324   16.058331   20.124298
  H     14.534446   15.171449   15.583026
  H     14.045867   13.914710   16.742838
  H     15.159893   13.514996   15.415638
  H     15.764864   15.417007   17.754386
  H     16.399551   13.754696   17.580142
  H     15.640066   18.759185   16.154642
  H     17.097163   19.616512   15.640601
  H     16.118634   20.246225   16.981218
  H     17.530629   20.195128   18.675877
  H     20.022559   17.252069   19.816905
  H     19.319558   15.925803   17.858683
  H     19.092801   13.879105   18.931939
  H     17.913404   12.358716   20.502652
  H     15.978505   13.207143   21.831169
  H     14.760951   14.964164   22.336971
  H     16.422390   17.089384   20.044296

 Total Charge           Charge          ....    0
 Multiplicity           Mult            ....    1
 Number of Electrons    NEL             ....  154
 Basis Dimension        Dim             ....  828

ORBITAL ENERGIES
----------------

  NO   OCC          E(Eh)            E(eV)
   0   2.0000     -91.892087     -2500.5108
   1   2.0000     -20.604375      -560.6736
   2   2.0000     -20.587851      -560.2239
   3   2.0000     -20.548084      -559.1418
   4   2.0000     -15.631415      -425.3524
   5   2.0000     -15.611662      -424.8149
   6   2.0000     -11.393290      -310.0272
   7   2.0000     -11.386837      -309.8516
   8   2.0000     -11.336152      -308.4724
   9   2.0000     -11.322606      -308.1038
  10   2.0000     -11.317424      -307.9628
  11   2.0000     -11.295240      -307.3591
  12   2.0000     -11.267387      -306.6012
  13   2.0000     -11.263800      -306.5036
  14   2.0000     -11.260611      -306.4168
  15   2.0000     -11.255274      -306.2716
  16   2.0000     -11.251895      -306.1796
  17   2.0000     -11.246423      -306.0307
  18   2.0000     -11.245722      -306.0117
  19   2.0000     -11.223142      -305.3972
  20   2.0000      -8.897096      -242.1023
  21   2.0000      -6.578657      -179.0144
  22   2.0000      -6.576666      -178.9602
  23   2.0000      -6.576067      -178.9439
  24   2.0000      -1.446235       -39.3540
  25   2.0000      -1.424080       -38.7512
  26   2.0000      -1.355265       -36.8786
  27   2.0000      -1.343339       -36.5541
  28   2.0000      -1.242317       -33.8052
  29   2.0000      -1.165134       -31.7049
  30   2.0000      -1.123143       -30.5623
  31   2.0000      -1.049358       -28.5545
  32   2.0000      -1.032203       -28.0877
  33   2.0000      -1.023861       -27.8607
  34   2.0000      -1.001404       -27.2496
  35   2.0000      -0.988077       -26.8870
  36   2.0000      -0.928157       -25.2564
  37   2.0000      -0.880664       -23.9641
  38   2.0000      -0.852386       -23.1946
  39   2.0000      -0.847237       -23.0545
  40   2.0000      -0.842032       -22.9129
  41   2.0000      -0.834302       -22.7025
  42   2.0000      -0.758145       -20.6302
  43   2.0000      -0.738021       -20.0826
  44   2.0000      -0.719941       -19.5906
  45   2.0000      -0.703947       -19.1554
  46   2.0000      -0.694217       -18.8906
  47   2.0000      -0.679489       -18.4898
  48   2.0000      -0.671137       -18.2626
  49   2.0000      -0.669521       -18.2186
  50   2.0000      -0.653099       -17.7717
  51   2.0000      -0.648362       -17.6428
  52   2.0000      -0.640182       -17.4203
  53   2.0000      -0.614753       -16.7283
  54   2.0000      -0.608379       -16.5548
  55   2.0000      -0.603497       -16.4220
  56   2.0000      -0.589874       -16.0513
  57   2.0000      -0.583987       -15.8911
  58   2.0000      -0.576931       -15.6991
  59   2.0000      -0.573582       -15.6079
  60   2.0000      -0.562619       -15.3096
  61   2.0000      -0.547975       -14.9111
  62   2.0000      -0.541700       -14.7404
  63   2.0000      -0.532341       -14.4857
  64   2.0000      -0.520684       -14.1685
  65   2.0000      -0.516349       -14.0506
  66   2.0000      -0.507898       -13.8206
  67   2.0000      -0.501648       -13.6505
  68   2.0000      -0.484099       -13.1730
  69   2.0000      -0.467698       -12.7267
  70   2.0000      -0.450212       -12.2509
  71   2.0000      -0.446613       -12.1529
  72   2.0000      -0.360258        -9.8031
  73   2.0000      -0.355541        -9.6748
  74   2.0000      -0.332961        -9.0603
  75   2.0000      -0.329142        -8.9564
  76   2.0000      -0.319372        -8.6906
  77   0.0000       0.071760         1.9527
  78   0.0000       0.097864         2.6630
  79   0.0000       0.118917         3.2359
  80   0.0000       0.126698         3.4476
  81   0.0000       0.128916         3.5080

MULLIKEN ATOMIC CHARGES
-----------------------
   0 C :   -0.256260
   1 C :    0.020691
   2 O :   -0.346494
   3 C :    0.439418
   4 O :   -0.379079
   5 C :   -0.271113
   6 C :    0.160791
   7 C :   -0.272334
   8 N :   -0.129154
   9 C :    0.207183
  10 S :   -0.433012
  11 N :   -0.191297
  12 C :    0.041250
  13 C :    0.046966
  14 C :   -0.202768
  15 C :   -0.129329
  16 C :   -0.272014
  17 C :    0.309912
  18 O :   -0.354886
  19 C :   -0.253332
  20 H :    0.095714
  21 H :    0.087441
  22 H :    0.101249
  23 H :    0.101109
  24 H :    0.111260
  25 H :    0.121902
  26 H :    0.141960
  27 H :    0.094309
  28 H :    0.198857
  29 H :    0.190947
  30 H :    0.150086
  31 H :    0.152786
  32 H :    0.166598
  33 H :    0.134791
  34 H :    0.242251
  35 H :    0.173603
Sum of atomic charges:    0.0000000

LOEWDIN ATOMIC CHARGES
----------------------
   0 C :    0.106199
   1 C :   -0.025747
   2 O :    0.297631
   3 C :   -0.425163
   4 O :    0.125835
   5 C :   -0.098846
   6 C :   -0.067790
   7 C :    0.129927
   8 N :    0.406032
   9 C :   -0.456592
  10 S :   -0.030401
  11 N :    0.396400
  12 C :   -0.051598
  13 C :   -0.040053
  14 C :    0.013667
  15 C :    0.042522
  16 C :    0.000648
  17 C :   -0.190583
  18 O :    0.397068
  19 C :    0.032800
  20 H :   -0.026873
  21 H :   -0.028707
  22 H :   -0.025132
  23 H :   -0.036362
  24 H :   -0.026300
  25 H :   -0.007492
  26 H :   -0.002337
  27 H :   -0.022361
  28 H :   -0.057210
  29 H :   -0.065249
  30 H :   -0.005453
  31 H :   -0.029112
  32 H :   -0.019228
  33 H :   -0.033553
  34 H :   -0.151985
  35 H :   -0.024603

  Mayer bond orders larger than 0.100000
B(  0-C ,  1-C ) :   0.9768 B(  0-C , 20-H ) :   0.9766 B(  0-C , 21-H ) :   0.9772
B(  0-C , 22-H ) :   0.9809 B(  1-C ,  2-O ) :   0.8798 B(  1-C , 23-H ) :   0.9618
B(  1-C , 24-H ) :   0.9783 B(  2-O ,  3-C ) :   1.1589 B(  3-C ,  4-O ) :   2.0780
B(  3-C ,  5-C ) :   0.9849 B(  5-C ,  6-C ) :   1.6750 B(  5-C , 12-C ) :   0.9694
B(  6-C ,  7-C ) :   0.9657 B(  6-C ,  8-N ) :   1.1429 B(  7-C , 25-H ) :   0.9705
B(  7-C , 26-H ) :   0.9549 B(  7-C , 27-H ) :   0.9852 B(  8-N ,  9-C ) :   1.1804
B(  8-N , 28-H ) :   0.9494 B(  9-C , 10-S ) :   1.6196 B(  9-C , 11-N ) :   1.2941
B( 11-N , 12-C ) :   0.9809 B( 11-N , 29-H ) :   0.9543 B( 12-C , 13-C ) :   0.9533
B( 12-C , 30-H ) :   1.0045 B( 13-C , 14-C ) :   1.3541 B( 13-C , 19-C ) :   1.3556
B( 14-C , 15-C ) :   1.3827 B( 14-C , 31-H ) :   0.9757 B( 15-C , 16-C ) :   1.3712
B( 15-C , 32-H ) :   0.9687 B( 16-C , 17-C ) :   1.3234 B( 16-C , 33-H ) :   0.9830
B( 17-C , 18-O ) :   1.1160 B( 17-C , 19-C ) :   1.3798 B( 18-O , 34-H ) :   0.9786
B( 19-C , 35-H ) :   0.9558

MP2 TOTAL ENERGY:    -1274.329999213 Eh
FINAL SINGLE POINT ENERGY     -1274.329999212946

DIPOLE MOMENT
-------------
                                X             Y             Z
Electronic contribution:     10.84580       8.79230       6.53712
Nuclear contribution   :    -12.09736     -10.36774      -5.97362
                        -----------------------------------------
Total Dipole Moment    :     -1.25156      -1.57544       0.56350
                        -----------------------------------------
Magnitude (a.u.)       :      2.08948
Magnitude (Debye)      :      5.31105

Rotational constants in cm-1:     0.011399     0.009631     0.006405
Rotational constants in MHz :   341.739602   288.734340   192.015867

                             ****ORCA TERMINATED NORMALLY****
TOTAL RUN TIME: 0 days 2 hours 15 minutes 31 seconds 969 msec
