                         Program Version 5.0.0 -  RELEASE  -
|  1> ! ri-mp2 cc-pvtz cc-pvtz/c TightSCF NoKeepInts
|  2>
|  3> %scf
|  4>   MaxCore 4096
|  5> end
|  6> *xyz  0  1
|  7>     C       15.3964467   13.6242674   15.6806280
|  8>     C       15.7716578   14.4914435   16.8939226
|  9>     O       16.8962840   15.3057079   16.5152897
| 10>     C       16.7145086   16.6563805   16.4496556
| 11>     O       15.7674783   17.1291402   15.8455492
| 12>     C       17.5066270   17.4070014   17.4863263
| 13>     C       17.3913419   18.7493929   17.6556255
| 14>     C       16.4869747   19.6966801   16.8961630
| 15>     N       18.1936053   19.4098826   18.5909052
| 16>     C       19.2184002   18.8311123   19.2904773
| 17>     S       20.1993909   19.7077547   20.2929458
| 18>     N       19.3972724   17.4836235   19.1094630
| 19>     C       18.4879306   16.6016504   18.3561163
| 20>     C       17.7794956   15.6625632   19.3278964
| 21>     C       18.2012798   14.3254967   19.4536421
| 22>     C       17.5520925   13.4514150   20.3416915
| 23>     C       16.4753407   13.9189089   21.1142192
| 24>     C       16.0592618   15.2523132   20.9991834
| 25>     O       15.0216762   15.7074940   21.7452545
| 26>     C       16.7062942   16.1196459   20.1136983
| 27>     H       15.1027167   14.2572482   14.8334828
| 28>     H       14.5549037   12.9645694   15.9238478
| 29>     H       16.2452024   13.0021717   15.3709337
| 30>     H       14.9134731   15.1043009   17.2035272
| 31>     H       16.0473250   13.8411119   17.7335433
| 32>     H       15.4329233   19.4446222   17.0697303
| 33>     H       16.6671234   19.6211242   15.8162146
| 34>     H       16.6283440   20.7459995   17.1804359
| 35>     H       18.0796842   20.4009863   18.7319552
| 36>     H       20.1403985   17.0797517   19.6648587
| 37>     H       19.1046047   15.9939558   17.6787371
| 38>     H       19.0320258   13.9605735   18.8552681
| 39>     H       17.8847867   12.4184655   20.4305852
| 40>     H       15.9716720   13.2480216   21.8026099
| 41>     H       14.7445780   14.9872610   22.3315378
| 42>     H       16.3738793   17.1499624   20.0480794
| 43> *
| 44>
| 45>                          ****END OF INPUT****

CARTESIAN COORDINATES (ANGSTROEM)
---------------------------------
  C     15.396447   13.624267   15.680628
  C     15.771658   14.491444   16.893923
  O     16.896284   15.305708   16.515290
  C     16.714509   16.656381   16.449656
  O     15.767478   17.129140   15.845549
  C     17.506627   17.407001   17.486326
  C     17.391342   18.749393   17.655625
  C     16.486975   19.696680   16.896163
  N     18.193605   19.409883   18.590905
  C     19.218400   18.831112   19.290477
  S     20.199391   19.707755   20.292946
  N     19.397272   17.483624   19.109463
  C     18.487931   16.601650   18.356116
  C     17.779496   15.662563   19.327896
  C     18.201280   14.325497   19.453642
  C     17.552093   13.451415   20.341691
  C     16.475341   13.918909   21.114219
  C     16.059262   15.252313   20.999183
  O     15.021676   15.707494   21.745255
  C     16.706294   16.119646   20.113698
  H     15.102717   14.257248   14.833483
  H     14.554904   12.964569   15.923848
  H     16.245202   13.002172   15.370934
  H     14.913473   15.104301   17.203527
  H     16.047325   13.841112   17.733543
  H     15.432923   19.444622   17.069730
  H     16.667123   19.621124   15.816215
  H     16.628344   20.745999   17.180436
  H     18.079684   20.400986   18.731955
  H     20.140398   17.079752   19.664859
  H     19.104605   15.993956   17.678737
  H     19.032026   13.960574   18.855268
  H     17.884787   12.418465   20.430585
  H     15.971672   13.248022   21.802610
  H     14.744578   14.987261   22.331538
  H     16.373879   17.149962   20.048079

 Total Charge           Charge          ....    0
 Multiplicity           Mult            ....    1
 Number of Electrons    NEL             ....  154
 Basis Dimension        Dim             ....  828

ORBITAL ENERGIES
----------------

  NO   OCC          E(Eh)            E(eV)
   0   2.0000     -91.890067     -2500.4558
   1   2.0000     -20.600749      -560.5749
   2   2.0000     -20.586857      -560.1969
   3   2.0000     -20.545853      -559.0811
   4   2.0000     -15.630512      -425.3279
   5   2.0000     -15.609504      -424.7562
   6   2.0000     -11.393886      -310.0434
   7   2.0000     -11.385100      -309.8043
   8   2.0000     -11.337166      -308.5000
   9   2.0000     -11.318458      -307.9909
  10   2.0000     -11.311086      -307.7903
  11   2.0000     -11.293104      -307.3010
  12   2.0000     -11.263522      -306.4960
  13   2.0000     -11.259765      -306.3938
  14   2.0000     -11.259585      -306.3889
  15   2.0000     -11.253361      -306.2195
  16   2.0000     -11.247171      -306.0511
  17   2.0000     -11.242069      -305.9123
  18   2.0000     -11.241860      -305.9066
  19   2.0000     -11.220000      -305.3117
  20   2.0000      -8.895120      -242.0485
  21   2.0000      -6.576692      -178.9609
  22   2.0000      -6.574690      -178.9064
  23   2.0000      -6.574100      -178.8904
  24   2.0000      -1.449429       -39.4410
  25   2.0000      -1.420390       -38.6508
  26   2.0000      -1.352897       -36.8142
  27   2.0000      -1.341563       -36.5058
  28   2.0000      -1.240184       -33.7471
  29   2.0000      -1.161307       -31.6008
  30   2.0000      -1.121460       -30.5165
  31   2.0000      -1.045397       -28.4467
  32   2.0000      -1.032959       -28.1082
  33   2.0000      -1.019400       -27.7393
  34   2.0000      -0.996871       -27.1262
  35   2.0000      -0.985153       -26.8074
  36   2.0000      -0.924803       -25.1652
  37   2.0000      -0.882041       -24.0015
  38   2.0000      -0.849026       -23.1032
  39   2.0000      -0.841256       -22.8917
  40   2.0000      -0.837532       -22.7904
  41   2.0000      -0.824941       -22.4478
  42   2.0000      -0.759591       -20.6695
  43   2.0000      -0.735203       -20.0059
  44   2.0000      -0.723999       -19.7010
  45   2.0000      -0.699611       -19.0374
  46   2.0000      -0.690259       -18.7829
  47   2.0000      -0.678641       -18.4667
  48   2.0000      -0.671648       -18.2765
  49   2.0000      -0.655692       -17.8423
  50   2.0000      -0.648277       -17.6405
  51   2.0000      -0.644728       -17.5439
  52   2.0000      -0.631405       -17.1814
  53   2.0000      -0.611785       -16.6475
  54   2.0000      -0.609882       -16.5957
  55   2.0000      -0.602181       -16.3862
  56   2.0000      -0.600706       -16.3460
  57   2.0000      -0.581522       -15.8240
  58   2.0000      -0.573097       -15.5948
  59   2.0000      -0.567985       -15.4557
  60   2.0000      -0.565953       -15.4004
  61   2.0000      -0.539281       -14.6746
  62   2.0000      -0.534039       -14.5319
  63   2.0000      -0.528742       -14.3878
  64   2.0000      -0.515999       -14.0411
  65   2.0000      -0.512655       -13.9500
  66   2.0000      -0.503714       -13.7068
  67   2.0000      -0.496451       -13.5091
  68   2.0000      -0.489165       -13.3109
  69   2.0000      -0.464159       -12.6304
  70   2.0000      -0.453005       -12.3269
  71   2.0000      -0.446368       -12.1463
  72   2.0000      -0.355743        -9.6803
  73   2.0000      -0.353563        -9.6209
  74   2.0000      -0.330031        -8.9806
  75   2.0000      -0.325587        -8.8597
  76   2.0000      -0.317600        -8.6423
  77   0.0000       0.071161         1.9364
  78   0.0000       0.102213         2.7814
  79   0.0000       0.123126         3.3504
  80   0.0000       0.129730         3.5301
  81   0.0000       0.133597         3.6354

MULLIKEN ATOMIC CHARGES
-----------------------
   0 C :   -0.264003
   1 C :    0.030343
   2 O :   -0.380546
   3 C :    0.476873
   4 O :   -0.416739
   5 C :   -0.262371
   6 C :    0.162900
   7 C :   -0.268985
   8 N :   -0.123920
   9 C :    0.215558
  10 S :   -0.439675
  11 N :   -0.208520
  12 C :    0.072030
  13 C :    0.037909
  14 C :   -0.188178
  15 C :   -0.135734
  16 C :   -0.274569
  17 C :    0.305064
  18 O :   -0.355458
  19 C :   -0.239913
  20 H :    0.107864
  21 H :    0.086663
  22 H :    0.090635
  23 H :    0.097269
  24 H :    0.117696
  25 H :    0.131424
  26 H :    0.131311
  27 H :    0.095519
  28 H :    0.197735
  29 H :    0.195090
  30 H :    0.149636
  31 H :    0.150554
  32 H :    0.163668
  33 H :    0.133005
  34 H :    0.241683
  35 H :    0.168180
Sum of atomic charges:    0.0000000

LOEWDIN ATOMIC CHARGES
----------------------
   0 C :    0.105269
   1 C :   -0.016438
   2 O :    0.296569
   3 C :   -0.419215
   4 O :    0.109564
   5 C :   -0.097703
   6 C :   -0.058373
   7 C :    0.131483
   8 N :    0.407105
   9 C :   -0.455520
  10 S :   -0.034640
  11 N :    0.396036
  12 C :   -0.052500
  13 C :   -0.036236
  14 C :    0.012731
  15 C :    0.040135
  16 C :   -0.002462
  17 C :   -0.189468
  18 O :    0.396292
  19 C :    0.031511
  20 H :   -0.023508
  21 H :   -0.029240
  22 H :   -0.028997
  23 H :   -0.029018
  24 H :   -0.028433
  25 H :   -0.004915
  26 H :   -0.003648
  27 H :   -0.023146
  28 H :   -0.057334
  29 H :   -0.065098
  30 H :   -0.009048
  31 H :   -0.029623
  32 H :   -0.020173
  33 H :   -0.034812
  34 H :   -0.152848
  35 H :   -0.024297

  Mayer bond orders larger than 0.100000
B(  0-C ,  1-C ) :   0.9854 B(  0-C , 20-H ) :   0.9780 B(  0-C , 21-H ) :   0.9777
B(  0-C , 22-H ) :   0.9788 B(  1-C ,  2-O ) :   0.8694 B(  1-C , 23-H ) :   0.9707
B(  1-C , 24-H ) :   0.9706 B(  2-O ,  3-C ) :   1.1103 B(  3-C ,  4-O ) :   1.9929
B(  3-C ,  5-C ) :   1.0738 B(  5-C ,  6-C ) :   1.6461 B(  5-C , 12-C ) :   0.9700
B(  6-C ,  7-C ) :   0.9667 B(  6-C ,  8-N ) :   1.1610 B(  7-C , 25-H ) :   0.9599
B(  7-C , 26-H ) :   0.9603 B(  7-C , 27-H ) :   0.9903 B(  8-N ,  9-C ) :   1.1827
B(  8-N , 28-H ) :   0.9476 B(  9-C , 10-S ) :   1.6052 B(  9-C , 11-N ) :   1.3076
B( 11-N , 12-C ) :   0.9711 B( 11-N , 29-H ) :   0.9519 B( 12-C , 13-C ) :   0.9415
B( 12-C , 30-H ) :   1.0020 B( 13-C , 14-C ) :   1.3520 B( 13-C , 19-C ) :   1.3749
B( 14-C , 15-C ) :   1.3933 B( 14-C , 31-H ) :   0.9738 B( 15-C , 16-C ) :   1.3605
B( 15-C , 32-H ) :   0.9702 B( 16-C , 17-C ) :   1.3305 B( 16-C , 33-H ) :   0.9841
B( 17-C , 18-O ) :   1.1136 B( 17-C , 19-C ) :   1.3741 B( 18-O , 34-H ) :   0.9790
B( 19-C , 35-H ) :   0.9579

MP2 TOTAL ENERGY:    -1274.335577645 Eh
FINAL SINGLE POINT ENERGY     -1274.335577644552

DIPOLE MOMENT
-------------
                                X             Y             Z
Electronic contribution:      9.87023      10.37791       7.75887
Nuclear contribution   :    -10.83618     -11.89965      -7.75656
                        -----------------------------------------
Total Dipole Moment    :     -0.96595      -1.52174       0.00231
                        -----------------------------------------
Magnitude (a.u.)       :      1.80243
Magnitude (Debye)      :      4.58141

Rotational constants in cm-1:     0.012271     0.008614     0.006255
Rotational constants in MHz :   367.877052   258.229691   187.526382

                             ****ORCA TERMINATED NORMALLY****
TOTAL RUN TIME: 0 days 1 hours 55 minutes 17 seconds 454 msec
