                         Program Version 5.0.0 -  RELEASE  -
|  1> ! ri-mp2 cc-pvtz cc-pvtz/c TightSCF NoKeepInts
|  2>
|  3> %scf
|  4>   MaxCore 4096
|  5> end
|  6> *xyz  0  1
|  7>     C       15.5049447   13.9388203   14.8789979
|  8>     C       15.0386590   14.8952288   15.9974280
|  9>     O       16.0054051   15.9461870   16.1976405
| 10>     C       17.2041654   15.7021279   16.8095878
| 11>     O       17.6324347   14.5740841   16.9888835
| 12>     C       17.7123812   16.8691668   17.6067627
| 13>     C       17.4094370   18.1691904   17.3532435
| 14>     C       16.5442905   18.7235760   16.2398598
| 15>     N       17.9892923   19.1809582   18.1257280
| 16>     C       18.9835852   18.9897073   19.0485072
| 17>     S       19.7077049   20.2577356   19.8253288
| 18>     N       19.3481036   17.6901012   19.2932938
| 19>     C       18.6462059   16.5044094   18.7667346
| 20>     C       17.8829296   15.7967483   19.8835689
| 21>     C       18.0998726   14.4302108   20.1397842
| 22>     C       17.3983531   13.7727921   21.1642819
| 23>     C       16.4705489   14.4872647   21.9410046
| 24>     C       16.2484196   15.8474587   21.6867982
| 25>     O       15.3485024   16.5386516   22.4309886
| 26>     C       16.9477964   16.4989006   20.6660316
| 27>     H       15.7716759   14.5002630   13.9752554
| 28>     H       14.7021416   13.2380555   14.6201990
| 29>     H       16.3740439   13.3460529   15.1879384
| 30>     H       14.0810338   15.3433049   15.7031211
| 31>     H       14.8797902   14.3372193   16.9303796
| 32>     H       16.7984343   18.2589062   15.2790170
| 33>     H       16.6625270   19.8064841   16.1124561
| 34>     H       15.4836808   18.5266631   16.4400420
| 35>     H       17.7350560   20.1416895   17.9604151
| 36>     H       20.0614983   17.5738496   20.0014156
| 37>     H       19.4080460   15.8127283   18.3789992
| 38>     H       18.8040932   13.8711900   19.5283776
| 39>     H       17.5713193   12.7139269   21.3477726
| 40>     H       15.9253311   13.9830622   22.7318251
| 41>     H       15.0023921   15.9325225   23.1029588
| 42>     H       16.7629043   17.5527623   20.4893732
| 43> *
| 44>
| 45>                          ****END OF INPUT****

CARTESIAN COORDINATES (ANGSTROEM)
---------------------------------
  C     15.504945   13.938820   14.878998
  C     15.038659   14.895229   15.997428
  O     16.005405   15.946187   16.197640
  C     17.204165   15.702128   16.809588
  O     17.632435   14.574084   16.988884
  C     17.712381   16.869167   17.606763
  C     17.409437   18.169190   17.353243
  C     16.544290   18.723576   16.239860
  N     17.989292   19.180958   18.125728
  C     18.983585   18.989707   19.048507
  S     19.707705   20.257736   19.825329
  N     19.348104   17.690101   19.293294
  C     18.646206   16.504409   18.766735
  C     17.882930   15.796748   19.883569
  C     18.099873   14.430211   20.139784
  C     17.398353   13.772792   21.164282
  C     16.470549   14.487265   21.941005
  C     16.248420   15.847459   21.686798
  O     15.348502   16.538652   22.430989
  C     16.947796   16.498901   20.666032
  H     15.771676   14.500263   13.975255
  H     14.702142   13.238055   14.620199
  H     16.374044   13.346053   15.187938
  H     14.081034   15.343305   15.703121
  H     14.879790   14.337219   16.930380
  H     16.798434   18.258906   15.279017
  H     16.662527   19.806484   16.112456
  H     15.483681   18.526663   16.440042
  H     17.735056   20.141689   17.960415
  H     20.061498   17.573850   20.001416
  H     19.408046   15.812728   18.378999
  H     18.804093   13.871190   19.528378
  H     17.571319   12.713927   21.347773
  H     15.925331   13.983062   22.731825
  H     15.002392   15.932522   23.102959
  H     16.762904   17.552762   20.489373

 Total Charge           Charge          ....    0
 Multiplicity           Mult            ....    1
 Number of Electrons    NEL             ....  154
 Basis Dimension        Dim             ....  828

ORBITAL ENERGIES
----------------

  NO   OCC          E(Eh)            E(eV)
   0   2.0000     -91.887620     -2500.3892
   1   2.0000     -20.600077      -560.5566
   2   2.0000     -20.591812      -560.3317
   3   2.0000     -20.548579      -559.1553
   4   2.0000     -15.627510      -425.2462
   5   2.0000     -15.606508      -424.6747
   6   2.0000     -11.397372      -310.1383
   7   2.0000     -11.382623      -309.7369
   8   2.0000     -11.334313      -308.4223
   9   2.0000     -11.307710      -307.6984
  10   2.0000     -11.305927      -307.6499
  11   2.0000     -11.302338      -307.5523
  12   2.0000     -11.259974      -306.3995
  13   2.0000     -11.258505      -306.3595
  14   2.0000     -11.253660      -306.2277
  15   2.0000     -11.247968      -306.0728
  16   2.0000     -11.237557      -305.7895
  17   2.0000     -11.233538      -305.6801
  18   2.0000     -11.230741      -305.6040
  19   2.0000     -11.222880      -305.3901
  20   2.0000      -8.892689      -241.9824
  21   2.0000      -6.574268      -178.8949
  22   2.0000      -6.572260      -178.8403
  23   2.0000      -6.571676      -178.8244
  24   2.0000      -1.452448       -39.5231
  25   2.0000      -1.411548       -38.4102
  26   2.0000      -1.358144       -36.9570
  27   2.0000      -1.338654       -36.4266
  28   2.0000      -1.236482       -33.6464
  29   2.0000      -1.152210       -31.3532
  30   2.0000      -1.119254       -30.4565
  31   2.0000      -1.041882       -28.3511
  32   2.0000      -1.033395       -28.1201
  33   2.0000      -1.009595       -27.4725
  34   2.0000      -0.996702       -27.1217
  35   2.0000      -0.982174       -26.7263
  36   2.0000      -0.921163       -25.0661
  37   2.0000      -0.892241       -24.2791
  38   2.0000      -0.847322       -23.0568
  39   2.0000      -0.835611       -22.7381
  40   2.0000      -0.828112       -22.5341
  41   2.0000      -0.818669       -22.2771
  42   2.0000      -0.750800       -20.4303
  43   2.0000      -0.732876       -19.9426
  44   2.0000      -0.725011       -19.7286
  45   2.0000      -0.690937       -18.8014
  46   2.0000      -0.684876       -18.6364
  47   2.0000      -0.680053       -18.5052
  48   2.0000      -0.670950       -18.2575
  49   2.0000      -0.661828       -18.0093
  50   2.0000      -0.645616       -17.5681
  51   2.0000      -0.641132       -17.4461
  52   2.0000      -0.631962       -17.1966
  53   2.0000      -0.607438       -16.5292
  54   2.0000      -0.599899       -16.3241
  55   2.0000      -0.599101       -16.3024
  56   2.0000      -0.594906       -16.1882
  57   2.0000      -0.586214       -15.9517
  58   2.0000      -0.573037       -15.5931
  59   2.0000      -0.567656       -15.4467
  60   2.0000      -0.560051       -15.2398
  61   2.0000      -0.545549       -14.8452
  62   2.0000      -0.535693       -14.5769
  63   2.0000      -0.520212       -14.1557
  64   2.0000      -0.517151       -14.0724
  65   2.0000      -0.510857       -13.9011
  66   2.0000      -0.501720       -13.6525
  67   2.0000      -0.495440       -13.4816
  68   2.0000      -0.479792       -13.0558
  69   2.0000      -0.461317       -12.5531
  70   2.0000      -0.457366       -12.4456
  71   2.0000      -0.452383       -12.3100
  72   2.0000      -0.353414        -9.6169
  73   2.0000      -0.344053        -9.3622
  74   2.0000      -0.326805        -8.8928
  75   2.0000      -0.315394        -8.5823
  76   2.0000      -0.313887        -8.5413
  77   0.0000       0.076239         2.0746
  78   0.0000       0.112325         3.0565
  79   0.0000       0.121560         3.3078
  80   0.0000       0.135893         3.6978
  81   0.0000       0.140823         3.8320

MULLIKEN ATOMIC CHARGES
-----------------------
   0 C :   -0.300296
   1 C :    0.045266
   2 O :   -0.351484
   3 C :    0.433545
   4 O :   -0.427820
   5 C :   -0.147081
   6 C :    0.139181
   7 C :   -0.285263
   8 N :   -0.122206
   9 C :    0.201895
  10 S :   -0.440365
  11 N :   -0.197330
  12 C :    0.036521
  13 C :    0.054963
  14 C :   -0.162513
  15 C :   -0.134284
  16 C :   -0.279364
  17 C :    0.311286
  18 O :   -0.358848
  19 C :   -0.270469
  20 H :    0.090093
  21 H :    0.094435
  22 H :    0.126121
  23 H :    0.102625
  24 H :    0.097574
  25 H :    0.123929
  26 H :    0.101843
  27 H :    0.128082
  28 H :    0.196764
  29 H :    0.193421
  30 H :    0.153921
  31 H :    0.153617
  32 H :    0.159188
  33 H :    0.128196
  34 H :    0.239992
  35 H :    0.164868
Sum of atomic charges:   -0.0000000

LOEWDIN ATOMIC CHARGES
----------------------
   0 C :    0.104434
   1 C :   -0.013797
   2 O :    0.298960
   3 C :   -0.411384
   4 O :    0.112406
   5 C :   -0.090349
   6 C :   -0.068495
   7 C :    0.125001
   8 N :    0.404415
   9 C :   -0.458614
  10 S :   -0.036827
  11 N :    0.397599
  12 C :   -0.045978
  13 C :   -0.038886
  14 C :    0.021336
  15 C :    0.040508
  16 C :   -0.002446
  17 C :   -0.192559
  18 O :    0.393121
  19 C :    0.028943
  20 H :   -0.030414
  21 H :   -0.028592
  22 H :   -0.025927
  23 H :   -0.025137
  24 H :   -0.027025
  25 H :   -0.009096
  26 H :   -0.020706
  27 H :   -0.009517
  28 H :   -0.059139
  29 H :   -0.063837
  30 H :   -0.005126
  31 H :   -0.025458
  32 H :   -0.021278
  33 H :   -0.036398
  34 H :   -0.154922
  35 H :   -0.024819

  Mayer bond orders larger than 0.100000
B(  0-C ,  1-C ) :   0.9684 B(  0-C , 20-H ) :   0.9757 B(  0-C , 21-H ) :   0.9772
B(  0-C , 22-H ) :   0.9717 B(  1-C ,  2-O ) :   0.9061 B(  1-C , 23-H ) :   0.9845
B(  1-C , 24-H ) :   0.9772 B(  2-O ,  3-C ) :   1.1326 B(  3-C ,  4-O ) :   1.9644
B(  3-C ,  5-C ) :   1.0516 B(  5-C ,  6-C ) :   1.6525 B(  5-C , 12-C ) :   0.9645
B(  6-C ,  7-C ) :   0.9548 B(  6-C ,  8-N ) :   1.1431 B(  7-C , 25-H ) :   0.9677
B(  7-C , 26-H ) :   0.9908 B(  7-C , 27-H ) :   0.9627 B(  8-N ,  9-C ) :   1.1808
B(  8-N , 28-H ) :   0.9493 B(  9-C , 10-S ) :   1.6099 B(  9-C , 11-N ) :   1.3027
B( 11-N , 12-C ) :   0.9934 B( 11-N , 29-H ) :   0.9519 B( 12-C , 13-C ) :   0.9464
B( 12-C , 30-H ) :   0.9993 B( 13-C , 14-C ) :   1.3756 B( 13-C , 19-C ) :   1.3703
B( 14-C , 15-C ) :   1.3946 B( 14-C , 31-H ) :   0.9650 B( 15-C , 16-C ) :   1.3629
B( 15-C , 32-H ) :   0.9714 B( 16-C , 17-C ) :   1.3312 B( 16-C , 33-H ) :   0.9860
B( 17-C , 18-O ) :   1.1082 B( 17-C , 19-C ) :   1.3787 B( 18-O , 34-H ) :   0.9806
B( 19-C , 35-H ) :   0.9583

MP2 TOTAL ENERGY:    -1274.340401051 Eh
FINAL SINGLE POINT ENERGY     -1274.340401050594

DIPOLE MOMENT
-------------
                                X             Y             Z
Electronic contribution:     10.23091      10.02921      11.01240
Nuclear contribution   :    -11.89110     -11.19354     -11.86174
                        -----------------------------------------
Total Dipole Moment    :     -1.66020      -1.16433      -0.84933
                        -----------------------------------------
Magnitude (a.u.)       :      2.19848
Magnitude (Debye)      :      5.58808

Rotational constants in cm-1:     0.010695     0.008936     0.005880
Rotational constants in MHz :   320.614046   267.883625   176.292854

                             ****ORCA TERMINATED NORMALLY****
TOTAL RUN TIME: 0 days 1 hours 24 minutes 21 seconds 592 msec
