                         Program Version 5.0.0 -  RELEASE  -
|  1> ! ri-mp2 cc-pvtz cc-pvtz/c TightSCF NoKeepInts
|  2>
|  3> %scf
|  4>   MaxCore 4096
|  5> end
|  6> *xyz  0  1
|  7>     C       14.1715170   14.9774751   15.9211043
|  8>     C       15.5917116   14.7319134   16.4569377
|  9>     O       16.4059119   15.8416449   16.0476910
| 10>     C       17.6835770   15.8830501   16.5195057
| 11>     O       18.3585857   14.8690696   16.5853711
| 12>     C       17.8902824   17.0199173   17.4738424
| 13>     C       17.3087718   18.2378699   17.3349059
| 14>     C       16.4005709   18.7012583   16.2149598
| 15>     N       17.5913902   19.2519925   18.2550183
| 16>     C       18.5339346   19.1680701   19.2461941
| 17>     S       18.8859493   20.4544281   20.2243342
| 18>     N       19.1713060   17.9605509   19.3857053
| 19>     C       18.8164166   16.7272580   18.6578011
| 20>     C       18.1768536   15.7130984   19.6024124
| 21>     C       18.7114207   14.4174963   19.7262770
| 22>     C       18.1172225   13.4762739   20.5835446
| 23>     C       16.9770485   13.8322144   21.3238005
| 24>     C       16.4388836   15.1202360   21.2001818
| 25>     O       15.3326287   15.4643940   21.9064374
| 26>     C       17.0321097   16.0546265   20.3456221
| 27>     H       13.7581627   15.9070931   16.3312780
| 28>     H       13.5067526   14.1520024   16.2033420
| 29>     H       14.1794899   15.0532132   14.8265967
| 30>     H       15.5699945   14.6575738   17.5531120
| 31>     H       15.9916675   13.7927413   16.0507107
| 32>     H       16.7635731   18.3462749   15.2422868
| 33>     H       16.3353962   19.7943443   16.1525233
| 34>     H       15.3845076   18.3118064   16.3552110
| 35>     H       17.1344979   20.1458886   18.1687680
| 36>     H       19.8396757   17.9171936   20.1442726
| 37>     H       19.7450723   16.2934301   18.2595196
| 38>     H       19.5818437   14.1337805   19.1395924
| 39>     H       18.5376382   12.4755312   20.6658763
| 40>     H       16.5139789   13.1076115   21.9853127
| 41>     H       15.1075949   14.7139146   22.4767075
| 42>     H       16.6010620   17.0467627   20.2672439
| 43> *
| 44>
| 45>                          ****END OF INPUT****

CARTESIAN COORDINATES (ANGSTROEM)
---------------------------------
  C     14.171517   14.977475   15.921104
  C     15.591712   14.731913   16.456938
  O     16.405912   15.841645   16.047691
  C     17.683577   15.883050   16.519506
  O     18.358586   14.869070   16.585371
  C     17.890282   17.019917   17.473842
  C     17.308772   18.237870   17.334906
  C     16.400571   18.701258   16.214960
  N     17.591390   19.251993   18.255018
  C     18.533935   19.168070   19.246194
  S     18.885949   20.454428   20.224334
  N     19.171306   17.960551   19.385705
  C     18.816417   16.727258   18.657801
  C     18.176854   15.713098   19.602412
  C     18.711421   14.417496   19.726277
  C     18.117223   13.476274   20.583545
  C     16.977048   13.832214   21.323800
  C     16.438884   15.120236   21.200182
  O     15.332629   15.464394   21.906437
  C     17.032110   16.054627   20.345622
  H     13.758163   15.907093   16.331278
  H     13.506753   14.152002   16.203342
  H     14.179490   15.053213   14.826597
  H     15.569994   14.657574   17.553112
  H     15.991668   13.792741   16.050711
  H     16.763573   18.346275   15.242287
  H     16.335396   19.794344   16.152523
  H     15.384508   18.311806   16.355211
  H     17.134498   20.145889   18.168768
  H     19.839676   17.917194   20.144273
  H     19.745072   16.293430   18.259520
  H     19.581844   14.133781   19.139592
  H     18.537638   12.475531   20.665876
  H     16.513979   13.107611   21.985313
  H     15.107595   14.713915   22.476707
  H     16.601062   17.046763   20.267244

 Total Charge           Charge          ....    0
 Multiplicity           Mult            ....    1
 Number of Electrons    NEL             ....  154
 Basis Dimension        Dim             ....  828

ORBITAL ENERGIES
----------------

  NO   OCC          E(Eh)            E(eV)
   0   2.0000     -91.888549     -2500.4145
   1   2.0000     -20.595214      -560.4243
   2   2.0000     -20.588993      -560.2550
   3   2.0000     -20.553490      -559.2889
   4   2.0000     -15.628236      -425.2659
   5   2.0000     -15.607969      -424.7144
   6   2.0000     -11.394041      -310.0476
   7   2.0000     -11.383985      -309.7740
   8   2.0000     -11.333335      -308.3957
   9   2.0000     -11.311320      -307.7967
  10   2.0000     -11.308129      -307.7098
  11   2.0000     -11.297821      -307.4294
  12   2.0000     -11.259947      -306.3987
  13   2.0000     -11.259681      -306.3915
  14   2.0000     -11.256801      -306.3131
  15   2.0000     -11.251313      -306.1638
  16   2.0000     -11.241008      -305.8834
  17   2.0000     -11.236956      -305.7731
  18   2.0000     -11.234087      -305.6950
  19   2.0000     -11.233012      -305.6658
  20   2.0000      -8.893625      -242.0078
  21   2.0000      -6.575204      -178.9204
  22   2.0000      -6.573194      -178.8657
  23   2.0000      -6.572610      -178.8498
  24   2.0000      -1.454401       -39.5763
  25   2.0000      -1.414994       -38.5040
  26   2.0000      -1.356979       -36.9253
  27   2.0000      -1.339342       -36.4453
  28   2.0000      -1.237559       -33.6757
  29   2.0000      -1.155443       -31.4412
  30   2.0000      -1.121002       -30.5040
  31   2.0000      -1.044676       -28.4271
  32   2.0000      -1.036256       -28.1980
  33   2.0000      -1.012868       -27.5615
  34   2.0000      -0.998897       -27.1814
  35   2.0000      -0.984530       -26.7904
  36   2.0000      -0.922813       -25.1110
  37   2.0000      -0.883347       -24.0371
  38   2.0000      -0.847668       -23.0662
  39   2.0000      -0.837691       -22.7947
  40   2.0000      -0.831395       -22.6234
  41   2.0000      -0.823540       -22.4097
  42   2.0000      -0.758372       -20.6363
  43   2.0000      -0.735987       -20.0272
  44   2.0000      -0.727593       -19.7988
  45   2.0000      -0.693270       -18.8648
  46   2.0000      -0.684978       -18.6392
  47   2.0000      -0.681439       -18.5429
  48   2.0000      -0.675871       -18.3914
  49   2.0000      -0.655165       -17.8280
  50   2.0000      -0.652347       -17.7513
  51   2.0000      -0.643175       -17.5017
  52   2.0000      -0.635106       -17.2821
  53   2.0000      -0.611802       -16.6480
  54   2.0000      -0.603713       -16.4279
  55   2.0000      -0.602371       -16.3913
  56   2.0000      -0.598678       -16.2909
  57   2.0000      -0.576887       -15.6979
  58   2.0000      -0.575369       -15.6566
  59   2.0000      -0.564161       -15.3516
  60   2.0000      -0.558616       -15.2007
  61   2.0000      -0.546199       -14.8628
  62   2.0000      -0.543471       -14.7886
  63   2.0000      -0.521113       -14.1802
  64   2.0000      -0.518794       -14.1171
  65   2.0000      -0.510915       -13.9027
  66   2.0000      -0.505547       -13.7566
  67   2.0000      -0.497514       -13.5380
  68   2.0000      -0.482431       -13.1276
  69   2.0000      -0.464900       -12.6506
  70   2.0000      -0.459531       -12.5045
  71   2.0000      -0.451669       -12.2905
  72   2.0000      -0.354018        -9.6333
  73   2.0000      -0.347199        -9.4478
  74   2.0000      -0.327853        -8.9213
  75   2.0000      -0.318363        -8.6631
  76   2.0000      -0.315421        -8.5830
  77   0.0000       0.072114         1.9623
  78   0.0000       0.106457         2.8968
  79   0.0000       0.119275         3.2456
  80   0.0000       0.132874         3.6157
  81   0.0000       0.136958         3.7268

MULLIKEN ATOMIC CHARGES
-----------------------
   0 C :   -0.274441
   1 C :    0.048910
   2 O :   -0.361721
   3 C :    0.443182
   4 O :   -0.402751
   5 C :   -0.186632
   6 C :    0.135858
   7 C :   -0.282826
   8 N :   -0.124416
   9 C :    0.203528
  10 S :   -0.440014
  11 N :   -0.200693
  12 C :    0.053649
  13 C :    0.047158
  14 C :   -0.159225
  15 C :   -0.132930
  16 C :   -0.280804
  17 C :    0.313342
  18 O :   -0.359284
  19 C :   -0.281653
  20 H :    0.090228
  21 H :    0.097843
  22 H :    0.099618
  23 H :    0.092374
  24 H :    0.107463
  25 H :    0.123994
  26 H :    0.104675
  27 H :    0.125459
  28 H :    0.197199
  29 H :    0.194205
  30 H :    0.154704
  31 H :    0.155222
  32 H :    0.160458
  33 H :    0.130220
  34 H :    0.240705
  35 H :    0.167395
Sum of atomic charges:   -0.0000000

LOEWDIN ATOMIC CHARGES
----------------------
   0 C :    0.108578
   1 C :   -0.018280
   2 O :    0.294483
   3 C :   -0.415914
   4 O :    0.124200
   5 C :   -0.093358
   6 C :   -0.073563
   7 C :    0.126098
   8 N :    0.404109
   9 C :   -0.457495
  10 S :   -0.036511
  11 N :    0.397152
  12 C :   -0.045403
  13 C :   -0.040318
  14 C :    0.021865
  15 C :    0.041816
  16 C :   -0.002359
  17 C :   -0.194290
  18 O :    0.393350
  19 C :    0.027593
  20 H :   -0.030056
  21 H :   -0.023331
  22 H :   -0.025744
  23 H :   -0.029033
  24 H :   -0.027668
  25 H :   -0.008029
  26 H :   -0.019693
  27 H :   -0.010666
  28 H :   -0.058791
  29 H :   -0.064042
  30 H :   -0.004723
  31 H :   -0.024775
  32 H :   -0.020487
  33 H :   -0.035811
  34 H :   -0.154259
  35 H :   -0.024642

  Mayer bond orders larger than 0.100000
B(  0-C ,  1-C ) :   0.9732 B(  0-C , 20-H ) :   0.9786 B(  0-C , 21-H ) :   0.9774
B(  0-C , 22-H ) :   0.9773 B(  1-C ,  2-O ) :   0.8997 B(  1-C , 23-H ) :   0.9681
B(  1-C , 24-H ) :   0.9805 B(  2-O ,  3-C ) :   1.1017 B(  3-C ,  4-O ) :   2.0168
B(  3-C ,  5-C ) :   1.0318 B(  5-C ,  6-C ) :   1.6665 B(  5-C , 12-C ) :   0.9638
B(  6-C ,  7-C ) :   0.9518 B(  6-C ,  8-N ) :   1.1386 B(  7-C , 25-H ) :   0.9702
B(  7-C , 26-H ) :   0.9887 B(  7-C , 27-H ) :   0.9625 B(  8-N ,  9-C ) :   1.1840
B(  8-N , 28-H ) :   0.9498 B(  9-C , 10-S ) :   1.6103 B(  9-C , 11-N ) :   1.3006
B( 11-N , 12-C ) :   0.9925 B( 11-N , 29-H ) :   0.9517 B( 12-C , 13-C ) :   0.9453
B( 12-C , 30-H ) :   0.9986 B( 13-C , 14-C ) :   1.3775 B( 13-C , 19-C ) :   1.3674
B( 14-C , 15-C ) :   1.3946 B( 14-C , 31-H ) :   0.9641 B( 15-C , 16-C ) :   1.3635
B( 15-C , 32-H ) :   0.9711 B( 16-C , 17-C ) :   1.3306 B( 16-C , 33-H ) :   0.9851
B( 17-C , 18-O ) :   1.1093 B( 17-C , 19-C ) :   1.3747 B( 18-O , 34-H ) :   0.9800
B( 19-C , 35-H ) :   0.9584

MP2 TOTAL ENERGY:    -1274.329772024 Eh
FINAL SINGLE POINT ENERGY     -1274.329772024215

DIPOLE MOMENT
-------------
                                X             Y             Z
Electronic contribution:     12.02972       8.58470       8.37429
Nuclear contribution   :    -13.39114      -9.89755      -9.04352
                        -----------------------------------------
Total Dipole Moment    :     -1.36142      -1.31286      -0.66923
                        -----------------------------------------
Magnitude (a.u.)       :      2.00622
Magnitude (Debye)      :      5.09942

Rotational constants in cm-1:     0.011049     0.009162     0.006454
Rotational constants in MHz :   331.247290   274.666766   193.478723

                             ****ORCA TERMINATED NORMALLY****
TOTAL RUN TIME: 0 days 2 hours 0 minutes 58 seconds 491 msec
