                         Program Version 5.0.0 -  RELEASE  -
|  1> ! ri-mp2 cc-pvtz cc-pvtz/c TightSCF NoKeepInts
|  2>
|  3> %scf
|  4>   MaxCore 4096
|  5> end
|  6> *xyz  0  1
|  7>     C       14.9800815   14.2854068   15.9872421
|  8>     C       16.1206149   14.4609937   17.0071719
|  9>     O       17.2542564   15.0505242   16.3396786
| 10>     C       17.2700046   16.4011826   16.1449869
| 11>     O       16.7437481   16.8781072   15.1562690
| 12>     C       17.6615551   17.2008998   17.3604721
| 13>     C       17.3597838   18.5191351   17.4868401
| 14>     C       16.5032359   19.3599774   16.5646735
| 15>     N       17.9071949   19.2634041   18.5368560
| 16>     C       18.9320166   18.8329911   19.3379182
| 17>     S       19.6746202   19.8326136   20.4261730
| 18>     N       19.3205162   17.5266677   19.1783047
| 19>     C       18.5676495   16.5222695   18.4050136
| 20>     C       17.8188801   15.6182514   19.3782636
| 21>     C       18.2086210   14.2752774   19.5409828
| 22>     C       17.5228894   13.4349844   20.4340699
| 23>     C       16.4436671   13.9428477   21.1770522
| 24>     C       16.0613980   15.2828863   21.0283325
| 25>     O       15.0205923   15.7770081   21.7442556
| 26>     C       16.7436962   16.1162512   20.1366829
| 27>     H       14.6179057   15.2574134   15.6296821
| 28>     H       14.1353275   13.7549634   16.4428104
| 29>     H       15.3227407   13.7062686   15.1206266
| 30>     H       15.7716037   15.0824413   17.8402432
| 31>     H       16.4009166   13.4761964   17.4024797
| 32>     H       15.5405434   18.8689224   16.3740375
| 33>     H       16.9993146   19.4930100   15.5945224
| 34>     H       16.2882374   20.3557404   16.9696925
| 35>     H       17.6459788   20.2299847   18.6505287
| 36>     H       20.0647995   17.2303513   19.7966609
| 37>     H       19.2976297   15.9082944   17.8584266
| 38>     H       19.0425299   13.8785507   18.9673580
| 39>     H       17.8303353   12.3968822   20.5509475
| 40>     H       15.9121479   13.2978566   21.8693922
| 41>     H       14.7254357   15.0811631   22.3510689
| 42>     H       16.4365318   17.1522817   20.0442835
| 43> *
| 44>
| 45>                          ****END OF INPUT****

CARTESIAN COORDINATES (ANGSTROEM)
---------------------------------
  C     14.980081   14.285407   15.987242
  C     16.120615   14.460994   17.007172
  O     17.254256   15.050524   16.339679
  C     17.270005   16.401183   16.144987
  O     16.743748   16.878107   15.156269
  C     17.661555   17.200900   17.360472
  C     17.359784   18.519135   17.486840
  C     16.503236   19.359977   16.564674
  N     17.907195   19.263404   18.536856
  C     18.932017   18.832991   19.337918
  S     19.674620   19.832614   20.426173
  N     19.320516   17.526668   19.178305
  C     18.567649   16.522270   18.405014
  C     17.818880   15.618251   19.378264
  C     18.208621   14.275277   19.540983
  C     17.522889   13.434984   20.434070
  C     16.443667   13.942848   21.177052
  C     16.061398   15.282886   21.028332
  O     15.020592   15.777008   21.744256
  C     16.743696   16.116251   20.136683
  H     14.617906   15.257413   15.629682
  H     14.135328   13.754963   16.442810
  H     15.322741   13.706269   15.120627
  H     15.771604   15.082441   17.840243
  H     16.400917   13.476196   17.402480
  H     15.540543   18.868922   16.374038
  H     16.999315   19.493010   15.594522
  H     16.288237   20.355740   16.969692
  H     17.645979   20.229985   18.650529
  H     20.064799   17.230351   19.796661
  H     19.297630   15.908294   17.858427
  H     19.042530   13.878551   18.967358
  H     17.830335   12.396882   20.550947
  H     15.912148   13.297857   21.869392
  H     14.725436   15.081163   22.351069
  H     16.436532   17.152282   20.044283

 Total Charge           Charge          ....    0
 Multiplicity           Mult            ....    1
 Number of Electrons    NEL             ....  154
 Basis Dimension        Dim             ....  828

ORBITAL ENERGIES
----------------

  NO   OCC          E(Eh)            E(eV)
   0   2.0000     -91.891873     -2500.5050
   1   2.0000     -20.602555      -560.6240
   2   2.0000     -20.581208      -560.0431
   3   2.0000     -20.549675      -559.1851
   4   2.0000     -15.632239      -425.3748
   5   2.0000     -15.610709      -424.7890
   6   2.0000     -11.393491      -310.0326
   7   2.0000     -11.386395      -309.8396
   8   2.0000     -11.338487      -308.5359
   9   2.0000     -11.320508      -308.0467
  10   2.0000     -11.313874      -307.8662
  11   2.0000     -11.295739      -307.3727
  12   2.0000     -11.265100      -306.5390
  13   2.0000     -11.261715      -306.4468
  14   2.0000     -11.260304      -306.4084
  15   2.0000     -11.254682      -306.2555
  16   2.0000     -11.249684      -306.1195
  17   2.0000     -11.243981      -305.9643
  18   2.0000     -11.243878      -305.9615
  19   2.0000     -11.218197      -305.2627
  20   2.0000      -8.896885      -242.0966
  21   2.0000      -6.578447      -179.0086
  22   2.0000      -6.576456      -178.9545
  23   2.0000      -6.575857      -178.9382
  24   2.0000      -1.446669       -39.3659
  25   2.0000      -1.422260       -38.7017
  26   2.0000      -1.353752       -36.8375
  27   2.0000      -1.343441       -36.5569
  28   2.0000      -1.241778       -33.7905
  29   2.0000      -1.163147       -31.6509
  30   2.0000      -1.122224       -30.5373
  31   2.0000      -1.047362       -28.5002
  32   2.0000      -1.029652       -28.0183
  33   2.0000      -1.021618       -27.7996
  34   2.0000      -0.999272       -27.1916
  35   2.0000      -0.987012       -26.8580
  36   2.0000      -0.926688       -25.2165
  37   2.0000      -0.882577       -24.0161
  38   2.0000      -0.850858       -23.1530
  39   2.0000      -0.845077       -22.9957
  40   2.0000      -0.840024       -22.8582
  41   2.0000      -0.830279       -22.5931
  42   2.0000      -0.754537       -20.5320
  43   2.0000      -0.736135       -20.0313
  44   2.0000      -0.718701       -19.5569
  45   2.0000      -0.701730       -19.0950
  46   2.0000      -0.692728       -18.8501
  47   2.0000      -0.680464       -18.5164
  48   2.0000      -0.668775       -18.1983
  49   2.0000      -0.665342       -18.1049
  50   2.0000      -0.651175       -17.7194
  51   2.0000      -0.649325       -17.6690
  52   2.0000      -0.639649       -17.4057
  53   2.0000      -0.612954       -16.6793
  54   2.0000      -0.607143       -16.5212
  55   2.0000      -0.602422       -16.3927
  56   2.0000      -0.593641       -16.1538
  57   2.0000      -0.582413       -15.8483
  58   2.0000      -0.573930       -15.6174
  59   2.0000      -0.572715       -15.5844
  60   2.0000      -0.562445       -15.3049
  61   2.0000      -0.543523       -14.7900
  62   2.0000      -0.537251       -14.6193
  63   2.0000      -0.529987       -14.4217
  64   2.0000      -0.518996       -14.1226
  65   2.0000      -0.516965       -14.0673
  66   2.0000      -0.506164       -13.7734
  67   2.0000      -0.498317       -13.5599
  68   2.0000      -0.480926       -13.0867
  69   2.0000      -0.465864       -12.6768
  70   2.0000      -0.454474       -12.3669
  71   2.0000      -0.443135       -12.0583
  72   2.0000      -0.359182        -9.7738
  73   2.0000      -0.354575        -9.6485
  74   2.0000      -0.331727        -9.0267
  75   2.0000      -0.327857        -8.9214
  76   2.0000      -0.318886        -8.6773
  77   0.0000       0.068552         1.8654
  78   0.0000       0.098962         2.6929
  79   0.0000       0.120854         3.2886
  80   0.0000       0.127391         3.4665
  81   0.0000       0.131431         3.5764

MULLIKEN ATOMIC CHARGES
-----------------------
   0 C :   -0.263356
   1 C :    0.022767
   2 O :   -0.379371
   3 C :    0.493483
   4 O :   -0.395579
   5 C :   -0.277018
   6 C :    0.155537
   7 C :   -0.270886
   8 N :   -0.126138
   9 C :    0.208357
  10 S :   -0.433576
  11 N :   -0.194378
  12 C :    0.040024
  13 C :    0.049630
  14 C :   -0.185290
  15 C :   -0.129903
  16 C :   -0.273926
  17 C :    0.311556
  18 O :   -0.355746
  19 C :   -0.262148
  20 H :    0.100753
  21 H :    0.088774
  22 H :    0.100249
  23 H :    0.103807
  24 H :    0.109800
  25 H :    0.126484
  26 H :    0.137802
  27 H :    0.094428
  28 H :    0.198776
  29 H :    0.191802
  30 H :    0.150697
  31 H :    0.150136
  32 H :    0.165768
  33 H :    0.134044
  34 H :    0.241933
  35 H :    0.170707
Sum of atomic charges:    0.0000000

LOEWDIN ATOMIC CHARGES
----------------------
   0 C :    0.106106
   1 C :   -0.022691
   2 O :    0.284523
   3 C :   -0.420959
   4 O :    0.126106
   5 C :   -0.100216
   6 C :   -0.059518
   7 C :    0.130661
   8 N :    0.406829
   9 C :   -0.457297
  10 S :   -0.030760
  11 N :    0.396392
  12 C :   -0.052547
  13 C :   -0.039324
  14 C :    0.016150
  15 C :    0.042399
  16 C :   -0.000505
  17 C :   -0.191043
  18 O :    0.396662
  19 C :    0.030531
  20 H :   -0.028409
  21 H :   -0.030009
  22 H :   -0.024855
  23 H :   -0.034266
  24 H :   -0.023682
  25 H :   -0.006205
  26 H :   -0.002630
  27 H :   -0.022958
  28 H :   -0.057304
  29 H :   -0.065129
  30 H :   -0.006200
  31 H :   -0.028817
  32 H :   -0.019678
  33 H :   -0.034082
  34 H :   -0.152412
  35 H :   -0.024862

  Mayer bond orders larger than 0.100000
B(  0-C ,  1-C ) :   0.9813 B(  0-C , 20-H ) :   0.9732 B(  0-C , 21-H ) :   0.9766
B(  0-C , 22-H ) :   0.9796 B(  1-C ,  2-O ) :   0.8752 B(  1-C , 23-H ) :   0.9639
B(  1-C , 24-H ) :   0.9798 B(  2-O ,  3-C ) :   1.1072 B(  3-C ,  4-O ) :   2.0340
B(  3-C ,  5-C ) :   1.0381 B(  5-C ,  6-C ) :   1.6585 B(  5-C , 12-C ) :   0.9688
B(  6-C ,  7-C ) :   0.9704 B(  6-C ,  8-N ) :   1.1520 B(  7-C , 25-H ) :   0.9656
B(  7-C , 26-H ) :   0.9556 B(  7-C , 27-H ) :   0.9880 B(  8-N ,  9-C ) :   1.1772
B(  8-N , 28-H ) :   0.9484 B(  9-C , 10-S ) :   1.6173 B(  9-C , 11-N ) :   1.2999
B( 11-N , 12-C ) :   0.9787 B( 11-N , 29-H ) :   0.9541 B( 12-C , 13-C ) :   0.9526
B( 12-C , 30-H ) :   1.0018 B( 13-C , 14-C ) :   1.3462 B( 13-C , 19-C ) :   1.3643
B( 14-C , 15-C ) :   1.3844 B( 14-C , 31-H ) :   0.9772 B( 15-C , 16-C ) :   1.3689
B( 15-C , 32-H ) :   0.9688 B( 16-C , 17-C ) :   1.3258 B( 16-C , 33-H ) :   0.9833
B( 17-C , 18-O ) :   1.1151 B( 17-C , 19-C ) :   1.3763 B( 18-O , 34-H ) :   0.9789
B( 19-C , 35-H ) :   0.9566

MP2 TOTAL ENERGY:    -1274.329064898 Eh
FINAL SINGLE POINT ENERGY     -1274.329064897739

DIPOLE MOMENT
-------------
                                X             Y             Z
Electronic contribution:     10.74476       9.00006       6.91918
Nuclear contribution   :    -11.83946     -10.50964      -6.55007
                        -----------------------------------------
Total Dipole Moment    :     -1.09470      -1.50958       0.36910
                        -----------------------------------------
Magnitude (a.u.)       :      1.90090
Magnitude (Debye)      :      4.83171

Rotational constants in cm-1:     0.011620     0.009464     0.006410
Rotational constants in MHz :   348.362736   283.713140   192.152259

                             ****ORCA TERMINATED NORMALLY****
TOTAL RUN TIME: 0 days 2 hours 13 minutes 10 seconds 445 msec
