                         Program Version 5.0.0 -  RELEASE  -
|  1> ! ri-mp2 cc-pvtz cc-pvtz/c TightSCF NoKeepInts
|  2>
|  3> %scf
|  4>   MaxCore 4096
|  5> end
|  6> *xyz  0  1
|  7>     C       14.3780139   15.4743296   16.6089597
|  8>     C       15.7939776   14.8870234   16.7301100
|  9>     O       16.6785539   15.6505187   15.8891258
| 10>     C       17.9326553   15.8963645   16.3651387
| 11>     O       18.7381117   14.9840988   16.4233978
| 12>     C       17.9370110   16.9878091   17.3906907
| 13>     C       17.2830136   18.1612438   17.2128131
| 14>     C       16.5021180   18.5951669   15.9898313
| 15>     N       17.3784427   19.1639274   18.1817721
| 16>     C       18.2252758   19.1277651   19.2590239
| 17>     S       18.3695268   20.4078498   20.2959121
| 18>     N       18.9476439   17.9730855   19.4339048
| 19>     C       18.7618495   16.7327199   18.6554139
| 20>     C       18.1151914   15.6476287   19.5122081
| 21>     C       18.6599810   14.3509443   19.5469886
| 22>     C       18.0561877   13.3398815   20.3129292
| 23>     C       16.8952224   13.6259314   21.0509776
| 24>     C       16.3464313   14.9147476   21.0164744
| 25>     O       15.2181200   15.1913593   21.7170868
| 26>     C       16.9489566   15.9188423   20.2521590
| 27>     H       14.3318782   16.4746859   17.0541127
| 28>     H       13.6562587   14.8382318   17.1358146
| 29>     H       14.0729270   15.5406955   15.5571347
| 30>     H       16.1070889   14.9216115   17.7812860
| 31>     H       15.7999757   13.8365032   16.4109389
| 32>     H       15.4564096   18.2753843   16.0561942
| 33>     H       16.9243492   18.1659007   15.0726665
| 34>     H       16.5127802   19.6845335   15.8608505
| 35>     H       16.8607434   20.0209531   18.0671563
| 36>     H       19.5463287   17.9647357   20.2498934
| 37>     H       19.7561819   16.3802230   18.3444222
| 38>     H       19.5470921   14.1216105   18.9606820
| 39>     H       18.4859533   12.3396551   20.3265973
| 40>     H       16.4246256   12.8470198   21.6418774
| 41>     H       14.9929388   14.4004155   22.2300040
| 42>     H       16.5051846   16.9086034   20.2394517
| 43> *
| 44>
| 45>                          ****END OF INPUT****

CARTESIAN COORDINATES (ANGSTROEM)
---------------------------------
  C     14.378014   15.474330   16.608960
  C     15.793978   14.887023   16.730110
  O     16.678554   15.650519   15.889126
  C     17.932655   15.896365   16.365139
  O     18.738112   14.984099   16.423398
  C     17.937011   16.987809   17.390691
  C     17.283014   18.161244   17.212813
  C     16.502118   18.595167   15.989831
  N     17.378443   19.163927   18.181772
  C     18.225276   19.127765   19.259024
  S     18.369527   20.407850   20.295912
  N     18.947644   17.973085   19.433905
  C     18.761850   16.732720   18.655414
  C     18.115191   15.647629   19.512208
  C     18.659981   14.350944   19.546989
  C     18.056188   13.339881   20.312929
  C     16.895222   13.625931   21.050978
  C     16.346431   14.914748   21.016474
  O     15.218120   15.191359   21.717087
  C     16.948957   15.918842   20.252159
  H     14.331878   16.474686   17.054113
  H     13.656259   14.838232   17.135815
  H     14.072927   15.540695   15.557135
  H     16.107089   14.921611   17.781286
  H     15.799976   13.836503   16.410939
  H     15.456410   18.275384   16.056194
  H     16.924349   18.165901   15.072666
  H     16.512780   19.684534   15.860850
  H     16.860743   20.020953   18.067156
  H     19.546329   17.964736   20.249893
  H     19.756182   16.380223   18.344422
  H     19.547092   14.121610   18.960682
  H     18.485953   12.339655   20.326597
  H     16.424626   12.847020   21.641877
  H     14.992939   14.400415   22.230004
  H     16.505185   16.908603   20.239452

 Total Charge           Charge          ....    0
 Multiplicity           Mult            ....    1
 Number of Electrons    NEL             ....  154
 Basis Dimension        Dim             ....  828

ORBITAL ENERGIES
----------------

  NO   OCC          E(Eh)            E(eV)
   0   2.0000     -91.890319     -2500.4627
   1   2.0000     -20.598397      -560.5109
   2   2.0000     -20.578756      -559.9764
   3   2.0000     -20.558289      -559.4195
   4   2.0000     -15.629406      -425.2978
   5   2.0000     -15.610025      -424.7704
   6   2.0000     -11.393895      -310.0436
   7   2.0000     -11.386028      -309.8296
   8   2.0000     -11.333596      -308.4028
   9   2.0000     -11.315186      -307.9019
  10   2.0000     -11.311315      -307.7965
  11   2.0000     -11.297882      -307.4310
  12   2.0000     -11.261900      -306.4519
  13   2.0000     -11.261265      -306.4346
  14   2.0000     -11.260674      -306.4185
  15   2.0000     -11.255200      -306.2696
  16   2.0000     -11.244822      -305.9872
  17   2.0000     -11.240474      -305.8688
  18   2.0000     -11.237422      -305.7858
  19   2.0000     -11.232771      -305.6592
  20   2.0000      -8.895393      -242.0559
  21   2.0000      -6.576970      -178.9685
  22   2.0000      -6.574960      -178.9137
  23   2.0000      -6.574374      -178.8978
  24   2.0000      -1.451436       -39.4956
  25   2.0000      -1.418237       -38.5922
  26   2.0000      -1.355893       -36.8957
  27   2.0000      -1.340970       -36.4896
  28   2.0000      -1.239421       -33.7264
  29   2.0000      -1.159082       -31.5402
  30   2.0000      -1.123063       -30.5601
  31   2.0000      -1.046739       -28.4832
  32   2.0000      -1.034954       -28.1625
  33   2.0000      -1.016722       -27.6664
  34   2.0000      -1.001439       -27.2505
  35   2.0000      -0.987596       -26.8738
  36   2.0000      -0.925570       -25.1860
  37   2.0000      -0.881475       -23.9862
  38   2.0000      -0.850052       -23.1311
  39   2.0000      -0.841212       -22.8905
  40   2.0000      -0.835100       -22.7242
  41   2.0000      -0.830292       -22.5934
  42   2.0000      -0.756623       -20.5888
  43   2.0000      -0.735561       -20.0156
  44   2.0000      -0.730243       -19.8709
  45   2.0000      -0.696595       -18.9553
  46   2.0000      -0.687220       -18.7002
  47   2.0000      -0.681575       -18.5466
  48   2.0000      -0.675604       -18.3841
  49   2.0000      -0.657573       -17.8935
  50   2.0000      -0.654066       -17.7980
  51   2.0000      -0.643244       -17.5036
  52   2.0000      -0.634758       -17.2726
  53   2.0000      -0.614472       -16.7206
  54   2.0000      -0.607180       -16.5222
  55   2.0000      -0.605082       -16.4651
  56   2.0000      -0.601967       -16.3803
  57   2.0000      -0.580089       -15.7850
  58   2.0000      -0.575551       -15.6615
  59   2.0000      -0.568558       -15.4712
  60   2.0000      -0.561132       -15.2692
  61   2.0000      -0.551494       -15.0069
  62   2.0000      -0.545377       -14.8405
  63   2.0000      -0.524351       -14.2683
  64   2.0000      -0.516943       -14.0667
  65   2.0000      -0.514207       -13.9923
  66   2.0000      -0.502900       -13.6846
  67   2.0000      -0.498813       -13.5734
  68   2.0000      -0.481719       -13.1082
  69   2.0000      -0.467475       -12.7207
  70   2.0000      -0.455194       -12.3865
  71   2.0000      -0.452830       -12.3221
  72   2.0000      -0.356724        -9.7069
  73   2.0000      -0.350321        -9.5327
  74   2.0000      -0.329669        -8.9707
  75   2.0000      -0.322672        -8.7804
  76   2.0000      -0.317820        -8.6483
  77   0.0000       0.069671         1.8959
  78   0.0000       0.101373         2.7585
  79   0.0000       0.117981         3.2104
  80   0.0000       0.129874         3.5340
  81   0.0000       0.132667         3.6100

MULLIKEN ATOMIC CHARGES
-----------------------
   0 C :   -0.288978
   1 C :    0.038647
   2 O :   -0.376673
   3 C :    0.463175
   4 O :   -0.384215
   5 C :   -0.207765
   6 C :    0.129267
   7 C :   -0.290703
   8 N :   -0.125682
   9 C :    0.195505
  10 S :   -0.437465
  11 N :   -0.202699
  12 C :    0.059295
  13 C :    0.009665
  14 C :   -0.160950
  15 C :   -0.138741
  16 C :   -0.274681
  17 C :    0.309651
  18 O :   -0.358593
  19 C :   -0.260224
  20 H :    0.087910
  21 H :    0.108881
  22 H :    0.105112
  23 H :    0.098616
  24 H :    0.115661
  25 H :    0.123089
  26 H :    0.126297
  27 H :    0.113213
  28 H :    0.197823
  29 H :    0.194671
  30 H :    0.159240
  31 H :    0.163677
  32 H :    0.162615
  33 H :    0.132687
  34 H :    0.241235
  35 H :    0.171439
Sum of atomic charges:    0.0000000

LOEWDIN ATOMIC CHARGES
----------------------
   0 C :    0.107672
   1 C :   -0.011957
   2 O :    0.280953
   3 C :   -0.420585
   4 O :    0.137597
   5 C :   -0.093731
   6 C :   -0.078617
   7 C :    0.127762
   8 N :    0.404055
   9 C :   -0.458130
  10 S :   -0.035111
  11 N :    0.396842
  12 C :   -0.044661
  13 C :   -0.043884
  14 C :    0.021030
  15 C :    0.043292
  16 C :   -0.001343
  17 C :   -0.195123
  18 O :    0.394629
  19 C :    0.026632
  20 H :   -0.033058
  21 H :   -0.022204
  22 H :   -0.025709
  23 H :   -0.029897
  24 H :   -0.027086
  25 H :   -0.013880
  26 H :   -0.007384
  27 H :   -0.017261
  28 H :   -0.058122
  29 H :   -0.064029
  30 H :   -0.003516
  31 H :   -0.023225
  32 H :   -0.019275
  33 H :   -0.034903
  34 H :   -0.153445
  35 H :   -0.024329

  Mayer bond orders larger than 0.100000
B(  0-C ,  1-C ) :   0.9742 B(  0-C , 20-H ) :   0.9779 B(  0-C , 21-H ) :   0.9777
B(  0-C , 22-H ) :   0.9757 B(  1-C ,  2-O ) :   0.8899 B(  1-C , 23-H ) :   0.9618
B(  1-C , 24-H ) :   0.9859 B(  2-O ,  3-C ) :   1.0913 B(  3-C ,  4-O ) :   2.0528
B(  3-C ,  5-C ) :   0.9966 B(  5-C ,  6-C ) :   1.6726 B(  5-C , 12-C ) :   0.9576
B(  6-C ,  7-C ) :   0.9538 B(  6-C ,  8-N ) :   1.1307 B(  7-C , 25-H ) :   0.9631
B(  7-C , 26-H ) :   0.9714 B(  7-C , 27-H ) :   0.9858 B(  8-N ,  9-C ) :   1.1859
B(  8-N , 28-H ) :   0.9506 B(  9-C , 10-S ) :   1.6143 B(  9-C , 11-N ) :   1.2953
B( 11-N , 12-C ) :   0.9930 B( 11-N , 29-H ) :   0.9516 B( 12-C , 13-C ) :   0.9482
B( 12-C , 30-H ) :   0.9974 B( 13-C , 14-C ) :   1.3874 B( 13-C , 19-C ) :   1.3547
B( 14-C , 15-C ) :   1.3955 B( 14-C , 31-H ) :   0.9605 B( 15-C , 16-C ) :   1.3647
B( 15-C , 32-H ) :   0.9705 B( 16-C , 17-C ) :   1.3293 B( 16-C , 33-H ) :   0.9842
B( 17-C , 18-O ) :   1.1122 B( 17-C , 19-C ) :   1.3734 B( 18-O , 34-H ) :   0.9794
B( 19-C , 35-H ) :   0.9593

MP2 TOTAL ENERGY:    -1274.319103213 Eh
FINAL SINGLE POINT ENERGY     -1274.319103212542

DIPOLE MOMENT
-------------
                                X             Y             Z
Electronic contribution:     11.04644       7.23784       6.80638
Nuclear contribution   :    -12.25707      -8.46339      -7.26503
                        -----------------------------------------
Total Dipole Moment    :     -1.21063      -1.22555      -0.45865
                        -----------------------------------------
Magnitude (a.u.)       :      1.78268
Magnitude (Debye)      :      4.53123

Rotational constants in cm-1:     0.011564     0.009436     0.006947
Rotational constants in MHz :   346.669539   282.889151   208.273527

                             ****ORCA TERMINATED NORMALLY****
TOTAL RUN TIME: 0 days 1 hours 53 minutes 7 seconds 748 msec
