                         Program Version 5.0.0 -  RELEASE  -
|  1> ! ri-mp2 cc-pvtz cc-pvtz/c TightSCF NoKeepInts
|  2>
|  3> %scf
|  4>   MaxCore 4096
|  5> end
|  6> *xyz  0  1
|  7>     C       14.9641588   14.3370974   16.5746652
|  8>     C       16.4643655   13.9671883   16.5637473
|  9>     O       17.3729118   15.0975928   16.5294513
| 10>     C       16.9903485   16.4081935   16.4214483
| 11>     O       16.1818802   16.7916498   15.5942775
| 12>     C       17.6686687   17.2961770   17.4287272
| 13>     C       17.5042193   18.6436859   17.4380839
| 14>     C       16.6655727   19.4723556   16.4884985
| 15>     N       18.1698634   19.4258529   18.3863441
| 16>     C       19.0662971   18.9518499   19.3059643
| 17>     S       19.8603893   19.9567671   20.3526766
| 18>     N       19.2751775   17.5967434   19.3156931
| 19>     C       18.5468185   16.6149439   18.4923912
| 20>     C       17.7450690   15.6840999   19.3978651
| 21>     C       18.2107855   14.3833264   19.6667759
| 22>     C       17.4717351   13.5146575   20.4873353
| 23>     C       16.2585128   13.9509971   21.0463228
| 24>     C       15.7964234   15.2487804   20.7880936
| 25>     O       14.6263359   15.6736457   21.3274537
| 26>     C       16.5344595   16.1114332   19.9720403
| 27>     H       14.7365141   15.0455760   17.3812051
| 28>     H       14.3562242   13.4390794   16.7368263
| 29>     H       14.6544827   14.7747545   15.6174758
| 30>     H       16.6829257   13.3713760   17.4591295
| 31>     H       16.6603372   13.3273807   15.6937253
| 32>     H       15.6086402   19.1845379   16.5569154
| 33>     H       16.9819644   19.3080809   15.4504912
| 34>     H       16.7294498   20.5487334   16.6862107
| 35>     H       18.0298066   20.4235315   18.3941013
| 36>     H       19.9118062   17.2740046   20.0328259
| 37>     H       19.2981173   16.0147206   17.9599078
| 38>     H       19.1467620   14.0423917   19.2321263
| 39>     H       17.8397674   12.5100126   20.6889582
| 40>     H       15.6841402   13.2841151   21.6810571
| 41>     H       14.2898226   14.9624767   21.8932010
| 42>     H       16.1622470   17.1141907   19.7919881
| 43> *
| 44>
| 45>                          ****END OF INPUT****

CARTESIAN COORDINATES (ANGSTROEM)
---------------------------------
  C     14.964159   14.337097   16.574665
  C     16.464365   13.967188   16.563747
  O     17.372912   15.097593   16.529451
  C     16.990348   16.408193   16.421448
  O     16.181880   16.791650   15.594277
  C     17.668669   17.296177   17.428727
  C     17.504219   18.643686   17.438084
  C     16.665573   19.472356   16.488498
  N     18.169863   19.425853   18.386344
  C     19.066297   18.951850   19.305964
  S     19.860389   19.956767   20.352677
  N     19.275178   17.596743   19.315693
  C     18.546818   16.614944   18.492391
  C     17.745069   15.684100   19.397865
  C     18.210785   14.383326   19.666776
  C     17.471735   13.514658   20.487335
  C     16.258513   13.950997   21.046323
  C     15.796423   15.248780   20.788094
  O     14.626336   15.673646   21.327454
  C     16.534460   16.111433   19.972040
  H     14.736514   15.045576   17.381205
  H     14.356224   13.439079   16.736826
  H     14.654483   14.774754   15.617476
  H     16.682926   13.371376   17.459129
  H     16.660337   13.327381   15.693725
  H     15.608640   19.184538   16.556915
  H     16.981964   19.308081   15.450491
  H     16.729450   20.548733   16.686211
  H     18.029807   20.423531   18.394101
  H     19.911806   17.274005   20.032826
  H     19.298117   16.014721   17.959908
  H     19.146762   14.042392   19.232126
  H     17.839767   12.510013   20.688958
  H     15.684140   13.284115   21.681057
  H     14.289823   14.962477   21.893201
  H     16.162247   17.114191   19.791988

 Total Charge           Charge          ....    0
 Multiplicity           Mult            ....    1
 Number of Electrons    NEL             ....  154
 Basis Dimension        Dim             ....  828

ORBITAL ENERGIES
----------------

  NO   OCC          E(Eh)            E(eV)
   0   2.0000     -91.888958     -2500.4257
   1   2.0000     -20.600555      -560.5696
   2   2.0000     -20.589414      -560.2664
   3   2.0000     -20.541626      -558.9661
   4   2.0000     -15.629007      -425.2869
   5   2.0000     -15.608575      -424.7309
   6   2.0000     -11.394451      -310.0588
   7   2.0000     -11.384168      -309.7790
   8   2.0000     -11.335861      -308.4645
   9   2.0000     -11.318026      -307.9792
  10   2.0000     -11.309389      -307.7441
  11   2.0000     -11.298932      -307.4596
  12   2.0000     -11.263524      -306.4961
  13   2.0000     -11.259549      -306.3879
  14   2.0000     -11.257855      -306.3418
  15   2.0000     -11.252086      -306.1848
  16   2.0000     -11.246888      -306.0434
  17   2.0000     -11.241757      -305.9038
  18   2.0000     -11.241678      -305.9016
  19   2.0000     -11.223033      -305.3942
  20   2.0000      -8.894028      -242.0188
  21   2.0000      -6.575604      -178.9313
  22   2.0000      -6.573597      -178.8767
  23   2.0000      -6.573012      -178.8608
  24   2.0000      -1.441567       -39.2270
  25   2.0000      -1.420196       -38.6455
  26   2.0000      -1.351053       -36.7640
  27   2.0000      -1.340152       -36.4674
  28   2.0000      -1.238975       -33.7142
  29   2.0000      -1.161009       -31.5926
  30   2.0000      -1.120557       -30.4919
  31   2.0000      -1.044812       -28.4308
  32   2.0000      -1.032828       -28.1047
  33   2.0000      -1.019117       -27.7316
  34   2.0000      -0.996478       -27.1155
  35   2.0000      -0.984617       -26.7928
  36   2.0000      -0.923769       -25.1370
  37   2.0000      -0.896356       -24.3911
  38   2.0000      -0.848158       -23.0796
  39   2.0000      -0.840607       -22.8741
  40   2.0000      -0.837335       -22.7850
  41   2.0000      -0.818557       -22.2741
  42   2.0000      -0.743959       -20.2442
  43   2.0000      -0.733347       -19.9554
  44   2.0000      -0.719152       -19.5691
  45   2.0000      -0.698968       -19.0199
  46   2.0000      -0.688567       -18.7369
  47   2.0000      -0.673762       -18.3340
  48   2.0000      -0.671021       -18.2594
  49   2.0000      -0.659515       -17.9463
  50   2.0000      -0.653028       -17.7698
  51   2.0000      -0.643941       -17.5225
  52   2.0000      -0.637253       -17.3405
  53   2.0000      -0.616474       -16.7751
  54   2.0000      -0.610904       -16.6235
  55   2.0000      -0.603137       -16.4122
  56   2.0000      -0.600263       -16.3340
  57   2.0000      -0.580297       -15.7907
  58   2.0000      -0.571279       -15.5453
  59   2.0000      -0.567304       -15.4371
  60   2.0000      -0.553538       -15.0625
  61   2.0000      -0.540334       -14.7032
  62   2.0000      -0.534555       -14.5460
  63   2.0000      -0.528234       -14.3740
  64   2.0000      -0.521252       -14.1840
  65   2.0000      -0.514324       -13.9955
  66   2.0000      -0.502607       -13.6766
  67   2.0000      -0.494760       -13.4631
  68   2.0000      -0.489060       -13.3080
  69   2.0000      -0.463383       -12.6093
  70   2.0000      -0.453637       -12.3441
  71   2.0000      -0.440836       -11.9958
  72   2.0000      -0.354206        -9.6384
  73   2.0000      -0.352522        -9.5926
  74   2.0000      -0.329175        -8.9573
  75   2.0000      -0.325094        -8.8463
  76   2.0000      -0.316839        -8.6216
  77   0.0000       0.075369         2.0509
  78   0.0000       0.101366         2.7583
  79   0.0000       0.122973         3.3463
  80   0.0000       0.131136         3.5684
  81   0.0000       0.134666         3.6645

MULLIKEN ATOMIC CHARGES
-----------------------
   0 C :   -0.310543
   1 C :    0.039104
   2 O :   -0.379274
   3 C :    0.464061
   4 O :   -0.417793
   5 C :   -0.254144
   6 C :    0.166036
   7 C :   -0.270098
   8 N :   -0.123082
   9 C :    0.215949
  10 S :   -0.442002
  11 N :   -0.211741
  12 C :    0.084377
  13 C :    0.066378
  14 C :   -0.213921
  15 C :   -0.123679
  16 C :   -0.279526
  17 C :    0.322146
  18 O :   -0.357681
  19 C :   -0.278739
  20 H :    0.103002
  21 H :    0.099941
  22 H :    0.125383
  23 H :    0.103945
  24 H :    0.111179
  25 H :    0.130389
  26 H :    0.132358
  27 H :    0.095275
  28 H :    0.196862
  29 H :    0.196149
  30 H :    0.148886
  31 H :    0.151813
  32 H :    0.164798
  33 H :    0.132574
  34 H :    0.241600
  35 H :    0.170019
Sum of atomic charges:   -0.0000000

LOEWDIN ATOMIC CHARGES
----------------------
   0 C :    0.104347
   1 C :   -0.009783
   2 O :    0.291239
   3 C :   -0.417304
   4 O :    0.109006
   5 C :   -0.097009
   6 C :   -0.059102
   7 C :    0.131435
   8 N :    0.406822
   9 C :   -0.455070
  10 S :   -0.036477
  11 N :    0.395920
  12 C :   -0.052038
  13 C :   -0.036471
  14 C :    0.014266
  15 C :    0.040059
  16 C :   -0.002505
  17 C :   -0.189423
  18 O :    0.396182
  19 C :    0.030873
  20 H :   -0.028528
  21 H :   -0.025876
  22 H :   -0.024827
  23 H :   -0.029509
  24 H :   -0.028313
  25 H :   -0.005115
  26 H :   -0.003523
  27 H :   -0.023475
  28 H :   -0.057571
  29 H :   -0.065059
  30 H :   -0.010860
  31 H :   -0.029565
  32 H :   -0.020474
  33 H :   -0.034990
  34 H :   -0.152979
  35 H :   -0.024304

  Mayer bond orders larger than 0.100000
B(  0-C ,  1-C ) :   0.9683 B(  0-C , 20-H ) :   0.9734 B(  0-C , 21-H ) :   0.9748
B(  0-C , 22-H ) :   0.9718 B(  1-C ,  2-O ) :   0.8902 B(  1-C , 23-H ) :   0.9726
B(  1-C , 24-H ) :   0.9840 B(  2-O ,  3-C ) :   1.1341 B(  3-C ,  4-O ) :   2.0001
B(  3-C ,  5-C ) :   1.0460 B(  5-C ,  6-C ) :   1.6470 B(  5-C , 12-C ) :   0.9712
B(  6-C ,  7-C ) :   0.9654 B(  6-C ,  8-N ) :   1.1633 B(  7-C , 25-H ) :   0.9604
B(  7-C , 26-H ) :   0.9601 B(  7-C , 27-H ) :   0.9905 B(  8-N ,  9-C ) :   1.1853
B(  8-N , 28-H ) :   0.9478 B(  9-C , 10-S ) :   1.6020 B(  9-C , 11-N ) :   1.3090
B( 11-N , 12-C ) :   0.9763 B( 11-N , 29-H ) :   0.9510 B( 12-C , 13-C ) :   0.9409
B( 12-C , 30-H ) :   1.0009 B( 13-C , 14-C ) :   1.3472 B( 13-C , 19-C ) :   1.3704
B( 14-C , 15-C ) :   1.3878 B( 14-C , 31-H ) :   0.9744 B( 15-C , 16-C ) :   1.3608
B( 15-C , 32-H ) :   0.9695 B( 16-C , 17-C ) :   1.3318 B( 16-C , 33-H ) :   0.9842
B( 17-C , 18-O ) :   1.1088 B( 17-C , 19-C ) :   1.3653 B( 18-O , 34-H ) :   0.9792
B( 19-C , 35-H ) :   0.9586

MP2 TOTAL ENERGY:    -1274.338612953 Eh
FINAL SINGLE POINT ENERGY     -1274.338612952693

DIPOLE MOMENT
-------------
                                X             Y             Z
Electronic contribution:      9.83005       9.69881       6.70882
Nuclear contribution   :    -10.78353     -11.45697      -6.82181
                        -----------------------------------------
Total Dipole Moment    :     -0.95348      -1.75816      -0.11299
                        -----------------------------------------
Magnitude (a.u.)       :      2.00325
Magnitude (Debye)      :      5.09186

Rotational constants in cm-1:     0.012758     0.008653     0.006413
Rotational constants in MHz :   382.483899   259.413737   192.249787

                             ****ORCA TERMINATED NORMALLY****
TOTAL RUN TIME: 0 days 2 hours 9 minutes 19 seconds 834 msec
