                         Program Version 5.0.0 -  RELEASE  -
|  1> ! ri-mp2 cc-pvtz cc-pvtz/c TightSCF NoKeepInts
|  2>
|  3> %scf
|  4>   MaxCore 4096
|  5> end
|  6> *xyz  0  1
|  7>     C       15.0799655   15.6434150   17.1434726
|  8>     C       16.0043941   14.4188613   16.9517417
|  9>     O       17.3539649   14.7107872   16.4970305
| 10>     C       17.8331370   15.9467095   16.1584752
| 11>     O       17.8750264   16.2562419   14.9820686
| 12>     C       17.8404034   16.9631390   17.2662729
| 13>     C       17.4670796   18.2518362   17.0648554
| 14>     C       16.8545468   18.8424559   15.8128699
| 15>     N       17.6698351   19.2046811   18.0662752
| 16>     C       18.4041583   18.9955502   19.2027016
| 17>     S       18.7067893   20.2089337   20.2845856
| 18>     N       18.8825873   17.7245843   19.3976076
| 19>     C       18.5280439   16.5466224   18.5822994
| 20>     C       17.7678254   15.5406322   19.4431391
| 21>     C       18.1982655   14.2014369   19.5108740
| 22>     C       17.5238307   13.2715645   20.3199159
| 23>     C       16.4145394   13.6844433   21.0769812
| 24>     C       15.9938997   15.0201721   21.0282657
| 25>     O       14.9252893   15.4234761   21.7599148
| 26>     C       16.6689643   15.9438069   20.2243174
| 27>     H       15.4072565   16.3030071   17.9499611
| 28>     H       14.0688912   15.3038883   17.3991550
| 29>     H       15.0044857   16.2223445   16.2155714
| 30>     H       16.0486274   13.8534885   17.8905190
| 31>     H       15.5364925   13.7578960   16.2107044
| 32>     H       17.6241512   18.9825820   15.0427456
| 33>     H       16.3744008   19.8116276   15.9917896
| 34>     H       16.0944334   18.1751612   15.3902211
| 35>     H       17.3470786   20.1490575   17.9270798
| 36>     H       19.4016314   17.5975653   20.2573791
| 37>     H       19.4756221   16.0689380   18.2956727
| 38>     H       19.0532977   13.8757566   18.9236413
| 39>     H       17.8617026   12.2370847   20.3581623
| 40>     H       15.8898905   12.9695631   21.7026371
| 41>     H       14.6342936   14.6692465   22.2945547
| 42>     H       16.3321991   16.9754433   20.2105415
| 43> *
| 44>
| 45>                          ****END OF INPUT****

CARTESIAN COORDINATES (ANGSTROEM)
---------------------------------
  C     15.079966   15.643415   17.143473
  C     16.004394   14.418861   16.951742
  O     17.353965   14.710787   16.497031
  C     17.833137   15.946709   16.158475
  O     17.875026   16.256242   14.982069
  C     17.840403   16.963139   17.266273
  C     17.467080   18.251836   17.064855
  C     16.854547   18.842456   15.812870
  N     17.669835   19.204681   18.066275
  C     18.404158   18.995550   19.202702
  S     18.706789   20.208934   20.284586
  N     18.882587   17.724584   19.397608
  C     18.528044   16.546622   18.582299
  C     17.767825   15.540632   19.443139
  C     18.198266   14.201437   19.510874
  C     17.523831   13.271564   20.319916
  C     16.414539   13.684443   21.076981
  C     15.993900   15.020172   21.028266
  O     14.925289   15.423476   21.759915
  C     16.668964   15.943807   20.224317
  H     15.407257   16.303007   17.949961
  H     14.068891   15.303888   17.399155
  H     15.004486   16.222344   16.215571
  H     16.048627   13.853488   17.890519
  H     15.536492   13.757896   16.210704
  H     17.624151   18.982582   15.042746
  H     16.374401   19.811628   15.991790
  H     16.094433   18.175161   15.390221
  H     17.347079   20.149058   17.927080
  H     19.401631   17.597565   20.257379
  H     19.475622   16.068938   18.295673
  H     19.053298   13.875757   18.923641
  H     17.861703   12.237085   20.358162
  H     15.889890   12.969563   21.702637
  H     14.634294   14.669246   22.294555
  H     16.332199   16.975443   20.210542

 Total Charge           Charge          ....    0
 Multiplicity           Mult            ....    1
 Number of Electrons    NEL             ....  154
 Basis Dimension        Dim             ....  828

ORBITAL ENERGIES
----------------

  NO   OCC          E(Eh)            E(eV)
   0   2.0000     -91.891244     -2500.4879
   1   2.0000     -20.602436      -560.6208
   2   2.0000     -20.577952      -559.9546
   3   2.0000     -20.552979      -559.2750
   4   2.0000     -15.629336      -425.2959
   5   2.0000     -15.611386      -424.8074
   6   2.0000     -11.394766      -310.0673
   7   2.0000     -11.386290      -309.8367
   8   2.0000     -11.333578      -308.4023
   9   2.0000     -11.320195      -308.0382
  10   2.0000     -11.316604      -307.9404
  11   2.0000     -11.302183      -307.5480
  12   2.0000     -11.266300      -306.5716
  13   2.0000     -11.260627      -306.4172
  14   2.0000     -11.260288      -306.4080
  15   2.0000     -11.254953      -306.2629
  16   2.0000     -11.250030      -306.1289
  17   2.0000     -11.245569      -306.0075
  18   2.0000     -11.244110      -305.9678
  19   2.0000     -11.231310      -305.6195
  20   2.0000      -8.896305      -242.0808
  21   2.0000      -6.577881      -178.9932
  22   2.0000      -6.575873      -178.9386
  23   2.0000      -6.575284      -178.9226
  24   2.0000      -1.441757       -39.2322
  25   2.0000      -1.422257       -38.7016
  26   2.0000      -1.349978       -36.7348
  27   2.0000      -1.341760       -36.5111
  28   2.0000      -1.241395       -33.7801
  29   2.0000      -1.163119       -31.6501
  30   2.0000      -1.122021       -30.5317
  31   2.0000      -1.047789       -28.5118
  32   2.0000      -1.033384       -28.1198
  33   2.0000      -1.021712       -27.8022
  34   2.0000      -1.002411       -27.2770
  35   2.0000      -0.988312       -26.8933
  36   2.0000      -0.927100       -25.2277
  37   2.0000      -0.898023       -24.4364
  38   2.0000      -0.850381       -23.1400
  39   2.0000      -0.843667       -22.9573
  40   2.0000      -0.840785       -22.8789
  41   2.0000      -0.823724       -22.4147
  42   2.0000      -0.746831       -20.3223
  43   2.0000      -0.736763       -20.0483
  44   2.0000      -0.721426       -19.6310
  45   2.0000      -0.701038       -19.0762
  46   2.0000      -0.690211       -18.7816
  47   2.0000      -0.675353       -18.3773
  48   2.0000      -0.672760       -18.3067
  49   2.0000      -0.659749       -17.9527
  50   2.0000      -0.656235       -17.8571
  51   2.0000      -0.647571       -17.6213
  52   2.0000      -0.639665       -17.4062
  53   2.0000      -0.624903       -17.0045
  54   2.0000      -0.612111       -16.6564
  55   2.0000      -0.604983       -16.4624
  56   2.0000      -0.602536       -16.3958
  57   2.0000      -0.581549       -15.8248
  58   2.0000      -0.575718       -15.6661
  59   2.0000      -0.566838       -15.4245
  60   2.0000      -0.553610       -15.0645
  61   2.0000      -0.551147       -14.9975
  62   2.0000      -0.542087       -14.7509
  63   2.0000      -0.530953       -14.4480
  64   2.0000      -0.527735       -14.3604
  65   2.0000      -0.516262       -14.0482
  66   2.0000      -0.505066       -13.7435
  67   2.0000      -0.492790       -13.4095
  68   2.0000      -0.479514       -13.0483
  69   2.0000      -0.472295       -12.8518
  70   2.0000      -0.451032       -12.2732
  71   2.0000      -0.445655       -12.1269
  72   2.0000      -0.358507        -9.7555
  73   2.0000      -0.350725        -9.5437
  74   2.0000      -0.330804        -9.0016
  75   2.0000      -0.327684        -8.9167
  76   2.0000      -0.319452        -8.6927
  77   0.0000       0.072960         1.9853
  78   0.0000       0.100167         2.7257
  79   0.0000       0.118015         3.2114
  80   0.0000       0.126502         3.4423
  81   0.0000       0.131337         3.5739

MULLIKEN ATOMIC CHARGES
-----------------------
   0 C :   -0.350521
   1 C :    0.039089
   2 O :   -0.373943
   3 C :    0.443973
   4 O :   -0.373416
   5 C :   -0.256406
   6 C :    0.164280
   7 C :   -0.280416
   8 N :   -0.124317
   9 C :    0.198130
  10 S :   -0.435805
  11 N :   -0.203878
  12 C :    0.065346
  13 C :    0.032150
  14 C :   -0.180720
  15 C :   -0.137431
  16 C :   -0.277156
  17 C :    0.322236
  18 O :   -0.355449
  19 C :   -0.278165
  20 H :    0.115287
  21 H :    0.125313
  22 H :    0.109389
  23 H :    0.112578
  24 H :    0.125319
  25 H :    0.143033
  26 H :    0.094526
  27 H :    0.124118
  28 H :    0.197605
  29 H :    0.195480
  30 H :    0.152188
  31 H :    0.147994
  32 H :    0.164802
  33 H :    0.134302
  34 H :    0.241597
  35 H :    0.178889
Sum of atomic charges:   -0.0000000

LOEWDIN ATOMIC CHARGES
----------------------
   0 C :    0.104950
   1 C :   -0.007214
   2 O :    0.276919
   3 C :   -0.424099
   4 O :    0.134289
   5 C :   -0.093465
   6 C :   -0.069170
   7 C :    0.129961
   8 N :    0.406006
   9 C :   -0.458853
  10 S :   -0.033775
  11 N :    0.396783
  12 C :   -0.052178
  13 C :   -0.041808
  14 C :    0.019819
  15 C :    0.040036
  16 C :   -0.001421
  17 C :   -0.192664
  18 O :    0.396732
  19 C :    0.032876
  20 H :   -0.037795
  21 H :   -0.020039
  22 H :   -0.030214
  23 H :   -0.027567
  24 H :   -0.024890
  25 H :   -0.002976
  26 H :   -0.022207
  27 H :   -0.011371
  28 H :   -0.057652
  29 H :   -0.063989
  30 H :   -0.008508
  31 H :   -0.027569
  32 H :   -0.019536
  33 H :   -0.034031
  34 H :   -0.152642
  35 H :   -0.022737

  Mayer bond orders larger than 0.100000
B(  0-C ,  1-C ) :   0.9630 B(  0-C , 20-H ) :   0.9675 B(  0-C , 21-H ) :   0.9755
B(  0-C , 22-H ) :   0.9741 B(  1-C ,  2-O ) :   0.8864 B(  1-C , 23-H ) :   0.9709
B(  1-C , 24-H ) :   0.9841 B(  2-O ,  3-C ) :   1.1355 B(  3-C ,  4-O ) :   2.0829
B(  3-C ,  5-C ) :   0.9736 B(  5-C ,  6-C ) :   1.6810 B(  5-C , 12-C ) :   0.9605
B(  6-C ,  7-C ) :   0.9598 B(  6-C ,  8-N ) :   1.1400 B(  7-C , 25-H ) :   0.9571
B(  7-C , 26-H ) :   0.9861 B(  7-C , 27-H ) :   0.9697 B(  8-N ,  9-C ) :   1.1884
B(  8-N , 28-H ) :   0.9493 B(  9-C , 10-S ) :   1.6165 B(  9-C , 11-N ) :   1.2889
B( 11-N , 12-C ) :   0.9941 B( 11-N , 29-H ) :   0.9505 B( 12-C , 13-C ) :   0.9368
B( 12-C , 30-H ) :   1.0091 B( 13-C , 14-C ) :   1.3628 B( 13-C , 19-C ) :   1.3539
B( 14-C , 15-C ) :   1.3981 B( 14-C , 31-H ) :   0.9730 B( 15-C , 16-C ) :   1.3571
B( 15-C , 32-H ) :   0.9705 B( 16-C , 17-C ) :   1.3305 B( 16-C , 33-H ) :   0.9838
B( 17-C , 18-O ) :   1.1130 B( 17-C , 19-C ) :   1.3645 B( 18-O , 34-H ) :   0.9790
B( 19-C , 35-H ) :   0.9552

MP2 TOTAL ENERGY:    -1274.315295924 Eh
FINAL SINGLE POINT ENERGY     -1274.315295923516

DIPOLE MOMENT
-------------
                                X             Y             Z
Electronic contribution:      9.58533       6.44025       5.68976
Nuclear contribution   :    -10.77972      -7.99098      -5.47650
                        -----------------------------------------
Total Dipole Moment    :     -1.19440      -1.55074       0.21326
                        -----------------------------------------
Magnitude (a.u.)       :      1.96897
Magnitude (Debye)      :      5.00473

Rotational constants in cm-1:     0.012190     0.009676     0.006614
Rotational constants in MHz :   365.440066   290.068873   198.296302

                             ****ORCA TERMINATED NORMALLY****
TOTAL RUN TIME: 0 days 2 hours 16 minutes 51 seconds 639 msec
