                         Program Version 5.0.0 -  RELEASE  -
|  1> ! ri-mp2 cc-pvtz cc-pvtz/c TightSCF NoKeepInts
|  2>
|  3> %scf
|  4>   MaxCore 4096
|  5> end
|  6> *xyz  0  1
|  7>     C       15.1219656   14.0413785   15.4334900
|  8>     C       15.9461580   14.0974089   16.7377265
|  9>     O       16.9751403   15.1101047   16.6912045
| 10>     C       16.6975899   16.4465307   16.5727175
| 11>     O       15.7308371   16.8753504   15.9685721
| 12>     C       17.5304895   17.2812679   17.5084817
| 13>     C       17.4308898   18.6344220   17.5601371
| 14>     C       16.5219374   19.5204847   16.7350187
| 15>     N       18.2539974   19.3665251   18.4210888
| 16>     C       19.2672224   18.8382438   19.1752810
| 17>     S       20.2594444   19.7881411   20.0967606
| 18>     N       19.4216751   17.4766427   19.1244910
| 19>     C       18.5120366   16.5433361   18.4356692
| 20>     C       17.7887079   15.6799871   19.4659113
| 21>     C       18.1003825   14.3132457   19.5942430
| 22>     C       17.4306347   13.5123100   20.5344708
| 23>     C       16.4437151   14.0830804   21.3561202
| 24>     C       16.1355280   15.4451346   21.2356941
| 25>     O       15.1844851   15.9994650   22.0288046
| 26>     C       16.8028548   16.2393179   20.2981726
| 27>     H       14.3914486   14.8575457   15.3827423
| 28>     H       14.5637210   13.0992258   15.3781236
| 29>     H       15.7767754   14.1024091   14.5554492
| 30>     H       15.2778154   14.2794238   17.5900603
| 31>     H       16.4254030   13.1226012   16.8939515
| 32>     H       15.4693060   19.3094044   16.9634392
| 33>     H       16.6674182   19.3332499   15.6635415
| 34>     H       16.6916726   20.5896195   16.9080233
| 35>     H       18.1557181   20.3680161   18.4701884
| 36>     H       20.1537481   17.1131403   19.7209166
| 37>     H       19.1317023   15.8879203   17.8075610
| 38>     H       18.8606276   13.8689381   18.9572873
| 39>     H       17.6782494   12.4560928   20.6258420
| 40>     H       15.9246995   13.4692475   22.0850110
| 41>     H       14.8690946   15.3102308   22.6324215
| 42>     H       16.5539086   17.2925574   20.2253861
| 43> *
| 44>
| 45>                          ****END OF INPUT****

CARTESIAN COORDINATES (ANGSTROEM)
---------------------------------
  C     15.121966   14.041379   15.433490
  C     15.946158   14.097409   16.737727
  O     16.975140   15.110105   16.691205
  C     16.697590   16.446531   16.572717
  O     15.730837   16.875350   15.968572
  C     17.530490   17.281268   17.508482
  C     17.430890   18.634422   17.560137
  C     16.521937   19.520485   16.735019
  N     18.253997   19.366525   18.421089
  C     19.267222   18.838244   19.175281
  S     20.259444   19.788141   20.096761
  N     19.421675   17.476643   19.124491
  C     18.512037   16.543336   18.435669
  C     17.788708   15.679987   19.465911
  C     18.100382   14.313246   19.594243
  C     17.430635   13.512310   20.534471
  C     16.443715   14.083080   21.356120
  C     16.135528   15.445135   21.235694
  O     15.184485   15.999465   22.028805
  C     16.802855   16.239318   20.298173
  H     14.391449   14.857546   15.382742
  H     14.563721   13.099226   15.378124
  H     15.776775   14.102409   14.555449
  H     15.277815   14.279424   17.590060
  H     16.425403   13.122601   16.893952
  H     15.469306   19.309404   16.963439
  H     16.667418   19.333250   15.663541
  H     16.691673   20.589620   16.908023
  H     18.155718   20.368016   18.470188
  H     20.153748   17.113140   19.720917
  H     19.131702   15.887920   17.807561
  H     18.860628   13.868938   18.957287
  H     17.678249   12.456093   20.625842
  H     15.924699   13.469247   22.085011
  H     14.869095   15.310231   22.632421
  H     16.553909   17.292557   20.225386

 Total Charge           Charge          ....    0
 Multiplicity           Mult            ....    1
 Number of Electrons    NEL             ....  154
 Basis Dimension        Dim             ....  828

ORBITAL ENERGIES
----------------

  NO   OCC          E(Eh)            E(eV)
   0   2.0000     -91.888732     -2500.4195
   1   2.0000     -20.597841      -560.4957
   2   2.0000     -20.593539      -560.3787
   3   2.0000     -20.543950      -559.0293
   4   2.0000     -15.628854      -425.2827
   5   2.0000     -15.608079      -424.7174
   6   2.0000     -11.396245      -310.1076
   7   2.0000     -11.383792      -309.7687
   8   2.0000     -11.335370      -308.4511
   9   2.0000     -11.315201      -307.9023
  10   2.0000     -11.308994      -307.7334
  11   2.0000     -11.299558      -307.4766
  12   2.0000     -11.260772      -306.4212
  13   2.0000     -11.258445      -306.3579
  14   2.0000     -11.256629      -306.3084
  15   2.0000     -11.252166      -306.1870
  16   2.0000     -11.244189      -305.9699
  17   2.0000     -11.239397      -305.8395
  18   2.0000     -11.239130      -305.8323
  19   2.0000     -11.218162      -305.2617
  20   2.0000      -8.893798      -242.0126
  21   2.0000      -6.575374      -178.9250
  22   2.0000      -6.573369      -178.8705
  23   2.0000      -6.572782      -178.8545
  24   2.0000      -1.446343       -39.3570
  25   2.0000      -1.417489       -38.5718
  26   2.0000      -1.354954       -36.8702
  27   2.0000      -1.339924       -36.4612
  28   2.0000      -1.238467       -33.7004
  29   2.0000      -1.158460       -31.5233
  30   2.0000      -1.119875       -30.4734
  31   2.0000      -1.043061       -28.3831
  32   2.0000      -1.033530       -28.1238
  33   2.0000      -1.016292       -27.6547
  34   2.0000      -0.995027       -27.0761
  35   2.0000      -0.983495       -26.7623
  36   2.0000      -0.922735       -25.1089
  37   2.0000      -0.891591       -24.2614
  38   2.0000      -0.847410       -23.0592
  39   2.0000      -0.838837       -22.8259
  40   2.0000      -0.835076       -22.7236
  41   2.0000      -0.820674       -22.3317
  42   2.0000      -0.750786       -20.4299
  43   2.0000      -0.731911       -19.9163
  44   2.0000      -0.720278       -19.5998
  45   2.0000      -0.696637       -18.9565
  46   2.0000      -0.688560       -18.7367
  47   2.0000      -0.680010       -18.5040
  48   2.0000      -0.669249       -18.2112
  49   2.0000      -0.655881       -17.8474
  50   2.0000      -0.649678       -17.6786
  51   2.0000      -0.645692       -17.5702
  52   2.0000      -0.634358       -17.2618
  53   2.0000      -0.608170       -16.5491
  54   2.0000      -0.601955       -16.3800
  55   2.0000      -0.599353       -16.3092
  56   2.0000      -0.596236       -16.2244
  57   2.0000      -0.582483       -15.8502
  58   2.0000      -0.575438       -15.6585
  59   2.0000      -0.570820       -15.5328
  60   2.0000      -0.563188       -15.3251
  61   2.0000      -0.538772       -14.6607
  62   2.0000      -0.534836       -14.5536
  63   2.0000      -0.525653       -14.3038
  64   2.0000      -0.518857       -14.1188
  65   2.0000      -0.512930       -13.9575
  66   2.0000      -0.501306       -13.6412
  67   2.0000      -0.498758       -13.5719
  68   2.0000      -0.484734       -13.1903
  69   2.0000      -0.463808       -12.6209
  70   2.0000      -0.455891       -12.4054
  71   2.0000      -0.440011       -11.9733
  72   2.0000      -0.353806        -9.6276
  73   2.0000      -0.350467        -9.5367
  74   2.0000      -0.328287        -8.9331
  75   2.0000      -0.322642        -8.7795
  76   2.0000      -0.316063        -8.6005
  77   0.0000       0.074436         2.0255
  78   0.0000       0.105208         2.8628
  79   0.0000       0.124641         3.3917
  80   0.0000       0.131893         3.5890
  81   0.0000       0.137444         3.7400

MULLIKEN ATOMIC CHARGES
-----------------------
   0 C :   -0.284148
   1 C :    0.046098
   2 O :   -0.374643
   3 C :    0.463971
   4 O :   -0.425537
   5 C :   -0.220453
   6 C :    0.153858
   7 C :   -0.272138
   8 N :   -0.121648
   9 C :    0.213281
  10 S :   -0.440769
  11 N :   -0.206277
  12 C :    0.065932
  13 C :    0.051220
  14 C :   -0.182492
  15 C :   -0.130472
  16 C :   -0.281218
  17 C :    0.314544
  18 O :   -0.355998
  19 C :   -0.265207
  20 H :    0.120539
  21 H :    0.091849
  22 H :    0.095149
  23 H :    0.095494
  24 H :    0.101194
  25 H :    0.132254
  26 H :    0.129608
  27 H :    0.095407
  28 H :    0.197260
  29 H :    0.194770
  30 H :    0.149288
  31 H :    0.149571
  32 H :    0.161369
  33 H :    0.131242
  34 H :    0.240947
  35 H :    0.166154
Sum of atomic charges:    0.0000000

LOEWDIN ATOMIC CHARGES
----------------------
   0 C :    0.103890
   1 C :   -0.013997
   2 O :    0.294178
   3 C :   -0.412748
   4 O :    0.111457
   5 C :   -0.095225
   6 C :   -0.059429
   7 C :    0.130916
   8 N :    0.406510
   9 C :   -0.456313
  10 S :   -0.035977
  11 N :    0.396208
  12 C :   -0.052355
  13 C :   -0.037631
  14 C :    0.014615
  15 C :    0.039009
  16 C :   -0.002734
  17 C :   -0.189903
  18 O :    0.395644
  19 C :    0.030663
  20 H :   -0.027311
  21 H :   -0.030508
  22 H :   -0.026279
  23 H :   -0.028576
  24 H :   -0.024671
  25 H :   -0.004860
  26 H :   -0.004302
  27 H :   -0.023366
  28 H :   -0.057631
  29 H :   -0.064783
  30 H :   -0.010472
  31 H :   -0.030064
  32 H :   -0.021155
  33 H :   -0.035480
  34 H :   -0.153668
  35 H :   -0.023651

  Mayer bond orders larger than 0.100000
B(  0-C ,  1-C ) :   0.9792 B(  0-C , 20-H ) :   0.9720 B(  0-C , 21-H ) :   0.9781
B(  0-C , 22-H ) :   0.9760 B(  1-C ,  2-O ) :   0.8886 B(  1-C , 23-H ) :   0.9713
B(  1-C , 24-H ) :   0.9825 B(  2-O ,  3-C ) :   1.1202 B(  3-C ,  4-O ) :   1.9788
B(  3-C ,  5-C ) :   1.0697 B(  5-C ,  6-C ) :   1.6534 B(  5-C , 12-C ) :   0.9728
B(  6-C ,  7-C ) :   0.9669 B(  6-C ,  8-N ) :   1.1614 B(  7-C , 25-H ) :   0.9594
B(  7-C , 26-H ) :   0.9613 B(  7-C , 27-H ) :   0.9908 B(  8-N ,  9-C ) :   1.1832
B(  8-N , 28-H ) :   0.9478 B(  9-C , 10-S ) :   1.6059 B(  9-C , 11-N ) :   1.3063
B( 11-N , 12-C ) :   0.9818 B( 11-N , 29-H ) :   0.9516 B( 12-C , 13-C ) :   0.9356
B( 12-C , 30-H ) :   1.0019 B( 13-C , 14-C ) :   1.3556 B( 13-C , 19-C ) :   1.3844
B( 14-C , 15-C ) :   1.3913 B( 14-C , 31-H ) :   0.9733 B( 15-C , 16-C ) :   1.3637
B( 15-C , 32-H ) :   0.9705 B( 16-C , 17-C ) :   1.3307 B( 16-C , 33-H ) :   0.9846
B( 17-C , 18-O ) :   1.1115 B( 17-C , 19-C ) :   1.3710 B( 18-O , 34-H ) :   0.9796
B( 19-C , 35-H ) :   0.9580

MP2 TOTAL ENERGY:    -1274.338829464 Eh
FINAL SINGLE POINT ENERGY     -1274.338829463540

DIPOLE MOMENT
-------------
                                X             Y             Z
Electronic contribution:     10.41960       9.91971       8.65777
Nuclear contribution   :    -11.44698     -11.58979      -8.87086
                        -----------------------------------------
Total Dipole Moment    :     -1.02738      -1.67007      -0.21310
                        -----------------------------------------
Magnitude (a.u.)       :      1.97232
Magnitude (Debye)      :      5.01325

Rotational constants in cm-1:     0.011812     0.008698     0.006145
Rotational constants in MHz :   354.128699   260.770874   184.216181

                             ****ORCA TERMINATED NORMALLY****
TOTAL RUN TIME: 0 days 2 hours 14 minutes 10 seconds 118 msec
