                         Program Version 5.0.0 -  RELEASE  -
|  1> ! ri-mp2 cc-pvtz cc-pvtz/c TightSCF NoKeepInts
|  2>
|  3> %scf
|  4>   MaxCore 4096
|  5> end
|  6> *xyz  0  1
|  7>     C       14.2265429   14.9634439   15.1319899
|  8>     C       15.6415090   14.5844611   15.6002886
|  9>     O       16.2919373   15.7925704   16.0258387
| 10>     C       17.4309219   15.6951524   16.7697752
| 11>     O       18.0518208   14.6488368   16.8665172
| 12>     C       17.7305911   16.8949781   17.6235504
| 13>     C       17.1768522   18.1267349   17.4667441
| 14>     C       16.1682566   18.5752376   16.4286442
| 15>     N       17.5872327   19.1814784   18.2892622
| 16>     C       18.6356900   19.1279945   19.1691978
| 17>     S       19.1409195   20.4622024   20.0060188
| 18>     N       19.2449147   17.9084018   19.3191089
| 19>     C       18.7537491   16.6451269   18.7378354
| 20>     C       18.1720753   15.7475250   19.8271632
| 21>     C       18.6464742   14.4335193   19.9960224
| 22>     C       18.1135996   13.6019350   20.9952513
| 23>     C       17.0965452   14.0873916   21.8346033
| 24>     C       16.6184735   15.3941557   21.6676620
| 25>     O       15.6322125   15.8639102   22.4726636
| 26>     C       17.1505258   16.2193234   20.6719210
| 27>     H       13.6601751   15.4279023   15.9487887
| 28>     H       13.6806540   14.0721989   14.7992188
| 29>     H       14.2727364   15.6706846   14.2945956
| 30>     H       15.5676160   13.8745708   16.4359099
| 31>     H       16.2065697   14.1098507   14.7869307
| 32>     H       16.5043738   18.3095368   15.4186055
| 33>     H       16.0035086   19.6594480   16.4375320
| 34>     H       15.1972149   18.0937760   16.5993824
| 35>     H       17.1525713   20.0852915   18.1938840
| 36>     H       19.9948168   17.8872216   19.9981633
| 37>     H       19.6158515   16.1288492   18.2912299
| 38>     H       19.4210241   14.0497649   19.3364483
| 39>     H       18.4852951   12.5854514   21.1109778
| 40>     H       16.6808912   13.4479383   22.6061068
| 41>     H       15.4244956   15.1667602   23.1126392
| 42>     H       16.7683618   17.2283756   20.5635290
| 43> *
| 44>
| 45>                          ****END OF INPUT****

CARTESIAN COORDINATES (ANGSTROEM)
---------------------------------
  C     14.226543   14.963444   15.131990
  C     15.641509   14.584461   15.600289
  O     16.291937   15.792570   16.025839
  C     17.430922   15.695152   16.769775
  O     18.051821   14.648837   16.866517
  C     17.730591   16.894978   17.623550
  C     17.176852   18.126735   17.466744
  C     16.168257   18.575238   16.428644
  N     17.587233   19.181478   18.289262
  C     18.635690   19.127994   19.169198
  S     19.140919   20.462202   20.006019
  N     19.244915   17.908402   19.319109
  C     18.753749   16.645127   18.737835
  C     18.172075   15.747525   19.827163
  C     18.646474   14.433519   19.996022
  C     18.113600   13.601935   20.995251
  C     17.096545   14.087392   21.834603
  C     16.618474   15.394156   21.667662
  O     15.632212   15.863910   22.472664
  C     17.150526   16.219323   20.671921
  H     13.660175   15.427902   15.948789
  H     13.680654   14.072199   14.799219
  H     14.272736   15.670685   14.294596
  H     15.567616   13.874571   16.435910
  H     16.206570   14.109851   14.786931
  H     16.504374   18.309537   15.418605
  H     16.003509   19.659448   16.437532
  H     15.197215   18.093776   16.599382
  H     17.152571   20.085292   18.193884
  H     19.994817   17.887222   19.998163
  H     19.615852   16.128849   18.291230
  H     19.421024   14.049765   19.336448
  H     18.485295   12.585451   21.110978
  H     16.680891   13.447938   22.606107
  H     15.424496   15.166760   23.112639
  H     16.768362   17.228376   20.563529

 Total Charge           Charge          ....    0
 Multiplicity           Mult            ....    1
 Number of Electrons    NEL             ....  154
 Basis Dimension        Dim             ....  828

ORBITAL ENERGIES
----------------

  NO   OCC          E(Eh)            E(eV)
   0   2.0000     -91.888076     -2500.4017
   1   2.0000     -20.603642      -560.6536
   2   2.0000     -20.591410      -560.3207
   3   2.0000     -20.545759      -559.0785
   4   2.0000     -15.628532      -425.2740
   5   2.0000     -15.606628      -424.6779
   6   2.0000     -11.394939      -310.0720
   7   2.0000     -11.382921      -309.7450
   8   2.0000     -11.336645      -308.4858
   9   2.0000     -11.307161      -307.6835
  10   2.0000     -11.305376      -307.6349
  11   2.0000     -11.299570      -307.4769
  12   2.0000     -11.260663      -306.4182
  13   2.0000     -11.259064      -306.3747
  14   2.0000     -11.253089      -306.2121
  15   2.0000     -11.247246      -306.0531
  16   2.0000     -11.236930      -305.7724
  17   2.0000     -11.235582      -305.7357
  18   2.0000     -11.233092      -305.6680
  19   2.0000     -11.229988      -305.5835
  20   2.0000      -8.893139      -241.9946
  21   2.0000      -6.574715      -178.9071
  22   2.0000      -6.572709      -178.8525
  23   2.0000      -6.572123      -178.8366
  24   2.0000      -1.455711       -39.6119
  25   2.0000      -1.411144       -38.3992
  26   2.0000      -1.357208       -36.9315
  27   2.0000      -1.339406       -36.4471
  28   2.0000      -1.236950       -33.6591
  29   2.0000      -1.151820       -31.3426
  30   2.0000      -1.119481       -30.4626
  31   2.0000      -1.044956       -28.4347
  32   2.0000      -1.037044       -28.2194
  33   2.0000      -1.009182       -27.4612
  34   2.0000      -0.997665       -27.1479
  35   2.0000      -0.983321       -26.7575
  36   2.0000      -0.920928       -25.0597
  37   2.0000      -0.888826       -24.1862
  38   2.0000      -0.846972       -23.0473
  39   2.0000      -0.834703       -22.7134
  40   2.0000      -0.827467       -22.5165
  41   2.0000      -0.817751       -22.2521
  42   2.0000      -0.762212       -20.7408
  43   2.0000      -0.735870       -20.0240
  44   2.0000      -0.724582       -19.7169
  45   2.0000      -0.690651       -18.7936
  46   2.0000      -0.684045       -18.6138
  47   2.0000      -0.681788       -18.5524
  48   2.0000      -0.676026       -18.3956
  49   2.0000      -0.659676       -17.9507
  50   2.0000      -0.649463       -17.6728
  51   2.0000      -0.643506       -17.5107
  52   2.0000      -0.634922       -17.2771
  53   2.0000      -0.600763       -16.3476
  54   2.0000      -0.600042       -16.3280
  55   2.0000      -0.595436       -16.2026
  56   2.0000      -0.594166       -16.1681
  57   2.0000      -0.581166       -15.8143
  58   2.0000      -0.572874       -15.5887
  59   2.0000      -0.564740       -15.3674
  60   2.0000      -0.562112       -15.2959
  61   2.0000      -0.554881       -15.0991
  62   2.0000      -0.540306       -14.7025
  63   2.0000      -0.519145       -14.1267
  64   2.0000      -0.517123       -14.0716
  65   2.0000      -0.511501       -13.9187
  66   2.0000      -0.504915       -13.7394
  67   2.0000      -0.495487       -13.4829
  68   2.0000      -0.480791       -13.0830
  69   2.0000      -0.463754       -12.6194
  70   2.0000      -0.460324       -12.5260
  71   2.0000      -0.455694       -12.4001
  72   2.0000      -0.354257        -9.6398
  73   2.0000      -0.343713        -9.3529
  74   2.0000      -0.327180        -8.9030
  75   2.0000      -0.315532        -8.5861
  76   2.0000      -0.313454        -8.5295
  77   0.0000       0.075938         2.0664
  78   0.0000       0.113363         3.0848
  79   0.0000       0.120324         3.2742
  80   0.0000       0.135954         3.6995
  81   0.0000       0.138648         3.7728

MULLIKEN ATOMIC CHARGES
-----------------------
   0 C :   -0.276165
   1 C :    0.048205
   2 O :   -0.335496
   3 C :    0.428647
   4 O :   -0.426029
   5 C :   -0.167378
   6 C :    0.143789
   7 C :   -0.288154
   8 N :   -0.121815
   9 C :    0.201356
  10 S :   -0.439118
  11 N :   -0.197028
  12 C :    0.035620
  13 C :    0.058248
  14 C :   -0.160166
  15 C :   -0.134116
  16 C :   -0.279143
  17 C :    0.311408
  18 O :   -0.359279
  19 C :   -0.273215
  20 H :    0.095800
  21 H :    0.102482
  22 H :    0.095055
  23 H :    0.093293
  24 H :    0.096050
  25 H :    0.127297
  26 H :    0.104327
  27 H :    0.127296
  28 H :    0.196718
  29 H :    0.193561
  30 H :    0.153425
  31 H :    0.153173
  32 H :    0.159011
  33 H :    0.127926
  34 H :    0.240036
  35 H :    0.164381
Sum of atomic charges:   -0.0000000

LOEWDIN ATOMIC CHARGES
----------------------
   0 C :    0.106840
   1 C :   -0.017634
   2 O :    0.306618
   3 C :   -0.415182
   4 O :    0.104290
   5 C :   -0.091491
   6 C :   -0.065709
   7 C :    0.125006
   8 N :    0.404845
   9 C :   -0.458929
  10 S :   -0.035871
  11 N :    0.397892
  12 C :   -0.046473
  13 C :   -0.038780
  14 C :    0.022384
  15 C :    0.040885
  16 C :   -0.002434
  17 C :   -0.192740
  18 O :    0.392879
  19 C :    0.028220
  20 H :   -0.027679
  21 H :   -0.022674
  22 H :   -0.028220
  23 H :   -0.026384
  24 H :   -0.029015
  25 H :   -0.008585
  26 H :   -0.021000
  27 H :   -0.010108
  28 H :   -0.059202
  29 H :   -0.063650
  30 H :   -0.004932
  31 H :   -0.025265
  32 H :   -0.021245
  33 H :   -0.036463
  34 H :   -0.154955
  35 H :   -0.025235

  Mayer bond orders larger than 0.100000
B(  0-C ,  1-C ) :   0.9701 B(  0-C , 20-H ) :   0.9773 B(  0-C , 21-H ) :   0.9790
B(  0-C , 22-H ) :   0.9775 B(  1-C ,  2-O ) :   0.9058 B(  1-C , 23-H ) :   0.9742
B(  1-C , 24-H ) :   0.9805 B(  2-O ,  3-C ) :   1.1670 B(  3-C ,  4-O ) :   1.9868
B(  3-C ,  5-C ) :   1.0547 B(  5-C ,  6-C ) :   1.6452 B(  5-C , 12-C ) :   0.9665
B(  6-C ,  7-C ) :   0.9542 B(  6-C ,  8-N ) :   1.1473 B(  7-C , 25-H ) :   0.9655
B(  7-C , 26-H ) :   0.9921 B(  7-C , 27-H ) :   0.9634 B(  8-N ,  9-C ) :   1.1781
B(  8-N , 28-H ) :   0.9488 B(  9-C , 10-S ) :   1.6109 B(  9-C , 11-N ) :   1.3045
B( 11-N , 12-C ) :   0.9921 B( 11-N , 29-H ) :   0.9520 B( 12-C , 13-C ) :   0.9477
B( 12-C , 30-H ) :   0.9999 B( 13-C , 14-C ) :   1.3757 B( 13-C , 19-C ) :   1.3692
B( 14-C , 15-C ) :   1.3947 B( 14-C , 31-H ) :   0.9649 B( 15-C , 16-C ) :   1.3624
B( 15-C , 32-H ) :   0.9714 B( 16-C , 17-C ) :   1.3315 B( 16-C , 33-H ) :   0.9861
B( 17-C , 18-O ) :   1.1079 B( 17-C , 19-C ) :   1.3793 B( 18-O , 34-H ) :   0.9806
B( 19-C , 35-H ) :   0.9586

MP2 TOTAL ENERGY:    -1274.348321024 Eh
FINAL SINGLE POINT ENERGY     -1274.348321024021

DIPOLE MOMENT
-------------
                                X             Y             Z
Electronic contribution:     12.01155       8.66962      10.85179
Nuclear contribution   :    -13.51692      -9.99618     -11.80645
                        -----------------------------------------
Total Dipole Moment    :     -1.50537      -1.32656      -0.95466
                        -----------------------------------------
Magnitude (a.u.)       :      2.22200
Magnitude (Debye)      :      5.64788

Rotational constants in cm-1:     0.010304     0.008905     0.005902
Rotational constants in MHz :   308.899337   266.976714   176.940832

                             ****ORCA TERMINATED NORMALLY****
TOTAL RUN TIME: 0 days 1 hours 55 minutes 11 seconds 797 msec
