                         Program Version 5.0.0 -  RELEASE  -
|  1> ! ri-mp2 cc-pvtz cc-pvtz/c TightSCF NoKeepInts
|  2>
|  3> %scf
|  4>   MaxCore 4096
|  5> end
|  6> *xyz  0  1
|  7>     C       15.5536551   13.3131961   16.1239925
|  8>     C       15.6681514   14.6425884   16.8874169
|  9>     O       16.8592993   15.3030119   16.4196619
| 10>     C       16.8218317   16.6598009   16.2862071
| 11>     O       15.9852155   17.1813039   15.5704068
| 12>     C       17.5441936   17.3843421   17.3914834
| 13>     C       17.4445911   18.7276617   17.5676376
| 14>     C       16.5944373   19.6999095   16.7776127
| 15>     N       18.2197430   19.3656289   18.5411354
| 16>     C       19.2354508   18.7717301   19.2417858
| 17>     S       20.2133127   19.6286331   20.2640769
| 18>     N       19.4091245   17.4263128   19.0403779
| 19>     C       18.4773308   16.5599366   18.2963713
| 20>     C       17.7226307   15.6778823   19.2851960
| 21>     C       18.0514611   14.3149036   19.4120276
| 22>     C       17.3600040   13.4941783   20.3188685
| 23>     C       16.3358166   14.0415231   21.1102750
| 24>     C       16.0132481   15.4005306   20.9946376
| 25>     O       15.0260736   15.9324449   21.7580741
| 26>     C       16.7010617   16.2145033   20.0893960
| 27>     H       14.6521791   12.7693963   16.4310472
| 28>     H       16.4248195   12.6771028   16.3233745
| 29>     H       15.4950985   13.4938008   15.0431974
| 30>     H       14.7746846   15.2461793   16.6753806
| 31>     H       15.7114156   14.4624454   17.9678879
| 32>     H       15.5326707   19.4321241   16.8516083
| 33>     H       16.8646808   19.6733541   15.7142017
| 34>     H       16.6979718   20.7366787   17.1185511
| 35>     H       18.1120391   20.3559879   18.6921416
| 36>     H       20.1483502   17.0103428   19.5920994
| 37>     H       19.0784764   15.9097346   17.6449768
| 38>     H       18.8413158   13.8881260   18.7993363
| 39>     H       17.6197910   12.4405236   20.4076697
| 40>     H       15.8001227   13.4118478   21.8132843
| 41>     H       14.7150315   15.2388218   22.3593078
| 42>     H       16.4417202   17.2655116   20.0232944
| 43> *
| 44>
| 45>                          ****END OF INPUT****

CARTESIAN COORDINATES (ANGSTROEM)
---------------------------------
  C     15.553655   13.313196   16.123992
  C     15.668151   14.642588   16.887417
  O     16.859299   15.303012   16.419662
  C     16.821832   16.659801   16.286207
  O     15.985215   17.181304   15.570407
  C     17.544194   17.384342   17.391483
  C     17.444591   18.727662   17.567638
  C     16.594437   19.699910   16.777613
  N     18.219743   19.365629   18.541135
  C     19.235451   18.771730   19.241786
  S     20.213313   19.628633   20.264077
  N     19.409125   17.426313   19.040378
  C     18.477331   16.559937   18.296371
  C     17.722631   15.677882   19.285196
  C     18.051461   14.314904   19.412028
  C     17.360004   13.494178   20.318869
  C     16.335817   14.041523   21.110275
  C     16.013248   15.400531   20.994638
  O     15.026074   15.932445   21.758074
  C     16.701062   16.214503   20.089396
  H     14.652179   12.769396   16.431047
  H     16.424820   12.677103   16.323374
  H     15.495098   13.493801   15.043197
  H     14.774685   15.246179   16.675381
  H     15.711416   14.462445   17.967888
  H     15.532671   19.432124   16.851608
  H     16.864681   19.673354   15.714202
  H     16.697972   20.736679   17.118551
  H     18.112039   20.355988   18.692142
  H     20.148350   17.010343   19.592099
  H     19.078476   15.909735   17.644977
  H     18.841316   13.888126   18.799336
  H     17.619791   12.440524   20.407670
  H     15.800123   13.411848   21.813284
  H     14.715032   15.238822   22.359308
  H     16.441720   17.265512   20.023294

 Total Charge           Charge          ....    0
 Multiplicity           Mult            ....    1
 Number of Electrons    NEL             ....  154
 Basis Dimension        Dim             ....  828

ORBITAL ENERGIES
----------------

  NO   OCC          E(Eh)            E(eV)
   0   2.0000     -91.890568     -2500.4695
   1   2.0000     -20.601381      -560.5921
   2   2.0000     -20.584419      -560.1305
   3   2.0000     -20.546705      -559.1043
   4   2.0000     -15.631070      -425.3430
   5   2.0000     -15.609718      -424.7620
   6   2.0000     -11.393148      -310.0233
   7   2.0000     -11.385336      -309.8107
   8   2.0000     -11.337568      -308.5109
   9   2.0000     -11.319317      -308.0143
  10   2.0000     -11.311615      -307.8047
  11   2.0000     -11.292059      -307.2726
  12   2.0000     -11.263782      -306.5031
  13   2.0000     -11.260590      -306.4162
  14   2.0000     -11.259828      -306.3955
  15   2.0000     -11.253374      -306.2199
  16   2.0000     -11.248156      -306.0779
  17   2.0000     -11.242815      -305.9325
  18   2.0000     -11.242537      -305.9250
  19   2.0000     -11.223830      -305.4159
  20   2.0000      -8.895608      -242.0618
  21   2.0000      -6.577176      -178.9741
  22   2.0000      -6.575178      -178.9197
  23   2.0000      -6.574585      -178.9036
  24   2.0000      -1.448781       -39.4233
  25   2.0000      -1.421051       -38.6688
  26   2.0000      -1.352276       -36.7973
  27   2.0000      -1.342144       -36.5216
  28   2.0000      -1.240622       -33.7591
  29   2.0000      -1.162011       -31.6199
  30   2.0000      -1.121486       -30.5172
  31   2.0000      -1.045909       -28.4606
  32   2.0000      -1.033924       -28.1345
  33   2.0000      -1.020172       -27.7603
  34   2.0000      -0.997585       -27.1457
  35   2.0000      -0.985602       -26.8196
  36   2.0000      -0.925307       -25.1789
  37   2.0000      -0.879429       -23.9305
  38   2.0000      -0.849163       -23.1069
  39   2.0000      -0.842057       -22.9135
  40   2.0000      -0.838261       -22.8102
  41   2.0000      -0.826635       -22.4939
  42   2.0000      -0.761105       -20.7107
  43   2.0000      -0.736026       -20.0283
  44   2.0000      -0.724411       -19.7122
  45   2.0000      -0.700420       -19.0594
  46   2.0000      -0.690989       -18.8028
  47   2.0000      -0.678547       -18.4642
  48   2.0000      -0.672305       -18.2944
  49   2.0000      -0.655997       -17.8506
  50   2.0000      -0.648322       -17.6417
  51   2.0000      -0.644058       -17.5257
  52   2.0000      -0.628629       -17.1059
  53   2.0000      -0.620621       -16.8880
  54   2.0000      -0.611956       -16.6522
  55   2.0000      -0.603588       -16.4245
  56   2.0000      -0.601044       -16.3552
  57   2.0000      -0.581642       -15.8273
  58   2.0000      -0.572318       -15.5736
  59   2.0000      -0.566108       -15.4046
  60   2.0000      -0.559493       -15.2246
  61   2.0000      -0.540167       -14.6987
  62   2.0000      -0.534390       -14.5415
  63   2.0000      -0.529484       -14.4080
  64   2.0000      -0.516772       -14.0621
  65   2.0000      -0.513943       -13.9851
  66   2.0000      -0.504825       -13.7370
  67   2.0000      -0.496152       -13.5010
  68   2.0000      -0.489191       -13.3116
  69   2.0000      -0.464658       -12.6440
  70   2.0000      -0.454490       -12.3673
  71   2.0000      -0.445607       -12.1256
  72   2.0000      -0.356971        -9.7137
  73   2.0000      -0.354275        -9.6403
  74   2.0000      -0.330608        -8.9963
  75   2.0000      -0.326538        -8.8856
  76   2.0000      -0.317761        -8.6467
  77   0.0000       0.069181         1.8825
  78   0.0000       0.102079         2.7777
  79   0.0000       0.122480         3.3329
  80   0.0000       0.127890         3.4801
  81   0.0000       0.132905         3.6165

MULLIKEN ATOMIC CHARGES
-----------------------
   0 C :   -0.260564
   1 C :    0.021896
   2 O :   -0.386280
   3 C :    0.504158
   4 O :   -0.411414
   5 C :   -0.280175
   6 C :    0.159240
   7 C :   -0.268792
   8 N :   -0.124314
   9 C :    0.213648
  10 S :   -0.437701
  11 N :   -0.203244
  12 C :    0.057919
  13 C :    0.023916
  14 C :   -0.171015
  15 C :   -0.132988
  16 C :   -0.275991
  17 C :    0.305936
  18 O :   -0.356291
  19 C :   -0.239545
  20 H :    0.085473
  21 H :    0.090213
  22 H :    0.104075
  23 H :    0.109533
  24 H :    0.116625
  25 H :    0.130402
  26 H :    0.133211
  27 H :    0.094962
  28 H :    0.198303
  29 H :    0.193574
  30 H :    0.149249
  31 H :    0.150500
  32 H :    0.162570
  33 H :    0.133181
  34 H :    0.241799
  35 H :    0.167931
Sum of atomic charges:   -0.0000000

LOEWDIN ATOMIC CHARGES
----------------------
   0 C :    0.107831
   1 C :   -0.015087
   2 O :    0.291883
   3 C :   -0.419119
   4 O :    0.114421
   5 C :   -0.098589
   6 C :   -0.057907
   7 C :    0.131181
   8 N :    0.407088
   9 C :   -0.456371
  10 S :   -0.033415
  11 N :    0.396243
  12 C :   -0.053161
  13 C :   -0.038271
  14 C :    0.013054
  15 C :    0.041017
  16 C :   -0.002164
  17 C :   -0.190369
  18 O :    0.396653
  19 C :    0.030581
  20 H :   -0.027088
  21 H :   -0.030054
  22 H :   -0.023772
  23 H :   -0.029293
  24 H :   -0.032530
  25 H :   -0.005124
  26 H :   -0.003337
  27 H :   -0.023254
  28 H :   -0.057356
  29 H :   -0.065160
  30 H :   -0.007859
  31 H :   -0.029423
  32 H :   -0.019789
  33 H :   -0.034473
  34 H :   -0.152682
  35 H :   -0.024304

  Mayer bond orders larger than 0.100000
B(  0-C ,  1-C ) :   0.9839 B(  0-C , 20-H ) :   0.9764 B(  0-C , 21-H ) :   0.9797
B(  0-C , 22-H ) :   0.9793 B(  1-C ,  2-O ) :   0.8698 B(  1-C , 23-H ) :   0.9742
B(  1-C , 24-H ) :   0.9649 B(  2-O ,  3-C ) :   1.1057 B(  3-C ,  4-O ) :   2.0097
B(  3-C ,  5-C ) :   1.0700 B(  5-C ,  6-C ) :   1.6492 B(  5-C , 12-C ) :   0.9707
B(  6-C ,  7-C ) :   0.9684 B(  6-C ,  8-N ) :   1.1583 B(  7-C , 25-H ) :   0.9613
B(  7-C , 26-H ) :   0.9587 B(  7-C , 27-H ) :   0.9899 B(  8-N ,  9-C ) :   1.1807
B(  8-N , 28-H ) :   0.9477 B(  9-C , 10-S ) :   1.6094 B(  9-C , 11-N ) :   1.3053
B( 11-N , 12-C ) :   0.9723 B( 11-N , 29-H ) :   0.9532 B( 12-C , 13-C ) :   0.9423
B( 12-C , 30-H ) :   1.0023 B( 13-C , 14-C ) :   1.3528 B( 13-C , 19-C ) :   1.3790
B( 14-C , 15-C ) :   1.3938 B( 14-C , 31-H ) :   0.9733 B( 15-C , 16-C ) :   1.3618
B( 15-C , 32-H ) :   0.9705 B( 16-C , 17-C ) :   1.3282 B( 16-C , 33-H ) :   0.9843
B( 17-C , 18-O ) :   1.1145 B( 17-C , 19-C ) :   1.3758 B( 18-O , 34-H ) :   0.9789
B( 19-C , 35-H ) :   0.9567

MP2 TOTAL ENERGY:    -1274.332566398 Eh
FINAL SINGLE POINT ENERGY     -1274.332566397591

DIPOLE MOMENT
-------------
                                X             Y             Z
Electronic contribution:      9.83800      10.70578       6.60023
Nuclear contribution   :    -10.90984     -12.17121      -6.47004
                        -----------------------------------------
Total Dipole Moment    :     -1.07184      -1.46543       0.13019
                        -----------------------------------------
Magnitude (a.u.)       :      1.82024
Magnitude (Debye)      :      4.62668

Rotational constants in cm-1:     0.012306     0.008737     0.006322
Rotational constants in MHz :   368.921381   261.913997   189.529938

                             ****ORCA TERMINATED NORMALLY****
TOTAL RUN TIME: 0 days 1 hours 53 minutes 30 seconds 195 msec
