                         Program Version 5.0.0 -  RELEASE  -
|  1> ! ri-mp2 cc-pvtz cc-pvtz/c TightSCF NoKeepInts
|  2>
|  3> %scf
|  4>   MaxCore 4096
|  5> end
|  6> *xyz  0  1
|  7>     C       14.2434937   15.6550420   16.1884563
|  8>     C       15.4184732   15.3996992   17.1493717
|  9>     O       16.5876838   15.1110754   16.3528427
| 10>     C       17.8308805   15.6698835   16.5286533
| 11>     O       18.8230498   15.0184254   16.2596368
| 12>     C       17.9238622   16.8546425   17.4333372
| 13>     C       17.3370718   18.0412647   17.1559078
| 14>     C       16.5452643   18.3973826   15.9183857
| 15>     N       17.5007184   19.1190000   18.0286755
| 16>     C       18.3034807   19.1071814   19.1399765
| 17>     S       18.4790217   20.4434858   20.0977146
| 18>     N       18.9492937   17.9281867   19.4229887
| 19>     C       18.7794529   16.6615761   18.6830700
| 20>     C       18.1760038   15.5748027   19.5669439
| 21>     C       18.7015708   14.2702217   19.5408107
| 22>     C       18.1316313   13.2528882   20.3240994
| 23>     C       17.0227627   13.5402428   21.1379823
| 24>     C       16.4910110   14.8364123   21.1605749
| 25>     O       15.4102317   15.1141130   21.9319834
| 26>     C       17.0601294   15.8474862   20.3799098
| 27>     H       13.3321116   15.8918022   16.7509812
| 28>     H       14.0465171   14.7609986   15.5833895
| 29>     H       14.4526439   16.4858519   15.5066212
| 30>     H       15.5425921   16.2711402   17.8009005
| 31>     H       15.1940181   14.5385472   17.7927686
| 32>     H       16.5927201   17.6113740   15.1547937
| 33>     H       16.9383432   19.3103649   15.4531305
| 34>     H       15.4904168   18.5712478   16.1625854
| 35>     H       17.0473884   19.9975074   17.8311881
| 36>     H       19.5175769   17.9432629   20.2606194
| 37>     H       19.7756748   16.3270755   18.3573599
| 38>     H       19.5459517   14.0397903   18.8943738
| 39>     H       18.5452807   12.2462685   20.2907832
| 40>     H       16.5774970   12.7557408   21.7410484
| 41>     H       15.2029872   14.3149466   22.4401026
| 42>     H       16.6301929   16.8430692   20.4120329
| 43> *
| 44>
| 45>                          ****END OF INPUT****

CARTESIAN COORDINATES (ANGSTROEM)
---------------------------------
  C     14.243494   15.655042   16.188456
  C     15.418473   15.399699   17.149372
  O     16.587684   15.111075   16.352843
  C     17.830880   15.669883   16.528653
  O     18.823050   15.018425   16.259637
  C     17.923862   16.854643   17.433337
  C     17.337072   18.041265   17.155908
  C     16.545264   18.397383   15.918386
  N     17.500718   19.119000   18.028675
  C     18.303481   19.107181   19.139976
  S     18.479022   20.443486   20.097715
  N     18.949294   17.928187   19.422989
  C     18.779453   16.661576   18.683070
  C     18.176004   15.574803   19.566944
  C     18.701571   14.270222   19.540811
  C     18.131631   13.252888   20.324099
  C     17.022763   13.540243   21.137982
  C     16.491011   14.836412   21.160575
  O     15.410232   15.114113   21.931983
  C     17.060129   15.847486   20.379910
  H     13.332112   15.891802   16.750981
  H     14.046517   14.760999   15.583389
  H     14.452644   16.485852   15.506621
  H     15.542592   16.271140   17.800900
  H     15.194018   14.538547   17.792769
  H     16.592720   17.611374   15.154794
  H     16.938343   19.310365   15.453130
  H     15.490417   18.571248   16.162585
  H     17.047388   19.997507   17.831188
  H     19.517577   17.943263   20.260619
  H     19.775675   16.327075   18.357360
  H     19.545952   14.039790   18.894374
  H     18.545281   12.246268   20.290783
  H     16.577497   12.755741   21.741048
  H     15.202987   14.314947   22.440103
  H     16.630193   16.843069   20.412033

 Total Charge           Charge          ....    0
 Multiplicity           Mult            ....    1
 Number of Electrons    NEL             ....  154
 Basis Dimension        Dim             ....  828

ORBITAL ENERGIES
----------------

  NO   OCC          E(Eh)            E(eV)
   0   2.0000     -91.890422     -2500.4655
   1   2.0000     -20.600289      -560.5624
   2   2.0000     -20.599745      -560.5476
   3   2.0000     -20.549987      -559.1936
   4   2.0000     -15.627692      -425.2511
   5   2.0000     -15.611937      -424.8224
   6   2.0000     -11.398187      -310.1604
   7   2.0000     -11.387240      -309.8625
   8   2.0000     -11.329841      -308.3007
   9   2.0000     -11.316934      -307.9494
  10   2.0000     -11.314724      -307.8893
  11   2.0000     -11.303867      -307.5939
  12   2.0000     -11.269034      -306.6460
  13   2.0000     -11.264875      -306.5328
  14   2.0000     -11.263473      -306.4947
  15   2.0000     -11.256849      -306.3144
  16   2.0000     -11.246357      -306.0289
  17   2.0000     -11.242604      -305.9268
  18   2.0000     -11.239581      -305.8446
  19   2.0000     -11.235528      -305.7343
  20   2.0000      -8.895535      -242.0598
  21   2.0000      -6.577121      -178.9726
  22   2.0000      -6.575097      -178.9175
  23   2.0000      -6.574520      -178.9018
  24   2.0000      -1.446738       -39.3677
  25   2.0000      -1.420087       -38.6425
  26   2.0000      -1.358601       -36.9694
  27   2.0000      -1.340906       -36.4879
  28   2.0000      -1.240476       -33.7551
  29   2.0000      -1.161788       -31.6138
  30   2.0000      -1.126275       -30.6475
  31   2.0000      -1.049486       -28.5580
  32   2.0000      -1.041295       -28.3351
  33   2.0000      -1.019058       -27.7300
  34   2.0000      -1.005597       -27.3637
  35   2.0000      -0.990059       -26.9409
  36   2.0000      -0.928168       -25.2567
  37   2.0000      -0.886800       -24.1311
  38   2.0000      -0.854372       -23.2486
  39   2.0000      -0.842534       -22.9265
  40   2.0000      -0.837290       -22.7838
  41   2.0000      -0.836533       -22.7632
  42   2.0000      -0.757401       -20.6099
  43   2.0000      -0.739116       -20.1124
  44   2.0000      -0.732404       -19.9297
  45   2.0000      -0.698000       -18.9936
  46   2.0000      -0.688512       -18.7354
  47   2.0000      -0.680991       -18.5307
  48   2.0000      -0.677022       -18.4227
  49   2.0000      -0.665984       -18.1224
  50   2.0000      -0.653370       -17.7791
  51   2.0000      -0.640968       -17.4416
  52   2.0000      -0.640213       -17.4211
  53   2.0000      -0.615886       -16.7591
  54   2.0000      -0.608743       -16.5647
  55   2.0000      -0.606889       -16.5143
  56   2.0000      -0.603747       -16.4288
  57   2.0000      -0.588482       -16.0134
  58   2.0000      -0.578841       -15.7511
  59   2.0000      -0.570084       -15.5128
  60   2.0000      -0.565184       -15.3794
  61   2.0000      -0.559573       -15.2268
  62   2.0000      -0.540646       -14.7117
  63   2.0000      -0.535429       -14.5698
  64   2.0000      -0.523901       -14.2561
  65   2.0000      -0.516588       -14.0571
  66   2.0000      -0.502807       -13.6821
  67   2.0000      -0.500109       -13.6087
  68   2.0000      -0.489291       -13.3143
  69   2.0000      -0.470837       -12.8121
  70   2.0000      -0.455247       -12.3879
  71   2.0000      -0.448658       -12.2086
  72   2.0000      -0.357114        -9.7176
  73   2.0000      -0.352279        -9.5860
  74   2.0000      -0.330067        -8.9816
  75   2.0000      -0.324735        -8.8365
  76   2.0000      -0.318830        -8.6758
  77   0.0000       0.083696         2.2775
  78   0.0000       0.104302         2.8382
  79   0.0000       0.114574         3.1177
  80   0.0000       0.128291         3.4910
  81   0.0000       0.131379         3.5750

MULLIKEN ATOMIC CHARGES
-----------------------
   0 C :   -0.269680
   1 C :    0.014471
   2 O :   -0.321409
   3 C :    0.401795
   4 O :   -0.381632
   5 C :   -0.188710
   6 C :    0.136252
   7 C :   -0.337379
   8 N :   -0.136239
   9 C :    0.203267
  10 S :   -0.440416
  11 N :   -0.211347
  12 C :    0.069194
  13 C :    0.031965
  14 C :   -0.191215
  15 C :   -0.128925
  16 C :   -0.277690
  17 C :    0.315017
  18 O :   -0.357978
  19 C :   -0.287015
  20 H :    0.094739
  21 H :    0.111412
  22 H :    0.089069
  23 H :    0.097557
  24 H :    0.129147
  25 H :    0.128226
  26 H :    0.144546
  27 H :    0.123824
  28 H :    0.196704
  29 H :    0.198002
  30 H :    0.163610
  31 H :    0.166533
  32 H :    0.163593
  33 H :    0.132599
  34 H :    0.241980
  35 H :    0.176132
Sum of atomic charges:   -0.0000000

LOEWDIN ATOMIC CHARGES
----------------------
   0 C :    0.105623
   1 C :   -0.015785
   2 O :    0.304768
   3 C :   -0.416036
   4 O :    0.124787
   5 C :   -0.083828
   6 C :   -0.102093
   7 C :    0.125479
   8 N :    0.401646
   9 C :   -0.456119
  10 S :   -0.037265
  11 N :    0.397254
  12 C :   -0.044873
  13 C :   -0.043895
  14 C :    0.023157
  15 C :    0.045843
  16 C :   -0.000106
  17 C :   -0.194211
  18 O :    0.394200
  19 C :    0.027927
  20 H :   -0.024740
  21 H :   -0.023457
  22 H :   -0.033541
  23 H :   -0.040753
  24 H :   -0.023165
  25 H :   -0.008720
  26 H :   -0.009575
  27 H :   -0.016245
  28 H :   -0.057605
  29 H :   -0.063539
  30 H :   -0.002516
  31 H :   -0.021869
  32 H :   -0.018423
  33 H :   -0.034543
  34 H :   -0.152807
  35 H :   -0.024975

  Mayer bond orders larger than 0.100000
B(  0-C ,  1-C ) :   0.9714 B(  0-C , 20-H ) :   0.9754 B(  0-C , 21-H ) :   0.9796
B(  0-C , 22-H ) :   0.9785 B(  1-C ,  2-O ) :   0.9001 B(  1-C , 23-H ) :   0.9617
B(  1-C , 24-H ) :   0.9787 B(  2-O ,  3-C ) :   1.1859 B(  3-C ,  4-O ) :   2.0957
B(  3-C ,  5-C ) :   0.9282 B(  5-C ,  6-C ) :   1.6859 B(  5-C , 12-C ) :   0.9591
B(  6-C ,  7-C ) :   0.9437 B(  6-C ,  8-N ) :   1.1162 B(  7-C , 25-H ) :   0.9802
B(  7-C , 26-H ) :   0.9716 B(  7-C , 27-H ) :   0.9651 B(  8-N ,  9-C ) :   1.1936
B(  8-N , 28-H ) :   0.9519 B(  9-C , 10-S ) :   1.6125 B(  9-C , 11-N ) :   1.2885
B( 11-N , 12-C ) :   0.9997 B( 11-N , 29-H ) :   0.9492 B( 12-C , 13-C ) :   0.9424
B( 12-C , 30-H ) :   0.9973 B( 13-C , 14-C ) :   1.3867 B( 13-C , 19-C ) :   1.3459
B( 14-C , 15-C ) :   1.3958 B( 14-C , 31-H ) :   0.9614 B( 15-C , 16-C ) :   1.3646
B( 15-C , 32-H ) :   0.9700 B( 16-C , 17-C ) :   1.3282 B( 16-C , 33-H ) :   0.9843
B( 17-C , 18-O ) :   1.1106 B( 17-C , 19-C ) :   1.3711 B( 18-O , 34-H ) :   0.9790
B( 19-C , 35-H ) :   0.9571

MP2 TOTAL ENERGY:    -1274.332170971 Eh
FINAL SINGLE POINT ENERGY     -1274.332170971306

DIPOLE MOMENT
-------------
                                X             Y             Z
Electronic contribution:     11.71262       5.58635       7.73013
Nuclear contribution   :    -13.24610      -6.59437      -7.97386
                        -----------------------------------------
Total Dipole Moment    :     -1.53348      -1.00802      -0.24373
                        -----------------------------------------
Magnitude (a.u.)       :      1.85124
Magnitude (Debye)      :      4.70547

Rotational constants in cm-1:     0.011370     0.009260     0.006855
Rotational constants in MHz :   340.869881   277.614028   205.495080

                             ****ORCA TERMINATED NORMALLY****
TOTAL RUN TIME: 0 days 2 hours 0 minutes 47 seconds 888 msec
