                         Program Version 5.0.0 -  RELEASE  -
|  1> ! ri-mp2 cc-pvtz cc-pvtz/c TightSCF NoKeepInts
|  2>
|  3> %scf
|  4>   MaxCore 4096
|  5> end
|  6> *xyz  0  1
|  7>     C       15.4505971   13.3782433   16.1815310
|  8>     C       15.7126036   14.7060609   16.9104273
|  9>     O       16.9196351   15.2643293   16.3572099
| 10>     C       16.9683840   16.6167927   16.1916396
| 11>     O       16.2324059   17.1462070   15.3785284
| 12>     C       17.5775188   17.3461967   17.3606021
| 13>     C       17.4230946   18.6833568   17.5463458
| 14>     C       16.5791188   19.6375595   16.7282525
| 15>     N       18.1333597   19.3348054   18.5599338
| 16>     C       19.1622363   18.7752640   19.2702037
| 17>     S       20.0841349   19.6578075   20.3221562
| 18>     N       19.3989284   17.4422926   19.0494444
| 19>     C       18.5001605   16.5472115   18.2987422
| 20>     C       17.7440348   15.6689478   19.2888595
| 21>     C       18.0851603   14.3106799   19.4334312
| 22>     C       17.3942503   13.4932359   20.3436504
| 23>     C       16.3587816   14.0392052   21.1212003
| 24>     C       16.0244733   15.3937748   20.9886990
| 25>     O       15.0260905   15.9243969   21.7382646
| 26>     C       16.7114491   16.2045074   20.0799076
| 27>     H       14.5282337   12.9125874   16.5490361
| 28>     H       16.2791501   12.6781123   16.3447710
| 29>     H       15.3450701   13.5459844   15.1021799
| 30>     H       14.8587816   15.3759355   16.7371369
| 31>     H       15.8009765   14.5342436   17.9881738
| 32>     H       15.5348996   19.3013026   16.6979164
| 33>     H       16.9391262   19.6791741   15.6922081
| 34>     H       16.5837124   20.6606706   17.1220269
| 35>     H       17.9814627   20.3178160   18.7208826
| 36>     H       20.1485208   17.0504288   19.6048762
| 37>     H       19.1260258   15.8968955   17.6711304
| 38>     H       18.8842322   13.8846798   18.8321833
| 39>     H       17.6633037   12.4430989   20.4458905
| 40>     H       15.8235089   13.4118807   21.8266605
| 41>     H       14.7206346   15.2360532   22.3484641
| 42>     H       16.4429433   17.2522614   20.0014339
| 43> *
| 44>
| 45>                          ****END OF INPUT****

CARTESIAN COORDINATES (ANGSTROEM)
---------------------------------
  C     15.450597   13.378243   16.181531
  C     15.712604   14.706061   16.910427
  O     16.919635   15.264329   16.357210
  C     16.968384   16.616793   16.191640
  O     16.232406   17.146207   15.378528
  C     17.577519   17.346197   17.360602
  C     17.423095   18.683357   17.546346
  C     16.579119   19.637559   16.728252
  N     18.133360   19.334805   18.559934
  C     19.162236   18.775264   19.270204
  S     20.084135   19.657808   20.322156
  N     19.398928   17.442293   19.049444
  C     18.500160   16.547211   18.298742
  C     17.744035   15.668948   19.288860
  C     18.085160   14.310680   19.433431
  C     17.394250   13.493236   20.343650
  C     16.358782   14.039205   21.121200
  C     16.024473   15.393775   20.988699
  O     15.026091   15.924397   21.738265
  C     16.711449   16.204507   20.079908
  H     14.528234   12.912587   16.549036
  H     16.279150   12.678112   16.344771
  H     15.345070   13.545984   15.102180
  H     14.858782   15.375936   16.737137
  H     15.800977   14.534244   17.988174
  H     15.534900   19.301303   16.697916
  H     16.939126   19.679174   15.692208
  H     16.583712   20.660671   17.122027
  H     17.981463   20.317816   18.720883
  H     20.148521   17.050429   19.604876
  H     19.126026   15.896895   17.671130
  H     18.884232   13.884680   18.832183
  H     17.663304   12.443099   20.445890
  H     15.823509   13.411881   21.826660
  H     14.720635   15.236053   22.348464
  H     16.442943   17.252261   20.001434

 Total Charge           Charge          ....    0
 Multiplicity           Mult            ....    1
 Number of Electrons    NEL             ....  154
 Basis Dimension        Dim             ....  828

ORBITAL ENERGIES
----------------

  NO   OCC          E(Eh)            E(eV)
   0   2.0000     -91.891101     -2500.4840
   1   2.0000     -20.601944      -560.6074
   2   2.0000     -20.581539      -560.0522
   3   2.0000     -20.548281      -559.1472
   4   2.0000     -15.631640      -425.3585
   5   2.0000     -15.610009      -424.7700
   6   2.0000     -11.392796      -310.0137
   7   2.0000     -11.385680      -309.8201
   8   2.0000     -11.338058      -308.5242
   9   2.0000     -11.319905      -308.0303
  10   2.0000     -11.312343      -307.8245
  11   2.0000     -11.292457      -307.2834
  12   2.0000     -11.264222      -306.5151
  13   2.0000     -11.261206      -306.4330
  14   2.0000     -11.260167      -306.4047
  15   2.0000     -11.253770      -306.2306
  16   2.0000     -11.248829      -306.0962
  17   2.0000     -11.243270      -305.9449
  18   2.0000     -11.243130      -305.9411
  19   2.0000     -11.223306      -305.4017
  20   2.0000      -8.896128      -242.0759
  21   2.0000      -6.577693      -178.9881
  22   2.0000      -6.575699      -178.9339
  23   2.0000      -6.575103      -178.9176
  24   2.0000      -1.448531       -39.4165
  25   2.0000      -1.421618       -38.6842
  26   2.0000      -1.351969       -36.7890
  27   2.0000      -1.342743       -36.5379
  28   2.0000      -1.241115       -33.7725
  29   2.0000      -1.162544       -31.6344
  30   2.0000      -1.121665       -30.5221
  31   2.0000      -1.046435       -28.4749
  32   2.0000      -1.033019       -28.1099
  33   2.0000      -1.020782       -27.7769
  34   2.0000      -0.998289       -27.1648
  35   2.0000      -0.985982       -26.8299
  36   2.0000      -0.925877       -25.1944
  37   2.0000      -0.877602       -23.8808
  38   2.0000      -0.849701       -23.1215
  39   2.0000      -0.843116       -22.9424
  40   2.0000      -0.838870       -22.8268
  41   2.0000      -0.828969       -22.5574
  42   2.0000      -0.760616       -20.6974
  43   2.0000      -0.736356       -20.0373
  44   2.0000      -0.724398       -19.7119
  45   2.0000      -0.701147       -19.0792
  46   2.0000      -0.691884       -18.8271
  47   2.0000      -0.678700       -18.4684
  48   2.0000      -0.671972       -18.2853
  49   2.0000      -0.656897       -17.8751
  50   2.0000      -0.648829       -17.6555
  51   2.0000      -0.644855       -17.5474
  52   2.0000      -0.633534       -17.2393
  53   2.0000      -0.616050       -16.7636
  54   2.0000      -0.612504       -16.6671
  55   2.0000      -0.603797       -16.4301
  56   2.0000      -0.601164       -16.3585
  57   2.0000      -0.582191       -15.8422
  58   2.0000      -0.572746       -15.5852
  59   2.0000      -0.566039       -15.4027
  60   2.0000      -0.559121       -15.2145
  61   2.0000      -0.540729       -14.7140
  62   2.0000      -0.535578       -14.5738
  63   2.0000      -0.530050       -14.4234
  64   2.0000      -0.517460       -14.0808
  65   2.0000      -0.511251       -13.9119
  66   2.0000      -0.505460       -13.7543
  67   2.0000      -0.496692       -13.5157
  68   2.0000      -0.488634       -13.2964
  69   2.0000      -0.465463       -12.6659
  70   2.0000      -0.453916       -12.3517
  71   2.0000      -0.444993       -12.1089
  72   2.0000      -0.358180        -9.7466
  73   2.0000      -0.354683        -9.6514
  74   2.0000      -0.331191        -9.0122
  75   2.0000      -0.327158        -8.9024
  76   2.0000      -0.318079        -8.6554
  77   0.0000       0.067740         1.8433
  78   0.0000       0.101769         2.7693
  79   0.0000       0.121805         3.3145
  80   0.0000       0.126929         3.4539
  81   0.0000       0.132256         3.5989

MULLIKEN ATOMIC CHARGES
-----------------------
   0 C :   -0.260301
   1 C :    0.029068
   2 O :   -0.385744
   3 C :    0.497971
   4 O :   -0.403653
   5 C :   -0.275740
   6 C :    0.154838
   7 C :   -0.269168
   8 N :   -0.124482
   9 C :    0.212754
  10 S :   -0.436073
  11 N :   -0.199608
  12 C :    0.048834
  13 C :    0.027917
  14 C :   -0.171858
  15 C :   -0.132704
  16 C :   -0.274965
  17 C :    0.305393
  18 O :   -0.356477
  19 C :   -0.241049
  20 H :    0.084654
  21 H :    0.091003
  22 H :    0.105383
  23 H :    0.102650
  24 H :    0.116314
  25 H :    0.129095
  26 H :    0.135074
  27 H :    0.094627
  28 H :    0.198596
  29 H :    0.192411
  30 H :    0.148868
  31 H :    0.150427
  32 H :    0.162739
  33 H :    0.133403
  34 H :    0.241969
  35 H :    0.167835
Sum of atomic charges:    0.0000000

LOEWDIN ATOMIC CHARGES
----------------------
   0 C :    0.108480
   1 C :   -0.014545
   2 O :    0.287561
   3 C :   -0.421680
   4 O :    0.119968
   5 C :   -0.099107
   6 C :   -0.057945
   7 C :    0.130808
   8 N :    0.407099
   9 C :   -0.456648
  10 S :   -0.032278
  11 N :    0.396254
  12 C :   -0.053427
  13 C :   -0.038919
  14 C :    0.012861
  15 C :    0.041670
  16 C :   -0.001597
  17 C :   -0.190623
  18 O :    0.396692
  19 C :    0.030730
  20 H :   -0.027329
  21 H :   -0.029436
  22 H :   -0.023449
  23 H :   -0.029924
  24 H :   -0.033638
  25 H :   -0.005503
  26 H :   -0.003065
  27 H :   -0.023225
  28 H :   -0.057383
  29 H :   -0.065345
  30 H :   -0.006835
  31 H :   -0.029238
  32 H :   -0.019533
  33 H :   -0.034252
  34 H :   -0.152510
  35 H :   -0.024688

  Mayer bond orders larger than 0.100000
B(  0-C ,  1-C ) :   0.9853 B(  0-C , 20-H ) :   0.9761 B(  0-C , 21-H ) :   0.9797
B(  0-C , 22-H ) :   0.9796 B(  1-C ,  2-O ) :   0.8705 B(  1-C , 23-H ) :   0.9743
B(  1-C , 24-H ) :   0.9642 B(  2-O ,  3-C ) :   1.1033 B(  3-C ,  4-O ) :   2.0210
B(  3-C ,  5-C ) :   1.0605 B(  5-C ,  6-C ) :   1.6515 B(  5-C , 12-C ) :   0.9714
B(  6-C ,  7-C ) :   0.9701 B(  6-C ,  8-N ) :   1.1559 B(  7-C , 25-H ) :   0.9631
B(  7-C , 26-H ) :   0.9573 B(  7-C , 27-H ) :   0.9891 B(  8-N ,  9-C ) :   1.1788
B(  8-N , 28-H ) :   0.9479 B(  9-C , 10-S ) :   1.6126 B(  9-C , 11-N ) :   1.3033
B( 11-N , 12-C ) :   0.9713 B( 11-N , 29-H ) :   0.9540 B( 12-C , 13-C ) :   0.9446
B( 12-C , 30-H ) :   1.0027 B( 13-C , 14-C ) :   1.3530 B( 13-C , 19-C ) :   1.3767
B( 14-C , 15-C ) :   1.3926 B( 14-C , 31-H ) :   0.9731 B( 15-C , 16-C ) :   1.3635
B( 15-C , 32-H ) :   0.9705 B( 16-C , 17-C ) :   1.3270 B( 16-C , 33-H ) :   0.9841
B( 17-C , 18-O ) :   1.1149 B( 17-C , 19-C ) :   1.3777 B( 18-O , 34-H ) :   0.9787
B( 19-C , 35-H ) :   0.9564

MP2 TOTAL ENERGY:    -1274.328365383 Eh
FINAL SINGLE POINT ENERGY     -1274.328365383247

DIPOLE MOMENT
-------------
                                X             Y             Z
Electronic contribution:     10.10270      10.49169       6.37811
Nuclear contribution   :    -11.19775     -11.93070      -6.13979
                        -----------------------------------------
Total Dipole Moment    :     -1.09504      -1.43901       0.23832
                        -----------------------------------------
Magnitude (a.u.)       :      1.82392
Magnitude (Debye)      :      4.63602

Rotational constants in cm-1:     0.012144     0.008936     0.006337
Rotational constants in MHz :   364.073771   267.888063   189.991068

                             ****ORCA TERMINATED NORMALLY****
TOTAL RUN TIME: 0 days 1 hours 52 minutes 40 seconds 568 msec
