                         Program Version 5.0.0 -  RELEASE  -
|  1> ! ri-mp2 cc-pvtz cc-pvtz/c TightSCF NoKeepInts
|  2>
|  3> %scf
|  4>   MaxCore 4096
|  5> end
|  6> *xyz  0  1
|  7>     C       14.3760347   14.8371007   16.2252579
|  8>     C       15.7409276   14.7066626   15.5279803
|  9>     O       16.4982230   15.8875651   15.8511112
| 10>     C       17.6305018   15.7898328   16.6075814
| 11>     O       18.2532571   14.7463916   16.7184760
| 12>     C       17.8597343   16.9595161   17.5214519
| 13>     C       17.3297403   18.1989722   17.3488836
| 14>     C       16.4359733   18.6841788   16.2258495
| 15>     N       17.6585536   19.2248137   18.2413003
| 16>     C       18.6071099   19.1342298   19.2254670
| 17>     S       19.0244688   20.4360406   20.1564707
| 18>     N       19.1932525   17.9061579   19.3977927
| 19>     C       18.7681415   16.6667169   18.7208522
| 20>     C       18.0805665   15.7281648   19.7090865
| 21>     C       18.5472989   14.4124625   19.8854048
| 22>     C       17.9140475   13.5425305   20.7888197
| 23>     C       16.8030507   13.9908393   21.5232227
| 24>     C       16.3324177   15.2991785   21.3477195
| 25>     O       15.2554023   15.7328707   22.0500829
| 26>     C       16.9647649   16.1627054   20.4478233
| 27>     H       14.5029435   14.8838923   17.3144318
| 28>     H       13.7411131   13.9738322   15.9916216
| 29>     H       13.8565507   15.7455409   15.8962634
| 30>     H       16.2395144   13.7840049   15.8547917
| 31>     H       15.5939554   14.6487343   14.4418469
| 32>     H       16.8461984   18.3980300   15.2493440
| 33>     H       16.3205707   19.7747832   16.2176377
| 34>     H       15.4338271   18.2460831   16.3127461
| 35>     H       17.2393648   20.1342452   18.1310359
| 36>     H       19.8665863   17.8573851   20.1515446
| 37>     H       19.6721010   16.1675048   18.3428903
| 38>     H       19.3951210   14.0575419   19.3045236
| 39>     H       18.2814164   12.5252290   20.9110714
| 40>     H       16.3097174   13.3215569   22.2200591
| 41>     H       14.9883102   15.0145470   22.6429337
| 42>     H       16.5862429   17.1721588   20.3306240
| 43> *
| 44>
| 45>                          ****END OF INPUT****

CARTESIAN COORDINATES (ANGSTROEM)
---------------------------------
  C     14.376035   14.837101   16.225258
  C     15.740928   14.706663   15.527980
  O     16.498223   15.887565   15.851111
  C     17.630502   15.789833   16.607581
  O     18.253257   14.746392   16.718476
  C     17.859734   16.959516   17.521452
  C     17.329740   18.198972   17.348884
  C     16.435973   18.684179   16.225849
  N     17.658554   19.224814   18.241300
  C     18.607110   19.134230   19.225467
  S     19.024469   20.436041   20.156471
  N     19.193252   17.906158   19.397793
  C     18.768141   16.666717   18.720852
  C     18.080566   15.728165   19.709087
  C     18.547299   14.412462   19.885405
  C     17.914047   13.542530   20.788820
  C     16.803051   13.990839   21.523223
  C     16.332418   15.299178   21.347720
  O     15.255402   15.732871   22.050083
  C     16.964765   16.162705   20.447823
  H     14.502943   14.883892   17.314432
  H     13.741113   13.973832   15.991622
  H     13.856551   15.745541   15.896263
  H     16.239514   13.784005   15.854792
  H     15.593955   14.648734   14.441847
  H     16.846198   18.398030   15.249344
  H     16.320571   19.774783   16.217638
  H     15.433827   18.246083   16.312746
  H     17.239365   20.134245   18.131036
  H     19.866586   17.857385   20.151545
  H     19.672101   16.167505   18.342890
  H     19.395121   14.057542   19.304524
  H     18.281416   12.525229   20.911071
  H     16.309717   13.321557   22.220059
  H     14.988310   15.014547   22.642934
  H     16.586243   17.172159   20.330624

 Total Charge           Charge          ....    0
 Multiplicity           Mult            ....    1
 Number of Electrons    NEL             ....  154
 Basis Dimension        Dim             ....  828

ORBITAL ENERGIES
----------------

  NO   OCC          E(Eh)            E(eV)
   0   2.0000     -91.888138     -2500.4034
   1   2.0000     -20.600761      -560.5752
   2   2.0000     -20.592651      -560.3545
   3   2.0000     -20.546672      -559.1034
   4   2.0000     -15.628359      -425.2693
   5   2.0000     -15.606938      -424.6864
   6   2.0000     -11.396161      -310.1053
   7   2.0000     -11.383116      -309.7503
   8   2.0000     -11.335816      -308.4632
   9   2.0000     -11.308531      -307.7208
  10   2.0000     -11.306011      -307.6522
  11   2.0000     -11.298604      -307.4506
  12   2.0000     -11.260447      -306.4123
  13   2.0000     -11.259034      -306.3739
  14   2.0000     -11.254233      -306.2433
  15   2.0000     -11.248582      -306.0895
  16   2.0000     -11.238234      -305.8079
  17   2.0000     -11.234347      -305.7021
  18   2.0000     -11.231602      -305.6274
  19   2.0000     -11.231318      -305.6197
  20   2.0000      -8.893202      -241.9963
  21   2.0000      -6.574780      -178.9089
  22   2.0000      -6.572772      -178.8542
  23   2.0000      -6.572187      -178.8383
  24   2.0000      -1.453404       -39.5491
  25   2.0000      -1.412404       -38.4335
  26   2.0000      -1.357382       -36.9362
  27   2.0000      -1.339355       -36.4457
  28   2.0000      -1.237097       -33.6631
  29   2.0000      -1.152963       -31.3737
  30   2.0000      -1.119822       -30.4719
  31   2.0000      -1.043830       -28.4040
  32   2.0000      -1.036487       -28.2042
  33   2.0000      -1.010336       -27.4926
  34   2.0000      -0.998088       -27.1594
  35   2.0000      -0.983587       -26.7648
  36   2.0000      -0.921571       -25.0772
  37   2.0000      -0.890970       -24.2445
  38   2.0000      -0.847274       -23.0555
  39   2.0000      -0.835507       -22.7353
  40   2.0000      -0.828738       -22.5511
  41   2.0000      -0.816137       -22.2082
  42   2.0000      -0.760398       -20.6915
  43   2.0000      -0.736304       -20.0359
  44   2.0000      -0.725453       -19.7406
  45   2.0000      -0.691655       -18.8209
  46   2.0000      -0.685060       -18.6414
  47   2.0000      -0.678824       -18.4717
  48   2.0000      -0.674109       -18.3434
  49   2.0000      -0.660118       -17.9627
  50   2.0000      -0.649484       -17.6734
  51   2.0000      -0.644342       -17.5334
  52   2.0000      -0.634533       -17.2665
  53   2.0000      -0.602702       -16.4004
  54   2.0000      -0.600717       -16.3463
  55   2.0000      -0.596457       -16.2304
  56   2.0000      -0.592725       -16.1289
  57   2.0000      -0.583991       -15.8912
  58   2.0000      -0.574292       -15.6273
  59   2.0000      -0.562508       -15.3066
  60   2.0000      -0.560206       -15.2440
  61   2.0000      -0.558047       -15.1852
  62   2.0000      -0.538609       -14.6563
  63   2.0000      -0.525685       -14.3046
  64   2.0000      -0.518098       -14.0982
  65   2.0000      -0.510279       -13.8854
  66   2.0000      -0.499451       -13.5908
  67   2.0000      -0.495984       -13.4964
  68   2.0000      -0.481382       -13.0991
  69   2.0000      -0.463276       -12.6064
  70   2.0000      -0.457731       -12.4555
  71   2.0000      -0.454806       -12.3759
  72   2.0000      -0.354182        -9.6378
  73   2.0000      -0.344805        -9.3826
  74   2.0000      -0.327300        -8.9063
  75   2.0000      -0.316068        -8.6007
  76   2.0000      -0.314466        -8.5571
  77   0.0000       0.075533         2.0553
  78   0.0000       0.111161         3.0248
  79   0.0000       0.120031         3.2662
  80   0.0000       0.135222         3.6796
  81   0.0000       0.140606         3.8261

MULLIKEN ATOMIC CHARGES
-----------------------
   0 C :   -0.275021
   1 C :    0.019572
   2 O :   -0.348556
   3 C :    0.448380
   4 O :   -0.424178
   5 C :   -0.178142
   6 C :    0.142081
   7 C :   -0.285207
   8 N :   -0.123221
   9 C :    0.202620
  10 S :   -0.439582
  11 N :   -0.197827
  12 C :    0.040827
  13 C :    0.055141
  14 C :   -0.160272
  15 C :   -0.133479
  16 C :   -0.280154
  17 C :    0.312345
  18 O :   -0.359182
  19 C :   -0.276689
  20 H :    0.105140
  21 H :    0.099032
  22 H :    0.088928
  23 H :    0.118273
  24 H :    0.101000
  25 H :    0.126828
  26 H :    0.103136
  27 H :    0.126410
  28 H :    0.196912
  29 H :    0.193820
  30 H :    0.153890
  31 H :    0.153554
  32 H :    0.159404
  33 H :    0.128563
  34 H :    0.240275
  35 H :    0.165378
Sum of atomic charges:    0.0000000

LOEWDIN ATOMIC CHARGES
----------------------
   0 C :    0.103697
   1 C :   -0.012665
   2 O :    0.306291
   3 C :   -0.414917
   4 O :    0.106317
   5 C :   -0.091899
   6 C :   -0.067374
   7 C :    0.125062
   8 N :    0.404672
   9 C :   -0.458547
  10 S :   -0.036169
  11 N :    0.397743
  12 C :   -0.046302
  13 C :   -0.039057
  14 C :    0.022158
  15 C :    0.041051
  16 C :   -0.002443
  17 C :   -0.193253
  18 O :    0.393017
  19 C :    0.028101
  20 H :   -0.024493
  21 H :   -0.024933
  22 H :   -0.030677
  23 H :   -0.026329
  24 H :   -0.029536
  25 H :   -0.008090
  26 H :   -0.020799
  27 H :   -0.010540
  28 H :   -0.059098
  29 H :   -0.063751
  30 H :   -0.004920
  31 H :   -0.025173
  32 H :   -0.021095
  33 H :   -0.036299
  34 H :   -0.154769
  35 H :   -0.024981

  Mayer bond orders larger than 0.100000
B(  0-C ,  1-C ) :   0.9705 B(  0-C , 20-H ) :   0.9754 B(  0-C , 21-H ) :   0.9771
B(  0-C , 22-H ) :   0.9796 B(  1-C ,  2-O ) :   0.8878 B(  1-C , 23-H ) :   0.9723
B(  1-C , 24-H ) :   0.9836 B(  2-O ,  3-C ) :   1.1540 B(  3-C ,  4-O ) :   1.9930
B(  3-C ,  5-C ) :   1.0388 B(  5-C ,  6-C ) :   1.6543 B(  5-C , 12-C ) :   0.9650
B(  6-C ,  7-C ) :   0.9551 B(  6-C ,  8-N ) :   1.1458 B(  7-C , 25-H ) :   0.9668
B(  7-C , 26-H ) :   0.9903 B(  7-C , 27-H ) :   0.9639 B(  8-N ,  9-C ) :   1.1800
B(  8-N , 28-H ) :   0.9489 B(  9-C , 10-S ) :   1.6103 B(  9-C , 11-N ) :   1.3036
B( 11-N , 12-C ) :   0.9920 B( 11-N , 29-H ) :   0.9520 B( 12-C , 13-C ) :   0.9468
B( 12-C , 30-H ) :   0.9994 B( 13-C , 14-C ) :   1.3764 B( 13-C , 19-C ) :   1.3679
B( 14-C , 15-C ) :   1.3943 B( 14-C , 31-H ) :   0.9647 B( 15-C , 16-C ) :   1.3628
B( 15-C , 32-H ) :   0.9713 B( 16-C , 17-C ) :   1.3318 B( 16-C , 33-H ) :   0.9858
B( 17-C , 18-O ) :   1.1082 B( 17-C , 19-C ) :   1.3775 B( 18-O , 34-H ) :   0.9804
B( 19-C , 35-H ) :   0.9584

MP2 TOTAL ENERGY:    -1274.343902472 Eh
FINAL SINGLE POINT ENERGY     -1274.343902472360

DIPOLE MOMENT
-------------
                                X             Y             Z
Electronic contribution:     11.60578       8.80011       8.78198
Nuclear contribution   :    -13.04421     -10.12336      -9.75226
                        -----------------------------------------
Total Dipole Moment    :     -1.43843      -1.32324      -0.97027
                        -----------------------------------------
Magnitude (a.u.)       :      2.18209
Magnitude (Debye)      :      5.54642

Rotational constants in cm-1:     0.010686     0.009230     0.006272
Rotational constants in MHz :   320.355186   276.709612   188.032140

                             ****ORCA TERMINATED NORMALLY****
TOTAL RUN TIME: 0 days 2 hours 12 minutes 21 seconds 354 msec
