                         Program Version 5.0.0 -  RELEASE  -
|  1> ! ri-mp2 cc-pvtz cc-pvtz/c TightSCF NoKeepInts
|  2>
|  3> %scf
|  4>   MaxCore 4096
|  5> end
|  6> *xyz  0  1
|  7>     C       15.1394827   15.5674281   17.3407321
|  8>     C       15.5924484   15.2165499   15.9075794
|  9>     O       17.0109202   15.3406673   15.6142965
| 10>     C       18.0539329   15.6535961   16.4528977
| 11>     O       19.0057323   14.8980190   16.5266803
| 12>     C       17.9079979   16.8082647   17.3988773
| 13>     C       17.3323053   17.9847086   17.0450882
| 14>     C       16.7412511   18.3549465   15.6998576
| 15>     N       17.3385793   19.0596295   17.9379731
| 16>     C       18.0595144   19.1015819   19.1020543
| 17>     S       18.1108246   20.4590053   20.0449050
| 18>     N       18.7393789   17.9593602   19.4434326
| 19>     C       18.6167283   16.6610582   18.7511785
| 20>     C       17.9268882   15.6277747   19.6387515
| 21>     C       18.3888833   14.2988100   19.6618570
| 22>     C       17.7568384   13.3326745   20.4620284
| 23>     C       16.6510279   13.6964189   21.2486529
| 24>     C       16.1854627   15.0177985   21.2288162
| 25>     O       15.1110481   15.3699840   21.9786045
| 26>     C       16.8162630   15.9777519   20.4310581
| 27>     H       15.7315472   15.0153875   18.0786319
| 28>     H       14.0950539   15.2620820   17.4785899
| 29>     H       15.1830613   16.6381272   17.5564467
| 30>     H       15.3099522   14.1722345   15.7200155
| 31>     H       15.0237567   15.8250560   15.1930298
| 32>     H       15.6631250   18.1610445   15.6713720
| 33>     H       17.2117268   17.7950413   14.8822345
| 34>     H       16.8943780   19.4171826   15.4710565
| 35>     H       16.8592413   19.9127533   17.6970221
| 36>     H       19.2512784   18.0117304   20.3150552
| 37>     H       19.6368395   16.3000143   18.5529983
| 38>     H       19.2373942   14.0102752   19.0447998
| 39>     H       18.1234106   12.3075240   20.4660240
| 40>     H       16.1588086   12.9525035   21.8663234
| 41>     H       14.8497393   14.5926810   22.4950284
| 42>     H       16.4321792   16.9923348   20.4300509
| 43> *
| 44>
| 45>                          ****END OF INPUT****

CARTESIAN COORDINATES (ANGSTROEM)
---------------------------------
  C     15.139483   15.567428   17.340732
  C     15.592448   15.216550   15.907579
  O     17.010920   15.340667   15.614296
  C     18.053933   15.653596   16.452898
  O     19.005732   14.898019   16.526680
  C     17.907998   16.808265   17.398877
  C     17.332305   17.984709   17.045088
  C     16.741251   18.354946   15.699858
  N     17.338579   19.059629   17.937973
  C     18.059514   19.101582   19.102054
  S     18.110825   20.459005   20.044905
  N     18.739379   17.959360   19.443433
  C     18.616728   16.661058   18.751179
  C     17.926888   15.627775   19.638751
  C     18.388883   14.298810   19.661857
  C     17.756838   13.332674   20.462028
  C     16.651028   13.696419   21.248653
  C     16.185463   15.017798   21.228816
  O     15.111048   15.369984   21.978604
  C     16.816263   15.977752   20.431058
  H     15.731547   15.015387   18.078632
  H     14.095054   15.262082   17.478590
  H     15.183061   16.638127   17.556447
  H     15.309952   14.172235   15.720015
  H     15.023757   15.825056   15.193030
  H     15.663125   18.161044   15.671372
  H     17.211727   17.795041   14.882234
  H     16.894378   19.417183   15.471056
  H     16.859241   19.912753   17.697022
  H     19.251278   18.011730   20.315055
  H     19.636840   16.300014   18.552998
  H     19.237394   14.010275   19.044800
  H     18.123411   12.307524   20.466024
  H     16.158809   12.952503   21.866323
  H     14.849739   14.592681   22.495028
  H     16.432179   16.992335   20.430051

 Total Charge           Charge          ....    0
 Multiplicity           Mult            ....    1
 Number of Electrons    NEL             ....  154
 Basis Dimension        Dim             ....  828

ORBITAL ENERGIES
----------------

  NO   OCC          E(Eh)            E(eV)
   0   2.0000     -91.891139     -2500.4850
   1   2.0000     -20.597303      -560.4811
   2   2.0000     -20.591306      -560.3179
   3   2.0000     -20.548086      -559.1418
   4   2.0000     -15.630472      -425.3268
   5   2.0000     -15.610404      -424.7807
   6   2.0000     -11.398342      -310.1647
   7   2.0000     -11.386758      -309.8494
   8   2.0000     -11.335473      -308.4539
   9   2.0000     -11.313850      -307.8655
  10   2.0000     -11.312524      -307.8294
  11   2.0000     -11.310963      -307.7869
  12   2.0000     -11.266588      -306.5794
  13   2.0000     -11.264178      -306.5139
  14   2.0000     -11.260382      -306.4106
  15   2.0000     -11.254235      -306.2433
  16   2.0000     -11.243593      -305.9537
  17   2.0000     -11.238989      -305.8284
  18   2.0000     -11.235852      -305.7431
  19   2.0000     -11.235683      -305.7385
  20   2.0000      -8.896211      -242.0782
  21   2.0000      -6.577791      -178.9908
  22   2.0000      -6.575776      -178.9360
  23   2.0000      -6.575191      -178.9201
  24   2.0000      -1.441516       -39.2256
  25   2.0000      -1.417122       -38.5618
  26   2.0000      -1.353672       -36.8353
  27   2.0000      -1.342339       -36.5269
  28   2.0000      -1.240434       -33.7539
  29   2.0000      -1.158222       -31.5168
  30   2.0000      -1.123812       -30.5805
  31   2.0000      -1.046317       -28.4717
  32   2.0000      -1.040394       -28.3106
  33   2.0000      -1.016331       -27.6558
  34   2.0000      -1.004467       -27.3329
  35   2.0000      -0.989850       -26.9352
  36   2.0000      -0.927323       -25.2337
  37   2.0000      -0.900811       -24.5123
  38   2.0000      -0.853541       -23.2260
  39   2.0000      -0.840891       -22.8818
  40   2.0000      -0.834007       -22.6945
  41   2.0000      -0.825189       -22.4545
  42   2.0000      -0.745279       -20.2801
  43   2.0000      -0.732133       -19.9223
  44   2.0000      -0.729775       -19.8582
  45   2.0000      -0.694688       -18.9034
  46   2.0000      -0.687050       -18.6956
  47   2.0000      -0.678468       -18.4620
  48   2.0000      -0.674224       -18.3466
  49   2.0000      -0.662494       -18.0274
  50   2.0000      -0.655533       -17.8379
  51   2.0000      -0.651842       -17.7375
  52   2.0000      -0.642759       -17.4904
  53   2.0000      -0.618691       -16.8354
  54   2.0000      -0.606098       -16.4928
  55   2.0000      -0.604630       -16.4528
  56   2.0000      -0.601754       -16.3746
  57   2.0000      -0.587819       -15.9954
  58   2.0000      -0.575875       -15.6703
  59   2.0000      -0.566685       -15.4203
  60   2.0000      -0.564537       -15.3618
  61   2.0000      -0.554641       -15.0926
  62   2.0000      -0.544943       -14.8287
  63   2.0000      -0.532393       -14.4872
  64   2.0000      -0.522352       -14.2139
  65   2.0000      -0.513668       -13.9776
  66   2.0000      -0.500815       -13.6279
  67   2.0000      -0.489788       -13.3278
  68   2.0000      -0.484093       -13.1728
  69   2.0000      -0.471109       -12.8195
  70   2.0000      -0.457266       -12.4428
  71   2.0000      -0.447296       -12.1716
  72   2.0000      -0.356662        -9.7053
  73   2.0000      -0.348456        -9.4820
  74   2.0000      -0.330472        -8.9926
  75   2.0000      -0.322459        -8.7746
  76   2.0000      -0.318924        -8.6784
  77   0.0000       0.075944         2.0665
  78   0.0000       0.107661         2.9296
  79   0.0000       0.116147         3.1605
  80   0.0000       0.131206         3.5703
  81   0.0000       0.131394         3.5754

MULLIKEN ATOMIC CHARGES
-----------------------
   0 C :   -0.348496
   1 C :    0.042353
   2 O :   -0.354530
   3 C :    0.445687
   4 O :   -0.384937
   5 C :   -0.212449
   6 C :    0.138929
   7 C :   -0.322461
   8 N :   -0.133740
   9 C :    0.194855
  10 S :   -0.437042
  11 N :   -0.213944
  12 C :    0.072131
  13 C :    0.019337
  14 C :   -0.198834
  15 C :   -0.136295
  16 C :   -0.277425
  17 C :    0.315955
  18 O :   -0.358017
  19 C :   -0.266811
  20 H :    0.131184
  21 H :    0.125866
  22 H :    0.107033
  23 H :    0.124629
  24 H :    0.095558
  25 H :    0.116956
  26 H :    0.143526
  27 H :    0.125036
  28 H :    0.197994
  29 H :    0.198687
  30 H :    0.164402
  31 H :    0.174210
  32 H :    0.163396
  33 H :    0.131805
  34 H :    0.241001
  35 H :    0.174451
Sum of atomic charges:    0.0000000

LOEWDIN ATOMIC CHARGES
----------------------
   0 C :    0.105032
   1 C :   -0.014443
   2 O :    0.284073
   3 C :   -0.417609
   4 O :    0.122518
   5 C :   -0.087288
   6 C :   -0.083238
   7 C :    0.128164
   8 N :    0.404203
   9 C :   -0.459247
  10 S :   -0.034998
  11 N :    0.397947
  12 C :   -0.043972
  13 C :   -0.043883
  14 C :    0.019260
  15 C :    0.042570
  16 C :   -0.001963
  17 C :   -0.194324
  18 O :    0.394935
  19 C :    0.028490
  20 H :   -0.022012
  21 H :   -0.019890
  22 H :   -0.035622
  23 H :   -0.020726
  24 H :   -0.031794
  25 H :   -0.017678
  26 H :   -0.005948
  27 H :   -0.013619
  28 H :   -0.057947
  29 H :   -0.063358
  30 H :   -0.002417
  31 H :   -0.022163
  32 H :   -0.019036
  33 H :   -0.035169
  34 H :   -0.153745
  35 H :   -0.025103

  Mayer bond orders larger than 0.100000
B(  0-C ,  1-C ) :   0.9631 B(  0-C , 20-H ) :   0.9643 B(  0-C , 21-H ) :   0.9766
B(  0-C , 22-H ) :   0.9714 B(  1-C ,  2-O ) :   0.8968 B(  1-C , 23-H ) :   0.9803
B(  1-C , 24-H ) :   0.9785 B(  2-O ,  3-C ) :   1.1471 B(  3-C ,  4-O ) :   2.0680
B(  3-C ,  5-C ) :   0.9562 B(  5-C ,  6-C ) :   1.6844 B(  5-C , 12-C ) :   0.9551
B(  6-C ,  7-C ) :   0.9460 B(  6-C ,  8-N ) :   1.1134 B(  7-C , 25-H ) :   0.9638
B(  7-C , 26-H ) :   0.9701 B(  7-C , 27-H ) :   0.9837 B(  8-N ,  9-C ) :   1.1864
B(  8-N , 28-H ) :   0.9502 B(  9-C , 10-S ) :   1.6134 B(  9-C , 11-N ) :   1.2933
B( 11-N , 12-C ) :   0.9867 B( 11-N , 29-H ) :   0.9502 B( 12-C , 13-C ) :   0.9467
B( 12-C , 30-H ) :   0.9966 B( 13-C , 14-C ) :   1.3915 B( 13-C , 19-C ) :   1.3473
B( 14-C , 15-C ) :   1.3972 B( 14-C , 31-H ) :   0.9576 B( 15-C , 16-C ) :   1.3614
B( 15-C , 32-H ) :   0.9705 B( 16-C , 17-C ) :   1.3296 B( 16-C , 33-H ) :   0.9848
B( 17-C , 18-O ) :   1.1113 B( 17-C , 19-C ) :   1.3713 B( 18-O , 34-H ) :   0.9798
B( 19-C , 35-H ) :   0.9579

MP2 TOTAL ENERGY:    -1274.327136674 Eh
FINAL SINGLE POINT ENERGY     -1274.327136673880

DIPOLE MOMENT
-------------
                                X             Y             Z
Electronic contribution:      9.44221       6.41685       6.53848
Nuclear contribution   :    -11.02855      -7.49432      -7.09917
                        -----------------------------------------
Total Dipole Moment    :     -1.58634      -1.07748      -0.56070
                        -----------------------------------------
Magnitude (a.u.)       :      1.99795
Magnitude (Debye)      :      5.07839

Rotational constants in cm-1:     0.011333     0.009807     0.006791
Rotational constants in MHz :   339.759222   293.998724   203.596447

                             ****ORCA TERMINATED NORMALLY****
TOTAL RUN TIME: 0 days 2 hours 11 minutes 13 seconds 61 msec
