                         Program Version 5.0.0 -  RELEASE  -
|  1> ! ri-mp2 cc-pvtz cc-pvtz/c TightSCF NoKeepInts
|  2>
|  3> %scf
|  4>   MaxCore 4096
|  5> end
|  6> *xyz  0  1
|  7>     C       15.0476759   14.8276972   17.4159049
|  8>     C       15.5292190   15.5375884   16.1396073
|  9>     O       16.8938551   15.1501236   15.8743463
| 10>     C       18.0370665   15.6595920   16.4458455
| 11>     O       19.0496238   14.9841619   16.4391155
| 12>     C       17.9157976   16.8331016   17.3680826
| 13>     C       17.4499240   18.0384402   16.9582232
| 14>     C       17.0070702   18.4296890   15.5624760
| 15>     N       17.4943998   19.1352155   17.8217725
| 16>     C       18.1539928   19.1553792   19.0221229
| 17>     S       18.2523165   20.5290151   19.9371850
| 18>     N       18.7389524   17.9796267   19.4205653
| 19>     C       18.5807335   16.6774035   18.7422428
| 20>     C       17.8475371   15.6709889   19.6266773
| 21>     C       18.1963000   14.3085120   19.5729059
| 22>     C       17.5288289   13.3636345   20.3694651
| 23>     C       16.5027277   13.7824964   21.2326584
| 24>     C       16.1515067   15.1374888   21.2924760
| 25>     O       15.1543702   15.5437791   22.1177542
| 26>     C       16.8162276   16.0766043   20.4970206
| 27>     H       15.5005244   15.2719094   18.3048566
| 28>     H       15.3053538   13.7611566   17.3911579
| 29>     H       13.9591820   14.9149865   17.5169043
| 30>     H       14.9061343   15.1947244   15.3033532
| 31>     H       15.3865417   16.6155526   16.2349604
| 32>     H       17.1352360   17.6181326   14.8360943
| 33>     H       17.6042686   19.2729339   15.1917314
| 34>     H       15.9540085   18.7363889   15.5479528
| 35>     H       17.0973761   20.0157293   17.5334929
| 36>     H       19.2133932   18.0198734   20.3138885
| 37>     H       19.5921435   16.2794177   18.5710355
| 38>     H       18.9853866   13.9777783   18.9005121
| 39>     H       17.8075691   12.3126931   20.3128037
| 40>     H       15.9837956   13.0553774   21.8484813
| 41>     H       14.8515603   14.7672699   22.6122750
| 42>     H       16.5164009   17.1175382   20.5580527
| 43> *
| 44>
| 45>                          ****END OF INPUT****

CARTESIAN COORDINATES (ANGSTROEM)
---------------------------------
  C     15.047676   14.827697   17.415905
  C     15.529219   15.537588   16.139607
  O     16.893855   15.150124   15.874346
  C     18.037066   15.659592   16.445846
  O     19.049624   14.984162   16.439115
  C     17.915798   16.833102   17.368083
  C     17.449924   18.038440   16.958223
  C     17.007070   18.429689   15.562476
  N     17.494400   19.135216   17.821773
  C     18.153993   19.155379   19.022123
  S     18.252316   20.529015   19.937185
  N     18.738952   17.979627   19.420565
  C     18.580734   16.677404   18.742243
  C     17.847537   15.670989   19.626677
  C     18.196300   14.308512   19.572906
  C     17.528829   13.363634   20.369465
  C     16.502728   13.782496   21.232658
  C     16.151507   15.137489   21.292476
  O     15.154370   15.543779   22.117754
  C     16.816228   16.076604   20.497021
  H     15.500524   15.271909   18.304857
  H     15.305354   13.761157   17.391158
  H     13.959182   14.914986   17.516904
  H     14.906134   15.194724   15.303353
  H     15.386542   16.615553   16.234960
  H     17.135236   17.618133   14.836094
  H     17.604269   19.272934   15.191731
  H     15.954008   18.736389   15.547953
  H     17.097376   20.015729   17.533493
  H     19.213393   18.019873   20.313889
  H     19.592143   16.279418   18.571036
  H     18.985387   13.977778   18.900512
  H     17.807569   12.312693   20.312804
  H     15.983796   13.055377   21.848481
  H     14.851560   14.767270   22.612275
  H     16.516401   17.117538   20.558053

 Total Charge           Charge          ....    0
 Multiplicity           Mult            ....    1
 Number of Electrons    NEL             ....  154
 Basis Dimension        Dim             ....  828

ORBITAL ENERGIES
----------------

  NO   OCC          E(Eh)            E(eV)
   0   2.0000     -91.891055     -2500.4827
   1   2.0000     -20.601103      -560.5845
   2   2.0000     -20.598040      -560.5012
   3   2.0000     -20.549126      -559.1701
   4   2.0000     -15.628801      -425.2813
   5   2.0000     -15.611598      -424.8132
   6   2.0000     -11.400916      -310.2347
   7   2.0000     -11.387326      -309.8649
   8   2.0000     -11.334666      -308.4320
   9   2.0000     -11.315156      -307.9010
  10   2.0000     -11.314585      -307.8855
  11   2.0000     -11.306600      -307.6682
  12   2.0000     -11.271175      -306.7043
  13   2.0000     -11.269062      -306.6468
  14   2.0000     -11.262844      -306.4776
  15   2.0000     -11.255439      -306.2761
  16   2.0000     -11.244230      -305.9710
  17   2.0000     -11.240107      -305.8589
  18   2.0000     -11.236423      -305.7586
  19   2.0000     -11.225198      -305.4532
  20   2.0000      -8.896152      -242.0766
  21   2.0000      -6.577739      -178.9894
  22   2.0000      -6.575714      -178.9343
  23   2.0000      -6.575136      -178.9185
  24   2.0000      -1.446974       -39.3742
  25   2.0000      -1.417845       -38.5815
  26   2.0000      -1.359014       -36.9806
  27   2.0000      -1.342331       -36.5267
  28   2.0000      -1.241193       -33.7746
  29   2.0000      -1.159503       -31.5517
  30   2.0000      -1.125820       -30.6351
  31   2.0000      -1.048200       -28.5230
  32   2.0000      -1.037945       -28.2439
  33   2.0000      -1.018021       -27.7018
  34   2.0000      -1.005861       -27.3709
  35   2.0000      -0.990315       -26.9478
  36   2.0000      -0.928173       -25.2569
  37   2.0000      -0.891679       -24.2638
  38   2.0000      -0.855975       -23.2923
  39   2.0000      -0.841849       -22.9079
  40   2.0000      -0.834858       -22.7177
  41   2.0000      -0.832173       -22.6446
  42   2.0000      -0.750886       -20.4326
  43   2.0000      -0.741150       -20.1677
  44   2.0000      -0.730547       -19.8792
  45   2.0000      -0.695876       -18.9358
  46   2.0000      -0.688472       -18.7343
  47   2.0000      -0.681118       -18.5341
  48   2.0000      -0.675638       -18.3851
  49   2.0000      -0.662668       -18.0321
  50   2.0000      -0.653834       -17.7917
  51   2.0000      -0.644122       -17.5275
  52   2.0000      -0.638803       -17.3827
  53   2.0000      -0.622191       -16.9307
  54   2.0000      -0.610963       -16.6251
  55   2.0000      -0.606292       -16.4980
  56   2.0000      -0.601796       -16.3757
  57   2.0000      -0.588791       -16.0218
  58   2.0000      -0.577423       -15.7125
  59   2.0000      -0.567415       -15.4402
  60   2.0000      -0.565876       -15.3983
  61   2.0000      -0.552288       -15.0285
  62   2.0000      -0.541514       -14.7353
  63   2.0000      -0.534730       -14.5507
  64   2.0000      -0.518852       -14.1187
  65   2.0000      -0.513016       -13.9599
  66   2.0000      -0.503996       -13.7144
  67   2.0000      -0.501551       -13.6479
  68   2.0000      -0.482278       -13.1235
  69   2.0000      -0.469420       -12.7736
  70   2.0000      -0.455136       -12.3849
  71   2.0000      -0.448894       -12.2150
  72   2.0000      -0.359736        -9.7889
  73   2.0000      -0.349687        -9.5155
  74   2.0000      -0.330635        -8.9970
  75   2.0000      -0.323593        -8.8054
  76   2.0000      -0.319811        -8.7025
  77   0.0000       0.082808         2.2533
  78   0.0000       0.106644         2.9019
  79   0.0000       0.113271         3.0823
  80   0.0000       0.128625         3.5001
  81   0.0000       0.130955         3.5635

MULLIKEN ATOMIC CHARGES
-----------------------
   0 C :   -0.291644
   1 C :    0.020127
   2 O :   -0.321786
   3 C :    0.419869
   4 O :   -0.385377
   5 C :   -0.212561
   6 C :    0.139409
   7 C :   -0.323480
   8 N :   -0.136799
   9 C :    0.201555
  10 S :   -0.439337
  11 N :   -0.227013
  12 C :    0.084822
  13 C :    0.008023
  14 C :   -0.206153
  15 C :   -0.142923
  16 C :   -0.266622
  17 C :    0.309416
  18 O :   -0.357423
  19 C :   -0.251281
  20 H :    0.106303
  21 H :    0.111778
  22 H :    0.100608
  23 H :    0.121442
  24 H :    0.088129
  25 H :    0.128627
  26 H :    0.141873
  27 H :    0.120094
  28 H :    0.195980
  29 H :    0.202879
  30 H :    0.168062
  31 H :    0.178349
  32 H :    0.164835
  33 H :    0.132424
  34 H :    0.240762
  35 H :    0.177033
Sum of atomic charges:    0.0000000

LOEWDIN ATOMIC CHARGES
----------------------
   0 C :    0.109074
   1 C :   -0.022801
   2 O :    0.304116
   3 C :   -0.414086
   4 O :    0.121113
   5 C :   -0.080455
   6 C :   -0.098239
   7 C :    0.122042
   8 N :    0.402626
   9 C :   -0.458536
  10 S :   -0.036489
  11 N :    0.398028
  12 C :   -0.042465
  13 C :   -0.043771
  14 C :    0.020286
  15 C :    0.045325
  16 C :   -0.000858
  17 C :   -0.192633
  18 O :    0.395915
  19 C :    0.024691
  20 H :   -0.031867
  21 H :   -0.021823
  22 H :   -0.026491
  23 H :   -0.021929
  24 H :   -0.039823
  25 H :   -0.008137
  26 H :   -0.008373
  27 H :   -0.018257
  28 H :   -0.057127
  29 H :   -0.063251
  30 H :   -0.001722
  31 H :   -0.022153
  32 H :   -0.018503
  33 H :   -0.034941
  34 H :   -0.153347
  35 H :   -0.025138

  Mayer bond orders larger than 0.100000
B(  0-C ,  1-C ) :   0.9716 B(  0-C , 20-H ) :   0.9696 B(  0-C , 21-H ) :   0.9745
B(  0-C , 22-H ) :   0.9776 B(  1-C ,  2-O ) :   0.9000 B(  1-C , 23-H ) :   0.9833
B(  1-C , 24-H ) :   0.9668 B(  2-O ,  3-C ) :   1.1778 B(  3-C ,  4-O ) :   2.0766
B(  3-C ,  5-C ) :   0.9279 B(  5-C ,  6-C ) :   1.6951 B(  5-C , 12-C ) :   0.9472
B(  6-C ,  7-C ) :   0.9398 B(  6-C ,  8-N ) :   1.1112 B(  7-C , 25-H ) :   0.9796
B(  7-C , 26-H ) :   0.9687 B(  7-C , 27-H ) :   0.9669 B(  8-N ,  9-C ) :   1.1951
B(  8-N , 28-H ) :   0.9521 B(  9-C , 10-S ) :   1.6100 B(  9-C , 11-N ) :   1.2900
B( 11-N , 12-C ) :   0.9838 B( 11-N , 29-H ) :   0.9476 B( 12-C , 13-C ) :   0.9544
B( 12-C , 30-H ) :   0.9940 B( 13-C , 14-C ) :   1.3925 B( 13-C , 19-C ) :   1.3429
B( 14-C , 15-C ) :   1.3997 B( 14-C , 31-H ) :   0.9564 B( 15-C , 16-C ) :   1.3584
B( 15-C , 32-H ) :   0.9696 B( 16-C , 17-C ) :   1.3323 B( 16-C , 33-H ) :   0.9843
B( 17-C , 18-O ) :   1.1104 B( 17-C , 19-C ) :   1.3669 B( 18-O , 34-H ) :   0.9797
B( 19-C , 35-H ) :   0.9592

MP2 TOTAL ENERGY:    -1274.333247340 Eh
FINAL SINGLE POINT ENERGY     -1274.333247340090

DIPOLE MOMENT
-------------
                                X             Y             Z
Electronic contribution:      9.42255       7.31691       6.33747
Nuclear contribution   :    -10.98133      -8.24462      -6.94222
                        -----------------------------------------
Total Dipole Moment    :     -1.55878      -0.92771      -0.60475
                        -----------------------------------------
Magnitude (a.u.)       :      1.91211
Magnitude (Debye)      :      4.86019

Rotational constants in cm-1:     0.011649     0.009568     0.006638
Rotational constants in MHz :   349.235485   286.841228   198.987977

                             ****ORCA TERMINATED NORMALLY****
TOTAL RUN TIME: 0 days 2 hours 0 minutes 15 seconds 218 msec
