                         Program Version 5.0.0 -  RELEASE  -
|  1> ! ri-mp2 cc-pvtz cc-pvtz/c TightSCF NoKeepInts
|  2>
|  3> %scf
|  4>   MaxCore 4096
|  5> end
|  6> *xyz  0  1
|  7>     C       14.7923100   14.8591705   16.1561432
|  8>     C       15.9644429   14.7002244   17.1413250
|  9>     O       17.1890983   14.9165717   16.4114496
| 10>     C       17.6284868   16.1846395   16.1564517
| 11>     O       17.6080810   16.6077249   15.0154596
| 12>     C       17.7686890   17.0773248   17.3567218
| 13>     C       17.3611891   18.3695654   17.3303107
| 14>     C       16.5672562   19.0477681   16.2354812
| 15>     N       17.7056624   19.2328165   18.3738009
| 16>     C       18.6337221   18.9448928   19.3398559
| 17>     S       19.1255603   20.0721284   20.4451409
| 18>     N       19.1400592   17.6686159   19.3406622
| 19>     C       18.6116990   16.5513979   18.5337570
| 20>     C       17.8910886   15.5663592   19.4482735
| 21>     C       18.2588093   14.2074451   19.4569033
| 22>     C       17.5970089   13.2926260   20.2928922
| 23>     C       16.5628760   13.7398701   21.1325661
| 24>     C       16.2002105   15.0934426   21.1349211
| 25>     O       15.1997533   15.5280195   21.9411230
| 26>     C       16.8588787   16.0017364   20.3002960
| 27>     H       14.7519780   15.8792620   15.7545083
| 28>     H       13.8386179   14.6496422   16.6554896
| 29>     H       14.8995656   14.1630620   15.3146339
| 30>     H       15.8333416   15.4095486   17.9640047
| 31>     H       15.9560573   13.6829547   17.5538082
| 32>     H       15.7681786   18.3926611   15.8670365
| 33>     H       17.2165071   19.2797656   15.3810547
| 34>     H       16.0984401   19.9811950   16.5684330
| 35>     H       17.3623679   20.1803214   18.3707917
| 36>     H       19.8082870   17.4815129   20.0776496
| 37>     H       19.4763260   16.0293704   18.0996061
| 38>     H       19.0542035   13.8554738   18.8045033
| 39>     H       17.8868481   12.2429135   20.2887972
| 40>     H       16.0493519   13.0364393   21.7801574
| 41>     H       14.9180532   14.7797004   22.4890589
| 42>     H       16.5639946   17.0458378   20.3209321
| 43> *
| 44>
| 45>                          ****END OF INPUT****

CARTESIAN COORDINATES (ANGSTROEM)
---------------------------------
  C     14.792310   14.859170   16.156143
  C     15.964443   14.700224   17.141325
  O     17.189098   14.916572   16.411450
  C     17.628487   16.184639   16.156452
  O     17.608081   16.607725   15.015460
  C     17.768689   17.077325   17.356722
  C     17.361189   18.369565   17.330311
  C     16.567256   19.047768   16.235481
  N     17.705662   19.232816   18.373801
  C     18.633722   18.944893   19.339856
  S     19.125560   20.072128   20.445141
  N     19.140059   17.668616   19.340662
  C     18.611699   16.551398   18.533757
  C     17.891089   15.566359   19.448273
  C     18.258809   14.207445   19.456903
  C     17.597009   13.292626   20.292892
  C     16.562876   13.739870   21.132566
  C     16.200211   15.093443   21.134921
  O     15.199753   15.528019   21.941123
  C     16.858879   16.001736   20.300296
  H     14.751978   15.879262   15.754508
  H     13.838618   14.649642   16.655490
  H     14.899566   14.163062   15.314634
  H     15.833342   15.409549   17.964005
  H     15.956057   13.682955   17.553808
  H     15.768179   18.392661   15.867036
  H     17.216507   19.279766   15.381055
  H     16.098440   19.981195   16.568433
  H     17.362368   20.180321   18.370792
  H     19.808287   17.481513   20.077650
  H     19.476326   16.029370   18.099606
  H     19.054203   13.855474   18.804503
  H     17.886848   12.242914   20.288797
  H     16.049352   13.036439   21.780157
  H     14.918053   14.779700   22.489059
  H     16.563995   17.045838   20.320932

 Total Charge           Charge          ....    0
 Multiplicity           Mult            ....    1
 Number of Electrons    NEL             ....  154
 Basis Dimension        Dim             ....  828

ORBITAL ENERGIES
----------------

  NO   OCC          E(Eh)            E(eV)
   0   2.0000     -91.891798     -2500.5030
   1   2.0000     -20.602952      -560.6348
   2   2.0000     -20.585853      -560.1695
   3   2.0000     -20.552612      -559.2650
   4   2.0000     -15.630277      -425.3215
   5   2.0000     -15.611839      -424.8197
   6   2.0000     -11.394095      -310.0491
   7   2.0000     -11.386885      -309.8529
   8   2.0000     -11.334678      -308.4323
   9   2.0000     -11.321107      -308.0630
  10   2.0000     -11.317578      -307.9669
  11   2.0000     -11.296785      -307.4011
  12   2.0000     -11.266489      -306.5767
  13   2.0000     -11.262132      -306.4582
  14   2.0000     -11.260491      -306.4135
  15   2.0000     -11.256156      -306.2956
  16   2.0000     -11.250563      -306.1434
  17   2.0000     -11.244998      -305.9920
  18   2.0000     -11.244852      -305.9880
  19   2.0000     -11.225183      -305.4527
  20   2.0000      -8.896835      -242.0952
  21   2.0000      -6.578404      -179.0075
  22   2.0000      -6.576403      -178.9530
  23   2.0000      -6.575810      -178.9369
  24   2.0000      -1.447026       -39.3756
  25   2.0000      -1.422727       -38.7144
  26   2.0000      -1.355924       -36.8966
  27   2.0000      -1.342398       -36.5285
  28   2.0000      -1.241758       -33.7900
  29   2.0000      -1.163889       -31.6710
  30   2.0000      -1.123246       -30.5651
  31   2.0000      -1.048742       -28.5377
  32   2.0000      -1.032277       -28.0897
  33   2.0000      -1.022384       -27.8205
  34   2.0000      -1.001672       -27.2569
  35   2.0000      -0.988430       -26.8965
  36   2.0000      -0.927864       -25.2485
  37   2.0000      -0.885227       -24.0883
  38   2.0000      -0.851891       -23.1811
  39   2.0000      -0.845030       -22.9944
  40   2.0000      -0.841182       -22.8897
  41   2.0000      -0.833399       -22.6779
  42   2.0000      -0.754782       -20.5387
  43   2.0000      -0.736837       -20.0504
  44   2.0000      -0.720337       -19.6014
  45   2.0000      -0.702045       -19.1036
  46   2.0000      -0.692834       -18.8530
  47   2.0000      -0.681759       -18.5516
  48   2.0000      -0.671559       -18.2741
  49   2.0000      -0.668795       -18.1988
  50   2.0000      -0.653066       -17.7708
  51   2.0000      -0.648729       -17.6528
  52   2.0000      -0.638169       -17.3655
  53   2.0000      -0.612749       -16.6737
  54   2.0000      -0.608873       -16.5683
  55   2.0000      -0.603412       -16.4197
  56   2.0000      -0.600618       -16.3436
  57   2.0000      -0.582671       -15.8553
  58   2.0000      -0.576754       -15.6943
  59   2.0000      -0.569612       -15.4999
  60   2.0000      -0.558955       -15.2099
  61   2.0000      -0.551617       -15.0102
  62   2.0000      -0.542093       -14.7511
  63   2.0000      -0.530296       -14.4301
  64   2.0000      -0.522634       -14.2216
  65   2.0000      -0.518382       -14.1059
  66   2.0000      -0.506358       -13.7787
  67   2.0000      -0.500000       -13.6057
  68   2.0000      -0.481329       -13.0976
  69   2.0000      -0.468654       -12.7527
  70   2.0000      -0.453639       -12.3441
  71   2.0000      -0.447043       -12.1646
  72   2.0000      -0.359031        -9.7697
  73   2.0000      -0.353732        -9.6255
  74   2.0000      -0.331580        -9.0227
  75   2.0000      -0.328746        -8.9456
  76   2.0000      -0.319719        -8.7000
  77   0.0000       0.074076         2.0157
  78   0.0000       0.098860         2.6901
  79   0.0000       0.118901         3.2355
  80   0.0000       0.126943         3.4543
  81   0.0000       0.129768         3.5312

MULLIKEN ATOMIC CHARGES
-----------------------
   0 C :   -0.265386
   1 C :    0.020042
   2 O :   -0.352781
   3 C :    0.421218
   4 O :   -0.373128
   5 C :   -0.239369
   6 C :    0.156906
   7 C :   -0.275965
   8 N :   -0.124843
   9 C :    0.197370
  10 S :   -0.433242
  11 N :   -0.193123
  12 C :    0.037523
  13 C :    0.030051
  14 C :   -0.159290
  15 C :   -0.149838
  16 C :   -0.269131
  17 C :    0.304462
  18 O :   -0.354221
  19 C :   -0.255016
  20 H :    0.088394
  21 H :    0.092865
  22 H :    0.107312
  23 H :    0.103683
  24 H :    0.119198
  25 H :    0.120433
  26 H :    0.142145
  27 H :    0.096247
  28 H :    0.198082
  29 H :    0.191915
  30 H :    0.152641
  31 H :    0.147102
  32 H :    0.165599
  33 H :    0.135011
  34 H :    0.241562
  35 H :    0.175573
Sum of atomic charges:   -0.0000000

LOEWDIN ATOMIC CHARGES
----------------------
   0 C :    0.106417
   1 C :   -0.022269
   2 O :    0.292734
   3 C :   -0.423548
   4 O :    0.132430
   5 C :   -0.095977
   6 C :   -0.072086
   7 C :    0.129988
   8 N :    0.405423
   9 C :   -0.458124
  10 S :   -0.031775
  11 N :    0.396511
  12 C :   -0.051524
  13 C :   -0.042487
  14 C :    0.018257
  15 C :    0.042828
  16 C :   -0.000247
  17 C :   -0.191906
  18 O :    0.397046
  19 C :    0.031142
  20 H :   -0.031052
  21 H :   -0.027692
  22 H :   -0.023136
  23 H :   -0.039164
  24 H :   -0.022080
  25 H :   -0.009569
  26 H :   -0.002764
  27 H :   -0.021861
  28 H :   -0.057500
  29 H :   -0.064475
  30 H :   -0.006991
  31 H :   -0.028010
  32 H :   -0.019234
  33 H :   -0.033938
  34 H :   -0.152444
  35 H :   -0.022923

  Mayer bond orders larger than 0.100000
B(  0-C ,  1-C ) :   0.9814 B(  0-C , 20-H ) :   0.9751 B(  0-C , 21-H ) :   0.9768
B(  0-C , 22-H ) :   0.9797 B(  1-C ,  2-O ) :   0.8779 B(  1-C , 23-H ) :   0.9581
B(  1-C , 24-H ) :   0.9792 B(  2-O ,  3-C ) :   1.1504 B(  3-C ,  4-O ) :   2.0902
B(  3-C ,  5-C ) :   0.9635 B(  5-C ,  6-C ) :   1.6861 B(  5-C , 12-C ) :   0.9631
B(  6-C ,  7-C ) :   0.9587 B(  6-C ,  8-N ) :   1.1353 B(  7-C , 25-H ) :   0.9719
B(  7-C , 26-H ) :   0.9564 B(  7-C , 27-H ) :   0.9853 B(  8-N ,  9-C ) :   1.1844
B(  8-N , 28-H ) :   0.9495 B(  9-C , 10-S ) :   1.6202 B(  9-C , 11-N ) :   1.2897
B( 11-N , 12-C ) :   0.9964 B( 11-N , 29-H ) :   0.9525 B( 12-C , 13-C ) :   0.9443
B( 12-C , 30-H ) :   1.0096 B( 13-C , 14-C ) :   1.3611 B( 13-C , 19-C ) :   1.3561
B( 14-C , 15-C ) :   1.3933 B( 14-C , 31-H ) :   0.9746 B( 15-C , 16-C ) :   1.3652
B( 15-C , 32-H ) :   0.9698 B( 16-C , 17-C ) :   1.3266 B( 16-C , 33-H ) :   0.9830
B( 17-C , 18-O ) :   1.1160 B( 17-C , 19-C ) :   1.3759 B( 18-O , 34-H ) :   0.9790
B( 19-C , 35-H ) :   0.9570

MP2 TOTAL ENERGY:    -1274.326323848 Eh
FINAL SINGLE POINT ENERGY     -1274.326323847696

DIPOLE MOMENT
-------------
                                X             Y             Z
Electronic contribution:     10.98713       7.69836       7.20488
Nuclear contribution   :    -12.23351      -9.26725      -6.85360
                        -----------------------------------------
Total Dipole Moment    :     -1.24639      -1.56889       0.35128
                        -----------------------------------------
Magnitude (a.u.)       :      2.03428
Magnitude (Debye)      :      5.17073

Rotational constants in cm-1:     0.011388     0.009774     0.006424
Rotational constants in MHz :   341.410904   293.005568   192.598760

                             ****ORCA TERMINATED NORMALLY****
TOTAL RUN TIME: 0 days 2 hours 6 minutes 52 seconds 940 msec
