                         Program Version 5.0.0 -  RELEASE  -
|  1> ! ri-mp2 cc-pvtz cc-pvtz/c TightSCF NoKeepInts
|  2>
|  3> %scf
|  4>   MaxCore 4096
|  5> end
|  6> *xyz  0  1
|  7>     C       15.2907600   13.9171106   16.8281344
|  8>     C       15.2752540   15.4434314   16.6124735
|  9>     O       16.4372413   15.8610205   15.8671427
| 10>     C       17.6582471   15.7915891   16.4710432
| 11>     O       18.2583912   14.7360953   16.5751857
| 12>     C       17.9447305   16.9641733   17.3585712
| 13>     C       17.5328414   18.2304251   17.1006569
| 14>     C       16.7773794   18.7216464   15.8836173
| 15>     N       17.8677296   19.2626152   17.9820256
| 16>     C       18.6974961   19.1290958   19.0644649
| 17>     S       19.1154207   20.4236248   20.0048322
| 18>     N       19.1610324   17.8648955   19.3308744
| 19>     C       18.7348921   16.6395420   18.6282141
| 20>     C       17.9082760   15.7475405   19.5503546
| 21>     C       18.2624343   14.3999649   19.7451503
| 22>     C       17.4866916   13.5673070   20.5688810
| 23>     C       16.3445783   14.0851716   21.2028546
| 24>     C       15.9862478   15.4258291   21.0084565
| 25>     O       14.8770096   15.9262954   21.6082643
| 26>     C       16.7604829   16.2523994   20.1883813
| 27>     H       16.0745782   13.6265058   17.5391049
| 28>     H       15.4700387   13.3925521   15.8812757
| 29>     H       14.3302258   13.5774708   17.2334396
| 30>     H       14.3751438   15.7095778   16.0436877
| 31>     H       15.2279346   15.9584790   17.5815042
| 32>     H       17.1452718   18.2369133   14.9703145
| 33>     H       16.8851084   19.8029769   15.7339008
| 34>     H       15.7069806   18.5003138   15.9733174
| 35>     H       17.5408025   20.1988014   17.8026313
| 36>     H       19.7481711   17.7905202   20.1518632
| 37>     H       19.6398309   16.0898399   18.3306766
| 38>     H       19.1321271   13.9907134   19.2363829
| 39>     H       17.7681300   12.5245558   20.7053765
| 40>     H       15.7406915   13.4441096   21.8365305
| 41>     H       14.5185597   15.2313033   22.1809720
| 42>     H       16.4662690   17.2875940   20.0534433
| 43> *
| 44>
| 45>                          ****END OF INPUT****

CARTESIAN COORDINATES (ANGSTROEM)
---------------------------------
  C     15.290760   13.917111   16.828134
  C     15.275254   15.443431   16.612474
  O     16.437241   15.861020   15.867143
  C     17.658247   15.791589   16.471043
  O     18.258391   14.736095   16.575186
  C     17.944730   16.964173   17.358571
  C     17.532841   18.230425   17.100657
  C     16.777379   18.721646   15.883617
  N     17.867730   19.262615   17.982026
  C     18.697496   19.129096   19.064465
  S     19.115421   20.423625   20.004832
  N     19.161032   17.864895   19.330874
  C     18.734892   16.639542   18.628214
  C     17.908276   15.747540   19.550355
  C     18.262434   14.399965   19.745150
  C     17.486692   13.567307   20.568881
  C     16.344578   14.085172   21.202855
  C     15.986248   15.425829   21.008456
  O     14.877010   15.926295   21.608264
  C     16.760483   16.252399   20.188381
  H     16.074578   13.626506   17.539105
  H     15.470039   13.392552   15.881276
  H     14.330226   13.577471   17.233440
  H     14.375144   15.709578   16.043688
  H     15.227935   15.958479   17.581504
  H     17.145272   18.236913   14.970315
  H     16.885108   19.802977   15.733901
  H     15.706981   18.500314   15.973317
  H     17.540803   20.198801   17.802631
  H     19.748171   17.790520   20.151863
  H     19.639831   16.089840   18.330677
  H     19.132127   13.990713   19.236383
  H     17.768130   12.524556   20.705376
  H     15.740691   13.444110   21.836530
  H     14.518560   15.231303   22.180972
  H     16.466269   17.287594   20.053443

 Total Charge           Charge          ....    0
 Multiplicity           Mult            ....    1
 Number of Electrons    NEL             ....  154
 Basis Dimension        Dim             ....  828

ORBITAL ENERGIES
----------------

  NO   OCC          E(Eh)            E(eV)
   0   2.0000     -91.890222     -2500.4601
   1   2.0000     -20.598031      -560.5009
   2   2.0000     -20.583297      -560.1000
   3   2.0000     -20.555737      -559.3500
   4   2.0000     -15.630060      -425.3155
   5   2.0000     -15.609705      -424.7617
   6   2.0000     -11.394732      -310.0664
   7   2.0000     -11.385806      -309.8235
   8   2.0000     -11.335839      -308.4639
   9   2.0000     -11.314338      -307.8788
  10   2.0000     -11.309451      -307.7458
  11   2.0000     -11.302788      -307.5645
  12   2.0000     -11.261913      -306.4522
  13   2.0000     -11.259978      -306.3996
  14   2.0000     -11.259698      -306.3920
  15   2.0000     -11.254114      -306.2400
  16   2.0000     -11.243826      -305.9601
  17   2.0000     -11.239988      -305.8556
  18   2.0000     -11.236812      -305.7692
  19   2.0000     -11.219731      -305.3044
  20   2.0000      -8.895294      -242.0533
  21   2.0000      -6.576870      -178.9657
  22   2.0000      -6.574862      -178.9111
  23   2.0000      -6.574275      -178.8951
  24   2.0000      -1.449448       -39.4415
  25   2.0000      -1.417824       -38.5810
  26   2.0000      -1.358049       -36.9544
  27   2.0000      -1.341136       -36.4942
  28   2.0000      -1.239376       -33.7251
  29   2.0000      -1.158480       -31.5238
  30   2.0000      -1.122633       -30.5484
  31   2.0000      -1.045746       -28.4562
  32   2.0000      -1.029875       -28.0243
  33   2.0000      -1.015938       -27.6451
  34   2.0000      -1.001107       -27.2415
  35   2.0000      -0.986392       -26.8411
  36   2.0000      -0.925180       -25.1754
  37   2.0000      -0.885463       -24.0947
  38   2.0000      -0.851523       -23.1711
  39   2.0000      -0.840778       -22.8787
  40   2.0000      -0.834422       -22.7058
  41   2.0000      -0.828678       -22.5495
  42   2.0000      -0.747499       -20.3405
  43   2.0000      -0.730837       -19.8871
  44   2.0000      -0.730021       -19.8649
  45   2.0000      -0.696179       -18.9440
  46   2.0000      -0.686761       -18.6877
  47   2.0000      -0.680795       -18.5254
  48   2.0000      -0.674106       -18.3434
  49   2.0000      -0.667210       -18.1557
  50   2.0000      -0.649102       -17.6630
  51   2.0000      -0.648012       -17.6333
  52   2.0000      -0.638103       -17.3637
  53   2.0000      -0.607816       -16.5395
  54   2.0000      -0.606878       -16.5140
  55   2.0000      -0.602424       -16.3928
  56   2.0000      -0.599327       -16.3085
  57   2.0000      -0.579178       -15.7602
  58   2.0000      -0.574658       -15.6372
  59   2.0000      -0.570803       -15.5323
  60   2.0000      -0.559822       -15.2335
  61   2.0000      -0.551965       -15.0197
  62   2.0000      -0.536024       -14.5859
  63   2.0000      -0.524900       -14.2833
  64   2.0000      -0.519562       -14.1380
  65   2.0000      -0.512740       -13.9524
  66   2.0000      -0.501370       -13.6430
  67   2.0000      -0.493204       -13.4208
  68   2.0000      -0.482578       -13.1316
  69   2.0000      -0.467399       -12.7186
  70   2.0000      -0.456845       -12.4314
  71   2.0000      -0.449240       -12.2244
  72   2.0000      -0.356183        -9.6922
  73   2.0000      -0.349973        -9.5233
  74   2.0000      -0.329536        -8.9671
  75   2.0000      -0.321460        -8.7474
  76   2.0000      -0.317606        -8.6425
  77   0.0000       0.070595         1.9210
  78   0.0000       0.103157         2.8070
  79   0.0000       0.119208         3.2438
  80   0.0000       0.130213         3.5433
  81   0.0000       0.136301         3.7089

MULLIKEN ATOMIC CHARGES
-----------------------
   0 C :   -0.268829
   1 C :    0.012495
   2 O :   -0.376126
   3 C :    0.470075
   4 O :   -0.391116
   5 C :   -0.236953
   6 C :    0.158748
   7 C :   -0.284619
   8 N :   -0.124588
   9 C :    0.202536
  10 S :   -0.437888
  11 N :   -0.203323
  12 C :    0.061589
  13 C :    0.058847
  14 C :   -0.178997
  15 C :   -0.130625
  16 C :   -0.278185
  17 C :    0.322891
  18 O :   -0.359938
  19 C :   -0.310573
  20 H :    0.112934
  21 H :    0.104552
  22 H :    0.090208
  23 H :    0.114620
  24 H :    0.094183
  25 H :    0.130733
  26 H :    0.107816
  27 H :    0.121802
  28 H :    0.197286
  29 H :    0.194863
  30 H :    0.155624
  31 H :    0.159297
  32 H :    0.162957
  33 H :    0.131567
  34 H :    0.241508
  35 H :    0.174629
Sum of atomic charges:    0.0000000

LOEWDIN ATOMIC CHARGES
----------------------
   0 C :    0.108750
   1 C :   -0.021240
   2 O :    0.285463
   3 C :   -0.417221
   4 O :    0.134481
   5 C :   -0.095907
   6 C :   -0.074127
   7 C :    0.126838
   8 N :    0.404450
   9 C :   -0.457521
  10 S :   -0.034853
  11 N :    0.397092
  12 C :   -0.046070
  13 C :   -0.042053
  14 C :    0.022040
  15 C :    0.042822
  16 C :   -0.001048
  17 C :   -0.194490
  18 O :    0.393602
  19 C :    0.027978
  20 H :   -0.026190
  21 H :   -0.023389
  22 H :   -0.028895
  23 H :   -0.024131
  24 H :   -0.036191
  25 H :   -0.006188
  26 H :   -0.018824
  27 H :   -0.010951
  28 H :   -0.058380
  29 H :   -0.063866
  30 H :   -0.004541
  31 H :   -0.024119
  32 H :   -0.019876
  33 H :   -0.035158
  34 H :   -0.153371
  35 H :   -0.024918

  Mayer bond orders larger than 0.100000
B(  0-C ,  1-C ) :   0.9852 B(  0-C , 20-H ) :   0.9679 B(  0-C , 21-H ) :   0.9758
B(  0-C , 22-H ) :   0.9754 B(  1-C ,  2-O ) :   0.8967 B(  1-C , 23-H ) :   0.9791
B(  1-C , 24-H ) :   0.9668 B(  2-O ,  3-C ) :   1.0929 B(  3-C ,  4-O ) :   2.0513
B(  3-C ,  5-C ) :   0.9991 B(  5-C ,  6-C ) :   1.6618 B(  5-C , 12-C ) :   0.9638
B(  6-C ,  7-C ) :   0.9523 B(  6-C ,  8-N ) :   1.1430 B(  7-C , 25-H ) :   0.9688
B(  7-C , 26-H ) :   0.9870 B(  7-C , 27-H ) :   0.9649 B(  8-N ,  9-C ) :   1.1833
B(  8-N , 28-H ) :   0.9492 B(  9-C , 10-S ) :   1.6127 B(  9-C , 11-N ) :   1.2997
B( 11-N , 12-C ) :   0.9943 B( 11-N , 29-H ) :   0.9516 B( 12-C , 13-C ) :   0.9427
B( 12-C , 30-H ) :   0.9986 B( 13-C , 14-C ) :   1.3767 B( 13-C , 19-C ) :   1.3517
B( 14-C , 15-C ) :   1.3923 B( 14-C , 31-H ) :   0.9634 B( 15-C , 16-C ) :   1.3632
B( 15-C , 32-H ) :   0.9705 B( 16-C , 17-C ) :   1.3321 B( 16-C , 33-H ) :   0.9845
B( 17-C , 18-O ) :   1.1098 B( 17-C , 19-C ) :   1.3635 B( 18-O , 34-H ) :   0.9796
B( 19-C , 35-H ) :   0.9580

MP2 TOTAL ENERGY:    -1274.329409577 Eh
FINAL SINGLE POINT ENERGY     -1274.329409576817

DIPOLE MOMENT
-------------
                                X             Y             Z
Electronic contribution:     10.26144       9.65249       6.11719
Nuclear contribution   :    -11.72699     -10.65534      -6.53191
                        -----------------------------------------
Total Dipole Moment    :     -1.46554      -1.00284      -0.41472
                        -----------------------------------------
Magnitude (a.u.)       :      1.82360
Magnitude (Debye)      :      4.63521

Rotational constants in cm-1:     0.012448     0.009154     0.006672
Rotational constants in MHz :   373.189984   274.438559   200.025868

                             ****ORCA TERMINATED NORMALLY****
TOTAL RUN TIME: 0 days 1 hours 41 minutes 23 seconds 988 msec
