                         Program Version 5.0.0 -  RELEASE  -
|  1> ! ri-mp2 cc-pvtz cc-pvtz/c TightSCF NoKeepInts
|  2>
|  3> %scf
|  4>   MaxCore 4096
|  5> end
|  6> *xyz  0  1
|  7>     C       14.6911496   14.1765484   16.0842741
|  8>     C       15.6027371   15.0736171   15.2200830
|  9>     O       16.5679676   15.2170623   16.2813303
| 10>     C       17.7434870   15.8442004   16.4649767
| 11>     O       18.5522315   14.9580543   16.7021467
| 12>     C       17.7578366   16.9144556   17.5434912
| 13>     C       17.2846127   18.1925420   17.3695815
| 14>     C       16.4300325   18.7691451   16.2626511
| 15>     N       17.7444900   19.2326796   18.1970389
| 16>     C       18.7242165   19.1246050   19.1487309
| 17>     S       19.3633953   20.4294493   19.9407393
| 18>     N       19.1671346   17.8587390   19.4039011
| 19>     C       18.6475466   16.6420968   18.7717776
| 20>     C       17.9562567   15.7667219   19.8068627
| 21>     C       18.4406334   14.4730540   20.0566360
| 22>     C       17.8048704   13.6401140   20.9908034
| 23>     C       16.6779262   14.1123775   21.6855036
| 24>     C       16.2017520   15.4095521   21.4487282
| 25>     O       15.1090030   15.8661328   22.1111550
| 26>     C       16.8382444   16.2373084   20.5182527
| 27>     H       15.3017032   13.6021131   16.8099087
| 28>     H       14.2360023   13.3905782   15.4830674
| 29>     H       13.9501603   14.7183502   16.6777165
| 30>     H       15.8556461   14.5694688   14.2615830
| 31>     H       15.0967725   16.0314311   14.9928702
| 32>     H       16.0000620   18.0102328   15.6076640
| 33>     H       16.9985363   19.4788923   15.6441363
| 34>     H       15.5896152   19.3366284   16.6934037
| 35>     H       17.4930360   20.1885938   17.9817556
| 36>     H       19.8544904   17.7804258   20.1412843
| 37>     H       19.5362164   16.1072260   18.4213946
| 38>     H       19.3003429   14.1040605   19.5022478
| 39>     H       18.1779012   12.6318432   21.1566808
| 40>     H       16.1750632   13.4659769   22.3966078
| 41>     H       14.8196977   15.1604830   22.7080778
| 42>     H       16.4562304   17.2372403   20.3469373
| 43> *
| 44>
| 45>                          ****END OF INPUT****

CARTESIAN COORDINATES (ANGSTROEM)
---------------------------------
  C     14.691150   14.176548   16.084274
  C     15.602737   15.073617   15.220083
  O     16.567968   15.217062   16.281330
  C     17.743487   15.844200   16.464977
  O     18.552232   14.958054   16.702147
  C     17.757837   16.914456   17.543491
  C     17.284613   18.192542   17.369581
  C     16.430032   18.769145   16.262651
  N     17.744490   19.232680   18.197039
  C     18.724217   19.124605   19.148731
  S     19.363395   20.429449   19.940739
  N     19.167135   17.858739   19.403901
  C     18.647547   16.642097   18.771778
  C     17.956257   15.766722   19.806863
  C     18.440633   14.473054   20.056636
  C     17.804870   13.640114   20.990803
  C     16.677926   14.112377   21.685504
  C     16.201752   15.409552   21.448728
  O     15.109003   15.866133   22.111155
  C     16.838244   16.237308   20.518253
  H     15.301703   13.602113   16.809909
  H     14.236002   13.390578   15.483067
  H     13.950160   14.718350   16.677716
  H     15.855646   14.569469   14.261583
  H     15.096773   16.031431   14.992870
  H     16.000062   18.010233   15.607664
  H     16.998536   19.478892   15.644136
  H     15.589615   19.336628   16.693404
  H     17.493036   20.188594   17.981756
  H     19.854490   17.780426   20.141284
  H     19.536216   16.107226   18.421395
  H     19.300343   14.104060   19.502248
  H     18.177901   12.631843   21.156681
  H     16.175063   13.465977   22.396608
  H     14.819698   15.160483   22.708078
  H     16.456230   17.237240   20.346937

 Total Charge           Charge          ....    0
 Multiplicity           Mult            ....    1
 Number of Electrons    NEL             ....  154
 Basis Dimension        Dim             ....  828

ORBITAL ENERGIES
----------------

  NO   OCC          E(Eh)            E(eV)
   0   2.0000     -91.884533     -2500.3052
   1   2.0000     -20.591770      -560.3306
   2   2.0000     -20.584426      -560.1307
   3   2.0000     -20.547912      -559.1371
   4   2.0000     -15.624885      -425.1747
   5   2.0000     -15.602790      -424.5735
   6   2.0000     -11.389819      -309.9327
   7   2.0000     -11.378994      -309.6382
   8   2.0000     -11.334301      -308.4220
   9   2.0000     -11.313282      -307.8500
  10   2.0000     -11.307573      -307.6947
  11   2.0000     -11.300273      -307.4961
  12   2.0000     -11.271274      -306.7070
  13   2.0000     -11.270176      -306.6771
  14   2.0000     -11.252144      -306.1864
  15   2.0000     -11.247700      -306.0655
  16   2.0000     -11.237436      -305.7862
  17   2.0000     -11.232657      -305.6561
  18   2.0000     -11.230015      -305.5843
  19   2.0000     -11.222340      -305.3754
  20   2.0000      -8.889640      -241.8994
  21   2.0000      -6.571243      -178.8126
  22   2.0000      -6.569199      -178.7570
  23   2.0000      -6.568645      -178.7419
  24   2.0000      -1.464081       -39.8397
  25   2.0000      -1.411581       -38.4111
  26   2.0000      -1.344214       -36.5779
  27   2.0000      -1.336248       -36.3611
  28   2.0000      -1.235750       -33.6265
  29   2.0000      -1.151587       -31.3363
  30   2.0000      -1.115077       -30.3428
  31   2.0000      -1.042782       -28.3755
  32   2.0000      -1.039443       -28.2847
  33   2.0000      -1.010102       -27.4863
  34   2.0000      -0.999845       -27.2072
  35   2.0000      -0.979530       -26.6544
  36   2.0000      -0.919160       -25.0116
  37   2.0000      -0.878852       -23.9148
  38   2.0000      -0.849803       -23.1243
  39   2.0000      -0.835416       -22.7328
  40   2.0000      -0.828194       -22.5363
  41   2.0000      -0.823913       -22.4198
  42   2.0000      -0.765146       -20.8207
  43   2.0000      -0.731464       -19.9041
  44   2.0000      -0.724073       -19.7030
  45   2.0000      -0.689144       -18.7526
  46   2.0000      -0.685623       -18.6568
  47   2.0000      -0.677482       -18.4352
  48   2.0000      -0.671723       -18.2785
  49   2.0000      -0.660726       -17.9793
  50   2.0000      -0.646085       -17.5809
  51   2.0000      -0.638296       -17.3689
  52   2.0000      -0.628388       -17.0993
  53   2.0000      -0.624636       -16.9972
  54   2.0000      -0.604948       -16.4615
  55   2.0000      -0.600435       -16.3387
  56   2.0000      -0.594543       -16.1783
  57   2.0000      -0.588264       -16.0075
  58   2.0000      -0.573027       -15.5929
  59   2.0000      -0.560935       -15.2638
  60   2.0000      -0.541947       -14.7471
  61   2.0000      -0.539328       -14.6759
  62   2.0000      -0.524806       -14.2807
  63   2.0000      -0.521017       -14.1776
  64   2.0000      -0.512847       -13.9553
  65   2.0000      -0.509325       -13.8594
  66   2.0000      -0.493867       -13.4388
  67   2.0000      -0.485410       -13.2087
  68   2.0000      -0.476894       -12.9770
  69   2.0000      -0.469734       -12.7821
  70   2.0000      -0.450177       -12.2499
  71   2.0000      -0.437322       -11.9001
  72   2.0000      -0.348697        -9.4885
  73   2.0000      -0.343194        -9.3388
  74   2.0000      -0.324236        -8.8229
  75   2.0000      -0.315169        -8.5762
  76   2.0000      -0.312285        -8.4977
  77   0.0000       0.062138         1.6909
  78   0.0000       0.100566         2.7366
  79   0.0000       0.115005         3.1294
  80   0.0000       0.128014         3.4835
  81   0.0000       0.136108         3.7037

MULLIKEN ATOMIC CHARGES
-----------------------
   0 C :   -0.266053
   1 C :    0.022156
   2 O :   -0.276159
   3 C :    0.320542
   4 O :   -0.352980
   5 C :   -0.087352
   6 C :    0.105322
   7 C :   -0.303051
   8 N :   -0.131787
   9 C :    0.206346
  10 S :   -0.452676
  11 N :   -0.188871
  12 C :   -0.012062
  13 C :    0.080410
  14 C :   -0.178581
  15 C :   -0.129862
  16 C :   -0.278833
  17 C :    0.314221
  18 O :   -0.359499
  19 C :   -0.263624
  20 H :    0.118590
  21 H :    0.073208
  22 H :    0.097996
  23 H :    0.105223
  24 H :    0.076174
  25 H :    0.111921
  26 H :    0.124596
  27 H :    0.119831
  28 H :    0.193762
  29 H :    0.196560
  30 H :    0.169646
  31 H :    0.156226
  32 H :    0.159801
  33 H :    0.128023
  34 H :    0.239737
  35 H :    0.161099
Sum of atomic charges:   -0.0000000

LOEWDIN ATOMIC CHARGES
----------------------
   0 C :    0.092550
   1 C :   -0.013221
   2 O :    0.342200
   3 C :   -0.442606
   4 O :    0.148147
   5 C :   -0.077472
   6 C :   -0.085900
   7 C :    0.120421
   8 N :    0.396493
   9 C :   -0.462615
  10 S :   -0.045513
  11 N :    0.402023
  12 C :   -0.052247
  13 C :   -0.037229
  14 C :    0.019436
  15 C :    0.042639
  16 C :   -0.001047
  17 C :   -0.191069
  18 O :    0.393524
  19 C :    0.031891
  20 H :   -0.010993
  21 H :   -0.040773
  22 H :   -0.032000
  23 H :   -0.025180
  24 H :   -0.040568
  25 H :   -0.019835
  26 H :   -0.010829
  27 H :   -0.008342
  28 H :   -0.055809
  29 H :   -0.061449
  30 H :   -0.011785
  31 H :   -0.024162
  32 H :   -0.021230
  33 H :   -0.036451
  34 H :   -0.155601
  35 H :   -0.025397

  Mayer bond orders larger than 0.100000
B(  0-C ,  1-C ) :   0.9574 B(  0-C , 20-H ) :   0.9753 B(  0-C , 21-H ) :   0.9816
B(  0-C , 22-H ) :   0.9849 B(  1-C ,  2-O ) :   0.9262 B(  1-C , 23-H ) :   0.9808
B(  1-C , 24-H ) :   0.9740 B(  2-O ,  3-C ) :   1.0878 B(  3-C ,  4-O ) :   2.0093
B(  3-C ,  5-C ) :   0.9948 B(  5-C ,  6-C ) :   1.6785 B(  5-C , 12-C ) :   0.9717
B(  6-C ,  7-C ) :   0.9573 B(  6-C ,  8-N ) :   1.1136 B(  7-C , 25-H ) :   0.9859
B(  7-C , 26-H ) :   0.9650 B(  7-C , 27-H ) :   0.9699 B(  8-N ,  9-C ) :   1.1906
B(  8-N , 28-H ) :   0.9531 B(  9-C , 10-S ) :   1.5950 B(  9-C , 11-N ) :   1.3149
B( 11-N , 12-C ) :   0.9765 B( 11-N , 29-H ) :   0.9502 B( 12-C , 13-C ) :   0.9541
B( 12-C , 30-H ) :   0.9982 B( 13-C , 14-C ) :   1.3721 B( 13-C , 19-C ) :   1.3704
B( 14-C , 15-C ) :   1.3879 B( 14-C , 31-H ) :   0.9664 B( 15-C , 16-C ) :   1.3677
B( 15-C , 32-H ) :   0.9712 B( 16-C , 17-C ) :   1.3272 B( 16-C , 33-H ) :   0.9860
B( 17-C , 18-O ) :   1.1055 B( 17-C , 19-C ) :   1.3810 B( 18-O , 34-H ) :   0.9810
B( 19-C , 35-H ) :   0.9591

MP2 TOTAL ENERGY:    -1274.235924281 Eh
FINAL SINGLE POINT ENERGY     -1274.235924281447

DIPOLE MOMENT
-------------
                                X             Y             Z
Electronic contribution:     11.77073       8.85368       9.02189
Nuclear contribution   :    -13.49988      -9.88740     -10.34429
                        -----------------------------------------
Total Dipole Moment    :     -1.72914      -1.03372      -1.32240
                        -----------------------------------------
Magnitude (a.u.)       :      2.40983
Magnitude (Debye)      :      6.12529

Rotational constants in cm-1:     0.010502     0.008988     0.006071
Rotational constants in MHz :   314.854507   269.446438   182.008216

                             ****ORCA TERMINATED NORMALLY****
TOTAL RUN TIME: 0 days 1 hours 32 minutes 32 seconds 892 msec
