                         Program Version 5.0.0 -  RELEASE  -
|  1> ! ri-mp2 cc-pvtz cc-pvtz/c TightSCF NoKeepInts
|  2>
|  3> %scf
|  4>   MaxCore 4096
|  5> end
|  6> *xyz  0  1
|  7>     C       15.3603811   14.5135968   17.3151031
|  8>     C       16.3836371   14.1870585   16.2124813
|  9>     O       17.6242760   14.8986208   16.4177291
| 10>     C       17.6721294   16.2204372   16.0769402
| 11>     O       17.2300793   16.5842911   15.0009939
| 12>     C       17.7599227   17.1271876   17.2743334
| 13>     C       17.3187634   18.4116523   17.2568284
| 14>     C       16.5548088   19.1101496   16.1523827
| 15>     N       17.6176645   19.2651142   18.3239485
| 16>     C       18.5435181   18.9908310   19.2963140
| 17>     S       19.0098711   20.1230258   20.4080737
| 18>     N       19.0728592   17.7245724   19.2911483
| 19>     C       18.5414462   16.6044824   18.4920916
| 20>     C       17.7332762   15.6866728   19.4036539
| 21>     C       18.1595201   14.3651453   19.6367203
| 22>     C       17.4486169   13.5277159   20.5131687
| 23>     C       16.3038296   14.0159805   21.1660835
| 24>     C       15.8792366   15.3327210   20.9411516
| 25>     O       14.7736517   15.8067596   21.5684009
| 26>     C       16.5887224   16.1638864   20.0686734
| 27>     H       15.6795375   14.0947270   18.2742015
| 28>     H       14.3872355   14.0716715   17.0698998
| 29>     H       15.2205069   15.5955949   17.4259905
| 30>     H       16.5816821   13.1077151   16.2286411
| 31>     H       15.9619396   14.4283607   15.2270048
| 32>     H       15.6814209   18.5177407   15.8517354
| 33>     H       17.1883442   19.2326084   15.2645036
| 34>     H       16.1924065   20.1026901   16.4443970
| 35>     H       17.2497802   20.2031031   18.3289213
| 36>     H       19.7334071   17.5405186   20.0353010
| 37>     H       19.4004122   16.0341053   18.1114922
| 38>     H       19.0454746   13.9846689   19.1352441
| 39>     H       17.7864539   12.5071845   20.6853202
| 40>     H       15.7520070   13.3732893   21.8442032
| 41>     H       14.4598244   15.1147249   22.1697515
| 42>     H       16.2503569   17.1833957   19.9211721
| 43> *
| 44>
| 45>                          ****END OF INPUT****

CARTESIAN COORDINATES (ANGSTROEM)
---------------------------------
  C     15.360381   14.513597   17.315103
  C     16.383637   14.187058   16.212481
  O     17.624276   14.898621   16.417729
  C     17.672129   16.220437   16.076940
  O     17.230079   16.584291   15.000994
  C     17.759923   17.127188   17.274333
  C     17.318763   18.411652   17.256828
  C     16.554809   19.110150   16.152383
  N     17.617664   19.265114   18.323949
  C     18.543518   18.990831   19.296314
  S     19.009871   20.123026   20.408074
  N     19.072859   17.724572   19.291148
  C     18.541446   16.604482   18.492092
  C     17.733276   15.686673   19.403654
  C     18.159520   14.365145   19.636720
  C     17.448617   13.527716   20.513169
  C     16.303830   14.015980   21.166083
  C     15.879237   15.332721   20.941152
  O     14.773652   15.806760   21.568401
  C     16.588722   16.163886   20.068673
  H     15.679538   14.094727   18.274201
  H     14.387235   14.071672   17.069900
  H     15.220507   15.595595   17.425991
  H     16.581682   13.107715   16.228641
  H     15.961940   14.428361   15.227005
  H     15.681421   18.517741   15.851735
  H     17.188344   19.232608   15.264504
  H     16.192407   20.102690   16.444397
  H     17.249780   20.203103   18.328921
  H     19.733407   17.540519   20.035301
  H     19.400412   16.034105   18.111492
  H     19.045475   13.984669   19.135244
  H     17.786454   12.507184   20.685320
  H     15.752007   13.373289   21.844203
  H     14.459824   15.114725   22.169751
  H     16.250357   17.183396   19.921172

 Total Charge           Charge          ....    0
 Multiplicity           Mult            ....    1
 Number of Electrons    NEL             ....  154
 Basis Dimension        Dim             ....  828

ORBITAL ENERGIES
----------------

  NO   OCC          E(Eh)            E(eV)
   0   2.0000     -91.890543     -2500.4688
   1   2.0000     -20.598420      -560.5115
   2   2.0000     -20.585612      -560.1630
   3   2.0000     -20.549871      -559.1904
   4   2.0000     -15.630671      -425.3322
   5   2.0000     -15.608957      -424.7413
   6   2.0000     -11.394613      -310.0632
   7   2.0000     -11.384957      -309.8004
   8   2.0000     -11.336679      -308.4867
   9   2.0000     -11.315600      -307.9131
  10   2.0000     -11.311642      -307.8054
  11   2.0000     -11.296106      -307.3827
  12   2.0000     -11.261007      -306.4276
  13   2.0000     -11.260675      -306.4185
  14   2.0000     -11.257201      -306.3240
  15   2.0000     -11.253750      -306.2301
  16   2.0000     -11.245344      -306.0014
  17   2.0000     -11.239714      -305.8482
  18   2.0000     -11.239542      -305.8435
  19   2.0000     -11.221220      -305.3449
  20   2.0000      -8.895554      -242.0603
  21   2.0000      -6.577118      -178.9725
  22   2.0000      -6.575127      -178.9183
  23   2.0000      -6.574529      -178.9020
  24   2.0000      -1.449563       -39.4446
  25   2.0000      -1.418137       -38.5895
  26   2.0000      -1.352157       -36.7941
  27   2.0000      -1.341778       -36.5116
  28   2.0000      -1.239870       -33.7386
  29   2.0000      -1.158796       -31.5324
  30   2.0000      -1.120842       -30.4997
  31   2.0000      -1.043862       -28.4049
  32   2.0000      -1.032093       -28.0847
  33   2.0000      -1.016923       -27.6719
  34   2.0000      -0.998522       -27.1712
  35   2.0000      -0.985797       -26.8249
  36   2.0000      -0.924308       -25.1517
  37   2.0000      -0.891764       -24.2661
  38   2.0000      -0.847817       -23.0703
  39   2.0000      -0.841014       -22.8852
  40   2.0000      -0.835704       -22.7407
  41   2.0000      -0.816069       -22.2064
  42   2.0000      -0.754311       -20.5258
  43   2.0000      -0.733702       -19.9650
  44   2.0000      -0.722982       -19.6734
  45   2.0000      -0.697998       -18.9935
  46   2.0000      -0.690520       -18.7900
  47   2.0000      -0.678308       -18.4577
  48   2.0000      -0.668377       -18.1875
  49   2.0000      -0.667386       -18.1605
  50   2.0000      -0.649390       -17.6708
  51   2.0000      -0.645686       -17.5700
  52   2.0000      -0.637341       -17.3429
  53   2.0000      -0.608924       -16.5697
  54   2.0000      -0.605399       -16.4737
  55   2.0000      -0.600172       -16.3315
  56   2.0000      -0.597888       -16.2694
  57   2.0000      -0.579287       -15.7632
  58   2.0000      -0.572283       -15.5726
  59   2.0000      -0.564834       -15.3699
  60   2.0000      -0.558896       -15.2083
  61   2.0000      -0.547816       -14.9068
  62   2.0000      -0.539776       -14.6881
  63   2.0000      -0.526658       -14.3311
  64   2.0000      -0.522549       -14.2193
  65   2.0000      -0.514967       -14.0130
  66   2.0000      -0.503540       -13.7020
  67   2.0000      -0.502019       -13.6606
  68   2.0000      -0.475134       -12.9291
  69   2.0000      -0.464235       -12.6325
  70   2.0000      -0.452244       -12.3062
  71   2.0000      -0.445284       -12.1168
  72   2.0000      -0.357552        -9.7295
  73   2.0000      -0.350299        -9.5321
  74   2.0000      -0.329691        -8.9713
  75   2.0000      -0.324209        -8.8222
  76   2.0000      -0.317220        -8.6320
  77   0.0000       0.067939         1.8487
  78   0.0000       0.105353         2.8668
  79   0.0000       0.120049         3.2667
  80   0.0000       0.130383         3.5479
  81   0.0000       0.133835         3.6418

MULLIKEN ATOMIC CHARGES
-----------------------
   0 C :   -0.320244
   1 C :    0.039505
   2 O :   -0.382726
   3 C :    0.476306
   4 O :   -0.409893
   5 C :   -0.233682
   6 C :    0.157500
   7 C :   -0.272175
   8 N :   -0.124531
   9 C :    0.202083
  10 S :   -0.434044
  11 N :   -0.191722
  12 C :    0.026646
  13 C :    0.074922
  14 C :   -0.185566
  15 C :   -0.130062
  16 C :   -0.280135
  17 C :    0.309453
  18 O :   -0.358668
  19 C :   -0.262880
  20 H :    0.110447
  21 H :    0.117150
  22 H :    0.100006
  23 H :    0.108532
  24 H :    0.116148
  25 H :    0.125668
  26 H :    0.137064
  27 H :    0.094277
  28 H :    0.198350
  29 H :    0.190838
  30 H :    0.148710
  31 H :    0.150803
  32 H :    0.161499
  33 H :    0.131717
  34 H :    0.241146
  35 H :    0.167558
Sum of atomic charges:    0.0000000

LOEWDIN ATOMIC CHARGES
----------------------
   0 C :    0.105295
   1 C :   -0.014585
   2 O :    0.283335
   3 C :   -0.416624
   4 O :    0.119378
   5 C :   -0.097246
   6 C :   -0.061329
   7 C :    0.129909
   8 N :    0.406673
   9 C :   -0.458074
  10 S :   -0.031768
  11 N :    0.396734
  12 C :   -0.052665
  13 C :   -0.037715
  14 C :    0.014058
  15 C :    0.039063
  16 C :   -0.002678
  17 C :   -0.190968
  18 O :    0.396409
  19 C :    0.034760
  20 H :   -0.026200
  21 H :   -0.025571
  22 H :   -0.030763
  23 H :   -0.023509
  24 H :   -0.029060
  25 H :   -0.007125
  26 H :   -0.003333
  27 H :   -0.023082
  28 H :   -0.057872
  29 H :   -0.065232
  30 H :   -0.006463
  31 H :   -0.029118
  32 H :   -0.020686
  33 H :   -0.035192
  34 H :   -0.153448
  35 H :   -0.025312

  Mayer bond orders larger than 0.100000
B(  0-C ,  1-C ) :   0.9592 B(  0-C , 20-H ) :   0.9738 B(  0-C , 21-H ) :   0.9779
B(  0-C , 22-H ) :   0.9720 B(  1-C ,  2-O ) :   0.8831 B(  1-C , 23-H ) :   0.9853
B(  1-C , 24-H ) :   0.9810 B(  2-O ,  3-C ) :   1.1065 B(  3-C ,  4-O ) :   2.0036
B(  3-C ,  5-C ) :   1.0580 B(  5-C ,  6-C ) :   1.6567 B(  5-C , 12-C ) :   0.9717
B(  6-C ,  7-C ) :   0.9708 B(  6-C ,  8-N ) :   1.1434 B(  7-C , 25-H ) :   0.9657
B(  7-C , 26-H ) :   0.9570 B(  7-C , 27-H ) :   0.9880 B(  8-N ,  9-C ) :   1.1780
B(  8-N , 28-H ) :   0.9487 B(  9-C , 10-S ) :   1.6186 B(  9-C , 11-N ) :   1.2987
B( 11-N , 12-C ) :   0.9858 B( 11-N , 29-H ) :   0.9543 B( 12-C , 13-C ) :   0.9410
B( 12-C , 30-H ) :   1.0058 B( 13-C , 14-C ) :   1.3606 B( 13-C , 19-C ) :   1.3636
B( 14-C , 15-C ) :   1.3868 B( 14-C , 31-H ) :   0.9708 B( 15-C , 16-C ) :   1.3615
B( 15-C , 32-H ) :   0.9715 B( 16-C , 17-C ) :   1.3308 B( 16-C , 33-H ) :   0.9850
B( 17-C , 18-O ) :   1.1131 B( 17-C , 19-C ) :   1.3756 B( 18-O , 34-H ) :   0.9795
B( 19-C , 35-H ) :   0.9576

MP2 TOTAL ENERGY:    -1274.329095198 Eh
FINAL SINGLE POINT ENERGY     -1274.329095197785

DIPOLE MOMENT
-------------
                                X             Y             Z
Electronic contribution:      9.37544       9.20935       5.56180
Nuclear contribution   :    -10.38808     -10.87541      -5.63818
                        -----------------------------------------
Total Dipole Moment    :     -1.01264      -1.66606      -0.07638
                        -----------------------------------------
Magnitude (a.u.)       :      1.95115
Magnitude (Debye)      :      4.95944

Rotational constants in cm-1:     0.011785     0.009811     0.006594
Rotational constants in MHz :   353.319097   294.129929   197.671732

                             ****ORCA TERMINATED NORMALLY****
TOTAL RUN TIME: 0 days 1 hours 43 minutes 22 seconds 63 msec
