                         Program Version 5.0.0 -  RELEASE  -
|  1> ! ri-mp2 cc-pvtz cc-pvtz/c TightSCF NoKeepInts
|  2>
|  3> %scf
|  4>   MaxCore 4096
|  5> end
|  6> *xyz  0  1
|  7>     C       15.6634611   13.6826126   15.1878049
|  8>     C       15.1567158   15.1310295   15.3565645
|  9>     O       16.0492985   16.0517776   16.0410211
| 10>     C       17.1397639   15.7603269   16.8212171
| 11>     O       17.6242924   14.6490822   16.9463722
| 12>     C       17.6339222   16.9231996   17.6391004
| 13>     C       17.2941365   18.2264350   17.4467523
| 14>     C       16.3751847   18.8144768   16.3947729
| 15>     N       17.8762512   19.2203283   18.2413565
| 16>     C       18.9035044   19.0188025   19.1244077
| 17>     S       19.6261327   20.2740941   19.9230642
| 18>     N       19.3007257   17.7198194   19.3106507
| 19>     C       18.6023986   16.5407285   18.7660784
| 20>     C       17.8798566   15.7873928   19.8803400
| 21>     C       18.1206439   14.4161640   20.0851526
| 22>     C       17.4577144   13.7166933   21.1074865
| 23>     C       16.5448768   14.3934155   21.9341188
| 24>     C       16.2990986   15.7581778   21.7314378
| 25>     O       15.4135990   16.4131239   22.5241626
| 26>     C       16.9601405   16.4515640   20.7127388
| 27>     H       16.6476614   13.6627574   14.7030316
| 28>     H       14.9693433   13.1092254   14.5618504
| 29>     H       15.7329538   13.1709467   16.1560283
| 30>     H       14.9281836   15.5423390   14.3650079
| 31>     H       14.2099241   15.0915436   15.9106002
| 32>     H       15.3379742   18.5022444   16.5688775
| 33>     H       16.6677146   18.4799751   15.3917118
| 34>     H       16.3894973   19.9110717   16.3836892
| 35>     H       17.5983534   20.1808873   18.1194281
| 36>     H       20.0386928   17.5926874   19.9911310
| 37>     H       19.3659008   15.8738072   18.3400202
| 38>     H       18.8130725   13.8864722   19.4353116
| 39>     H       17.6484473   12.6546788   21.2505921
| 40>     H       16.0292164   13.8566481   22.7233015
| 41>     H       15.0908470   15.7793338   23.1820633
| 42>     H       16.7575004   17.5081373   20.5767555
| 43> *
| 44>
| 45>                          ****END OF INPUT****

CARTESIAN COORDINATES (ANGSTROEM)
---------------------------------
  C     15.663461   13.682613   15.187805
  C     15.156716   15.131029   15.356564
  O     16.049298   16.051778   16.041021
  C     17.139764   15.760327   16.821217
  O     17.624292   14.649082   16.946372
  C     17.633922   16.923200   17.639100
  C     17.294136   18.226435   17.446752
  C     16.375185   18.814477   16.394773
  N     17.876251   19.220328   18.241356
  C     18.903504   19.018802   19.124408
  S     19.626133   20.274094   19.923064
  N     19.300726   17.719819   19.310651
  C     18.602399   16.540729   18.766078
  C     17.879857   15.787393   19.880340
  C     18.120644   14.416164   20.085153
  C     17.457714   13.716693   21.107487
  C     16.544877   14.393415   21.934119
  C     16.299099   15.758178   21.731438
  O     15.413599   16.413124   22.524163
  C     16.960140   16.451564   20.712739
  H     16.647661   13.662757   14.703032
  H     14.969343   13.109225   14.561850
  H     15.732954   13.170947   16.156028
  H     14.928184   15.542339   14.365008
  H     14.209924   15.091544   15.910600
  H     15.337974   18.502244   16.568877
  H     16.667715   18.479975   15.391712
  H     16.389497   19.911072   16.383689
  H     17.598353   20.180887   18.119428
  H     20.038693   17.592687   19.991131
  H     19.365901   15.873807   18.340020
  H     18.813073   13.886472   19.435312
  H     17.648447   12.654679   21.250592
  H     16.029216   13.856648   22.723302
  H     15.090847   15.779334   23.182063
  H     16.757500   17.508137   20.576755

 Total Charge           Charge          ....    0
 Multiplicity           Mult            ....    1
 Number of Electrons    NEL             ....  154
 Basis Dimension        Dim             ....  828

ORBITAL ENERGIES
----------------

  NO   OCC          E(Eh)            E(eV)
   0   2.0000     -91.887070     -2500.3743
   1   2.0000     -20.601175      -560.5865
   2   2.0000     -20.590717      -560.3019
   3   2.0000     -20.543211      -559.0092
   4   2.0000     -15.627112      -425.2353
   5   2.0000     -15.605583      -424.6495
   6   2.0000     -11.399323      -310.1914
   7   2.0000     -11.381722      -309.7124
   8   2.0000     -11.335093      -308.4436
   9   2.0000     -11.307474      -307.6920
  10   2.0000     -11.306456      -307.6643
  11   2.0000     -11.304018      -307.5980
  12   2.0000     -11.259485      -306.3862
  13   2.0000     -11.257779      -306.3397
  14   2.0000     -11.252293      -306.1905
  15   2.0000     -11.246652      -306.0370
  16   2.0000     -11.236257      -305.7541
  17   2.0000     -11.232287      -305.6461
  18   2.0000     -11.229270      -305.5640
  19   2.0000     -11.224853      -305.4438
  20   2.0000      -8.892143      -241.9675
  21   2.0000      -6.573723      -178.8801
  22   2.0000      -6.571715      -178.8254
  23   2.0000      -6.571131      -178.8096
  24   2.0000      -1.444818       -39.3155
  25   2.0000      -1.410448       -38.3802
  26   2.0000      -1.356879       -36.9226
  27   2.0000      -1.338273       -36.4163
  28   2.0000      -1.235856       -33.6293
  29   2.0000      -1.150817       -31.3153
  30   2.0000      -1.117578       -30.4108
  31   2.0000      -1.041563       -28.3424
  32   2.0000      -1.034514       -28.1506
  33   2.0000      -1.008362       -27.4389
  34   2.0000      -0.996087       -27.1049
  35   2.0000      -0.981386       -26.7049
  36   2.0000      -0.920498       -25.0480
  37   2.0000      -0.897118       -24.4118
  38   2.0000      -0.847196       -23.0534
  39   2.0000      -0.834912       -22.7191
  40   2.0000      -0.826822       -22.4990
  41   2.0000      -0.816998       -22.2316
  42   2.0000      -0.742733       -20.2108
  43   2.0000      -0.725495       -19.7417
  44   2.0000      -0.723439       -19.6858
  45   2.0000      -0.689431       -18.7604
  46   2.0000      -0.683437       -18.5973
  47   2.0000      -0.676939       -18.4205
  48   2.0000      -0.672996       -18.3131
  49   2.0000      -0.665176       -18.1004
  50   2.0000      -0.645354       -17.5610
  51   2.0000      -0.642902       -17.4942
  52   2.0000      -0.633796       -17.2465
  53   2.0000      -0.602353       -16.3909
  54   2.0000      -0.599058       -16.3012
  55   2.0000      -0.597315       -16.2538
  56   2.0000      -0.594174       -16.1683
  57   2.0000      -0.584728       -15.9112
  58   2.0000      -0.571243       -15.5443
  59   2.0000      -0.570574       -15.5261
  60   2.0000      -0.558604       -15.2004
  61   2.0000      -0.541918       -14.7463
  62   2.0000      -0.537330       -14.6215
  63   2.0000      -0.525445       -14.2981
  64   2.0000      -0.516322       -14.0498
  65   2.0000      -0.510108       -13.8807
  66   2.0000      -0.498760       -13.5720
  67   2.0000      -0.494138       -13.4462
  68   2.0000      -0.479204       -13.0398
  69   2.0000      -0.461578       -12.5602
  70   2.0000      -0.452676       -12.3179
  71   2.0000      -0.446522       -12.1505
  72   2.0000      -0.352958        -9.6045
  73   2.0000      -0.342902        -9.3308
  74   2.0000      -0.326246        -8.8776
  75   2.0000      -0.314647        -8.5620
  76   2.0000      -0.312656        -8.5078
  77   0.0000       0.077240         2.1018
  78   0.0000       0.114462         3.1147
  79   0.0000       0.121344         3.3019
  80   0.0000       0.136552         3.7158
  81   0.0000       0.139287         3.7902

MULLIKEN ATOMIC CHARGES
-----------------------
   0 C :   -0.287485
   1 C :    0.050128
   2 O :   -0.359505
   3 C :    0.437865
   4 O :   -0.429607
   5 C :   -0.146127
   6 C :    0.139565
   7 C :   -0.287178
   8 N :   -0.120489
   9 C :    0.200775
  10 S :   -0.440741
  11 N :   -0.196713
  12 C :    0.029888
  13 C :    0.059284
  14 C :   -0.163312
  15 C :   -0.134171
  16 C :   -0.279121
  17 C :    0.311649
  18 O :   -0.359180
  19 C :   -0.272060
  20 H :    0.107166
  21 H :    0.096919
  22 H :    0.115759
  23 H :    0.092737
  24 H :    0.089448
  25 H :    0.127106
  26 H :    0.125810
  27 H :    0.102917
  28 H :    0.196279
  29 H :    0.193362
  30 H :    0.154547
  31 H :    0.153765
  32 H :    0.158723
  33 H :    0.127648
  34 H :    0.239870
  35 H :    0.164480
Sum of atomic charges:    0.0000000

LOEWDIN ATOMIC CHARGES
----------------------
   0 C :    0.102631
   1 C :   -0.008250
   2 O :    0.293151
   3 C :   -0.412751
   4 O :    0.113230
   5 C :   -0.090035
   6 C :   -0.065174
   7 C :    0.124109
   8 N :    0.404566
   9 C :   -0.459512
  10 S :   -0.037157
  11 N :    0.398012
  12 C :   -0.046718
  13 C :   -0.038543
  14 C :    0.021545
  15 C :    0.040352
  16 C :   -0.002625
  17 C :   -0.192572
  18 O :    0.392923
  19 C :    0.028597
  20 H :   -0.024829
  21 H :   -0.027943
  22 H :   -0.024247
  23 H :   -0.027342
  24 H :   -0.028685
  25 H :   -0.009842
  26 H :   -0.008853
  27 H :   -0.021489
  28 H :   -0.059546
  29 H :   -0.063696
  30 H :   -0.005633
  31 H :   -0.025417
  32 H :   -0.021472
  33 H :   -0.036590
  34 H :   -0.155070
  35 H :   -0.025126

  Mayer bond orders larger than 0.100000
B(  0-C ,  1-C ) :   0.9826 B(  0-C , 20-H ) :   0.9741 B(  0-C , 21-H ) :   0.9729
B(  0-C , 22-H ) :   0.9726 B(  1-C ,  2-O ) :   0.8988 B(  1-C , 23-H ) :   0.9793
B(  1-C , 24-H ) :   0.9777 B(  2-O ,  3-C ) :   1.1453 B(  3-C ,  4-O ) :   1.9780
B(  3-C ,  5-C ) :   1.0588 B(  5-C ,  6-C ) :   1.6508 B(  5-C , 12-C ) :   0.9647
B(  6-C ,  7-C ) :   0.9548 B(  6-C ,  8-N ) :   1.1473 B(  7-C , 25-H ) :   0.9643
B(  7-C , 26-H ) :   0.9658 B(  7-C , 27-H ) :   0.9922 B(  8-N ,  9-C ) :   1.1788
B(  8-N , 28-H ) :   0.9489 B(  9-C , 10-S ) :   1.6095 B(  9-C , 11-N ) :   1.3051
B( 11-N , 12-C ) :   0.9918 B( 11-N , 29-H ) :   0.9521 B( 12-C , 13-C ) :   0.9478
B( 12-C , 30-H ) :   1.0003 B( 13-C , 14-C ) :   1.3750 B( 13-C , 19-C ) :   1.3697
B( 14-C , 15-C ) :   1.3945 B( 14-C , 31-H ) :   0.9649 B( 15-C , 16-C ) :   1.3624
B( 15-C , 32-H ) :   0.9715 B( 16-C , 17-C ) :   1.3316 B( 16-C , 33-H ) :   0.9861
B( 17-C , 18-O ) :   1.1078 B( 17-C , 19-C ) :   1.3792 B( 18-O , 34-H ) :   0.9807
B( 19-C , 35-H ) :   0.9584

MP2 TOTAL ENERGY:    -1274.336629271 Eh
FINAL SINGLE POINT ENERGY     -1274.336629270874

DIPOLE MOMENT
-------------
                                X             Y             Z
Electronic contribution:      9.82056      10.25810      11.08488
Nuclear contribution   :    -11.50543     -11.43252     -12.15386
                        -----------------------------------------
Total Dipole Moment    :     -1.68487      -1.17442      -1.06898
                        -----------------------------------------
Magnitude (a.u.)       :      2.31534
Magnitude (Debye)      :      5.88512

Rotational constants in cm-1:     0.010621     0.008854     0.005811
Rotational constants in MHz :   318.404709   265.425063   174.200878

                             ****ORCA TERMINATED NORMALLY****
TOTAL RUN TIME: 0 days 1 hours 53 minutes 10 seconds 285 msec
