                         Program Version 5.0.0 -  RELEASE  -
|  1> ! ri-mp2 cc-pvtz cc-pvtz/c TightSCF NoKeepInts
|  2>
|  3> %scf
|  4>   MaxCore 4096
|  5> end
|  6> *xyz  0  1
|  7>     C       16.0467881   13.0802235   16.3798060
|  8>     C       15.5959596   14.5486443   16.4538839
|  9>     O       16.7766985   15.3660686   16.4901418
| 10>     C       16.6200085   16.7220520   16.4540920
| 11>     O       15.6916975   17.2429217   15.8594361
| 12>     C       17.4974909   17.4371867   17.4443065
| 13>     C       17.4954139   18.7884953   17.5725966
| 14>     C       16.6627434   19.7820121   16.7907890
| 15>     N       18.3580071   19.4080806   18.4817029
| 16>     C       19.3205949   18.7641746   19.2122009
| 17>     S       20.3682697   19.5843331   20.1948969
| 18>     N       19.3767474   17.4000059   19.0828668
| 19>     C       18.4096296   16.5766927   18.3347270
| 20>     C       17.6153415   15.7121222   19.3097375
| 21>     C       17.8841297   14.3349483   19.4179741
| 22>     C       17.1532877   13.5313058   20.3091083
| 23>     C       16.1482096   14.1101801   21.1024426
| 24>     C       15.8837773   15.4830546   21.0037014
| 25>     O       14.9160171   16.0455614   21.7703911
| 26>     C       16.6122637   16.2800780   20.1154053
| 27>     H       16.6356257   12.8099849   17.2642664
| 28>     H       16.6610227   12.9092797   15.4870297
| 29>     H       15.1768689   12.4141962   16.3310904
| 30>     H       14.9876446   14.7895199   15.5712079
| 31>     H       14.9898189   14.7146980   17.3547246
| 32>     H       15.5946787   19.6335682   16.9956002
| 33>     H       16.8103028   19.6465211   15.7118109
| 34>     H       16.9047003   20.8247690   17.0273798
| 35>     H       18.3323711   20.4096305   18.5881710
| 36>     H       20.0729549   16.9502613   19.6632054
| 37>     H       18.9852360   15.9129442   17.6741507
| 38>     H       18.6583880   13.8844253   18.8026945
| 39>     H       17.3672467   12.4664943   20.3837475
| 40>     H       15.5816057   13.4940674   21.7929166
| 41>     H       14.5582853   15.3517567   22.3445048
| 42>     H       16.3971744   17.3417418   20.0612927
| 43> *
| 44>
| 45>                          ****END OF INPUT****

CARTESIAN COORDINATES (ANGSTROEM)
---------------------------------
  C     16.046788   13.080224   16.379806
  C     15.595960   14.548644   16.453884
  O     16.776698   15.366069   16.490142
  C     16.620009   16.722052   16.454092
  O     15.691698   17.242922   15.859436
  C     17.497491   17.437187   17.444306
  C     17.495414   18.788495   17.572597
  C     16.662743   19.782012   16.790789
  N     18.358007   19.408081   18.481703
  C     19.320595   18.764175   19.212201
  S     20.368270   19.584333   20.194897
  N     19.376747   17.400006   19.082867
  C     18.409630   16.576693   18.334727
  C     17.615341   15.712122   19.309738
  C     17.884130   14.334948   19.417974
  C     17.153288   13.531306   20.309108
  C     16.148210   14.110180   21.102443
  C     15.883777   15.483055   21.003701
  O     14.916017   16.045561   21.770391
  C     16.612264   16.280078   20.115405
  H     16.635626   12.809985   17.264266
  H     16.661023   12.909280   15.487030
  H     15.176869   12.414196   16.331090
  H     14.987645   14.789520   15.571208
  H     14.989819   14.714698   17.354725
  H     15.594679   19.633568   16.995600
  H     16.810303   19.646521   15.711811
  H     16.904700   20.824769   17.027380
  H     18.332371   20.409630   18.588171
  H     20.072955   16.950261   19.663205
  H     18.985236   15.912944   17.674151
  H     18.658388   13.884425   18.802695
  H     17.367247   12.466494   20.383747
  H     15.581606   13.494067   21.792917
  H     14.558285   15.351757   22.344505
  H     16.397174   17.341742   20.061293

 Total Charge           Charge          ....    0
 Multiplicity           Mult            ....    1
 Number of Electrons    NEL             ....  154
 Basis Dimension        Dim             ....  828

ORBITAL ENERGIES
----------------

  NO   OCC          E(Eh)            E(eV)
   0   2.0000     -91.889361     -2500.4366
   1   2.0000     -20.598747      -560.5204
   2   2.0000     -20.595223      -560.4245
   3   2.0000     -20.543192      -559.0087
   4   2.0000     -15.629590      -425.3028
   5   2.0000     -15.608907      -424.7400
   6   2.0000     -11.393350      -310.0288
   7   2.0000     -11.384528      -309.7888
   8   2.0000     -11.336226      -308.4744
   9   2.0000     -11.316228      -307.9302
  10   2.0000     -11.310124      -307.7641
  11   2.0000     -11.294100      -307.3281
  12   2.0000     -11.261930      -306.4527
  13   2.0000     -11.258961      -306.3719
  14   2.0000     -11.257777      -306.3397
  15   2.0000     -11.252518      -306.1966
  16   2.0000     -11.245266      -305.9992
  17   2.0000     -11.240311      -305.8644
  18   2.0000     -11.240198      -305.8613
  19   2.0000     -11.227654      -305.5200
  20   2.0000      -8.894420      -242.0295
  21   2.0000      -6.575993      -178.9419
  22   2.0000      -6.573989      -178.8873
  23   2.0000      -6.573402      -178.8714
  24   2.0000      -1.451199       -39.4891
  25   2.0000      -1.418401       -38.5967
  26   2.0000      -1.353805       -36.8389
  27   2.0000      -1.340620       -36.4801
  28   2.0000      -1.239274       -33.7224
  29   2.0000      -1.159691       -31.5568
  30   2.0000      -1.121015       -30.5044
  31   2.0000      -1.044195       -28.4140
  32   2.0000      -1.037801       -28.2400
  33   2.0000      -1.017564       -27.6893
  34   2.0000      -0.996439       -27.1145
  35   2.0000      -0.984963       -26.8022
  36   2.0000      -0.923681       -25.1346
  37   2.0000      -0.884979       -24.0815
  38   2.0000      -0.847621       -23.0649
  39   2.0000      -0.839139       -22.8341
  40   2.0000      -0.835854       -22.7447
  41   2.0000      -0.820073       -22.3153
  42   2.0000      -0.763780       -20.7835
  43   2.0000      -0.734133       -19.9768
  44   2.0000      -0.722772       -19.6676
  45   2.0000      -0.697779       -18.9875
  46   2.0000      -0.687424       -18.7057
  47   2.0000      -0.678343       -18.4586
  48   2.0000      -0.676241       -18.4015
  49   2.0000      -0.660987       -17.9864
  50   2.0000      -0.646855       -17.6018
  51   2.0000      -0.645223       -17.5574
  52   2.0000      -0.636985       -17.3333
  53   2.0000      -0.609632       -16.5889
  54   2.0000      -0.604020       -16.4362
  55   2.0000      -0.601711       -16.3734
  56   2.0000      -0.598836       -16.2952
  57   2.0000      -0.579331       -15.7644
  58   2.0000      -0.571517       -15.5518
  59   2.0000      -0.565936       -15.3999
  60   2.0000      -0.557846       -15.1798
  61   2.0000      -0.543640       -14.7932
  62   2.0000      -0.539480       -14.6800
  63   2.0000      -0.527115       -14.3435
  64   2.0000      -0.518574       -14.1111
  65   2.0000      -0.513696       -13.9784
  66   2.0000      -0.506342       -13.7783
  67   2.0000      -0.500327       -13.6146
  68   2.0000      -0.486590       -13.2408
  69   2.0000      -0.465917       -12.6782
  70   2.0000      -0.457532       -12.4501
  71   2.0000      -0.445581       -12.1249
  72   2.0000      -0.354721        -9.6524
  73   2.0000      -0.351661        -9.5692
  74   2.0000      -0.328944        -8.9510
  75   2.0000      -0.323488        -8.8025
  76   2.0000      -0.316815        -8.6210
  77   0.0000       0.074078         2.0158
  78   0.0000       0.103466         2.8154
  79   0.0000       0.124118         3.3774
  80   0.0000       0.131164         3.5692
  81   0.0000       0.136295         3.7088

MULLIKEN ATOMIC CHARGES
-----------------------
   0 C :   -0.270316
   1 C :    0.029716
   2 O :   -0.360106
   3 C :    0.459727
   4 O :   -0.421893
   5 C :   -0.245895
   6 C :    0.159078
   7 C :   -0.270425
   8 N :   -0.123353
   9 C :    0.214833
  10 S :   -0.440277
  11 N :   -0.208043
  12 C :    0.069174
  13 C :    0.063242
  14 C :   -0.207501
  15 C :   -0.122976
  16 C :   -0.281124
  17 C :    0.315686
  18 O :   -0.355915
  19 C :   -0.265807
  20 H :    0.091897
  21 H :    0.098310
  22 H :    0.093066
  23 H :    0.122250
  24 H :    0.096388
  25 H :    0.132618
  26 H :    0.130245
  27 H :    0.095348
  28 H :    0.197503
  29 H :    0.195209
  30 H :    0.148970
  31 H :    0.156358
  32 H :    0.164488
  33 H :    0.131707
  34 H :    0.241174
  35 H :    0.166643
Sum of atomic charges:    0.0000000

LOEWDIN ATOMIC CHARGES
----------------------
   0 C :    0.108274
   1 C :   -0.017779
   2 O :    0.302596
   3 C :   -0.415333
   4 O :    0.103312
   5 C :   -0.096471
   6 C :   -0.059079
   7 C :    0.131629
   8 N :    0.406839
   9 C :   -0.455453
  10 S :   -0.035316
  11 N :    0.396081
  12 C :   -0.052261
  13 C :   -0.037253
  14 C :    0.014052
  15 C :    0.040402
  16 C :   -0.002239
  17 C :   -0.189705
  18 O :    0.395881
  19 C :    0.031018
  20 H :   -0.031545
  21 H :   -0.027001
  22 H :   -0.024823
  23 H :   -0.027731
  24 H :   -0.029840
  25 H :   -0.004514
  26 H :   -0.003932
  27 H :   -0.023248
  28 H :   -0.057435
  29 H :   -0.064916
  30 H :   -0.010070
  31 H :   -0.030583
  32 H :   -0.020961
  33 H :   -0.035169
  34 H :   -0.153462
  35 H :   -0.023963

  Mayer bond orders larger than 0.100000
B(  0-C ,  1-C ) :   0.9733 B(  0-C , 20-H ) :   0.9762 B(  0-C , 21-H ) :   0.9773
B(  0-C , 22-H ) :   0.9782 B(  1-C ,  2-O ) :   0.8848 B(  1-C , 23-H ) :   0.9818
B(  1-C , 24-H ) :   0.9694 B(  2-O ,  3-C ) :   1.1502 B(  3-C ,  4-O ) :   1.9955
B(  3-C ,  5-C ) :   1.0560 B(  5-C ,  6-C ) :   1.6515 B(  5-C , 12-C ) :   0.9735
B(  6-C ,  7-C ) :   0.9665 B(  6-C ,  8-N ) :   1.1622 B(  7-C , 25-H ) :   0.9591
B(  7-C , 26-H ) :   0.9613 B(  7-C , 27-H ) :   0.9905 B(  8-N ,  9-C ) :   1.1836
B(  8-N , 28-H ) :   0.9478 B(  9-C , 10-S ) :   1.6051 B(  9-C , 11-N ) :   1.3072
B( 11-N , 12-C ) :   0.9778 B( 11-N , 29-H ) :   0.9517 B( 12-C , 13-C ) :   0.9379
B( 12-C , 30-H ) :   1.0019 B( 13-C , 14-C ) :   1.3527 B( 13-C , 19-C ) :   1.3789
B( 14-C , 15-C ) :   1.3841 B( 14-C , 31-H ) :   0.9704 B( 15-C , 16-C ) :   1.3662
B( 15-C , 32-H ) :   0.9690 B( 16-C , 17-C ) :   1.3296 B( 16-C , 33-H ) :   0.9844
B( 17-C , 18-O ) :   1.1119 B( 17-C , 19-C ) :   1.3714 B( 18-O , 34-H ) :   0.9794
B( 19-C , 35-H ) :   0.9584

MP2 TOTAL ENERGY:    -1274.345258150 Eh
FINAL SINGLE POINT ENERGY     -1274.345258150034

DIPOLE MOMENT
-------------
                                X             Y             Z
Electronic contribution:      8.70272      11.29227       6.85231
Nuclear contribution   :     -9.78323     -12.86014      -7.07283
                        -----------------------------------------
Total Dipole Moment    :     -1.08051      -1.56786      -0.22052
                        -----------------------------------------
Magnitude (a.u.)       :      1.91685
Magnitude (Debye)      :      4.87225

Rotational constants in cm-1:     0.012456     0.008424     0.006331
Rotational constants in MHz :   373.426836   252.533488   189.798659

                             ****ORCA TERMINATED NORMALLY****
TOTAL RUN TIME: 0 days 2 hours 4 minutes 26 seconds 37 msec
