                         Program Version 5.0.0 -  RELEASE  -
|  1> ! ri-mp2 cc-pvtz cc-pvtz/c TightSCF NoKeepInts
|  2>
|  3> %scf
|  4>   MaxCore 4096
|  5> end
|  6> *xyz  0  1
|  7>     C       14.2241088   15.2030328   16.2892688
|  8>     C       15.4245892   15.5283595   17.1926816
|  9>     O       16.6118365   15.1266554   16.4796802
| 10>     C       17.8138641   15.7910015   16.4778992
| 11>     O       18.8128098   15.2002955   16.1122198
| 12>     C       17.9319132   16.9331754   17.4297321
| 13>     C       17.3841341   18.1427123   17.1751320
| 14>     C       16.5901765   18.5373058   15.9482810
| 15>     N       17.5775127   19.1957320   18.0712417
| 16>     C       18.3743965   19.1325805   19.1854680
| 17>     S       18.5869742   20.4403528   20.1745736
| 18>     N       18.9818641   17.9274188   19.4446320
| 19>     C       18.7790911   16.6835038   18.6742362
| 20>     C       18.1500806   15.5880652   19.5288266
| 21>     C       18.6144954   14.2639146   19.4297070
| 22>     C       18.0214700   13.2386990   20.1849996
| 23>     C       16.9510181   13.5381535   21.0446141
| 24>     C       16.4798227   14.8542688   21.1400272
| 25>     O       15.4351674   15.1443053   21.9553747
| 26>     C       17.0713287   15.8732248   20.3866263
| 27>     H       13.2831122   15.4619356   16.7897594
| 28>     H       14.2018905   14.1321632   16.0503052
| 29>     H       14.2813323   15.7651778   15.3489953
| 30>     H       15.3981082   16.5969203   17.4225231
| 31>     H       15.3526271   14.9736046   18.1377703
| 32>     H       16.5122999   17.7220893   15.2184822
| 33>     H       17.0670150   19.3808060   15.4326932
| 34>     H       15.5701835   18.8382023   16.2176150
| 35>     H       17.1544618   20.0928834   17.8909688
| 36>     H       19.5471870   17.9063025   20.2841373
| 37>     H       19.7663306   16.3320250   18.3391348
| 38>     H       19.4286474   14.0256080   18.7482344
| 39>     H       18.3874482   12.2172147   20.0949518
| 40>     H       16.4879452   12.7478456   21.6262954
| 41>     H       15.2053890   14.3326434   22.4330521
| 42>     H       16.6863682   16.8838213   20.4738598
| 43> *
| 44>
| 45>                          ****END OF INPUT****

CARTESIAN COORDINATES (ANGSTROEM)
---------------------------------
  C     14.224109   15.203033   16.289269
  C     15.424589   15.528360   17.192682
  O     16.611836   15.126655   16.479680
  C     17.813864   15.791002   16.477899
  O     18.812810   15.200295   16.112220
  C     17.931913   16.933175   17.429732
  C     17.384134   18.142712   17.175132
  C     16.590176   18.537306   15.948281
  N     17.577513   19.195732   18.071242
  C     18.374396   19.132580   19.185468
  S     18.586974   20.440353   20.174574
  N     18.981864   17.927419   19.444632
  C     18.779091   16.683504   18.674236
  C     18.150081   15.588065   19.528827
  C     18.614495   14.263915   19.429707
  C     18.021470   13.238699   20.185000
  C     16.951018   13.538153   21.044614
  C     16.479823   14.854269   21.140027
  O     15.435167   15.144305   21.955375
  C     17.071329   15.873225   20.386626
  H     13.283112   15.461936   16.789759
  H     14.201890   14.132163   16.050305
  H     14.281332   15.765178   15.348995
  H     15.398108   16.596920   17.422523
  H     15.352627   14.973605   18.137770
  H     16.512300   17.722089   15.218482
  H     17.067015   19.380806   15.432693
  H     15.570184   18.838202   16.217615
  H     17.154462   20.092883   17.890969
  H     19.547187   17.906302   20.284137
  H     19.766331   16.332025   18.339135
  H     19.428647   14.025608   18.748234
  H     18.387448   12.217215   20.094952
  H     16.487945   12.747846   21.626295
  H     15.205389   14.332643   22.433052
  H     16.686368   16.883821   20.473860

 Total Charge           Charge          ....    0
 Multiplicity           Mult            ....    1
 Number of Electrons    NEL             ....  154
 Basis Dimension        Dim             ....  828

ORBITAL ENERGIES
----------------

  NO   OCC          E(Eh)            E(eV)
   0   2.0000     -91.889732     -2500.4467
   1   2.0000     -20.601512      -560.5957
   2   2.0000     -20.600426      -560.5661
   3   2.0000     -20.550821      -559.2163
   4   2.0000     -15.626191      -425.2103
   5   2.0000     -15.611904      -424.8215
   6   2.0000     -11.398042      -310.1565
   7   2.0000     -11.386802      -309.8506
   8   2.0000     -11.327063      -308.2250
   9   2.0000     -11.317092      -307.9537
  10   2.0000     -11.315956      -307.9228
  11   2.0000     -11.302530      -307.5575
  12   2.0000     -11.270716      -306.6918
  13   2.0000     -11.264738      -306.5291
  14   2.0000     -11.263966      -306.5081
  15   2.0000     -11.257313      -306.3271
  16   2.0000     -11.246675      -306.0376
  17   2.0000     -11.242527      -305.9247
  18   2.0000     -11.239986      -305.8556
  19   2.0000     -11.234018      -305.6932
  20   2.0000      -8.894854      -242.0413
  21   2.0000      -6.576444      -178.9541
  22   2.0000      -6.574416      -178.8989
  23   2.0000      -6.573843      -178.8834
  24   2.0000      -1.448564       -39.4174
  25   2.0000      -1.420257       -38.6472
  26   2.0000      -1.359470       -36.9931
  27   2.0000      -1.339743       -36.4563
  28   2.0000      -1.239834       -33.7376
  29   2.0000      -1.161972       -31.6189
  30   2.0000      -1.126236       -30.6464
  31   2.0000      -1.049776       -28.5659
  32   2.0000      -1.041150       -28.3311
  33   2.0000      -1.019385       -27.7389
  34   2.0000      -1.005598       -27.3637
  35   2.0000      -0.989647       -26.9297
  36   2.0000      -0.928332       -25.2612
  37   2.0000      -0.883910       -24.0524
  38   2.0000      -0.854939       -23.2641
  39   2.0000      -0.842020       -22.9125
  40   2.0000      -0.837614       -22.7926
  41   2.0000      -0.836919       -22.7737
  42   2.0000      -0.757499       -20.6126
  43   2.0000      -0.739131       -20.1128
  44   2.0000      -0.732569       -19.9342
  45   2.0000      -0.697859       -18.9897
  46   2.0000      -0.688689       -18.7402
  47   2.0000      -0.680328       -18.5127
  48   2.0000      -0.677267       -18.4294
  49   2.0000      -0.667345       -18.1594
  50   2.0000      -0.652928       -17.7671
  51   2.0000      -0.647947       -17.6315
  52   2.0000      -0.639870       -17.4117
  53   2.0000      -0.612690       -16.6721
  54   2.0000      -0.608526       -16.5588
  55   2.0000      -0.604348       -16.4451
  56   2.0000      -0.599161       -16.3040
  57   2.0000      -0.588775       -16.0214
  58   2.0000      -0.578718       -15.7477
  59   2.0000      -0.569825       -15.5057
  60   2.0000      -0.562775       -15.3139
  61   2.0000      -0.562185       -15.2978
  62   2.0000      -0.546317       -14.8660
  63   2.0000      -0.530129       -14.4255
  64   2.0000      -0.523467       -14.2443
  65   2.0000      -0.515607       -14.0304
  66   2.0000      -0.504703       -13.7337
  67   2.0000      -0.502749       -13.6805
  68   2.0000      -0.488679       -13.2976
  69   2.0000      -0.470495       -12.8028
  70   2.0000      -0.453177       -12.3316
  71   2.0000      -0.449233       -12.2242
  72   2.0000      -0.356863        -9.7107
  73   2.0000      -0.352262        -9.5855
  74   2.0000      -0.329493        -8.9660
  75   2.0000      -0.325040        -8.8448
  76   2.0000      -0.318068        -8.6551
  77   0.0000       0.087997         2.3945
  78   0.0000       0.104783         2.8513
  79   0.0000       0.110927         3.0185
  80   0.0000       0.127331         3.4649
  81   0.0000       0.129634         3.5275

MULLIKEN ATOMIC CHARGES
-----------------------
   0 C :   -0.255220
   1 C :    0.007934
   2 O :   -0.310424
   3 C :    0.387103
   4 O :   -0.380047
   5 C :   -0.173275
   6 C :    0.124463
   7 C :   -0.321230
   8 N :   -0.135020
   9 C :    0.206370
  10 S :   -0.441844
  11 N :   -0.215333
  12 C :    0.064154
  13 C :    0.026524
  14 C :   -0.189697
  15 C :   -0.131440
  16 C :   -0.274474
  17 C :    0.315521
  18 O :   -0.359502
  19 C :   -0.277900
  20 H :    0.089772
  21 H :    0.108594
  22 H :    0.090114
  23 H :    0.093440
  24 H :    0.129123
  25 H :    0.121733
  26 H :    0.142567
  27 H :    0.119761
  28 H :    0.195571
  29 H :    0.198624
  30 H :    0.164858
  31 H :    0.166139
  32 H :    0.163679
  33 H :    0.133078
  34 H :    0.241870
  35 H :    0.174413
Sum of atomic charges:   -0.0000000

LOEWDIN ATOMIC CHARGES
----------------------
   0 C :    0.107454
   1 C :   -0.019714
   2 O :    0.311953
   3 C :   -0.418443
   4 O :    0.125826
   5 C :   -0.081150
   6 C :   -0.109784
   7 C :    0.124443
   8 N :    0.400562
   9 C :   -0.455122
  10 S :   -0.038480
  11 N :    0.397296
  12 C :   -0.043857
  13 C :   -0.043181
  14 C :    0.023593
  15 C :    0.046143
  16 C :   -0.000496
  17 C :   -0.195008
  18 O :    0.394603
  19 C :    0.028131
  20 H :   -0.025533
  21 H :   -0.023289
  22 H :   -0.030117
  23 H :   -0.039668
  24 H :   -0.025500
  25 H :   -0.009209
  26 H :   -0.008970
  27 H :   -0.016558
  28 H :   -0.058105
  29 H :   -0.063731
  30 H :   -0.002320
  31 H :   -0.021878
  32 H :   -0.018257
  33 H :   -0.034486
  34 H :   -0.152792
  35 H :   -0.024354

  Mayer bond orders larger than 0.100000
B(  0-C ,  1-C ) :   0.9798 B(  0-C , 20-H ) :   0.9766 B(  0-C , 21-H ) :   0.9793
B(  0-C , 22-H ) :   0.9775 B(  1-C ,  2-O ) :   0.9052 B(  1-C , 23-H ) :   0.9650
B(  1-C , 24-H ) :   0.9701 B(  2-O ,  3-C ) :   1.1787 B(  3-C ,  4-O ) :   2.0982
B(  3-C ,  5-C ) :   0.9220 B(  5-C ,  6-C ) :   1.6976 B(  5-C , 12-C ) :   0.9605
B(  6-C ,  7-C ) :   0.9453 B(  6-C ,  8-N ) :   1.1109 B(  7-C , 25-H ) :   0.9809
B(  7-C , 26-H ) :   0.9687 B(  7-C , 27-H ) :   0.9667 B(  8-N ,  9-C ) :   1.1968
B(  8-N , 28-H ) :   0.9525 B(  9-C , 10-S ) :   1.6103 B(  9-C , 11-N ) :   1.2865
B( 11-N , 12-C ) :   0.9982 B( 11-N , 29-H ) :   0.9484 B( 12-C , 13-C ) :   0.9474
B( 12-C , 30-H ) :   0.9974 B( 13-C , 14-C ) :   1.3853 B( 13-C , 19-C ) :   1.3457
B( 14-C , 15-C ) :   1.3964 B( 14-C , 31-H ) :   0.9621 B( 15-C , 16-C ) :   1.3640
B( 15-C , 32-H ) :   0.9700 B( 16-C , 17-C ) :   1.3278 B( 16-C , 33-H ) :   0.9842
B( 17-C , 18-O ) :   1.1083 B( 17-C , 19-C ) :   1.3683 B( 18-O , 34-H ) :   0.9789
B( 19-C , 35-H ) :   0.9592

MP2 TOTAL ENERGY:    -1274.329771811 Eh
FINAL SINGLE POINT ENERGY     -1274.329771811101

DIPOLE MOMENT
-------------
                                X             Y             Z
Electronic contribution:     11.92463       6.37368       7.65241
Nuclear contribution   :    -13.53134      -7.39343      -7.94765
                        -----------------------------------------
Total Dipole Moment    :     -1.60671      -1.01975      -0.29524
                        -----------------------------------------
Magnitude (a.u.)       :      1.92577
Magnitude (Debye)      :      4.89491

Rotational constants in cm-1:     0.011592     0.009153     0.006783
Rotational constants in MHz :   347.533962   274.388238   203.356324

                             ****ORCA TERMINATED NORMALLY****
TOTAL RUN TIME: 0 days 1 hours 51 minutes 57 seconds 908 msec
