                         Program Version 5.0.0 -  RELEASE  -
|  1> ! ri-mp2 cc-pvtz cc-pvtz/c TightSCF NoKeepInts
|  2>
|  3> %scf
|  4>   MaxCore 4096
|  5> end
|  6> *xyz  0  1
|  7>     C       15.0737424   13.9855613   15.9603939
|  8>     C       16.0654177   14.5571071   16.9879020
|  9>     O       17.1340664   15.1867525   16.2583131
| 10>     C       17.1216251   16.5462583   16.1486123
| 11>     O       16.4888609   17.0665607   15.2484583
| 12>     C       17.6075365   17.2821672   17.3711726
| 13>     C       17.3550544   18.6025506   17.5691149
| 14>     C       16.4867555   19.5122634   16.7264851
| 15>     N       17.9744507   19.2816422   18.6234407
| 16>     C       19.0214488   18.7852298   19.3543217
| 17>     S       19.8490832   19.7128040   20.4451281
| 18>     N       19.3604630   17.4770935   19.1175908
| 19>     C       18.5356922   16.5315149   18.3443575
| 20>     C       17.7995819   15.6225644   19.3228571
| 21>     C       18.2501021   14.3062183   19.5377208
| 22>     C       17.5826897   13.4600871   20.4391667
| 23>     C       16.4611443   13.9361646   21.1391899
| 24>     C       16.0198544   15.2513575   20.9410016
| 25>     O       14.9395569   15.7159093   21.6170766
| 26>     C       16.6843050   16.0906048   20.0414637
| 27>     H       14.6485392   14.7891646   15.3454188
| 28>     H       14.2499873   13.4672284   16.4656709
| 29>     H       15.5745942   13.2714131   15.2949974
| 30>     H       15.5542995   15.2650141   17.6539331
| 31>     H       16.4611247   13.7301331   17.5902982
| 32>     H       15.4869470   19.0798244   16.5932630
| 33>     H       16.9218973   19.6420244   15.7271146
| 34>     H       16.3571331   20.5085575   17.1651463
| 35>     H       17.7492079   20.2491228   18.7926956
| 36>     H       20.1238581   17.1314264   19.6847910
| 37>     H       19.2143055   15.9108795   17.7418404
| 38>     H       19.1183071   13.9348331   18.9991650
| 39>     H       17.9369488   12.4423526   20.5959751
| 40>     H       15.9435207   13.2866799   21.8378443
| 41>     H       14.6626842   15.0245954   22.2376468
| 42>     H       16.3322143   17.1083395   19.9144321
| 43> *
| 44>
| 45>                          ****END OF INPUT****

CARTESIAN COORDINATES (ANGSTROEM)
---------------------------------
  C     15.073742   13.985561   15.960394
  C     16.065418   14.557107   16.987902
  O     17.134066   15.186753   16.258313
  C     17.121625   16.546258   16.148612
  O     16.488861   17.066561   15.248458
  C     17.607536   17.282167   17.371173
  C     17.355054   18.602551   17.569115
  C     16.486756   19.512263   16.726485
  N     17.974451   19.281642   18.623441
  C     19.021449   18.785230   19.354322
  S     19.849083   19.712804   20.445128
  N     19.360463   17.477093   19.117591
  C     18.535692   16.531515   18.344357
  C     17.799582   15.622564   19.322857
  C     18.250102   14.306218   19.537721
  C     17.582690   13.460087   20.439167
  C     16.461144   13.936165   21.139190
  C     16.019854   15.251357   20.941002
  O     14.939557   15.715909   21.617077
  C     16.684305   16.090605   20.041464
  H     14.648539   14.789165   15.345419
  H     14.249987   13.467228   16.465671
  H     15.574594   13.271413   15.294997
  H     15.554299   15.265014   17.653933
  H     16.461125   13.730133   17.590298
  H     15.486947   19.079824   16.593263
  H     16.921897   19.642024   15.727115
  H     16.357133   20.508557   17.165146
  H     17.749208   20.249123   18.792696
  H     20.123858   17.131426   19.684791
  H     19.214305   15.910880   17.741840
  H     19.118307   13.934833   18.999165
  H     17.936949   12.442353   20.595975
  H     15.943521   13.286680   21.837844
  H     14.662684   15.024595   22.237647
  H     16.332214   17.108339   19.914432

 Total Charge           Charge          ....    0
 Multiplicity           Mult            ....    1
 Number of Electrons    NEL             ....  154
 Basis Dimension        Dim             ....  828

ORBITAL ENERGIES
----------------

  NO   OCC          E(Eh)            E(eV)
   0   2.0000     -91.891880     -2500.5052
   1   2.0000     -20.603253      -560.6430
   2   2.0000     -20.580305      -560.0186
   3   2.0000     -20.548671      -559.1578
   4   2.0000     -15.632557      -425.3835
   5   2.0000     -15.610751      -424.7901
   6   2.0000     -11.393115      -310.0224
   7   2.0000     -11.386374      -309.8390
   8   2.0000     -11.339090      -308.5523
   9   2.0000     -11.321030      -308.0609
  10   2.0000     -11.313833      -307.8650
  11   2.0000     -11.294554      -307.3404
  12   2.0000     -11.265666      -306.5544
  13   2.0000     -11.262347      -306.4640
  14   2.0000     -11.260603      -306.4166
  15   2.0000     -11.254556      -306.2520
  16   2.0000     -11.250138      -306.1318
  17   2.0000     -11.244700      -305.9839
  18   2.0000     -11.244340      -305.9740
  19   2.0000     -11.218043      -305.2585
  20   2.0000      -8.896891      -242.0967
  21   2.0000      -6.578453      -179.0088
  22   2.0000      -6.576463      -178.9546
  23   2.0000      -6.575864      -178.9383
  24   2.0000      -1.447330       -39.3839
  25   2.0000      -1.422928       -38.7198
  26   2.0000      -1.353217       -36.8229
  27   2.0000      -1.343727       -36.5647
  28   2.0000      -1.242056       -33.7981
  29   2.0000      -1.163736       -31.6669
  30   2.0000      -1.122368       -30.5412
  31   2.0000      -1.047648       -28.5080
  32   2.0000      -1.030002       -28.0278
  33   2.0000      -1.022277       -27.8176
  34   2.0000      -0.999309       -27.1926
  35   2.0000      -0.986945       -26.8561
  36   2.0000      -0.926940       -25.2233
  37   2.0000      -0.878948       -23.9174
  38   2.0000      -0.851255       -23.1638
  39   2.0000      -0.845447       -23.0058
  40   2.0000      -0.840293       -22.8655
  41   2.0000      -0.831609       -22.6292
  42   2.0000      -0.757445       -20.6111
  43   2.0000      -0.736797       -20.0493
  44   2.0000      -0.720592       -19.6083
  45   2.0000      -0.702626       -19.1194
  46   2.0000      -0.693361       -18.8673
  47   2.0000      -0.679081       -18.4787
  48   2.0000      -0.669876       -18.2283
  49   2.0000      -0.663510       -18.0550
  50   2.0000      -0.650725       -17.7071
  51   2.0000      -0.648858       -17.6563
  52   2.0000      -0.640219       -17.4213
  53   2.0000      -0.614136       -16.7115
  54   2.0000      -0.607070       -16.5192
  55   2.0000      -0.602757       -16.4019
  56   2.0000      -0.585460       -15.9312
  57   2.0000      -0.582403       -15.8480
  58   2.0000      -0.579651       -15.7731
  59   2.0000      -0.573434       -15.6039
  60   2.0000      -0.565300       -15.3826
  61   2.0000      -0.541720       -14.7410
  62   2.0000      -0.537859       -14.6359
  63   2.0000      -0.531149       -14.4533
  64   2.0000      -0.518523       -14.1097
  65   2.0000      -0.511422       -13.9165
  66   2.0000      -0.506644       -13.7865
  67   2.0000      -0.498635       -13.5686
  68   2.0000      -0.485642       -13.2150
  69   2.0000      -0.465887       -12.6774
  70   2.0000      -0.452303       -12.3078
  71   2.0000      -0.442820       -12.0497
  72   2.0000      -0.359598        -9.7852
  73   2.0000      -0.355601        -9.6764
  74   2.0000      -0.332088        -9.0366
  75   2.0000      -0.327905        -8.9227
  76   2.0000      -0.318900        -8.6777
  77   0.0000       0.068423         1.8619
  78   0.0000       0.098792         2.6883
  79   0.0000       0.120528         3.2797
  80   0.0000       0.126901         3.4532
  81   0.0000       0.130515         3.5515

MULLIKEN ATOMIC CHARGES
-----------------------
   0 C :   -0.258604
   1 C :    0.020657
   2 O :   -0.380444
   3 C :    0.494914
   4 O :   -0.398606
   5 C :   -0.281361
   6 C :    0.154715
   7 C :   -0.270187
   8 N :   -0.124289
   9 C :    0.213512
  10 S :   -0.435018
  11 N :   -0.199954
  12 C :    0.045650
  13 C :    0.066897
  14 C :   -0.207022
  15 C :   -0.126799
  16 C :   -0.274036
  17 C :    0.316426
  18 O :   -0.356049
  19 C :   -0.265556
  20 H :    0.106390
  21 H :    0.084933
  22 H :    0.095119
  23 H :    0.097690
  24 H :    0.114512
  25 H :    0.127288
  26 H :    0.137231
  27 H :    0.094574
  28 H :    0.198885
  29 H :    0.192426
  30 H :    0.150735
  31 H :    0.151130
  32 H :    0.165835
  33 H :    0.133853
  34 H :    0.242421
  35 H :    0.172134
Sum of atomic charges:    0.0000000

LOEWDIN ATOMIC CHARGES
----------------------
   0 C :    0.106126
   1 C :   -0.022884
   2 O :    0.287189
   3 C :   -0.423620
   4 O :    0.123375
   5 C :   -0.100524
   6 C :   -0.058310
   7 C :    0.130787
   8 N :    0.407416
   9 C :   -0.456111
  10 S :   -0.031146
  11 N :    0.396140
  12 C :   -0.052775
  13 C :   -0.036859
  14 C :    0.013390
  15 C :    0.042059
  16 C :   -0.000265
  17 C :   -0.190451
  18 O :    0.396485
  19 C :    0.031983
  20 H :   -0.024889
  21 H :   -0.030405
  22 H :   -0.026656
  23 H :   -0.032578
  24 H :   -0.026309
  25 H :   -0.005794
  26 H :   -0.002524
  27 H :   -0.023063
  28 H :   -0.057190
  29 H :   -0.065615
  30 H :   -0.006164
  31 H :   -0.029499
  32 H :   -0.019519
  33 H :   -0.033933
  34 H :   -0.152107
  35 H :   -0.025762

  Mayer bond orders larger than 0.100000
B(  0-C ,  1-C ) :   0.9820 B(  0-C , 20-H ) :   0.9752 B(  0-C , 21-H ) :   0.9777
B(  0-C , 22-H ) :   0.9803 B(  1-C ,  2-O ) :   0.8683 B(  1-C , 23-H ) :   0.9675
B(  1-C , 24-H ) :   0.9753 B(  2-O ,  3-C ) :   1.1052 B(  3-C ,  4-O ) :   2.0274
B(  3-C ,  5-C ) :   1.0527 B(  5-C ,  6-C ) :   1.6503 B(  5-C , 12-C ) :   0.9694
B(  6-C ,  7-C ) :   0.9722 B(  6-C ,  8-N ) :   1.1570 B(  7-C , 25-H ) :   0.9639
B(  7-C , 26-H ) :   0.9559 B(  7-C , 27-H ) :   0.9884 B(  8-N ,  9-C ) :   1.1779
B(  8-N , 28-H ) :   0.9481 B(  9-C , 10-S ) :   1.6139 B(  9-C , 11-N ) :   1.3025
B( 11-N , 12-C ) :   0.9667 B( 11-N , 29-H ) :   0.9538 B( 12-C , 13-C ) :   0.9538
B( 12-C , 30-H ) :   1.0008 B( 13-C , 14-C ) :   1.3484 B( 13-C , 19-C ) :   1.3596
B( 14-C , 15-C ) :   1.3854 B( 14-C , 31-H ) :   0.9764 B( 15-C , 16-C ) :   1.3672
B( 15-C , 32-H ) :   0.9686 B( 16-C , 17-C ) :   1.3276 B( 16-C , 33-H ) :   0.9834
B( 17-C , 18-O ) :   1.1152 B( 17-C , 19-C ) :   1.3716 B( 18-O , 34-H ) :   0.9786
B( 19-C , 35-H ) :   0.9566

MP2 TOTAL ENERGY:    -1274.328186036 Eh
FINAL SINGLE POINT ENERGY     -1274.328186036016

DIPOLE MOMENT
-------------
                                X             Y             Z
Electronic contribution:     10.46238       9.45123       6.69681
Nuclear contribution   :    -11.49139     -10.92420      -6.28360
                        -----------------------------------------
Total Dipole Moment    :     -1.02901      -1.47297       0.41321
                        -----------------------------------------
Magnitude (a.u.)       :      1.84371
Magnitude (Debye)      :      4.68633

Rotational constants in cm-1:     0.011767     0.009269     0.006402
Rotational constants in MHz :   352.766311   277.889742   191.912488

                             ****ORCA TERMINATED NORMALLY****
TOTAL RUN TIME: 0 days 1 hours 40 minutes 25 seconds 303 msec
