                         Program Version 5.0.0 -  RELEASE  -
|  1> ! ri-mp2 cc-pvtz cc-pvtz/c TightSCF NoKeepInts
|  2>
|  3> %scf
|  4>   MaxCore 4096
|  5> end
|  6> *xyz  0  1
|  7>     C       14.7635008   16.1313435   17.1684754
|  8>     C       15.6744403   14.9101735   16.9366622
|  9>     O       16.7673207   15.1604207   16.0211995
| 10>     C       17.9618425   15.7387741   16.3749171
| 11>     O       18.9846665   15.0908424   16.2492226
| 12>     C       17.9034593   16.8678184   17.3479348
| 13>     C       17.3441473   18.0573533   17.0272371
| 14>     C       16.7106350   18.4426874   15.7073972
| 15>     N       17.4053228   19.1211030   17.9298218
| 16>     C       18.1034971   19.1032881   19.1092477
| 17>     S       18.1752863   20.4279317   20.0962660
| 18>     N       18.7410166   17.9301739   19.4316720
| 19>     C       18.6484303   16.6692440   18.6685369
| 20>     C       17.9992823   15.5643569   19.4953685
| 21>     C       18.5178116   14.2571459   19.4541360
| 22>     C       17.9109422   13.2223506   20.1849818
| 23>     C       16.7729759   13.4950625   20.9629151
| 24>     C       16.2499765   14.7944192   21.0033413
| 25>     O       15.1425992   15.0583756   21.7409639
| 26>     C       16.8553295   15.8225608   20.2739310
| 27>     H       15.1966822   16.8344108   17.8865202
| 28>     H       13.8064595   15.8007766   17.5905287
| 29>     H       14.5484463   16.6477165   16.2259066
| 30>     H       16.0485570   14.5213142   17.8919103
| 31>     H       15.0543688   14.1186843   16.4962523
| 32>     H       16.5904006   17.5887408   15.0305382
| 33>     H       17.3309976   19.1813381   15.1841237
| 34>     H       15.7169690   18.8821302   15.8578297
| 35>     H       16.9639344   19.9978733   17.7006723
| 36>     H       19.2343176   17.9419461   20.3155057
| 37>     H       19.6736141   16.3520126   18.4261510
| 38>     H       19.3878495   14.0395692   18.8376127
| 39>     H       18.3209362   12.2145325   20.1415024
| 40>     H       16.3001553   12.6977097   21.5270186
| 41>     H       14.9121579   14.2485180   22.2212338
| 42>     H       16.4286713   16.8193018   20.3164663
| 43> *
| 44>
| 45>                          ****END OF INPUT****

CARTESIAN COORDINATES (ANGSTROEM)
---------------------------------
  C     14.763501   16.131343   17.168475
  C     15.674440   14.910173   16.936662
  O     16.767321   15.160421   16.021200
  C     17.961842   15.738774   16.374917
  O     18.984666   15.090842   16.249223
  C     17.903459   16.867818   17.347935
  C     17.344147   18.057353   17.027237
  C     16.710635   18.442687   15.707397
  N     17.405323   19.121103   17.929822
  C     18.103497   19.103288   19.109248
  S     18.175286   20.427932   20.096266
  N     18.741017   17.930174   19.431672
  C     18.648430   16.669244   18.668537
  C     17.999282   15.564357   19.495369
  C     18.517812   14.257146   19.454136
  C     17.910942   13.222351   20.184982
  C     16.772976   13.495062   20.962915
  C     16.249976   14.794419   21.003341
  O     15.142599   15.058376   21.740964
  C     16.855329   15.822561   20.273931
  H     15.196682   16.834411   17.886520
  H     13.806460   15.800777   17.590529
  H     14.548446   16.647717   16.225907
  H     16.048557   14.521314   17.891910
  H     15.054369   14.118684   16.496252
  H     16.590401   17.588741   15.030538
  H     17.330998   19.181338   15.184124
  H     15.716969   18.882130   15.857830
  H     16.963934   19.997873   17.700672
  H     19.234318   17.941946   20.315506
  H     19.673614   16.352013   18.426151
  H     19.387850   14.039569   18.837613
  H     18.320936   12.214533   20.141502
  H     16.300155   12.697710   21.527019
  H     14.912158   14.248518   22.221234
  H     16.428671   16.819302   20.316466

 Total Charge           Charge          ....    0
 Multiplicity           Mult            ....    1
 Number of Electrons    NEL             ....  154
 Basis Dimension        Dim             ....  828

ORBITAL ENERGIES
----------------

  NO   OCC          E(Eh)            E(eV)
   0   2.0000     -91.890774     -2500.4751
   1   2.0000     -20.601869      -560.6054
   2   2.0000     -20.586588      -560.1895
   3   2.0000     -20.553767      -559.2964
   4   2.0000     -15.627937      -425.2578
   5   2.0000     -15.612115      -424.8273
   6   2.0000     -11.396259      -310.1080
   7   2.0000     -11.387383      -309.8665
   8   2.0000     -11.330017      -308.3054
   9   2.0000     -11.319279      -308.0133
  10   2.0000     -11.315035      -307.8978
  11   2.0000     -11.302538      -307.5577
  12   2.0000     -11.265340      -306.5455
  13   2.0000     -11.265041      -306.5374
  14   2.0000     -11.262358      -306.4643
  15   2.0000     -11.259485      -306.3862
  16   2.0000     -11.248797      -306.0953
  17   2.0000     -11.244126      -305.9682
  18   2.0000     -11.241345      -305.8926
  19   2.0000     -11.232151      -305.6424
  20   2.0000      -8.895869      -242.0689
  21   2.0000      -6.577453      -178.9816
  22   2.0000      -6.575433      -178.9266
  23   2.0000      -6.574853      -178.9108
  24   2.0000      -1.444279       -39.3008
  25   2.0000      -1.421689       -38.6861
  26   2.0000      -1.354450       -36.8564
  27   2.0000      -1.341042       -36.4916
  28   2.0000      -1.240692       -33.7610
  29   2.0000      -1.163387       -31.6574
  30   2.0000      -1.125747       -30.6331
  31   2.0000      -1.049884       -28.5688
  32   2.0000      -1.036007       -28.1912
  33   2.0000      -1.020883       -27.7796
  34   2.0000      -1.004965       -27.3465
  35   2.0000      -0.990525       -26.9536
  36   2.0000      -0.928587       -25.2681
  37   2.0000      -0.891313       -24.2539
  38   2.0000      -0.852637       -23.2014
  39   2.0000      -0.842703       -22.9311
  40   2.0000      -0.839154       -22.8345
  41   2.0000      -0.831599       -22.6290
  42   2.0000      -0.752802       -20.4848
  43   2.0000      -0.735675       -20.0187
  44   2.0000      -0.730794       -19.8859
  45   2.0000      -0.699771       -19.0417
  46   2.0000      -0.689502       -18.7623
  47   2.0000      -0.678687       -18.4680
  48   2.0000      -0.675282       -18.3754
  49   2.0000      -0.662703       -18.0331
  50   2.0000      -0.655083       -17.8257
  51   2.0000      -0.642680       -17.4882
  52   2.0000      -0.640032       -17.4162
  53   2.0000      -0.613863       -16.7041
  54   2.0000      -0.608691       -16.5633
  55   2.0000      -0.606461       -16.5026
  56   2.0000      -0.603222       -16.4145
  57   2.0000      -0.589509       -16.0414
  58   2.0000      -0.581684       -15.8284
  59   2.0000      -0.578221       -15.7342
  60   2.0000      -0.566603       -15.4180
  61   2.0000      -0.556157       -15.1338
  62   2.0000      -0.539967       -14.6933
  63   2.0000      -0.530366       -14.4320
  64   2.0000      -0.522830       -14.2269
  65   2.0000      -0.514294       -13.9946
  66   2.0000      -0.503861       -13.7108
  67   2.0000      -0.492417       -13.3994
  68   2.0000      -0.490109       -13.3366
  69   2.0000      -0.464426       -12.6377
  70   2.0000      -0.456708       -12.4277
  71   2.0000      -0.448499       -12.2043
  72   2.0000      -0.356460        -9.6998
  73   2.0000      -0.354171        -9.6375
  74   2.0000      -0.330432        -8.9915
  75   2.0000      -0.327339        -8.9073
  76   2.0000      -0.319395        -8.6912
  77   0.0000       0.082828         2.2539
  78   0.0000       0.100968         2.7475
  79   0.0000       0.117778         3.2049
  80   0.0000       0.125607         3.4179
  81   0.0000       0.128839         3.5059

MULLIKEN ATOMIC CHARGES
-----------------------
   0 C :   -0.332057
   1 C :    0.034596
   2 O :   -0.352555
   3 C :    0.406166
   4 O :   -0.371685
   5 C :   -0.173164
   6 C :    0.116720
   7 C :   -0.330828
   8 N :   -0.130053
   9 C :    0.201452
  10 S :   -0.439244
  11 N :   -0.216029
  12 C :    0.078225
  13 C :    0.006529
  14 C :   -0.193889
  15 C :   -0.133163
  16 C :   -0.276444
  17 C :    0.314888
  18 O :   -0.357000
  19 C :   -0.270936
  20 H :    0.105486
  21 H :    0.124370
  22 H :    0.107344
  23 H :    0.105915
  24 H :    0.126277
  25 H :    0.128230
  26 H :    0.149395
  27 H :    0.116431
  28 H :    0.197455
  29 H :    0.198757
  30 H :    0.165321
  31 H :    0.171022
  32 H :    0.164881
  33 H :    0.133834
  34 H :    0.241948
  35 H :    0.181806
Sum of atomic charges:    0.0000000

LOEWDIN ATOMIC CHARGES
----------------------
   0 C :    0.103197
   1 C :   -0.012263
   2 O :    0.280860
   3 C :   -0.416244
   4 O :    0.133397
   5 C :   -0.085244
   6 C :   -0.094180
   7 C :    0.125427
   8 N :    0.403531
   9 C :   -0.456497
  10 S :   -0.036375
  11 N :    0.397551
  12 C :   -0.044482
  13 C :   -0.045493
  14 C :    0.020006
  15 C :    0.044314
  16 C :   -0.000750
  17 C :   -0.194499
  18 O :    0.395977
  19 C :    0.028039
  20 H :   -0.035991
  21 H :   -0.021231
  22 H :   -0.029306
  23 H :   -0.029109
  24 H :   -0.019598
  25 H :   -0.010585
  26 H :   -0.009292
  27 H :   -0.016901
  28 H :   -0.056855
  29 H :   -0.063786
  30 H :   -0.002876
  31 H :   -0.021589
  32 H :   -0.018033
  33 H :   -0.034074
  34 H :   -0.152615
  35 H :   -0.024432

  Mayer bond orders larger than 0.100000
B(  0-C ,  1-C ) :   0.9571 B(  0-C , 20-H ) :   0.9728 B(  0-C , 21-H ) :   0.9784
B(  0-C , 22-H ) :   0.9747 B(  1-C ,  2-O ) :   0.8966 B(  1-C , 23-H ) :   0.9704
B(  1-C , 24-H ) :   0.9852 B(  2-O ,  3-C ) :   1.1460 B(  3-C ,  4-O ) :   2.1005
B(  3-C ,  5-C ) :   0.9260 B(  5-C ,  6-C ) :   1.6911 B(  5-C , 12-C ) :   0.9504
B(  6-C ,  7-C ) :   0.9517 B(  6-C ,  8-N ) :   1.1119 B(  7-C , 25-H ) :   0.9771
B(  7-C , 26-H ) :   0.9658 B(  7-C , 27-H ) :   0.9680 B(  8-N ,  9-C ) :   1.1931
B(  8-N , 28-H ) :   0.9512 B(  9-C , 10-S ) :   1.6140 B(  9-C , 11-N ) :   1.2863
B( 11-N , 12-C ) :   0.9954 B( 11-N , 29-H ) :   0.9491 B( 12-C , 13-C ) :   0.9411
B( 12-C , 30-H ) :   0.9981 B( 13-C , 14-C ) :   1.3913 B( 13-C , 19-C ) :   1.3436
B( 14-C , 15-C ) :   1.3968 B( 14-C , 31-H ) :   0.9601 B( 15-C , 16-C ) :   1.3612
B( 15-C , 32-H ) :   0.9700 B( 16-C , 17-C ) :   1.3292 B( 16-C , 33-H ) :   0.9841
B( 17-C , 18-O ) :   1.1131 B( 17-C , 19-C ) :   1.3686 B( 18-O , 34-H ) :   0.9789
B( 19-C , 35-H ) :   0.9532

MP2 TOTAL ENERGY:    -1274.324151170 Eh
FINAL SINGLE POINT ENERGY     -1274.324151170277

DIPOLE MOMENT
-------------
                                X             Y             Z
Electronic contribution:      9.90311       5.41660       5.78451
Nuclear contribution   :    -11.28023      -6.62455      -6.03145
                        -----------------------------------------
Total Dipole Moment    :     -1.37712      -1.20795      -0.24693
                        -----------------------------------------
Magnitude (a.u.)       :      1.84840
Magnitude (Debye)      :      4.69827

Rotational constants in cm-1:     0.012305     0.009369     0.007056
Rotational constants in MHz :   368.889224   280.890448   211.526876

                             ****ORCA TERMINATED NORMALLY****
TOTAL RUN TIME: 0 days 1 hours 55 minutes 32 seconds 479 msec
