                         Program Version 5.0.0 -  RELEASE  -
|  1> ! ri-mp2 cc-pvtz cc-pvtz/c TightSCF NoKeepInts
|  2>
|  3> %scf
|  4>   MaxCore 4096
|  5> end
|  6> *xyz  0  1
|  7>     C       15.2155156   13.5616765   16.5415736
|  8>     C       15.7070814   14.9581968   16.9545507
|  9>     O       16.9822259   15.1646082   16.3180727
| 10>     C       17.3765373   16.4460507   16.0712413
| 11>     O       17.0658745   16.9577604   15.0116210
| 12>     C       17.6967381   17.2459915   17.3045113
| 13>     C       17.4077425   18.5682309   17.4062655
| 14>     C       16.5917757   19.4054119   16.4451852
| 15>     N       17.9270914   19.3161960   18.4673241
| 16>     C       18.9246203   18.8834332   19.3012618
| 17>     S       19.6386379   19.8841846   20.4072421
| 18>     N       19.3067516   17.5721330   19.1642169
| 19>     C       18.5729176   16.5664854   18.3727615
| 20>     C       17.8086790   15.6502041   19.3207636
| 21>     C       18.0709661   14.2669843   19.3357045
| 22>     C       17.3662518   13.4150430   20.2025351
| 23>     C       16.3959416   13.9500010   21.0668207
| 24>     C       16.1383787   15.3275149   21.0618779
| 25>     O       15.1995021   15.8467215   21.8918719
| 26>     C       16.8384409   16.1731288   20.1956961
| 27>     H       14.2244965   13.3607375   16.9660082
| 28>     H       15.9067388   12.7890467   16.9004107
| 29>     H       15.1450989   13.4843660   15.4491944
| 30>     H       14.9833804   15.7028739   16.5955189
| 31>     H       15.7597804   15.0303987   18.0432284
| 32>     H       15.6700420   18.8836183   16.1588617
| 33>     H       17.1589633   19.5934704   15.5242656
| 34>     H       16.3012918   20.3751550   16.8660114
| 35>     H       17.6726463   20.2864949   18.5638118
| 36>     H       20.0295013   17.2745726   19.8072829
| 37>     H       19.3188817   15.9572293   17.8428910
| 38>     H       18.8161271   13.8477839   18.6642972
| 39>     H       17.5734691   12.3460619   20.2029417
| 40>     H       15.8497441   13.2953817   21.7383014
| 41>     H       14.8789716   15.1280741   22.4578197
| 42>     H       16.6261968   17.2367786   20.2120574
| 43> *
| 44>
| 45>                          ****END OF INPUT****

CARTESIAN COORDINATES (ANGSTROEM)
---------------------------------
  C     15.215516   13.561676   16.541574
  C     15.707081   14.958197   16.954551
  O     16.982226   15.164608   16.318073
  C     17.376537   16.446051   16.071241
  O     17.065874   16.957760   15.011621
  C     17.696738   17.245991   17.304511
  C     17.407742   18.568231   17.406265
  C     16.591776   19.405412   16.445185
  N     17.927091   19.316196   18.467324
  C     18.924620   18.883433   19.301262
  S     19.638638   19.884185   20.407242
  N     19.306752   17.572133   19.164217
  C     18.572918   16.566485   18.372761
  C     17.808679   15.650204   19.320764
  C     18.070966   14.266984   19.335704
  C     17.366252   13.415043   20.202535
  C     16.395942   13.950001   21.066821
  C     16.138379   15.327515   21.061878
  O     15.199502   15.846721   21.891872
  C     16.838441   16.173129   20.195696
  H     14.224496   13.360737   16.966008
  H     15.906739   12.789047   16.900411
  H     15.145099   13.484366   15.449194
  H     14.983380   15.702874   16.595519
  H     15.759780   15.030399   18.043228
  H     15.670042   18.883618   16.158862
  H     17.158963   19.593470   15.524266
  H     16.301292   20.375155   16.866011
  H     17.672646   20.286495   18.563812
  H     20.029501   17.274573   19.807283
  H     19.318882   15.957229   17.842891
  H     18.816127   13.847784   18.664297
  H     17.573469   12.346062   20.202942
  H     15.849744   13.295382   21.738301
  H     14.878972   15.128074   22.457820
  H     16.626197   17.236779   20.212057

 Total Charge           Charge          ....    0
 Multiplicity           Mult            ....    1
 Number of Electrons    NEL             ....  154
 Basis Dimension        Dim             ....  828

ORBITAL ENERGIES
----------------

  NO   OCC          E(Eh)            E(eV)
   0   2.0000     -91.891788     -2500.5027
   1   2.0000     -20.602161      -560.6133
   2   2.0000     -20.580607      -560.0268
   3   2.0000     -20.553552      -559.2906
   4   2.0000     -15.631100      -425.3438
   5   2.0000     -15.611031      -424.7977
   6   2.0000     -11.392653      -310.0098
   7   2.0000     -11.386447      -309.8410
   8   2.0000     -11.336405      -308.4793
   9   2.0000     -11.320298      -308.0410
  10   2.0000     -11.315281      -307.9045
  11   2.0000     -11.294653      -307.3431
  12   2.0000     -11.265102      -306.5390
  13   2.0000     -11.261461      -306.4399
  14   2.0000     -11.260188      -306.4053
  15   2.0000     -11.254855      -306.2602
  16   2.0000     -11.249651      -306.1186
  17   2.0000     -11.244147      -305.9688
  18   2.0000     -11.243818      -305.9598
  19   2.0000     -11.225744      -305.4680
  20   2.0000      -8.896807      -242.0944
  21   2.0000      -6.578371      -179.0066
  22   2.0000      -6.576377      -178.9523
  23   2.0000      -6.575780      -178.9361
  24   2.0000      -1.448827       -39.4246
  25   2.0000      -1.421922       -38.6925
  26   2.0000      -1.354057       -36.8458
  27   2.0000      -1.342751       -36.5381
  28   2.0000      -1.241519       -33.7834
  29   2.0000      -1.163083       -31.6491
  30   2.0000      -1.122242       -30.5378
  31   2.0000      -1.047494       -28.5038
  32   2.0000      -1.033489       -28.1227
  33   2.0000      -1.021494       -27.7963
  34   2.0000      -1.000110       -27.2144
  35   2.0000      -0.987143       -26.8615
  36   2.0000      -0.926965       -25.2240
  37   2.0000      -0.875520       -23.8241
  38   2.0000      -0.850757       -23.1503
  39   2.0000      -0.844614       -22.9831
  40   2.0000      -0.840009       -22.8578
  41   2.0000      -0.833415       -22.6784
  42   2.0000      -0.760193       -20.6859
  43   2.0000      -0.736688       -20.0463
  44   2.0000      -0.726208       -19.7611
  45   2.0000      -0.701403       -19.0861
  46   2.0000      -0.692201       -18.8358
  47   2.0000      -0.681221       -18.5370
  48   2.0000      -0.673565       -18.3286
  49   2.0000      -0.659092       -17.9348
  50   2.0000      -0.649642       -17.6777
  51   2.0000      -0.646068       -17.5804
  52   2.0000      -0.639626       -17.4051
  53   2.0000      -0.614289       -16.7157
  54   2.0000      -0.610484       -16.6121
  55   2.0000      -0.603963       -16.4347
  56   2.0000      -0.600893       -16.3511
  57   2.0000      -0.582314       -15.8456
  58   2.0000      -0.574410       -15.6305
  59   2.0000      -0.565646       -15.3920
  60   2.0000      -0.556066       -15.1313
  61   2.0000      -0.546068       -14.8593
  62   2.0000      -0.538697       -14.6587
  63   2.0000      -0.530067       -14.4239
  64   2.0000      -0.518564       -14.1109
  65   2.0000      -0.513056       -13.9610
  66   2.0000      -0.506229       -13.7752
  67   2.0000      -0.499411       -13.5897
  68   2.0000      -0.482573       -13.1315
  69   2.0000      -0.469863       -12.7856
  70   2.0000      -0.455508       -12.3950
  71   2.0000      -0.446855       -12.1595
  72   2.0000      -0.359025        -9.7696
  73   2.0000      -0.354132        -9.6364
  74   2.0000      -0.331489        -9.0203
  75   2.0000      -0.328080        -8.9275
  76   2.0000      -0.318956        -8.6792
  77   0.0000       0.069152         1.8817
  78   0.0000       0.101110         2.7514
  79   0.0000       0.119412         3.2494
  80   0.0000       0.126157         3.4329
  81   0.0000       0.130404         3.5485

MULLIKEN ATOMIC CHARGES
-----------------------
   0 C :   -0.261779
   1 C :    0.027962
   2 O :   -0.363444
   3 C :    0.442578
   4 O :   -0.376591
   5 C :   -0.241376
   6 C :    0.152640
   7 C :   -0.273061
   8 N :   -0.125522
   9 C :    0.199846
  10 S :   -0.432679
  11 N :   -0.188934
  12 C :    0.032125
  13 C :    0.027915
  14 C :   -0.159623
  15 C :   -0.140684
  16 C :   -0.269856
  17 C :    0.301250
  18 O :   -0.355984
  19 C :   -0.250901
  20 H :    0.086238
  21 H :    0.093165
  22 H :    0.107368
  23 H :    0.097562
  24 H :    0.116967
  25 H :    0.123966
  26 H :    0.139693
  27 H :    0.094415
  28 H :    0.198385
  29 H :    0.190585
  30 H :    0.147688
  31 H :    0.150041
  32 H :    0.164576
  33 H :    0.134188
  34 H :    0.241581
  35 H :    0.169700
Sum of atomic charges:    0.0000000

LOEWDIN ATOMIC CHARGES
----------------------
   0 C :    0.111005
   1 C :   -0.017300
   2 O :    0.286799
   3 C :   -0.425205
   4 O :    0.134037
   5 C :   -0.097586
   6 C :   -0.064737
   7 C :    0.129780
   8 N :    0.406005
   9 C :   -0.458419
  10 S :   -0.030944
  11 N :    0.396478
  12 C :   -0.052835
  13 C :   -0.042501
  14 C :    0.015865
  15 C :    0.042810
  16 C :   -0.000523
  17 C :   -0.192062
  18 O :    0.396962
  19 C :    0.030930
  20 H :   -0.026311
  21 H :   -0.028957
  22 H :   -0.023493
  23 H :   -0.032485
  24 H :   -0.037025
  25 H :   -0.007572
  26 H :   -0.003109
  27 H :   -0.022610
  28 H :   -0.057483
  29 H :   -0.064925
  30 H :   -0.006575
  31 H :   -0.028606
  32 H :   -0.019404
  33 H :   -0.033994
  34 H :   -0.152560
  35 H :   -0.023451

  Mayer bond orders larger than 0.100000
B(  0-C ,  1-C ) :   0.9839 B(  0-C , 20-H ) :   0.9760 B(  0-C , 21-H ) :   0.9791
B(  0-C , 22-H ) :   0.9788 B(  1-C ,  2-O ) :   0.8764 B(  1-C , 23-H ) :   0.9784
B(  1-C , 24-H ) :   0.9601 B(  2-O ,  3-C ) :   1.1315 B(  3-C ,  4-O ) :   2.0734
B(  3-C ,  5-C ) :   1.0023 B(  5-C ,  6-C ) :   1.6761 B(  5-C , 12-C ) :   0.9681
B(  6-C ,  7-C ) :   0.9653 B(  6-C ,  8-N ) :   1.1402 B(  7-C , 25-H ) :   0.9690
B(  7-C , 26-H ) :   0.9560 B(  7-C , 27-H ) :   0.9865 B(  8-N ,  9-C ) :   1.1801
B(  8-N , 28-H ) :   0.9491 B(  9-C , 10-S ) :   1.6212 B(  9-C , 11-N ) :   1.2937
B( 11-N , 12-C ) :   0.9908 B( 11-N , 29-H ) :   0.9540 B( 12-C , 13-C ) :   0.9399
B( 12-C , 30-H ) :   1.0082 B( 13-C , 14-C ) :   1.3677 B( 13-C , 19-C ) :   1.3702
B( 14-C , 15-C ) :   1.3862 B( 14-C , 31-H ) :   0.9705 B( 15-C , 16-C ) :   1.3662
B( 15-C , 32-H ) :   0.9697 B( 16-C , 17-C ) :   1.3272 B( 16-C , 33-H ) :   0.9835
B( 17-C , 18-O ) :   1.1151 B( 17-C , 19-C ) :   1.3786 B( 18-O , 34-H ) :   0.9789
B( 19-C , 35-H ) :   0.9565

MP2 TOTAL ENERGY:    -1274.322758123 Eh
FINAL SINGLE POINT ENERGY     -1274.322758122995

DIPOLE MOMENT
-------------
                                X             Y             Z
Electronic contribution:     10.76646      10.03388       6.02659
Nuclear contribution   :    -12.02095     -11.49381      -5.72094
                        -----------------------------------------
Total Dipole Moment    :     -1.25449      -1.45992       0.30566
                        -----------------------------------------
Magnitude (a.u.)       :      1.94899
Magnitude (Debye)      :      4.95394

Rotational constants in cm-1:     0.011994     0.009338     0.006304
Rotational constants in MHz :   359.571477   279.953287   188.982504

                             ****ORCA TERMINATED NORMALLY****
TOTAL RUN TIME: 0 days 1 hours 50 minutes 10 seconds 860 msec
