                         Program Version 5.0.0 -  RELEASE  -
|  1> ! ri-mp2 cc-pvtz cc-pvtz/c TightSCF NoKeepInts
|  2>
|  3> %scf
|  4>   MaxCore 4096
|  5> end
|  6> *xyz  0  1
|  7>     C       14.7335219   14.2170443   16.4842881
|  8>     C       15.5267578   15.5126713   16.7177930
|  9>     O       16.7491661   15.4028174   15.9634102
| 10>     C       17.9489446   15.6325925   16.5769507
| 11>     O       18.7811015   14.7475021   16.6547590
| 12>     C       18.0236172   16.8718193   17.4160875
| 13>     C       17.5200695   18.0712360   17.0342769
| 14>     C       16.8627337   18.4203231   15.7152489
| 15>     N       17.6733523   19.1844696   17.8647795
| 16>     C       18.4236360   19.2065218   19.0114602
| 17>     S       18.6286554   20.5927341   19.8891085
| 18>     N       18.9932956   18.0182002   19.3964171
| 19>     C       18.7523393   16.7125442   18.7515569
| 20>     C       17.9711314   15.7803621   19.6735897
| 21>     C       18.3799966   14.4450224   19.8435386
| 22>     C       17.6510397   13.5714512   20.6674581
| 23>     C       16.5002038   14.0351930   21.3268773
| 24>     C       16.0859616   15.3628185   21.1564924
| 25>     O       14.9674945   15.8107360   21.7800388
| 26>     C       16.8131464   16.2301990   20.3351897
| 27>     H       15.3092217   13.3475569   16.8267742
| 28>     H       14.5108915   14.0853280   15.4180662
| 29>     H       13.7854565   14.2395152   17.0351605
| 30>     H       14.9387982   16.3751555   16.3819871
| 31>     H       15.7235812   15.6148342   17.7933284
| 32>     H       17.1186437   17.7037743   14.9250953
| 33>     H       17.1914231   19.4035934   15.3554139
| 34>     H       15.7711183   18.4481596   15.8099266
| 35>     H       17.2727636   20.0690481   17.5943667
| 36>     H       19.5234752   18.0584625   20.2577923
| 37>     H       19.7316543   16.2545892   18.5478913
| 38>     H       19.2587601   14.0772963   19.3179136
| 39>     H       17.9760643   12.5390488   20.7853104
| 40>     H       15.9327418   13.3622966   21.9613135
| 41>     H       14.6436161   15.0935323   22.3460183
| 42>     H       16.4726253   17.2535511   20.2183209
| 43> *
| 44>
| 45>                          ****END OF INPUT****

CARTESIAN COORDINATES (ANGSTROEM)
---------------------------------
  C     14.733522   14.217044   16.484288
  C     15.526758   15.512671   16.717793
  O     16.749166   15.402817   15.963410
  C     17.948945   15.632592   16.576951
  O     18.781101   14.747502   16.654759
  C     18.023617   16.871819   17.416087
  C     17.520070   18.071236   17.034277
  C     16.862734   18.420323   15.715249
  N     17.673352   19.184470   17.864780
  C     18.423636   19.206522   19.011460
  S     18.628655   20.592734   19.889108
  N     18.993296   18.018200   19.396417
  C     18.752339   16.712544   18.751557
  C     17.971131   15.780362   19.673590
  C     18.379997   14.445022   19.843539
  C     17.651040   13.571451   20.667458
  C     16.500204   14.035193   21.326877
  C     16.085962   15.362818   21.156492
  O     14.967494   15.810736   21.780039
  C     16.813146   16.230199   20.335190
  H     15.309222   13.347557   16.826774
  H     14.510891   14.085328   15.418066
  H     13.785457   14.239515   17.035160
  H     14.938798   16.375156   16.381987
  H     15.723581   15.614834   17.793328
  H     17.118644   17.703774   14.925095
  H     17.191423   19.403593   15.355414
  H     15.771118   18.448160   15.809927
  H     17.272764   20.069048   17.594367
  H     19.523475   18.058463   20.257792
  H     19.731654   16.254589   18.547891
  H     19.258760   14.077296   19.317914
  H     17.976064   12.539049   20.785310
  H     15.932742   13.362297   21.961313
  H     14.643616   15.093532   22.346018
  H     16.472625   17.253551   20.218321

 Total Charge           Charge          ....    0
 Multiplicity           Mult            ....    1
 Number of Electrons    NEL             ....  154
 Basis Dimension        Dim             ....  828

ORBITAL ENERGIES
----------------

  NO   OCC          E(Eh)            E(eV)
   0   2.0000     -91.891002     -2500.4813
   1   2.0000     -20.599092      -560.5298
   2   2.0000     -20.592282      -560.3445
   3   2.0000     -20.552860      -559.2717
   4   2.0000     -15.629834      -425.3094
   5   2.0000     -15.611002      -424.7970
   6   2.0000     -11.395913      -310.0985
   7   2.0000     -11.387036      -309.8570
   8   2.0000     -11.335638      -308.4584
   9   2.0000     -11.315838      -307.9196
  10   2.0000     -11.311860      -307.8114
  11   2.0000     -11.303467      -307.5830
  12   2.0000     -11.265809      -306.5583
  13   2.0000     -11.263881      -306.5058
  14   2.0000     -11.261841      -306.4503
  15   2.0000     -11.255640      -306.2815
  16   2.0000     -11.245171      -305.9967
  17   2.0000     -11.241422      -305.8946
  18   2.0000     -11.237944      -305.8000
  19   2.0000     -11.229156      -305.5609
  20   2.0000      -8.896089      -242.0749
  21   2.0000      -6.577668      -178.9874
  22   2.0000      -6.575653      -178.9326
  23   2.0000      -6.575069      -178.9167
  24   2.0000      -1.449646       -39.4469
  25   2.0000      -1.418919       -38.6107
  26   2.0000      -1.360019       -37.0080
  27   2.0000      -1.341992       -36.5175
  28   2.0000      -1.240566       -33.7575
  29   2.0000      -1.160188       -31.5703
  30   2.0000      -1.124520       -30.5997
  31   2.0000      -1.047653       -28.5081
  32   2.0000      -1.036860       -28.2144
  33   2.0000      -1.017753       -27.6945
  34   2.0000      -1.004296       -27.3283
  35   2.0000      -0.988752       -26.9053
  36   2.0000      -0.927060       -25.2266
  37   2.0000      -0.879447       -23.9310
  38   2.0000      -0.855555       -23.2808
  39   2.0000      -0.842946       -22.9377
  40   2.0000      -0.836181       -22.7536
  41   2.0000      -0.835161       -22.7259
  42   2.0000      -0.755299       -20.5527
  43   2.0000      -0.738468       -20.0947
  44   2.0000      -0.731135       -19.8952
  45   2.0000      -0.697061       -18.9680
  46   2.0000      -0.688228       -18.7276
  47   2.0000      -0.680197       -18.5091
  48   2.0000      -0.677473       -18.4350
  49   2.0000      -0.663250       -18.0479
  50   2.0000      -0.654754       -17.8168
  51   2.0000      -0.649601       -17.6765
  52   2.0000      -0.641529       -17.4569
  53   2.0000      -0.610371       -16.6090
  54   2.0000      -0.607327       -16.5262
  55   2.0000      -0.603013       -16.4088
  56   2.0000      -0.594292       -16.1715
  57   2.0000      -0.584202       -15.8970
  58   2.0000      -0.577961       -15.7271
  59   2.0000      -0.569228       -15.4895
  60   2.0000      -0.564222       -15.3533
  61   2.0000      -0.558546       -15.1988
  62   2.0000      -0.545143       -14.8341
  63   2.0000      -0.525303       -14.2942
  64   2.0000      -0.515887       -14.0380
  65   2.0000      -0.515268       -14.0211
  66   2.0000      -0.502333       -13.6692
  67   2.0000      -0.498606       -13.5677
  68   2.0000      -0.488661       -13.2971
  69   2.0000      -0.470814       -12.8115
  70   2.0000      -0.457434       -12.4474
  71   2.0000      -0.451618       -12.2891
  72   2.0000      -0.358095        -9.7443
  73   2.0000      -0.351158        -9.5555
  74   2.0000      -0.330414        -8.9910
  75   2.0000      -0.323368        -8.7993
  76   2.0000      -0.319255        -8.6874
  77   0.0000       0.075326         2.0497
  78   0.0000       0.104320         2.8387
  79   0.0000       0.117443         3.1958
  80   0.0000       0.129695         3.5292
  81   0.0000       0.134841         3.6692

MULLIKEN ATOMIC CHARGES
-----------------------
   0 C :   -0.254290
   1 C :    0.018150
   2 O :   -0.339984
   3 C :    0.438870
   4 O :   -0.382653
   5 C :   -0.232392
   6 C :    0.162886
   7 C :   -0.321549
   8 N :   -0.132701
   9 C :    0.198564
  10 S :   -0.437655
  11 N :   -0.206965
  12 C :    0.067941
  13 C :    0.028094
  14 C :   -0.182065
  15 C :   -0.133292
  16 C :   -0.276330
  17 C :    0.323358
  18 O :   -0.358751
  19 C :   -0.293049
  20 H :    0.107498
  21 H :    0.099325
  22 H :    0.088016
  23 H :    0.088587
  24 H :    0.109373
  25 H :    0.139523
  26 H :    0.125941
  27 H :    0.121470
  28 H :    0.197705
  29 H :    0.196311
  30 H :    0.161228
  31 H :    0.167046
  32 H :    0.163422
  33 H :    0.132227
  34 H :    0.241449
  35 H :    0.174693
Sum of atomic charges:   -0.0000000

LOEWDIN ATOMIC CHARGES
----------------------
   0 C :    0.110462
   1 C :   -0.020804
   2 O :    0.297364
   3 C :   -0.419754
   4 O :    0.127844
   5 C :   -0.090280
   6 C :   -0.083240
   7 C :    0.126941
   8 N :    0.403512
   9 C :   -0.458060
  10 S :   -0.034961
  11 N :    0.397104
  12 C :   -0.045468
  13 C :   -0.044372
  14 C :    0.021928
  15 C :    0.044308
  16 C :   -0.000610
  17 C :   -0.194943
  18 O :    0.394226
  19 C :    0.026073
  20 H :   -0.021271
  21 H :   -0.026351
  22 H :   -0.026702
  23 H :   -0.036807
  24 H :   -0.030624
  25 H :   -0.007077
  26 H :   -0.013395
  27 H :   -0.017701
  28 H :   -0.057215
  29 H :   -0.063557
  30 H :   -0.002960
  31 H :   -0.022251
  32 H :   -0.018914
  33 H :   -0.034814
  34 H :   -0.153106
  35 H :   -0.024526

  Mayer bond orders larger than 0.100000
B(  0-C ,  1-C ) :   0.9891 B(  0-C , 20-H ) :   0.9773 B(  0-C , 21-H ) :   0.9794
B(  0-C , 22-H ) :   0.9763 B(  1-C ,  2-O ) :   0.8906 B(  1-C , 23-H ) :   0.9762
B(  1-C , 24-H ) :   0.9621 B(  2-O ,  3-C ) :   1.1556 B(  3-C ,  4-O ) :   2.0794
B(  3-C ,  5-C ) :   0.9582 B(  5-C ,  6-C ) :   1.6629 B(  5-C , 12-C ) :   0.9574
B(  6-C ,  7-C ) :   0.9458 B(  6-C ,  8-N ) :   1.1326 B(  7-C , 25-H ) :   0.9719
B(  7-C , 26-H ) :   0.9784 B(  7-C , 27-H ) :   0.9659 B(  8-N ,  9-C ) :   1.1872
B(  8-N , 28-H ) :   0.9510 B(  9-C , 10-S ) :   1.6139 B(  9-C , 11-N ) :   1.2943
B( 11-N , 12-C ) :   0.9954 B( 11-N , 29-H ) :   0.9508 B( 12-C , 13-C ) :   0.9419
B( 12-C , 30-H ) :   0.9981 B( 13-C , 14-C ) :   1.3870 B( 13-C , 19-C ) :   1.3476
B( 14-C , 15-C ) :   1.3964 B( 14-C , 31-H ) :   0.9597 B( 15-C , 16-C ) :   1.3638
B( 15-C , 32-H ) :   0.9701 B( 16-C , 17-C ) :   1.3305 B( 16-C , 33-H ) :   0.9843
B( 17-C , 18-O ) :   1.1104 B( 17-C , 19-C ) :   1.3657 B( 18-O , 34-H ) :   0.9794
B( 19-C , 35-H ) :   0.9594

MP2 TOTAL ENERGY:    -1274.333976128 Eh
FINAL SINGLE POINT ENERGY     -1274.333976128221

DIPOLE MOMENT
-------------
                                X             Y             Z
Electronic contribution:     10.79240       8.91707       7.14329
Nuclear contribution   :    -12.26788      -9.88729      -7.49277
                        -----------------------------------------
Total Dipole Moment    :     -1.47549      -0.97023      -0.34948
                        -----------------------------------------
Magnitude (a.u.)       :      1.80015
Magnitude (Debye)      :      4.57562

Rotational constants in cm-1:     0.011670     0.009226     0.006662
Rotational constants in MHz :   349.857022   276.581480   199.709829

                             ****ORCA TERMINATED NORMALLY****
TOTAL RUN TIME: 0 days 1 hours 38 minutes 32 seconds 406 msec
