                         Program Version 5.0.0 -  RELEASE  -
|  1> ! ri-mp2 cc-pvtz cc-pvtz/c TightSCF NoKeepInts
|  2>
|  3> %scf
|  4>   MaxCore 4096
|  5> end
|  6> *xyz  0  1
|  7>     C       15.3510791   13.8447091   17.0063579
|  8>     C       16.5124454   14.0634337   16.0175330
|  9>     O       17.3590349   15.1082082   16.5299838
| 10>     C       16.9861520   16.4156560   16.3806322
| 11>     O       16.1543116   16.7654443   15.5601963
| 12>     C       17.6070086   17.3198559   17.4094786
| 13>     C       17.3969634   18.6608319   17.4207593
| 14>     C       16.5469688   19.4639548   16.4594753
| 15>     N       18.0268727   19.4615163   18.3781165
| 16>     C       18.9510889   19.0181467   19.2858008
| 17>     S       19.7193240   20.0487982   20.3267924
| 18>     N       19.2125427   17.6719254   19.2853061
| 19>     C       18.4938354   16.6659681   18.4824800
| 20>     C       17.7005335   15.7472170   19.4073829
| 21>     C       18.1363441   14.4300215   19.6448911
| 22>     C       17.4116447   13.5796289   20.4969440
| 23>     C       16.2415911   14.0499626   21.1171778
| 24>     C       15.8074551   15.3625831   20.8865513
| 25>     O       14.6789690   15.8199720   21.4850045
| 26>     C       16.5320865   16.2074080   20.0403089
| 27>     H       15.7319492   13.6020492   18.0057355
| 28>     H       14.7134923   13.0175295   16.6723006
| 29>     H       14.7277781   14.7445251   17.0831379
| 30>     H       17.0915436   13.1344933   15.9399562
| 31>     H       16.1316732   14.3114105   15.0171773
| 32>     H       15.4986740   19.1431199   16.5128326
| 33>     H       16.8831940   19.3113304   15.4260324
| 34>     H       16.5742560   20.5414793   16.6594755
| 35>     H       17.8485230   20.4529877   18.3922570
| 36>     H       19.8697596   17.3700697   19.9929017
| 37>     H       19.2504065   16.0620809   17.9619664
| 38>     H       19.0377658   14.0623089   19.1621492
| 39>     H       17.7563026   12.5621757   20.6732767
| 40>     H       15.6780007   13.3970174   21.7754490
| 41>     H       14.3433819   15.1116299   22.0546300
| 42>     H       16.1840480   17.2225510   19.8835494
| 43> *
| 44>
| 45>                          ****END OF INPUT****

CARTESIAN COORDINATES (ANGSTROEM)
---------------------------------
  C     15.351079   13.844709   17.006358
  C     16.512445   14.063434   16.017533
  O     17.359035   15.108208   16.529984
  C     16.986152   16.415656   16.380632
  O     16.154312   16.765444   15.560196
  C     17.607009   17.319856   17.409479
  C     17.396963   18.660832   17.420759
  C     16.546969   19.463955   16.459475
  N     18.026873   19.461516   18.378116
  C     18.951089   19.018147   19.285801
  S     19.719324   20.048798   20.326792
  N     19.212543   17.671925   19.285306
  C     18.493835   16.665968   18.482480
  C     17.700533   15.747217   19.407383
  C     18.136344   14.430022   19.644891
  C     17.411645   13.579629   20.496944
  C     16.241591   14.049963   21.117178
  C     15.807455   15.362583   20.886551
  O     14.678969   15.819972   21.485004
  C     16.532086   16.207408   20.040309
  H     15.731949   13.602049   18.005735
  H     14.713492   13.017530   16.672301
  H     14.727778   14.744525   17.083138
  H     17.091544   13.134493   15.939956
  H     16.131673   14.311410   15.017177
  H     15.498674   19.143120   16.512833
  H     16.883194   19.311330   15.426032
  H     16.574256   20.541479   16.659475
  H     17.848523   20.452988   18.392257
  H     19.869760   17.370070   19.992902
  H     19.250407   16.062081   17.961966
  H     19.037766   14.062309   19.162149
  H     17.756303   12.562176   20.673277
  H     15.678001   13.397017   21.775449
  H     14.343382   15.111630   22.054630
  H     16.184048   17.222551   19.883549

 Total Charge           Charge          ....    0
 Multiplicity           Mult            ....    1
 Number of Electrons    NEL             ....  154
 Basis Dimension        Dim             ....  828

ORBITAL ENERGIES
----------------

  NO   OCC          E(Eh)            E(eV)
   0   2.0000     -91.889001     -2500.4268
   1   2.0000     -20.599019      -560.5278
   2   2.0000     -20.597853      -560.4961
   3   2.0000     -20.541623      -558.9660
   4   2.0000     -15.629291      -425.2946
   5   2.0000     -15.608500      -424.7289
   6   2.0000     -11.394816      -310.0687
   7   2.0000     -11.384177      -309.7792
   8   2.0000     -11.336372      -308.4784
   9   2.0000     -11.315229      -307.9030
  10   2.0000     -11.309390      -307.7441
  11   2.0000     -11.294858      -307.3487
  12   2.0000     -11.260853      -306.4234
  13   2.0000     -11.259158      -306.3773
  14   2.0000     -11.256526      -306.3056
  15   2.0000     -11.252302      -306.1907
  16   2.0000     -11.244261      -305.9719
  17   2.0000     -11.239312      -305.8372
  18   2.0000     -11.239057      -305.8303
  19   2.0000     -11.220897      -305.3361
  20   2.0000      -8.894061      -242.0197
  21   2.0000      -6.575635      -178.9321
  22   2.0000      -6.573630      -178.8776
  23   2.0000      -6.573044      -178.8616
  24   2.0000      -1.450383       -39.4669
  25   2.0000      -1.417513       -38.5725
  26   2.0000      -1.353826       -36.8395
  27   2.0000      -1.340305       -36.4715
  28   2.0000      -1.238877       -33.7116
  29   2.0000      -1.158732       -31.5307
  30   2.0000      -1.120829       -30.4993
  31   2.0000      -1.043433       -28.3932
  32   2.0000      -1.034218       -28.1425
  33   2.0000      -1.016314       -27.6553
  34   2.0000      -0.995743       -27.0955
  35   2.0000      -0.984428       -26.7876
  36   2.0000      -0.923109       -25.1191
  37   2.0000      -0.893134       -24.3034
  38   2.0000      -0.847351       -23.0576
  39   2.0000      -0.838656       -22.8210
  40   2.0000      -0.834909       -22.7190
  41   2.0000      -0.814758       -22.1707
  42   2.0000      -0.756126       -20.5752
  43   2.0000      -0.733280       -19.9536
  44   2.0000      -0.723344       -19.6832
  45   2.0000      -0.696941       -18.9647
  46   2.0000      -0.688919       -18.7464
  47   2.0000      -0.678484       -18.4625
  48   2.0000      -0.670536       -18.2462
  49   2.0000      -0.662623       -18.0309
  50   2.0000      -0.648577       -17.6487
  51   2.0000      -0.641802       -17.4643
  52   2.0000      -0.632866       -17.2212
  53   2.0000      -0.608420       -16.5559
  54   2.0000      -0.607563       -16.5326
  55   2.0000      -0.600645       -16.3444
  56   2.0000      -0.599436       -16.3115
  57   2.0000      -0.578566       -15.7436
  58   2.0000      -0.570906       -15.5351
  59   2.0000      -0.567207       -15.4345
  60   2.0000      -0.558570       -15.1995
  61   2.0000      -0.543638       -14.7931
  62   2.0000      -0.532575       -14.4921
  63   2.0000      -0.531346       -14.4587
  64   2.0000      -0.526143       -14.3171
  65   2.0000      -0.513407       -13.9705
  66   2.0000      -0.502073       -13.6621
  67   2.0000      -0.499436       -13.5903
  68   2.0000      -0.479757       -13.0549
  69   2.0000      -0.464458       -12.6385
  70   2.0000      -0.453861       -12.3502
  71   2.0000      -0.446433       -12.1481
  72   2.0000      -0.354573        -9.6484
  73   2.0000      -0.350818        -9.5462
  74   2.0000      -0.328547        -8.9402
  75   2.0000      -0.322743        -8.7823
  76   2.0000      -0.316546        -8.6137
  77   0.0000       0.075982         2.0676
  78   0.0000       0.105267         2.8645
  79   0.0000       0.124342         3.3835
  80   0.0000       0.132112         3.5950
  81   0.0000       0.137539         3.7426

MULLIKEN ATOMIC CHARGES
-----------------------
   0 C :   -0.305401
   1 C :    0.020151
   2 O :   -0.359528
   3 C :    0.460196
   4 O :   -0.433042
   5 C :   -0.233818
   6 C :    0.156193
   7 C :   -0.271341
   8 N :   -0.122234
   9 C :    0.214354
  10 S :   -0.440663
  11 N :   -0.207603
  12 C :    0.066421
  13 C :    0.062366
  14 C :   -0.189099
  15 C :   -0.136950
  16 C :   -0.278191
  17 C :    0.313434
  18 O :   -0.356958
  19 C :   -0.256566
  20 H :    0.107039
  21 H :    0.103283
  22 H :    0.107903
  23 H :    0.110340
  24 H :    0.119818
  25 H :    0.131838
  26 H :    0.131239
  27 H :    0.095303
  28 H :    0.197274
  29 H :    0.195355
  30 H :    0.149706
  31 H :    0.149266
  32 H :    0.161217
  33 H :    0.131112
  34 H :    0.241027
  35 H :    0.166558
Sum of atomic charges:   -0.0000000

LOEWDIN ATOMIC CHARGES
----------------------
   0 C :    0.104935
   1 C :   -0.017497
   2 O :    0.305813
   3 C :   -0.414951
   4 O :    0.096404
   5 C :   -0.094765
   6 C :   -0.058974
   7 C :    0.131590
   8 N :    0.406802
   9 C :   -0.455544
  10 S :   -0.035652
  11 N :    0.396391
  12 C :   -0.051844
  13 C :   -0.037575
  14 C :    0.012411
  15 C :    0.039371
  16 C :   -0.002444
  17 C :   -0.189192
  18 O :    0.396020
  19 C :    0.032127
  20 H :   -0.026200
  21 H :   -0.027587
  22 H :   -0.026218
  23 H :   -0.026037
  24 H :   -0.028175
  25 H :   -0.004719
  26 H :   -0.003799
  27 H :   -0.023358
  28 H :   -0.057511
  29 H :   -0.064764
  30 H :   -0.010592
  31 H :   -0.030142
  32 H :   -0.021098
  33 H :   -0.035459
  34 H :   -0.153580
  35 H :   -0.024189

  Mayer bond orders larger than 0.100000
B(  0-C ,  1-C ) :   0.9608 B(  0-C , 20-H ) :   0.9707 B(  0-C , 21-H ) :   0.9780
B(  0-C , 22-H ) :   0.9762 B(  1-C ,  2-O ) :   0.8901 B(  1-C , 23-H ) :   0.9847
B(  1-C , 24-H ) :   0.9795 B(  2-O ,  3-C ) :   1.1613 B(  3-C ,  4-O ) :   1.9724
B(  3-C ,  5-C ) :   1.0590 B(  5-C ,  6-C ) :   1.6535 B(  5-C , 12-C ) :   0.9729
B(  6-C ,  7-C ) :   0.9664 B(  6-C ,  8-N ) :   1.1652 B(  7-C , 25-H ) :   0.9602
B(  7-C , 26-H ) :   0.9604 B(  7-C , 27-H ) :   0.9904 B(  8-N ,  9-C ) :   1.1834
B(  8-N , 28-H ) :   0.9477 B(  9-C , 10-S ) :   1.6048 B(  9-C , 11-N ) :   1.3075
B( 11-N , 12-C ) :   0.9798 B( 11-N , 29-H ) :   0.9516 B( 12-C , 13-C ) :   0.9374
B( 12-C , 30-H ) :   1.0020 B( 13-C , 14-C ) :   1.3532 B( 13-C , 19-C ) :   1.3820
B( 14-C , 15-C ) :   1.3913 B( 14-C , 31-H ) :   0.9729 B( 15-C , 16-C ) :   1.3588
B( 15-C , 32-H ) :   0.9718 B( 16-C , 17-C ) :   1.3312 B( 16-C , 33-H ) :   0.9852
B( 17-C , 18-O ) :   1.1113 B( 17-C , 19-C ) :   1.3703 B( 18-O , 34-H ) :   0.9796
B( 19-C , 35-H ) :   0.9575

MP2 TOTAL ENERGY:    -1274.351348075 Eh
FINAL SINGLE POINT ENERGY     -1274.351348075285

DIPOLE MOMENT
-------------
                                X             Y             Z
Electronic contribution:      8.97067      10.70416       6.52840
Nuclear contribution   :     -9.79226     -12.45988      -6.87937
                        -----------------------------------------
Total Dipole Moment    :     -0.82159      -1.75572      -0.35097
                        -----------------------------------------
Magnitude (a.u.)       :      1.96996
Magnitude (Debye)      :      5.00725

Rotational constants in cm-1:     0.012523     0.008729     0.006373
Rotational constants in MHz :   375.426587   261.694349   191.043581

                             ****ORCA TERMINATED NORMALLY****
TOTAL RUN TIME: 0 days 1 hours 35 minutes 7 seconds 896 msec
