                         Program Version 5.0.0 -  RELEASE  -
|  1> ! ri-mp2 cc-pvtz cc-pvtz/c TightSCF NoKeepInts
|  2>
|  3> %scf
|  4>   MaxCore 4096
|  5> end
|  6> *xyz  0  1
|  7>     C       15.4667472   14.1720666   14.8817884
|  8>     C       15.6786831   14.0696475   16.4083458
|  9>     O       16.6188963   15.0593764   16.8754837
| 10>     C       16.3762575   16.4050095   16.7893333
| 11>     O       15.3973005   16.8694198   16.2313700
| 12>     C       17.3458181   17.2145939   17.6070009
| 13>     C       17.3131508   18.5713638   17.6428067
| 14>     C       16.3503704   19.4859761   16.9159129
| 15>     N       18.2677986   19.2766232   18.3819081
| 16>     C       19.3462955   18.7126303   19.0093877
| 17>     S       20.4913112   19.6287010   19.7747264
| 18>     N       19.4319121   17.3445258   18.9669540
| 19>     C       18.3948269   16.4458161   18.4279337
| 20>     C       17.7585348   15.6540226   19.5670627
| 21>     C       17.9547122   14.2636200   19.6659859
| 22>     C       17.3702519   13.5316776   20.7133410
| 23>     C       16.5853874   14.1953647   21.6717074
| 24>     C       16.3914986   15.5804305   21.5787438
| 25>     O       15.6354657   16.2242603   22.5034065
| 26>     C       16.9743274   16.3060957   20.5353028
| 27>     H       14.8718462   15.0520185   14.6104083
| 28>     H       14.9302205   13.2888203   14.5149823
| 29>     H       16.4292430   14.2267470   14.3585639
| 30>     H       14.7167469   14.1898091   16.9246081
| 31>     H       16.0672458   13.0718819   16.6489329
| 32>     H       15.3210562   19.3042845   17.2509864
| 33>     H       16.3801273   19.2984145   15.8350980
| 34>     H       16.5669832   20.5491691   17.0723250
| 35>     H       18.2212927   20.2822065   18.4225446
| 36>     H       20.2178210   16.9553498   19.4715954
| 37>     H       18.8960165   15.7395029   17.7513314
| 38>     H       18.5573769   13.7474846   18.9235775
| 39>     H       17.5262540   12.4564365   20.7801982
| 40>     H       16.1322302   13.6347132   22.4825967
| 41>     H       15.3448941   15.5656787   23.1518934
| 42>     H       16.8180991   17.3782615   20.4858562
| 43> *
| 44>
| 45>                          ****END OF INPUT****

CARTESIAN COORDINATES (ANGSTROEM)
---------------------------------
  C     15.466747   14.172067   14.881788
  C     15.678683   14.069648   16.408346
  O     16.618896   15.059376   16.875484
  C     16.376258   16.405009   16.789333
  O     15.397301   16.869420   16.231370
  C     17.345818   17.214594   17.607001
  C     17.313151   18.571364   17.642807
  C     16.350370   19.485976   16.915913
  N     18.267799   19.276623   18.381908
  C     19.346296   18.712630   19.009388
  S     20.491311   19.628701   19.774726
  N     19.431912   17.344526   18.966954
  C     18.394827   16.445816   18.427934
  C     17.758535   15.654023   19.567063
  C     17.954712   14.263620   19.665986
  C     17.370252   13.531678   20.713341
  C     16.585387   14.195365   21.671707
  C     16.391499   15.580431   21.578744
  O     15.635466   16.224260   22.503407
  C     16.974327   16.306096   20.535303
  H     14.871846   15.052019   14.610408
  H     14.930220   13.288820   14.514982
  H     16.429243   14.226747   14.358564
  H     14.716747   14.189809   16.924608
  H     16.067246   13.071882   16.648933
  H     15.321056   19.304285   17.250986
  H     16.380127   19.298414   15.835098
  H     16.566983   20.549169   17.072325
  H     18.221293   20.282207   18.422545
  H     20.217821   16.955350   19.471595
  H     18.896016   15.739503   17.751331
  H     18.557377   13.747485   18.923578
  H     17.526254   12.456437   20.780198
  H     16.132230   13.634713   22.482597
  H     15.344894   15.565679   23.151893
  H     16.818099   17.378261   20.485856

 Total Charge           Charge          ....    0
 Multiplicity           Mult            ....    1
 Number of Electrons    NEL             ....  154
 Basis Dimension        Dim             ....  828

ORBITAL ENERGIES
----------------

  NO   OCC          E(Eh)            E(eV)
   0   2.0000     -91.888268     -2500.4069
   1   2.0000     -20.600885      -560.5786
   2   2.0000     -20.595088      -560.4208
   3   2.0000     -20.542120      -558.9795
   4   2.0000     -15.628470      -425.2723
   5   2.0000     -15.607459      -424.7006
   6   2.0000     -11.396530      -310.1154
   7   2.0000     -11.383290      -309.7551
   8   2.0000     -11.335282      -308.4487
   9   2.0000     -11.312067      -307.8170
  10   2.0000     -11.308072      -307.7083
  11   2.0000     -11.300554      -307.5037
  12   2.0000     -11.258689      -306.3645
  13   2.0000     -11.258068      -306.3476
  14   2.0000     -11.253583      -306.2256
  15   2.0000     -11.251702      -306.1744
  16   2.0000     -11.241338      -305.8924
  17   2.0000     -11.236770      -305.7681
  18   2.0000     -11.236608      -305.7636
  19   2.0000     -11.222216      -305.3720
  20   2.0000      -8.893332      -241.9999
  21   2.0000      -6.574908      -178.9123
  22   2.0000      -6.572903      -178.8578
  23   2.0000      -6.572317      -178.8418
  24   2.0000      -1.449042       -39.4304
  25   2.0000      -1.414727       -38.4967
  26   2.0000      -1.355354       -36.8811
  27   2.0000      -1.339445       -36.4481
  28   2.0000      -1.237785       -33.6818
  29   2.0000      -1.156021       -31.4569
  30   2.0000      -1.119424       -30.4611
  31   2.0000      -1.041580       -28.3428
  32   2.0000      -1.035799       -28.1855
  33   2.0000      -1.013405       -27.5761
  34   2.0000      -0.994559       -27.0633
  35   2.0000      -0.983111       -26.7518
  36   2.0000      -0.921583       -25.0775
  37   2.0000      -0.895589       -24.3702
  38   2.0000      -0.846541       -23.0356
  39   2.0000      -0.836686       -22.7674
  40   2.0000      -0.832460       -22.6524
  41   2.0000      -0.818035       -22.2599
  42   2.0000      -0.752641       -20.4804
  43   2.0000      -0.730352       -19.8739
  44   2.0000      -0.721556       -19.6345
  45   2.0000      -0.694399       -18.8956
  46   2.0000      -0.687687       -18.7129
  47   2.0000      -0.680313       -18.5122
  48   2.0000      -0.669594       -18.2206
  49   2.0000      -0.652297       -17.7499
  50   2.0000      -0.649934       -17.6856
  51   2.0000      -0.644649       -17.5418
  52   2.0000      -0.632014       -17.1980
  53   2.0000      -0.609845       -16.5947
  54   2.0000      -0.605204       -16.4684
  55   2.0000      -0.598378       -16.2827
  56   2.0000      -0.597506       -16.2590
  57   2.0000      -0.579534       -15.7699
  58   2.0000      -0.572248       -15.5717
  59   2.0000      -0.570304       -15.5187
  60   2.0000      -0.562054       -15.2943
  61   2.0000      -0.538342       -14.6490
  62   2.0000      -0.536676       -14.6037
  63   2.0000      -0.523952       -14.2575
  64   2.0000      -0.522369       -14.2144
  65   2.0000      -0.512646       -13.9498
  66   2.0000      -0.501567       -13.6483
  67   2.0000      -0.498699       -13.5703
  68   2.0000      -0.484011       -13.1706
  69   2.0000      -0.463394       -12.6096
  70   2.0000      -0.456080       -12.4106
  71   2.0000      -0.443401       -12.0655
  72   2.0000      -0.353693        -9.6245
  73   2.0000      -0.347875        -9.4662
  74   2.0000      -0.327576        -8.9138
  75   2.0000      -0.319726        -8.7002
  76   2.0000      -0.315225        -8.5777
  77   0.0000       0.076763         2.0888
  78   0.0000       0.108801         2.9606
  79   0.0000       0.125125         3.4048
  80   0.0000       0.133357         3.6288
  81   0.0000       0.137409         3.7391

MULLIKEN ATOMIC CHARGES
-----------------------
   0 C :   -0.299215
   1 C :    0.046070
   2 O :   -0.354127
   3 C :    0.468671
   4 O :   -0.437573
   5 C :   -0.208378
   6 C :    0.147017
   7 C :   -0.275098
   8 N :   -0.119840
   9 C :    0.211311
  10 S :   -0.440653
  11 N :   -0.203073
  12 C :    0.047420
  13 C :    0.073173
  14 C :   -0.182343
  15 C :   -0.131574
  16 C :   -0.278436
  17 C :    0.315418
  18 O :   -0.356938
  19 C :   -0.269513
  20 H :    0.127276
  21 H :    0.094937
  22 H :    0.090697
  23 H :    0.092229
  24 H :    0.104878
  25 H :    0.132845
  26 H :    0.129247
  27 H :    0.095305
  28 H :    0.197118
  29 H :    0.194148
  30 H :    0.149191
  31 H :    0.146993
  32 H :    0.159105
  33 H :    0.129053
  34 H :    0.240481
  35 H :    0.164180
Sum of atomic charges:    0.0000000

LOEWDIN ATOMIC CHARGES
----------------------
   0 C :    0.104623
   1 C :   -0.012363
   2 O :    0.302663
   3 C :   -0.411889
   4 O :    0.101041
   5 C :   -0.093274
   6 C :   -0.059305
   7 C :    0.131000
   8 N :    0.406435
   9 C :   -0.456707
  10 S :   -0.036007
  11 N :    0.396467
  12 C :   -0.052749
  13 C :   -0.037973
  14 C :    0.013836
  15 C :    0.038921
  16 C :   -0.001887
  17 C :   -0.189417
  18 O :    0.394982
  19 C :    0.031473
  20 H :   -0.026271
  21 H :   -0.028334
  22 H :   -0.029806
  23 H :   -0.027987
  24 H :   -0.024840
  25 H :   -0.004584
  26 H :   -0.004517
  27 H :   -0.023462
  28 H :   -0.057696
  29 H :   -0.064701
  30 H :   -0.011184
  31 H :   -0.030719
  32 H :   -0.021720
  33 H :   -0.035873
  34 H :   -0.154159
  35 H :   -0.024017

  Mayer bond orders larger than 0.100000
B(  0-C ,  1-C ) :   0.9706 B(  0-C , 20-H ) :   0.9715 B(  0-C , 21-H ) :   0.9780
B(  0-C , 22-H ) :   0.9755 B(  1-C ,  2-O ) :   0.9012 B(  1-C , 23-H ) :   0.9765
B(  1-C , 24-H ) :   0.9838 B(  2-O ,  3-C ) :   1.1617 B(  3-C ,  4-O ) :   1.9535
B(  3-C ,  5-C ) :   1.0605 B(  5-C ,  6-C ) :   1.6570 B(  5-C , 12-C ) :   0.9738
B(  6-C ,  7-C ) :   0.9677 B(  6-C ,  8-N ) :   1.1641 B(  7-C , 25-H ) :   0.9601
B(  7-C , 26-H ) :   0.9606 B(  7-C , 27-H ) :   0.9909 B(  8-N ,  9-C ) :   1.1825
B(  8-N , 28-H ) :   0.9481 B(  9-C , 10-S ) :   1.6068 B(  9-C , 11-N ) :   1.3053
B( 11-N , 12-C ) :   0.9868 B( 11-N , 29-H ) :   0.9518 B( 12-C , 13-C ) :   0.9375
B( 12-C , 30-H ) :   1.0026 B( 13-C , 14-C ) :   1.3550 B( 13-C , 19-C ) :   1.3829
B( 14-C , 15-C ) :   1.3929 B( 14-C , 31-H ) :   0.9721 B( 15-C , 16-C ) :   1.3645
B( 15-C , 32-H ) :   0.9710 B( 16-C , 17-C ) :   1.3318 B( 16-C , 33-H ) :   0.9853
B( 17-C , 18-O ) :   1.1098 B( 17-C , 19-C ) :   1.3737 B( 18-O , 34-H ) :   0.9801
B( 19-C , 35-H ) :   0.9583

MP2 TOTAL ENERGY:    -1274.346715945 Eh
FINAL SINGLE POINT ENERGY     -1274.346715945014

DIPOLE MOMENT
-------------
                                X             Y             Z
Electronic contribution:      9.92381       9.33279      10.09305
Nuclear contribution   :    -11.03879     -11.00829     -10.45227
                        -----------------------------------------
Total Dipole Moment    :     -1.11498      -1.67550      -0.35922
                        -----------------------------------------
Magnitude (a.u.)       :      2.04439
Magnitude (Debye)      :      5.19642

Rotational constants in cm-1:     0.010877     0.008864     0.006010
Rotational constants in MHz :   326.077800   265.749343   180.186821

                             ****ORCA TERMINATED NORMALLY****
TOTAL RUN TIME: 0 days 1 hours 42 minutes 52 seconds 667 msec
