                         Program Version 5.0.0 -  RELEASE  -
|  1> ! ri-mp2 cc-pvtz cc-pvtz/c TightSCF NoKeepInts
|  2>
|  3> %scf
|  4>   MaxCore 4096
|  5> end
|  6> *xyz  0  1
|  7>     C       15.0617008   15.7405605   17.3744539
|  8>     C       15.5223959   15.2494200   15.9854865
|  9>     O       16.9553264   15.1374862   15.7649895
| 10>     C       18.0466455   15.5916336   16.4727173
| 11>     O       19.0581583   14.9143822   16.4868600
| 12>     C       17.9097903   16.7595420   17.3977109
| 13>     C       17.3845188   17.9424018   16.9952663
| 14>     C       16.8375739   18.2853179   15.6245537
| 15>     N       17.4044359   19.0432126   17.8549307
| 16>     C       18.0849729   19.0912598   19.0429761
| 17>     S       18.1417669   20.4681247   19.9568457
| 18>     N       18.7214587   17.9394657   19.4335826
| 19>     C       18.6057897   16.6314671   18.7576578
| 20>     C       17.9153004   15.6023729   19.6497834
| 21>     C       18.3461280   14.2627840   19.6384314
| 22>     C       17.7156271   13.2986716   20.4421788
| 23>     C       16.6427550   13.6750941   21.2674303
| 24>     C       16.2081682   15.0070252   21.2821894
| 25>     O       15.1653651   15.3717126   22.0696737
| 26>     C       16.8373274   15.9651334   20.4808118
| 27>     H       15.5985090   15.2103366   18.1679719
| 28>     H       13.9967554   15.5124825   17.5047737
| 29>     H       15.1638163   16.8190752   17.5128317
| 30>     H       15.0848909   14.2570750   15.8143015
| 31>     H       15.0942871   15.9119063   15.2226640
| 32>     H       17.1881766   17.5880748   14.8539655
| 33>     H       17.1648056   19.2835773   15.3069247
| 34>     H       15.7414606   18.2763687   15.6194311
| 35>     H       16.9611687   19.9043900   17.5762229
| 36>     H       19.2060215   17.9991704   20.3202744
| 37>     H       19.6282594   16.2705829   18.5712280
| 38>     H       19.1699615   13.9648521   18.9929005
| 39>     H       18.0581244   12.2654519   20.4194834
| 40>     H       16.1518411   12.9328390   21.8881386
| 41>     H       14.8982031   14.5911030   22.5780671
| 42>     H       16.4755138   16.9876463   20.5062910
| 43> *
| 44>
| 45>                          ****END OF INPUT****

CARTESIAN COORDINATES (ANGSTROEM)
---------------------------------
  C     15.061701   15.740560   17.374454
  C     15.522396   15.249420   15.985487
  O     16.955326   15.137486   15.764990
  C     18.046646   15.591634   16.472717
  O     19.058158   14.914382   16.486860
  C     17.909790   16.759542   17.397711
  C     17.384519   17.942402   16.995266
  C     16.837574   18.285318   15.624554
  N     17.404436   19.043213   17.854931
  C     18.084973   19.091260   19.042976
  S     18.141767   20.468125   19.956846
  N     18.721459   17.939466   19.433583
  C     18.605790   16.631467   18.757658
  C     17.915300   15.602373   19.649783
  C     18.346128   14.262784   19.638431
  C     17.715627   13.298672   20.442179
  C     16.642755   13.675094   21.267430
  C     16.208168   15.007025   21.282189
  O     15.165365   15.371713   22.069674
  C     16.837327   15.965133   20.480812
  H     15.598509   15.210337   18.167972
  H     13.996755   15.512483   17.504774
  H     15.163816   16.819075   17.512832
  H     15.084891   14.257075   15.814301
  H     15.094287   15.911906   15.222664
  H     17.188177   17.588075   14.853965
  H     17.164806   19.283577   15.306925
  H     15.741461   18.276369   15.619431
  H     16.961169   19.904390   17.576223
  H     19.206021   17.999170   20.320274
  H     19.628259   16.270583   18.571228
  H     19.169961   13.964852   18.992901
  H     18.058124   12.265452   20.419483
  H     16.151841   12.932839   21.888139
  H     14.898203   14.591103   22.578067
  H     16.475514   16.987646   20.506291

 Total Charge           Charge          ....    0
 Multiplicity           Mult            ....    1
 Number of Electrons    NEL             ....  154
 Basis Dimension        Dim             ....  828

ORBITAL ENERGIES
----------------

  NO   OCC          E(Eh)            E(eV)
   0   2.0000     -91.890926     -2500.4792
   1   2.0000     -20.597796      -560.4945
   2   2.0000     -20.595513      -560.4324
   3   2.0000     -20.546143      -559.0890
   4   2.0000     -15.629499      -425.3003
   5   2.0000     -15.610946      -424.7954
   6   2.0000     -11.399957      -310.2086
   7   2.0000     -11.387035      -309.8570
   8   2.0000     -11.333287      -308.3944
   9   2.0000     -11.314526      -307.8839
  10   2.0000     -11.313513      -307.8563
  11   2.0000     -11.312442      -307.8272
  12   2.0000     -11.268636      -306.6352
  13   2.0000     -11.264946      -306.5348
  14   2.0000     -11.261659      -306.4453
  15   2.0000     -11.254905      -306.2615
  16   2.0000     -11.244024      -305.9654
  17   2.0000     -11.239621      -305.8456
  18   2.0000     -11.236299      -305.7552
  19   2.0000     -11.235725      -305.7396
  20   2.0000      -8.896015      -242.0729
  21   2.0000      -6.577598      -178.9855
  22   2.0000      -6.575578      -178.9306
  23   2.0000      -6.574997      -178.9148
  24   2.0000      -1.440832       -39.2070
  25   2.0000      -1.417611       -38.5751
  26   2.0000      -1.353433       -36.8288
  27   2.0000      -1.341882       -36.5145
  28   2.0000      -1.240495       -33.7556
  29   2.0000      -1.158990       -31.5377
  30   2.0000      -1.124775       -30.6067
  31   2.0000      -1.047248       -28.4971
  32   2.0000      -1.041504       -28.3408
  33   2.0000      -1.017203       -27.6795
  34   2.0000      -1.005184       -27.3525
  35   2.0000      -0.990377       -26.9495
  36   2.0000      -0.927946       -25.2507
  37   2.0000      -0.901720       -24.5370
  38   2.0000      -0.854272       -23.2459
  39   2.0000      -0.840963       -22.8838
  40   2.0000      -0.834534       -22.7088
  41   2.0000      -0.827167       -22.5084
  42   2.0000      -0.744988       -20.2722
  43   2.0000      -0.733541       -19.9607
  44   2.0000      -0.730591       -19.8804
  45   2.0000      -0.694989       -18.9116
  46   2.0000      -0.686676       -18.6854
  47   2.0000      -0.678784       -18.4706
  48   2.0000      -0.674319       -18.3492
  49   2.0000      -0.660457       -17.9719
  50   2.0000      -0.658829       -17.9277
  51   2.0000      -0.652016       -17.7423
  52   2.0000      -0.642177       -17.4745
  53   2.0000      -0.616610       -16.7788
  54   2.0000      -0.607254       -16.5242
  55   2.0000      -0.605019       -16.4634
  56   2.0000      -0.602171       -16.3859
  57   2.0000      -0.590666       -16.0728
  58   2.0000      -0.576433       -15.6855
  59   2.0000      -0.571090       -15.5402
  60   2.0000      -0.565338       -15.3836
  61   2.0000      -0.556770       -15.1505
  62   2.0000      -0.543983       -14.8025
  63   2.0000      -0.530967       -14.4483
  64   2.0000      -0.521981       -14.2038
  65   2.0000      -0.513928       -13.9847
  66   2.0000      -0.501223       -13.6390
  67   2.0000      -0.494915       -13.4673
  68   2.0000      -0.483279       -13.1507
  69   2.0000      -0.469176       -12.7669
  70   2.0000      -0.455915       -12.4061
  71   2.0000      -0.447770       -12.1844
  72   2.0000      -0.356545        -9.7021
  73   2.0000      -0.348899        -9.4940
  74   2.0000      -0.330396        -8.9905
  75   2.0000      -0.323089        -8.7917
  76   2.0000      -0.319081        -8.6826
  77   0.0000       0.080441         2.1889
  78   0.0000       0.107616         2.9284
  79   0.0000       0.115082         3.1315
  80   0.0000       0.129740         3.5304
  81   0.0000       0.131135         3.5684

MULLIKEN ATOMIC CHARGES
-----------------------
   0 C :   -0.348472
   1 C :    0.048026
   2 O :   -0.340225
   3 C :    0.432522
   4 O :   -0.386574
   5 C :   -0.210790
   6 C :    0.138834
   7 C :   -0.330951
   8 N :   -0.137675
   9 C :    0.199773
  10 S :   -0.438782
  11 N :   -0.221439
  12 C :    0.084640
  13 C :    0.016365
  14 C :   -0.209378
  15 C :   -0.135987
  16 C :   -0.276520
  17 C :    0.319115
  18 O :   -0.357704
  19 C :   -0.271382
  20 H :    0.132677
  21 H :    0.123408
  22 H :    0.107234
  23 H :    0.128312
  24 H :    0.087835
  25 H :    0.138657
  26 H :    0.133391
  27 H :    0.119876
  28 H :    0.197634
  29 H :    0.201055
  30 H :    0.166388
  31 H :    0.177144
  32 H :    0.163899
  33 H :    0.132018
  34 H :    0.241070
  35 H :    0.176007
Sum of atomic charges:   -0.0000000

LOEWDIN ATOMIC CHARGES
----------------------
   0 C :    0.105250
   1 C :   -0.013958
   2 O :    0.288341
   3 C :   -0.416565
   4 O :    0.119866
   5 C :   -0.083636
   6 C :   -0.091058
   7 C :    0.127140
   8 N :    0.403452
   9 C :   -0.458116
  10 S :   -0.036099
  11 N :    0.398129
  12 C :   -0.043006
  13 C :   -0.043950
  14 C :    0.019314
  15 C :    0.043530
  16 C :   -0.001697
  17 C :   -0.194088
  18 O :    0.395193
  19 C :    0.027567
  20 H :   -0.022663
  21 H :   -0.020643
  22 H :   -0.036007
  23 H :   -0.018466
  24 H :   -0.034354
  25 H :   -0.006599
  26 H :   -0.011124
  27 H :   -0.018368
  28 H :   -0.057675
  29 H :   -0.063428
  30 H :   -0.002116
  31 H :   -0.021768
  32 H :   -0.018693
  33 H :   -0.035062
  34 H :   -0.153597
  35 H :   -0.025046

  Mayer bond orders larger than 0.100000
B(  0-C ,  1-C ) :   0.9599 B(  0-C , 20-H ) :   0.9639 B(  0-C , 21-H ) :   0.9778
B(  0-C , 22-H ) :   0.9731 B(  1-C ,  2-O ) :   0.9027 B(  1-C , 23-H ) :   0.9787
B(  1-C , 24-H ) :   0.9761 B(  2-O ,  3-C ) :   1.1725 B(  3-C ,  4-O ) :   2.0709
B(  3-C ,  5-C ) :   0.9402 B(  5-C ,  6-C ) :   1.6938 B(  5-C , 12-C ) :   0.9525
B(  6-C ,  7-C ) :   0.9426 B(  6-C ,  8-N ) :   1.1048 B(  7-C , 25-H ) :   0.9750
B(  7-C , 26-H ) :   0.9781 B(  7-C , 27-H ) :   0.9638 B(  8-N ,  9-C ) :   1.1917
B(  8-N , 28-H ) :   0.9511 B(  9-C , 10-S ) :   1.6112 B(  9-C , 11-N ) :   1.2906
B( 11-N , 12-C ) :   0.9875 B( 11-N , 29-H ) :   0.9488 B( 12-C , 13-C ) :   0.9478
B( 12-C , 30-H ) :   0.9950 B( 13-C , 14-C ) :   1.3915 B( 13-C , 19-C ) :   1.3447
B( 14-C , 15-C ) :   1.3989 B( 14-C , 31-H ) :   0.9570 B( 15-C , 16-C ) :   1.3606
B( 15-C , 32-H ) :   0.9702 B( 16-C , 17-C ) :   1.3301 B( 16-C , 33-H ) :   0.9847
B( 17-C , 18-O ) :   1.1107 B( 17-C , 19-C ) :   1.3681 B( 18-O , 34-H ) :   0.9796
B( 19-C , 35-H ) :   0.9581

MP2 TOTAL ENERGY:    -1274.326178053 Eh
FINAL SINGLE POINT ENERGY     -1274.326178052841

DIPOLE MOMENT
-------------
                                X             Y             Z
Electronic contribution:      9.55846       5.81294       6.56798
Nuclear contribution   :    -11.19562      -6.85011      -7.13030
                        -----------------------------------------
Total Dipole Moment    :     -1.63716      -1.03717      -0.56233
                        -----------------------------------------
Magnitude (a.u.)       :      2.01798
Magnitude (Debye)      :      5.12929

Rotational constants in cm-1:     0.011426     0.009683     0.006771
Rotational constants in MHz :   342.544187   290.296508   202.976304

                             ****ORCA TERMINATED NORMALLY****
TOTAL RUN TIME: 0 days 2 hours 19 minutes 31 seconds 986 msec
