                         Program Version 5.0.0 -  RELEASE  -
|  1> ! ri-mp2 cc-pvtz cc-pvtz/c TightSCF NoKeepInts
|  2>
|  3> %scf
|  4>   MaxCore 4096
|  5> end
|  6> *xyz  0  1
|  7>     C       14.2035625   15.6147563   16.1966203
|  8>     C       15.4511556   15.3171612   17.0473162
|  9>     O       16.5854754   15.2345364   16.1588265
| 10>     C       17.8399787   15.6516523   16.5234840
| 11>     O       18.7939527   14.9121563   16.3660231
| 12>     C       17.9236297   16.8461789   17.4204418
| 13>     C       17.3113718   18.0248127   17.1570067
| 14>     C       16.5025368   18.3878526   15.9319305
| 15>     N       17.4730554   19.1027134   18.0305094
| 16>     C       18.3067011   19.1082769   19.1184585
| 17>     S       18.4894471   20.4511840   20.0655967
| 18>     N       18.9787129   17.9409450   19.3856007
| 19>     C       18.7936316   16.6665516   18.6638626
| 20>     C       18.1921609   15.5989020   19.5726073
| 21>     C       18.7342437   14.3010308   19.5962305
| 22>     C       18.1671324   13.3026390   20.4055658
| 23>     C       17.0448523   13.6023308   21.1962859
| 24>     C       16.4972682   14.8918268   21.1702198
| 25>     O       15.4044037   15.1812894   21.9200009
| 26>     C       17.0635057   15.8837872   20.3634037
| 27>     H       13.3166917   15.7063419   16.8355350
| 28>     H       14.0261544   14.7994246   15.4839494
| 29>     H       14.3149457   16.5439186   15.6282915
| 30>     H       15.5591239   16.1114986   17.7948900
| 31>     H       15.3301745   14.3672944   17.5850760
| 32>     H       16.5552523   17.6185632   15.1522945
| 33>     H       16.8756729   19.3153308   15.4792057
| 34>     H       15.4478479   18.5411133   16.1890517
| 35>     H       16.9997830   19.9730482   17.8441073
| 36>     H       19.5698929   17.9672457   20.2069037
| 37>     H       19.7846000   16.3212778   18.3335247
| 38>     H       19.5896582   14.0604434   18.9683672
| 39>     H       18.5938285   12.3009459   20.4106064
| 40>     H       16.6020281   12.8325315   21.8197537
| 41>     H       15.2021277   14.3974726   22.4533710
| 42>     H       16.6224399   16.8749657   20.3590811
| 43> *
| 44>
| 45>                          ****END OF INPUT****

CARTESIAN COORDINATES (ANGSTROEM)
---------------------------------
  C     14.203562   15.614756   16.196620
  C     15.451156   15.317161   17.047316
  O     16.585475   15.234536   16.158826
  C     17.839979   15.651652   16.523484
  O     18.793953   14.912156   16.366023
  C     17.923630   16.846179   17.420442
  C     17.311372   18.024813   17.157007
  C     16.502537   18.387853   15.931930
  N     17.473055   19.102713   18.030509
  C     18.306701   19.108277   19.118458
  S     18.489447   20.451184   20.065597
  N     18.978713   17.940945   19.385601
  C     18.793632   16.666552   18.663863
  C     18.192161   15.598902   19.572607
  C     18.734244   14.301031   19.596230
  C     18.167132   13.302639   20.405566
  C     17.044852   13.602331   21.196286
  C     16.497268   14.891827   21.170220
  O     15.404404   15.181289   21.920001
  C     17.063506   15.883787   20.363404
  H     13.316692   15.706342   16.835535
  H     14.026154   14.799425   15.483949
  H     14.314946   16.543919   15.628291
  H     15.559124   16.111499   17.794890
  H     15.330174   14.367294   17.585076
  H     16.555252   17.618563   15.152294
  H     16.875673   19.315331   15.479206
  H     15.447848   18.541113   16.189052
  H     16.999783   19.973048   17.844107
  H     19.569893   17.967246   20.206904
  H     19.784600   16.321278   18.333525
  H     19.589658   14.060443   18.968367
  H     18.593829   12.300946   20.410606
  H     16.602028   12.832531   21.819754
  H     15.202128   14.397473   22.453371
  H     16.622440   16.874966   20.359081

 Total Charge           Charge          ....    0
 Multiplicity           Mult            ....    1
 Number of Electrons    NEL             ....  154
 Basis Dimension        Dim             ....  828

ORBITAL ENERGIES
----------------

  NO   OCC          E(Eh)            E(eV)
   0   2.0000     -91.890745     -2500.4743
   1   2.0000     -20.599674      -560.5456
   2   2.0000     -20.595864      -560.4419
   3   2.0000     -20.551561      -559.2364
   4   2.0000     -15.628854      -425.2827
   5   2.0000     -15.611473      -424.8098
   6   2.0000     -11.396915      -310.1258
   7   2.0000     -11.387208      -309.8617
   8   2.0000     -11.332890      -308.3836
   9   2.0000     -11.316235      -307.9304
  10   2.0000     -11.313065      -307.8442
  11   2.0000     -11.303681      -307.5888
  12   2.0000     -11.267071      -306.5926
  13   2.0000     -11.264764      -306.5298
  14   2.0000     -11.262402      -306.4656
  15   2.0000     -11.256053      -306.2928
  16   2.0000     -11.245689      -306.0108
  17   2.0000     -11.241976      -305.9097
  18   2.0000     -11.238695      -305.8204
  19   2.0000     -11.235763      -305.7406
  20   2.0000      -8.895845      -242.0683
  21   2.0000      -6.577428      -178.9809
  22   2.0000      -6.575408      -178.9260
  23   2.0000      -6.574828      -178.9102
  24   2.0000      -1.447644       -39.3924
  25   2.0000      -1.419469       -38.6257
  26   2.0000      -1.358979       -36.9797
  27   2.0000      -1.341657       -36.5083
  28   2.0000      -1.240662       -33.7601
  29   2.0000      -1.160938       -31.5907
  30   2.0000      -1.125483       -30.6260
  31   2.0000      -1.048415       -28.5288
  32   2.0000      -1.040691       -28.3186
  33   2.0000      -1.018261       -27.7083
  34   2.0000      -1.005140       -27.3512
  35   2.0000      -0.989620       -26.9289
  36   2.0000      -0.927563       -25.2403
  37   2.0000      -0.884157       -24.0591
  38   2.0000      -0.854225       -23.2446
  39   2.0000      -0.842886       -22.9361
  40   2.0000      -0.836633       -22.7659
  41   2.0000      -0.835839       -22.7443
  42   2.0000      -0.757982       -20.6257
  43   2.0000      -0.739294       -20.1172
  44   2.0000      -0.731919       -19.9165
  45   2.0000      -0.697526       -18.9807
  46   2.0000      -0.687987       -18.7211
  47   2.0000      -0.682480       -18.5712
  48   2.0000      -0.676731       -18.4148
  49   2.0000      -0.663175       -18.0459
  50   2.0000      -0.653003       -17.7691
  51   2.0000      -0.641298       -17.4506
  52   2.0000      -0.638666       -17.3790
  53   2.0000      -0.618935       -16.8421
  54   2.0000      -0.608692       -16.5634
  55   2.0000      -0.607966       -16.5436
  56   2.0000      -0.603270       -16.4158
  57   2.0000      -0.586220       -15.9519
  58   2.0000      -0.577969       -15.7273
  59   2.0000      -0.569318       -15.4919
  60   2.0000      -0.563220       -15.3260
  61   2.0000      -0.557188       -15.1619
  62   2.0000      -0.541445       -14.7335
  63   2.0000      -0.532541       -14.4912
  64   2.0000      -0.523982       -14.2583
  65   2.0000      -0.516280       -14.0487
  66   2.0000      -0.502511       -13.6740
  67   2.0000      -0.497612       -13.5407
  68   2.0000      -0.488704       -13.2983
  69   2.0000      -0.469702       -12.7812
  70   2.0000      -0.459785       -12.5114
  71   2.0000      -0.449459       -12.2304
  72   2.0000      -0.357583        -9.7303
  73   2.0000      -0.351700        -9.5703
  74   2.0000      -0.330268        -8.9871
  75   2.0000      -0.323886        -8.8134
  76   2.0000      -0.319140        -8.6842
  77   0.0000       0.078998         2.1497
  78   0.0000       0.104080         2.8322
  79   0.0000       0.115965         3.1556
  80   0.0000       0.129339         3.5195
  81   0.0000       0.133215         3.6250

MULLIKEN ATOMIC CHARGES
-----------------------
   0 C :   -0.271583
   1 C :    0.014023
   2 O :   -0.336013
   3 C :    0.425517
   4 O :   -0.380549
   5 C :   -0.212062
   6 C :    0.148046
   7 C :   -0.339254
   8 N :   -0.133173
   9 C :    0.199816
  10 S :   -0.439209
  11 N :   -0.207623
  12 C :    0.066230
  13 C :    0.037018
  14 C :   -0.186636
  15 C :   -0.130037
  16 C :   -0.278506
  17 C :    0.317440
  18 O :   -0.357900
  19 C :   -0.294119
  20 H :    0.096171
  21 H :    0.109986
  22 H :    0.091321
  23 H :    0.098397
  24 H :    0.126759
  25 H :    0.135052
  26 H :    0.142745
  27 H :    0.122008
  28 H :    0.197273
  29 H :    0.196862
  30 H :    0.162655
  31 H :    0.165938
  32 H :    0.163353
  33 H :    0.132126
  34 H :    0.241841
  35 H :    0.176086
Sum of atomic charges:    0.0000000

LOEWDIN ATOMIC CHARGES
----------------------
   0 C :    0.107560
   1 C :   -0.016033
   2 O :    0.297818
   3 C :   -0.415525
   4 O :    0.127820
   5 C :   -0.087019
   6 C :   -0.093649
   7 C :    0.125666
   8 N :    0.402816
   9 C :   -0.457159
  10 S :   -0.036140
  11 N :    0.397245
  12 C :   -0.045413
  13 C :   -0.044007
  14 C :    0.022636
  15 C :    0.044855
  16 C :   -0.000432
  17 C :   -0.194445
  18 O :    0.393956
  19 C :    0.027430
  20 H :   -0.023907
  21 H :   -0.023830
  22 H :   -0.032827
  23 H :   -0.039793
  24 H :   -0.024543
  25 H :   -0.008868
  26 H :   -0.010353
  27 H :   -0.017033
  28 H :   -0.056963
  29 H :   -0.063443
  30 H :   -0.002857
  31 H :   -0.022100
  32 H :   -0.018745
  33 H :   -0.034701
  34 H :   -0.152941
  35 H :   -0.025077

  Mayer bond orders larger than 0.100000
B(  0-C ,  1-C ) :   0.9738 B(  0-C , 20-H ) :   0.9758 B(  0-C , 21-H ) :   0.9796
B(  0-C , 22-H ) :   0.9787 B(  1-C ,  2-O ) :   0.8988 B(  1-C , 23-H ) :   0.9616
B(  1-C , 24-H ) :   0.9798 B(  2-O ,  3-C ) :   1.1645 B(  3-C ,  4-O ) :   2.0947
B(  3-C ,  5-C ) :   0.9405 B(  5-C ,  6-C ) :   1.6744 B(  5-C , 12-C ) :   0.9595
B(  6-C ,  7-C ) :   0.9434 B(  6-C ,  8-N ) :   1.1240 B(  7-C , 25-H ) :   0.9773
B(  7-C , 26-H ) :   0.9726 B(  7-C , 27-H ) :   0.9648 B(  8-N ,  9-C ) :   1.1900
B(  8-N , 28-H ) :   0.9515 B(  9-C , 10-S ) :   1.6137 B(  9-C , 11-N ) :   1.2919
B( 11-N , 12-C ) :   0.9991 B( 11-N , 29-H ) :   0.9502 B( 12-C , 13-C ) :   0.9409
B( 12-C , 30-H ) :   0.9979 B( 13-C , 14-C ) :   1.3864 B( 13-C , 19-C ) :   1.3471
B( 14-C , 15-C ) :   1.3957 B( 14-C , 31-H ) :   0.9609 B( 15-C , 16-C ) :   1.3644
B( 15-C , 32-H ) :   0.9701 B( 16-C , 17-C ) :   1.3285 B( 16-C , 33-H ) :   0.9845
B( 17-C , 18-O ) :   1.1113 B( 17-C , 19-C ) :   1.3707 B( 18-O , 34-H ) :   0.9792
B( 19-C , 35-H ) :   0.9567

MP2 TOTAL ENERGY:    -1274.333443836 Eh
FINAL SINGLE POINT ENERGY     -1274.333443836498

DIPOLE MOMENT
-------------
                                X             Y             Z
Electronic contribution:     11.82681       5.86706       7.51165
Nuclear contribution   :    -13.31296      -6.88533      -7.74994
                        -----------------------------------------
Total Dipole Moment    :     -1.48615      -1.01827      -0.23829
                        -----------------------------------------
Magnitude (a.u.)       :      1.81723
Magnitude (Debye)      :      4.61902

Rotational constants in cm-1:     0.011193     0.009326     0.006845
Rotational constants in MHz :   335.548282   279.575119   205.212848

                             ****ORCA TERMINATED NORMALLY****
TOTAL RUN TIME: 0 days 2 hours 2 minutes 7 seconds 154 msec
