                         Program Version 5.0.0 -  RELEASE  -
|  1> ! ri-mp2 cc-pvtz cc-pvtz/c TightSCF NoKeepInts
|  2>
|  3> %scf
|  4>   MaxCore 4096
|  5> end
|  6> *xyz  0  1
|  7>     C       15.1149735   15.2464132   17.2140817
|  8>     C       15.7344339   14.9117956   15.8428779
|  9>     O       16.8490497   15.7714611   15.5243250
| 10>     C       17.9387862   15.8209910   16.3455179
| 11>     O       18.6036197   14.8155363   16.5245432
| 12>     C       17.8956050   16.9190890   17.3711958
| 13>     C       17.2929265   18.1188860   17.1665763
| 14>     C       16.5683745   18.5913528   15.9222081
| 15>     N       17.4028212   19.1245435   18.1323202
| 16>     C       18.2587813   19.0866329   19.2016626
| 17>     S       18.4574806   20.3852362   20.2061026
| 18>     N       18.9425280   17.9125212   19.3943475
| 19>     C       18.6709818   16.6561025   18.6694289
| 20>     C       17.9418710   15.6624551   19.5715057
| 21>     C       18.3674934   14.3228525   19.6395301
| 22>     C       17.6984422   13.3973286   20.4575884
| 23>     C       16.5925035   13.8131942   21.2177961
| 24>     C       16.1636618   15.1455970   21.1537865
| 25>     O       15.0898283   15.5482897   21.8787027
| 26>     C       16.8312150   16.0645903   20.3380896
| 27>     H       15.7804435   14.9325454   18.0247871
| 28>     H       14.1690240   14.7066113   17.3426222
| 29>     H       14.9087064   16.3178616   17.3148314
| 30>     H       16.0611105   13.8628826   15.8376938
| 31>     H       14.9673542   15.0252685   15.0661741
| 32>     H       15.5775200   18.1289382   15.8439110
| 33>     H       17.1329159   18.3299922   15.0182950
| 34>     H       16.4288303   19.6791797   15.9049254
| 35>     H       16.9134351   19.9958143   18.0034359
| 36>     H       19.5494747   17.9002501   20.2040623
| 37>     H       19.6415621   16.2164741   18.3969846
| 38>     H       19.2134048   13.9936937   19.0401703
| 39>     H       18.0358779   12.3630168   20.4949943
| 40>     H       16.0716057   13.1010088   21.8490934
| 41>     H       14.8021680   14.7941136   22.4148481
| 42>     H       16.4781896   17.0894802   20.3049842
| 43> *
| 44>
| 45>                          ****END OF INPUT****

CARTESIAN COORDINATES (ANGSTROEM)
---------------------------------
  C     15.114973   15.246413   17.214082
  C     15.734434   14.911796   15.842878
  O     16.849050   15.771461   15.524325
  C     17.938786   15.820991   16.345518
  O     18.603620   14.815536   16.524543
  C     17.895605   16.919089   17.371196
  C     17.292927   18.118886   17.166576
  C     16.568375   18.591353   15.922208
  N     17.402821   19.124544   18.132320
  C     18.258781   19.086633   19.201663
  S     18.457481   20.385236   20.206103
  N     18.942528   17.912521   19.394347
  C     18.670982   16.656102   18.669429
  C     17.941871   15.662455   19.571506
  C     18.367493   14.322852   19.639530
  C     17.698442   13.397329   20.457588
  C     16.592503   13.813194   21.217796
  C     16.163662   15.145597   21.153786
  O     15.089828   15.548290   21.878703
  C     16.831215   16.064590   20.338090
  H     15.780444   14.932545   18.024787
  H     14.169024   14.706611   17.342622
  H     14.908706   16.317862   17.314831
  H     16.061111   13.862883   15.837694
  H     14.967354   15.025268   15.066174
  H     15.577520   18.128938   15.843911
  H     17.132916   18.329992   15.018295
  H     16.428830   19.679180   15.904925
  H     16.913435   19.995814   18.003436
  H     19.549475   17.900250   20.204062
  H     19.641562   16.216474   18.396985
  H     19.213405   13.993694   19.040170
  H     18.035878   12.363017   20.494994
  H     16.071606   13.101009   21.849093
  H     14.802168   14.794114   22.414848
  H     16.478190   17.089480   20.304984

 Total Charge           Charge          ....    0
 Multiplicity           Mult            ....    1
 Number of Electrons    NEL             ....  154
 Basis Dimension        Dim             ....  828

ORBITAL ENERGIES
----------------

  NO   OCC          E(Eh)            E(eV)
   0   2.0000     -91.890616     -2500.4708
   1   2.0000     -20.595180      -560.4233
   2   2.0000     -20.582350      -560.0742
   3   2.0000     -20.553550      -559.2905
   4   2.0000     -15.631005      -425.3413
   5   2.0000     -15.608949      -424.7411
   6   2.0000     -11.395237      -310.0802
   7   2.0000     -11.385475      -309.8145
   8   2.0000     -11.337376      -308.5057
   9   2.0000     -11.311496      -307.8014
  10   2.0000     -11.309036      -307.7345
  11   2.0000     -11.303156      -307.5745
  12   2.0000     -11.262208      -306.4603
  13   2.0000     -11.261708      -306.4467
  14   2.0000     -11.257639      -306.3359
  15   2.0000     -11.251921      -306.1803
  16   2.0000     -11.241530      -305.8976
  17   2.0000     -11.236954      -305.7731
  18   2.0000     -11.233862      -305.6889
  19   2.0000     -11.227624      -305.5192
  20   2.0000      -8.895662      -242.0633
  21   2.0000      -6.577235      -178.9757
  22   2.0000      -6.575231      -178.9211
  23   2.0000      -6.574639      -178.9050
  24   2.0000      -1.449242       -39.4359
  25   2.0000      -1.415008       -38.5043
  26   2.0000      -1.354253       -36.8511
  27   2.0000      -1.341882       -36.5145
  28   2.0000      -1.239315       -33.7235
  29   2.0000      -1.155707       -31.4484
  30   2.0000      -1.121510       -30.5178
  31   2.0000      -1.044057       -28.4102
  32   2.0000      -1.032945       -28.1079
  33   2.0000      -1.013618       -27.5820
  34   2.0000      -1.001002       -27.2387
  35   2.0000      -0.987444       -26.8697
  36   2.0000      -0.924605       -25.1598
  37   2.0000      -0.894077       -24.3291
  38   2.0000      -0.849968       -23.1288
  39   2.0000      -0.839347       -22.8398
  40   2.0000      -0.831785       -22.6340
  41   2.0000      -0.818290       -22.2668
  42   2.0000      -0.750143       -20.4124
  43   2.0000      -0.733830       -19.9685
  44   2.0000      -0.727913       -19.8075
  45   2.0000      -0.693884       -18.8815
  46   2.0000      -0.687340       -18.7035
  47   2.0000      -0.676096       -18.3975
  48   2.0000      -0.672831       -18.3087
  49   2.0000      -0.661282       -17.9944
  50   2.0000      -0.653616       -17.7858
  51   2.0000      -0.646692       -17.5974
  52   2.0000      -0.638721       -17.3805
  53   2.0000      -0.613388       -16.6911
  54   2.0000      -0.603006       -16.4086
  55   2.0000      -0.601680       -16.3725
  56   2.0000      -0.599117       -16.3028
  57   2.0000      -0.583001       -15.8643
  58   2.0000      -0.575124       -15.6499
  59   2.0000      -0.562503       -15.3065
  60   2.0000      -0.559028       -15.2119
  61   2.0000      -0.549047       -14.9403
  62   2.0000      -0.546071       -14.8594
  63   2.0000      -0.527083       -14.3427
  64   2.0000      -0.520500       -14.1635
  65   2.0000      -0.512916       -13.9572
  66   2.0000      -0.499647       -13.5961
  67   2.0000      -0.491816       -13.3830
  68   2.0000      -0.481001       -13.0887
  69   2.0000      -0.464417       -12.6374
  70   2.0000      -0.455803       -12.4030
  71   2.0000      -0.450838       -12.2679
  72   2.0000      -0.356738        -9.7073
  73   2.0000      -0.346742        -9.4353
  74   2.0000      -0.329695        -8.9714
  75   2.0000      -0.319956        -8.7065
  76   2.0000      -0.317407        -8.6371
  77   0.0000       0.068294         1.8584
  78   0.0000       0.107267         2.9189
  79   0.0000       0.119400         3.2490
  80   0.0000       0.133008         3.6193
  81   0.0000       0.134934         3.6717

MULLIKEN ATOMIC CHARGES
-----------------------
   0 C :   -0.338292
   1 C :    0.041760
   2 O :   -0.383560
   3 C :    0.469956
   4 O :   -0.399823
   5 C :   -0.198667
   6 C :    0.139421
   7 C :   -0.283900
   8 N :   -0.123909
   9 C :    0.187769
  10 S :   -0.434526
  11 N :   -0.199803
  12 C :    0.049338
  13 C :    0.025701
  14 C :   -0.172005
  15 C :   -0.139964
  16 C :   -0.275483
  17 C :    0.310090
  18 O :   -0.359027
  19 C :   -0.257898
  20 H :    0.126885
  21 H :    0.119024
  22 H :    0.098915
  23 H :    0.111385
  24 H :    0.111556
  25 H :    0.119017
  26 H :    0.132019
  27 H :    0.107006
  28 H :    0.197452
  29 H :    0.193937
  30 H :    0.158440
  31 H :    0.164180
  32 H :    0.161509
  33 H :    0.131003
  34 H :    0.240603
  35 H :    0.169890
Sum of atomic charges:   -0.0000000

LOEWDIN ATOMIC CHARGES
----------------------
   0 C :    0.105327
   1 C :   -0.017645
   2 O :    0.281561
   3 C :   -0.416901
   4 O :    0.125493
   5 C :   -0.093000
   6 C :   -0.069032
   7 C :    0.126179
   8 N :    0.405960
   9 C :   -0.460242
  10 S :   -0.033430
  11 N :    0.397400
  12 C :   -0.045042
  13 C :   -0.042285
  14 C :    0.019759
  15 C :    0.041074
  16 C :   -0.002260
  17 C :   -0.194202
  18 O :    0.394595
  19 C :    0.029466
  20 H :   -0.024496
  21 H :   -0.023040
  22 H :   -0.032398
  23 H :   -0.025763
  24 H :   -0.023376
  25 H :   -0.013888
  26 H :   -0.006097
  27 H :   -0.019410
  28 H :   -0.058705
  29 H :   -0.063847
  30 H :   -0.002984
  31 H :   -0.023798
  32 H :   -0.020018
  33 H :   -0.035555
  34 H :   -0.154215
  35 H :   -0.025181

  Mayer bond orders larger than 0.100000
B(  0-C ,  1-C ) :   0.9598 B(  0-C , 20-H ) :   0.9649 B(  0-C , 21-H ) :   0.9786
B(  0-C , 22-H ) :   0.9732 B(  1-C ,  2-O ) :   0.8929 B(  1-C , 23-H ) :   0.9838
B(  1-C , 24-H ) :   0.9831 B(  2-O ,  3-C ) :   1.0885 B(  3-C ,  4-O ) :   2.0215
B(  3-C ,  5-C ) :   1.0308 B(  5-C ,  6-C ) :   1.6619 B(  5-C , 12-C ) :   0.9592
B(  6-C ,  7-C ) :   0.9546 B(  6-C ,  8-N ) :   1.1338 B(  7-C , 25-H ) :   0.9642
B(  7-C , 26-H ) :   0.9664 B(  7-C , 27-H ) :   0.9898 B(  8-N ,  9-C ) :   1.1785
B(  8-N , 28-H ) :   0.9490 B(  9-C , 10-S ) :   1.6171 B(  9-C , 11-N ) :   1.2993
B( 11-N , 12-C ) :   0.9843 B( 11-N , 29-H ) :   0.9522 B( 12-C , 13-C ) :   0.9472
B( 12-C , 30-H ) :   0.9984 B( 13-C , 14-C ) :   1.3884 B( 13-C , 19-C ) :   1.3574
B( 14-C , 15-C ) :   1.3956 B( 14-C , 31-H ) :   0.9601 B( 15-C , 16-C ) :   1.3626
B( 15-C , 32-H ) :   0.9711 B( 16-C , 17-C ) :   1.3302 B( 16-C , 33-H ) :   0.9849
B( 17-C , 18-O ) :   1.1113 B( 17-C , 19-C ) :   1.3762 B( 18-O , 34-H ) :   0.9801
B( 19-C , 35-H ) :   0.9582

MP2 TOTAL ENERGY:    -1274.326415094 Eh
FINAL SINGLE POINT ENERGY     -1274.326415094350

DIPOLE MOMENT
-------------
                                X             Y             Z
Electronic contribution:      9.83910       7.73504       6.35024
Nuclear contribution   :    -11.20517      -8.91519      -7.03235
                        -----------------------------------------
Total Dipole Moment    :     -1.36607      -1.18015      -0.68211
                        -----------------------------------------
Magnitude (a.u.)       :      1.92981
Magnitude (Debye)      :      4.90520

Rotational constants in cm-1:     0.011314     0.009955     0.006771
Rotational constants in MHz :   339.181570   298.431237   202.979598

                             ****ORCA TERMINATED NORMALLY****
TOTAL RUN TIME: 0 days 1 hours 59 minutes 29 seconds 781 msec
