                         Program Version 5.0.0 -  RELEASE  -
|  1> ! ri-mp2 cc-pvtz cc-pvtz/c TightSCF NoKeepInts
|  2>
|  3> %scf
|  4>   MaxCore 4096
|  5> end
|  6> *xyz  0  1
|  7>     C       15.9002670   13.8037479   14.8342145
|  8>     C       15.2656238   14.7254689   15.8908681
|  9>     O       16.3362945   15.4163250   16.5619089
| 10>     C       16.0242522   16.3018077   17.5537380
| 11>     O       14.8850436   16.7087507   17.7126055
| 12>     C       17.2134521   17.1478679   17.8427635
| 13>     C       17.3420696   18.3765432   17.2974690
| 14>     C       16.4009560   18.9973368   16.2894682
| 15>     N       18.4550326   19.1615568   17.6138241
| 16>     C       19.3577733   18.8568130   18.6015989
| 17>     S       20.5838077   19.8865978   19.0177243
| 18>     N       19.2004434   17.6412233   19.2216677
| 19>     C       18.2887220   16.5767460   18.7681407
| 20>     C       17.7400134   15.7699779   19.9404184
| 21>     C       18.3098788   14.5192957   20.2402757
| 22>     C       17.8088512   13.7360692   21.2925675
| 23>     C       16.7382576   14.2139531   22.0661809
| 24>     C       16.1934576   15.4774968   21.7985837
| 25>     O       15.1825942   15.9549741   22.5685373
| 26>     C       16.6867860   16.2516021   20.7409487
| 27>     H       16.3846243   14.4099716   14.0542146
| 28>     H       15.1418732   13.1711775   14.3528491
| 29>     H       16.6564364   13.1489516   15.2838306
| 30>     H       14.5739779   15.4329065   15.4141608
| 31>     H       14.7016958   14.1227298   16.6164394
| 32>     H       16.1097746   18.2638427   15.5247945
| 33>     H       16.8506551   19.8507429   15.7706195
| 34>     H       15.4831235   19.3392753   16.7827648
| 35>     H       18.5828498   20.0540560   17.1638338
| 36>     H       19.8364401   17.4685085   19.9889846
| 37>     H       18.8908035   15.8944484   18.1535923
| 38>     H       19.1391825   14.1449242   19.6462090
| 39>     H       18.2530698   12.7650011   21.5086542
| 40>     H       16.3436883   13.6095528   22.8763770
| 41>     H       15.0419120   15.3284537   23.2954268
| 42>     H       16.2433165   17.2233038   20.5477453
| 43> *
| 44>
| 45>                          ****END OF INPUT****

CARTESIAN COORDINATES (ANGSTROEM)
---------------------------------
  C     15.900267   13.803748   14.834214
  C     15.265624   14.725469   15.890868
  O     16.336295   15.416325   16.561909
  C     16.024252   16.301808   17.553738
  O     14.885044   16.708751   17.712605
  C     17.213452   17.147868   17.842764
  C     17.342070   18.376543   17.297469
  C     16.400956   18.997337   16.289468
  N     18.455033   19.161557   17.613824
  C     19.357773   18.856813   18.601599
  S     20.583808   19.886598   19.017724
  N     19.200443   17.641223   19.221668
  C     18.288722   16.576746   18.768141
  C     17.740013   15.769978   19.940418
  C     18.309879   14.519296   20.240276
  C     17.808851   13.736069   21.292568
  C     16.738258   14.213953   22.066181
  C     16.193458   15.477497   21.798584
  O     15.182594   15.954974   22.568537
  C     16.686786   16.251602   20.740949
  H     16.384624   14.409972   14.054215
  H     15.141873   13.171177   14.352849
  H     16.656436   13.148952   15.283831
  H     14.573978   15.432906   15.414161
  H     14.701696   14.122730   16.616439
  H     16.109775   18.263843   15.524795
  H     16.850655   19.850743   15.770620
  H     15.483123   19.339275   16.782765
  H     18.582850   20.054056   17.163834
  H     19.836440   17.468508   19.988985
  H     18.890804   15.894448   18.153592
  H     19.139182   14.144924   19.646209
  H     18.253070   12.765001   21.508654
  H     16.343688   13.609553   22.876377
  H     15.041912   15.328454   23.295427
  H     16.243316   17.223304   20.547745

 Total Charge           Charge          ....    0
 Multiplicity           Mult            ....    1
 Number of Electrons    NEL             ....  154
 Basis Dimension        Dim             ....  828

ORBITAL ENERGIES
----------------

  NO   OCC          E(Eh)            E(eV)
   0   2.0000     -91.883865     -2500.2871
   1   2.0000     -20.606626      -560.7348
   2   2.0000     -20.597060      -560.4745
   3   2.0000     -20.554263      -559.3099
   4   2.0000     -15.619594      -425.0308
   5   2.0000     -15.603635      -424.5965
   6   2.0000     -11.394726      -310.0663
   7   2.0000     -11.379636      -309.6556
   8   2.0000     -11.318839      -308.0013
   9   2.0000     -11.316222      -307.9301
  10   2.0000     -11.308619      -307.7232
  11   2.0000     -11.298324      -307.4430
  12   2.0000     -11.264967      -306.5353
  13   2.0000     -11.258008      -306.3460
  14   2.0000     -11.253194      -306.2150
  15   2.0000     -11.252804      -306.2044
  16   2.0000     -11.247529      -306.0608
  17   2.0000     -11.243870      -305.9613
  18   2.0000     -11.242565      -305.9258
  19   2.0000     -11.233935      -305.6909
  20   2.0000      -8.888981      -241.8815
  21   2.0000      -6.570573      -178.7944
  22   2.0000      -6.568556      -178.7395
  23   2.0000      -6.567984      -178.7239
  24   2.0000      -1.458026       -39.6749
  25   2.0000      -1.416152       -38.5355
  26   2.0000      -1.359172       -36.9850
  27   2.0000      -1.331942       -36.2440
  28   2.0000      -1.232365       -33.5344
  29   2.0000      -1.160735       -31.5852
  30   2.0000      -1.120203       -30.4823
  31   2.0000      -1.045892       -28.4602
  32   2.0000      -1.041626       -28.3441
  33   2.0000      -1.017922       -27.6991
  34   2.0000      -0.996418       -27.1139
  35   2.0000      -0.981479       -26.7074
  36   2.0000      -0.921218       -25.0676
  37   2.0000      -0.888471       -24.1765
  38   2.0000      -0.843978       -22.9658
  39   2.0000      -0.836890       -22.7729
  40   2.0000      -0.834889       -22.7185
  41   2.0000      -0.818374       -22.2691
  42   2.0000      -0.761715       -20.7273
  43   2.0000      -0.733282       -19.9536
  44   2.0000      -0.725635       -19.7455
  45   2.0000      -0.696993       -18.9661
  46   2.0000      -0.687891       -18.7185
  47   2.0000      -0.681335       -18.5401
  48   2.0000      -0.677942       -18.4477
  49   2.0000      -0.666223       -18.1288
  50   2.0000      -0.652003       -17.7419
  51   2.0000      -0.646406       -17.5896
  52   2.0000      -0.631280       -17.1780
  53   2.0000      -0.608887       -16.5687
  54   2.0000      -0.600438       -16.3387
  55   2.0000      -0.598175       -16.2772
  56   2.0000      -0.586681       -15.9644
  57   2.0000      -0.576766       -15.6946
  58   2.0000      -0.573045       -15.5934
  59   2.0000      -0.569693       -15.5021
  60   2.0000      -0.565164       -15.3789
  61   2.0000      -0.555687       -15.1210
  62   2.0000      -0.538993       -14.6667
  63   2.0000      -0.526805       -14.3351
  64   2.0000      -0.515664       -14.0319
  65   2.0000      -0.511199       -13.9104
  66   2.0000      -0.505126       -13.7452
  67   2.0000      -0.497867       -13.5476
  68   2.0000      -0.489906       -13.3310
  69   2.0000      -0.461291       -12.5524
  70   2.0000      -0.460290       -12.5251
  71   2.0000      -0.453795       -12.3484
  72   2.0000      -0.353306        -9.6139
  73   2.0000      -0.346687        -9.4338
  74   2.0000      -0.326370        -8.8810
  75   2.0000      -0.322268        -8.7694
  76   2.0000      -0.311810        -8.4848
  77   0.0000       0.096142         2.6162
  78   0.0000       0.101148         2.7524
  79   0.0000       0.117711         3.2031
  80   0.0000       0.129234         3.5166
  81   0.0000       0.134189         3.6515

MULLIKEN ATOMIC CHARGES
-----------------------
   0 C :   -0.259755
   1 C :    0.037689
   2 O :   -0.332607
   3 C :    0.378414
   4 O :   -0.403315
   5 C :   -0.117702
   6 C :    0.140085
   7 C :   -0.294204
   8 N :   -0.138342
   9 C :    0.223274
  10 S :   -0.451120
  11 N :   -0.216930
  12 C :    0.101092
  13 C :   -0.052930
  14 C :   -0.188358
  15 C :   -0.130473
  16 C :   -0.266964
  17 C :    0.307349
  18 O :   -0.352729
  19 C :   -0.196987
  20 H :    0.092751
  21 H :    0.091694
  22 H :    0.097963
  23 H :    0.092512
  24 H :    0.093242
  25 H :    0.115606
  26 H :    0.098607
  27 H :    0.141106
  28 H :    0.193736
  29 H :    0.200824
  30 H :    0.138826
  31 H :    0.153872
  32 H :    0.160443
  33 H :    0.132741
  34 H :    0.240288
  35 H :    0.170300
Sum of atomic charges:   -0.0000000

LOEWDIN ATOMIC CHARGES
----------------------
   0 C :    0.106926
   1 C :   -0.017799
   2 O :    0.303459
   3 C :   -0.411234
   4 O :    0.120528
   5 C :   -0.083576
   6 C :   -0.088652
   7 C :    0.129198
   8 N :    0.401525
   9 C :   -0.448804
  10 S :   -0.045305
  11 N :    0.391574
  12 C :   -0.053845
  13 C :   -0.045085
  14 C :    0.011743
  15 C :    0.041291
  16 C :    0.005231
  17 C :   -0.186579
  18 O :    0.396040
  19 C :    0.044388
  20 H :   -0.026565
  21 H :   -0.023718
  22 H :   -0.026625
  23 H :   -0.031095
  24 H :   -0.029543
  25 H :   -0.008389
  26 H :   -0.021380
  27 H :   -0.006234
  28 H :   -0.060562
  29 H :   -0.068067
  30 H :   -0.016677
  31 H :   -0.028271
  32 H :   -0.019749
  33 H :   -0.033511
  34 H :   -0.152436
  35 H :   -0.018204

  Mayer bond orders larger than 0.100000
B(  0-C ,  1-C ) :   0.9713 B(  0-C , 20-H ) :   0.9789 B(  0-C , 21-H ) :   0.9779
B(  0-C , 22-H ) :   0.9760 B(  1-C ,  2-O ) :   0.9119 B(  1-C , 23-H ) :   0.9745
B(  1-C , 24-H ) :   0.9813 B(  2-O ,  3-C ) :   1.1948 B(  3-C ,  4-O ) :   2.0087
B(  3-C ,  5-C ) :   0.9418 B(  5-C ,  6-C ) :   1.7378 B(  5-C , 12-C ) :   0.9519
B(  6-C ,  7-C ) :   0.9421 B(  6-C ,  8-N ) :   1.1267 B(  7-C , 25-H ) :   0.9742
B(  7-C , 26-H ) :   0.9874 B(  7-C , 27-H ) :   0.9652 B(  8-N ,  9-C ) :   1.2019
B(  8-N , 28-H ) :   0.9515 B(  9-C , 10-S ) :   1.5944 B(  9-C , 11-N ) :   1.3007
B( 11-N , 12-C ) :   0.9733 B( 11-N , 29-H ) :   0.9450 B( 12-C , 13-C ) :   0.9770
B( 12-C , 30-H ) :   0.9941 B( 13-C , 14-C ) :   1.3627 B( 13-C , 19-C ) :   1.3681
B( 14-C , 15-C ) :   1.3953 B( 14-C , 31-H ) :   0.9727 B( 15-C , 16-C ) :   1.3666
B( 15-C , 32-H ) :   0.9707 B( 16-C , 17-C ) :   1.3293 B( 16-C , 33-H ) :   0.9843
B( 17-C , 18-O ) :   1.1048 B( 17-C , 19-C ) :   1.3630 B( 18-O , 34-H ) :   0.9794
B( 19-C , 35-H ) :   0.9573

MP2 TOTAL ENERGY:    -1274.327531713 Eh
FINAL SINGLE POINT ENERGY     -1274.327531712519

DIPOLE MOMENT
-------------
                                X             Y             Z
Electronic contribution:      8.00584      10.06486      11.80498
Nuclear contribution   :     -9.03603     -12.05697     -12.39901
                        -----------------------------------------
Total Dipole Moment    :     -1.03018      -1.99211      -0.59402
                        -----------------------------------------
Magnitude (a.u.)       :      2.32005
Magnitude (Debye)      :      5.89710

Rotational constants in cm-1:     0.009989     0.008633     0.005692
Rotational constants in MHz :   299.448726   258.808346   170.634798

                             ****ORCA TERMINATED NORMALLY****
TOTAL RUN TIME: 0 days 1 hours 45 minutes 4 seconds 769 msec
