                         Program Version 5.0.0 -  RELEASE  -
|  1> ! ri-mp2 cc-pvtz cc-pvtz/c TightSCF NoKeepInts
|  2>
|  3> %scf
|  4>   MaxCore 4096
|  5> end
|  6> *xyz  0  1
|  7>     C       14.8309938   14.2919876   16.9669902
|  8>     C       15.4959819   15.6446811   16.6656905
|  9>     O       16.7391815   15.3633682   15.9900966
| 10>     C       17.9547164   15.6446658   16.5560463
| 11>     O       18.8357481   14.8047804   16.5694654
| 12>     C       18.0374854   16.8842968   17.3915161
| 13>     C       17.5465149   18.0855732   17.0025587
| 14>     C       16.8975327   18.4268545   15.6780006
| 15>     N       17.6910504   19.1974770   17.8358489
| 16>     C       18.3985996   19.2071560   19.0098075
| 17>     S       18.5761402   20.5860484   19.9047655
| 18>     N       18.9470559   18.0131015   19.4088832
| 19>     C       18.7449610   16.7151169   18.7354148
| 20>     C       17.9595696   15.7496786   19.6184270
| 21>     C       18.3893378   14.4188743   19.7711336
| 22>     C       17.6508620   13.5123299   20.5497226
| 23>     C       16.4688658   13.9379187   21.1791301
| 24>     C       16.0337768   15.2608376   21.0247295
| 25>     O       14.8848788   15.6717338   21.6176898
| 26>     C       16.7712703   16.1615083   20.2498923
| 27>     H       15.4628198   13.6954404   17.6379728
| 28>     H       14.6739752   13.7218364   16.0427669
| 29>     H       13.8586700   14.4385232   17.4526288
| 30>     H       14.8399408   16.2305811   16.0095644
| 31>     H       15.6330734   16.1938973   17.6052528
| 32>     H       17.1399960   17.6918478   14.9003663
| 33>     H       17.2452681   19.3982658   15.3040644
| 34>     H       15.8063073   18.4751806   15.7720679
| 35>     H       17.3057973   20.0861593   17.5565919
| 36>     H       19.4439053   18.0450956   20.2902731
| 37>     H       19.7361986   16.2790826   18.5414805
| 38>     H       19.2909712   14.0801239   19.2651696
| 39>     H       17.9919584   12.4836897   20.6543230
| 40>     H       15.8934552   13.2391460   21.7773874
| 41>     H       14.5560042   14.9348507   22.1548204
| 42>     H       16.4141361   17.1802908   20.1434605
| 43> *
| 44>
| 45>                          ****END OF INPUT****

CARTESIAN COORDINATES (ANGSTROEM)
---------------------------------
  C     14.830994   14.291988   16.966990
  C     15.495982   15.644681   16.665691
  O     16.739182   15.363368   15.990097
  C     17.954716   15.644666   16.556046
  O     18.835748   14.804780   16.569465
  C     18.037485   16.884297   17.391516
  C     17.546515   18.085573   17.002559
  C     16.897533   18.426855   15.678001
  N     17.691050   19.197477   17.835849
  C     18.398600   19.207156   19.009808
  S     18.576140   20.586048   19.904765
  N     18.947056   18.013102   19.408883
  C     18.744961   16.715117   18.735415
  C     17.959570   15.749679   19.618427
  C     18.389338   14.418874   19.771134
  C     17.650862   13.512330   20.549723
  C     16.468866   13.937919   21.179130
  C     16.033777   15.260838   21.024729
  O     14.884879   15.671734   21.617690
  C     16.771270   16.161508   20.249892
  H     15.462820   13.695440   17.637973
  H     14.673975   13.721836   16.042767
  H     13.858670   14.438523   17.452629
  H     14.839941   16.230581   16.009564
  H     15.633073   16.193897   17.605253
  H     17.139996   17.691848   14.900366
  H     17.245268   19.398266   15.304064
  H     15.806307   18.475181   15.772068
  H     17.305797   20.086159   17.556592
  H     19.443905   18.045096   20.290273
  H     19.736199   16.279083   18.541480
  H     19.290971   14.080124   19.265170
  H     17.991958   12.483690   20.654323
  H     15.893455   13.239146   21.777387
  H     14.556004   14.934851   22.154820
  H     16.414136   17.180291   20.143460

 Total Charge           Charge          ....    0
 Multiplicity           Mult            ....    1
 Number of Electrons    NEL             ....  154
 Basis Dimension        Dim             ....  828

ORBITAL ENERGIES
----------------

  NO   OCC          E(Eh)            E(eV)
   0   2.0000     -91.891140     -2500.4850
   1   2.0000     -20.599992      -560.5543
   2   2.0000     -20.597162      -560.4773
   3   2.0000     -20.549959      -559.1928
   4   2.0000     -15.629693      -425.3056
   5   2.0000     -15.611633      -424.8141
   6   2.0000     -11.396536      -310.1155
   7   2.0000     -11.387468      -309.8687
   8   2.0000     -11.334273      -308.4212
   9   2.0000     -11.316706      -307.9432
  10   2.0000     -11.312733      -307.8351
  11   2.0000     -11.303911      -307.5950
  12   2.0000     -11.266934      -306.5889
  13   2.0000     -11.263930      -306.5071
  14   2.0000     -11.262801      -306.4764
  15   2.0000     -11.256365      -306.3013
  16   2.0000     -11.245910      -306.0168
  17   2.0000     -11.242474      -305.9233
  18   2.0000     -11.238836      -305.8243
  19   2.0000     -11.227689      -305.5209
  20   2.0000      -8.896233      -242.0788
  21   2.0000      -6.577814      -178.9914
  22   2.0000      -6.575797      -178.9365
  23   2.0000      -6.575214      -178.9207
  24   2.0000      -1.448187       -39.4072
  25   2.0000      -1.419791       -38.6345
  26   2.0000      -1.359414       -36.9915
  27   2.0000      -1.341934       -36.5159
  28   2.0000      -1.240812       -33.7642
  29   2.0000      -1.161232       -31.5987
  30   2.0000      -1.125382       -30.6232
  31   2.0000      -1.048515       -28.5316
  32   2.0000      -1.036971       -28.2174
  33   2.0000      -1.018611       -27.7178
  34   2.0000      -1.004990       -27.3472
  35   2.0000      -0.989534       -26.9266
  36   2.0000      -0.927737       -25.2450
  37   2.0000      -0.882231       -24.0067
  38   2.0000      -0.855776       -23.2869
  39   2.0000      -0.842761       -22.9327
  40   2.0000      -0.836875       -22.7725
  41   2.0000      -0.835760       -22.7422
  42   2.0000      -0.753587       -20.5061
  43   2.0000      -0.740017       -20.1369
  44   2.0000      -0.731379       -19.9018
  45   2.0000      -0.698061       -18.9952
  46   2.0000      -0.688310       -18.7299
  47   2.0000      -0.679529       -18.4909
  48   2.0000      -0.677844       -18.4451
  49   2.0000      -0.661650       -18.0044
  50   2.0000      -0.656897       -17.8751
  51   2.0000      -0.649618       -17.6770
  52   2.0000      -0.641166       -17.4470
  53   2.0000      -0.610966       -16.6252
  54   2.0000      -0.608450       -16.5568
  55   2.0000      -0.603970       -16.4349
  56   2.0000      -0.596833       -16.2406
  57   2.0000      -0.581762       -15.8305
  58   2.0000      -0.578763       -15.7489
  59   2.0000      -0.571884       -15.5617
  60   2.0000      -0.563046       -15.3213
  61   2.0000      -0.559495       -15.2246
  62   2.0000      -0.546054       -14.8589
  63   2.0000      -0.526852       -14.3364
  64   2.0000      -0.517588       -14.0843
  65   2.0000      -0.515227       -14.0200
  66   2.0000      -0.502812       -13.6822
  67   2.0000      -0.499592       -13.5946
  68   2.0000      -0.489471       -13.3192
  69   2.0000      -0.471704       -12.8357
  70   2.0000      -0.456062       -12.4101
  71   2.0000      -0.449453       -12.2302
  72   2.0000      -0.357522        -9.7287
  73   2.0000      -0.352205        -9.5840
  74   2.0000      -0.330616        -8.9965
  75   2.0000      -0.324120        -8.8197
  76   2.0000      -0.319298        -8.6885
  77   0.0000       0.077069         2.0972
  78   0.0000       0.103146         2.8068
  79   0.0000       0.116780         3.1778
  80   0.0000       0.128037         3.4841
  81   0.0000       0.135521         3.6877

MULLIKEN ATOMIC CHARGES
-----------------------
   0 C :   -0.255554
   1 C :   -0.002859
   2 O :   -0.330158
   3 C :    0.427099
   4 O :   -0.385759
   5 C :   -0.226309
   6 C :    0.155620
   7 C :   -0.317707
   8 N :   -0.131868
   9 C :    0.200191
  10 S :   -0.438192
  11 N :   -0.208443
  12 C :    0.070493
  13 C :    0.037650
  14 C :   -0.186279
  15 C :   -0.132078
  16 C :   -0.277817
  17 C :    0.321962
  18 O :   -0.358572
  19 C :   -0.302921
  20 H :    0.107555
  21 H :    0.103601
  22 H :    0.088881
  23 H :    0.105312
  24 H :    0.110007
  25 H :    0.138954
  26 H :    0.127973
  27 H :    0.120788
  28 H :    0.197376
  29 H :    0.196832
  30 H :    0.161429
  31 H :    0.166117
  32 H :    0.164175
  33 H :    0.132143
  34 H :    0.241896
  35 H :    0.178461
Sum of atomic charges:    0.0000000

LOEWDIN ATOMIC CHARGES
----------------------
   0 C :    0.109611
   1 C :   -0.022088
   2 O :    0.302810
   3 C :   -0.417919
   4 O :    0.123899
   5 C :   -0.089652
   6 C :   -0.088856
   7 C :    0.127377
   8 N :    0.402916
   9 C :   -0.457173
  10 S :   -0.035330
  11 N :    0.397097
  12 C :   -0.045700
  13 C :   -0.044084
  14 C :    0.022888
  15 C :    0.044616
  16 C :   -0.000174
  17 C :   -0.194150
  18 O :    0.394242
  19 C :    0.026302
  20 H :   -0.022072
  21 H :   -0.025020
  22 H :   -0.026759
  23 H :   -0.033356
  24 H :   -0.036695
  25 H :   -0.006362
  26 H :   -0.012559
  27 H :   -0.016622
  28 H :   -0.057370
  29 H :   -0.063515
  30 H :   -0.002956
  31 H :   -0.021998
  32 H :   -0.018742
  33 H :   -0.034714
  34 H :   -0.152868
  35 H :   -0.025028

  Mayer bond orders larger than 0.100000
B(  0-C ,  1-C ) :   0.9877 B(  0-C , 20-H ) :   0.9743 B(  0-C , 21-H ) :   0.9792
B(  0-C , 22-H ) :   0.9766 B(  1-C ,  2-O ) :   0.8921 B(  1-C , 23-H ) :   0.9784
B(  1-C , 24-H ) :   0.9576 B(  2-O ,  3-C ) :   1.1756 B(  3-C ,  4-O ) :   2.0823
B(  3-C ,  5-C ) :   0.9431 B(  5-C ,  6-C ) :   1.6755 B(  5-C , 12-C ) :   0.9595
B(  6-C ,  7-C ) :   0.9412 B(  6-C ,  8-N ) :   1.1308 B(  7-C , 25-H ) :   0.9746
B(  7-C , 26-H ) :   0.9775 B(  7-C , 27-H ) :   0.9647 B(  8-N ,  9-C ) :   1.1886
B(  8-N , 28-H ) :   0.9510 B(  9-C , 10-S ) :   1.6140 B(  9-C , 11-N ) :   1.2927
B( 11-N , 12-C ) :   0.9978 B( 11-N , 29-H ) :   0.9504 B( 12-C , 13-C ) :   0.9404
B( 12-C , 30-H ) :   0.9979 B( 13-C , 14-C ) :   1.3874 B( 13-C , 19-C ) :   1.3432
B( 14-C , 15-C ) :   1.3953 B( 14-C , 31-H ) :   0.9606 B( 15-C , 16-C ) :   1.3629
B( 15-C , 32-H ) :   0.9700 B( 16-C , 17-C ) :   1.3303 B( 16-C , 33-H ) :   0.9845
B( 17-C , 18-O ) :   1.1103 B( 17-C , 19-C ) :   1.3661 B( 18-O , 34-H ) :   0.9792
B( 19-C , 35-H ) :   0.9564

MP2 TOTAL ENERGY:    -1274.336724842 Eh
FINAL SINGLE POINT ENERGY     -1274.336724842246

DIPOLE MOMENT
-------------
                                X             Y             Z
Electronic contribution:     10.49963       8.56352       6.31861
Nuclear contribution   :    -12.00421      -9.48449      -6.66325
                        -----------------------------------------
Total Dipole Moment    :     -1.50457      -0.92096      -0.34464
                        -----------------------------------------
Magnitude (a.u.)       :      1.79741
Magnitude (Debye)      :      4.56866

Rotational constants in cm-1:     0.012197     0.009148     0.006809
Rotational constants in MHz :   365.664889   274.259559   204.141518

                             ****ORCA TERMINATED NORMALLY****
TOTAL RUN TIME: 0 days 1 hours 40 minutes 40 seconds 438 msec
