                         Program Version 5.0.0 -  RELEASE  -
|  1> ! ri-mp2 cc-pvtz cc-pvtz/c TightSCF NoKeepInts
|  2>
|  3> %scf
|  4>   MaxCore 4096
|  5> end
|  6> *xyz  0  1
|  7>     C       15.7100739   13.8929021   14.8565076
|  8>     C       15.0392654   14.9589002   15.7515083
|  9>     O       15.9628077   15.9825029   16.1885900
| 10>     C       17.1435062   15.7243758   16.8323752
| 11>     O       17.5890727   14.6003763   16.9889056
| 12>     C       17.6533880   16.8870519   17.6367439
| 13>     C       17.3368210   18.1892360   17.4093735
| 14>     C       16.4469872   18.7584473   16.3230354
| 15>     N       17.9241954   19.1928313   18.1871182
| 16>     C       18.9385634   18.9952230   19.0862314
| 17>     S       19.6702166   20.2568024   19.8665279
| 18>     N       19.3163304   17.6948210   19.3040237
| 19>     C       18.6093398   16.5129274   18.7760785
| 20>     C       17.8699849   15.7886291   19.8983955
| 21>     C       18.0959272   14.4195902   20.1325974
| 22>     C       17.4173313   13.7469554   21.1626455
| 23>     C       16.5036269   14.4485804   21.9672816
| 24>     C       16.2725538   15.8112295   21.7351586
| 25>     O       15.3862524   16.4901087   22.5065598
| 26>     C       16.9491858   16.4778684   20.7088836
| 27>     H       16.3811743   14.3611086   14.1259505
| 28>     H       14.9479387   13.3290349   14.3054190
| 29>     H       16.2839360   13.1694833   15.4479026
| 30>     H       14.2273916   15.4373970   15.1890308
| 31>     H       14.5931278   14.4645423   16.6247266
| 32>     H       15.3935519   18.5294553   16.5269368
| 33>     H       16.7030605   18.3319018   15.3452197
| 34>     H       16.5366990   19.8475857   16.2302192
| 35>     H       17.6602876   20.1541332   18.0417034
| 36>     H       20.0447532   17.5726837   19.9956375
| 37>     H       19.3672070   15.8292864   18.3668928
| 38>     H       18.7890118   13.8705833   19.4997740
| 39>     H       17.5967689   12.6863180   21.3287486
| 40>     H       15.9759768   13.9325957   22.7623848
| 41>     H       15.0529456   15.8732125   23.1751655
| 42>     H       16.7577395   17.5333188   20.5497467
| 43> *
| 44>
| 45>                          ****END OF INPUT****

CARTESIAN COORDINATES (ANGSTROEM)
---------------------------------
  C     15.710074   13.892902   14.856508
  C     15.039265   14.958900   15.751508
  O     15.962808   15.982503   16.188590
  C     17.143506   15.724376   16.832375
  O     17.589073   14.600376   16.988906
  C     17.653388   16.887052   17.636744
  C     17.336821   18.189236   17.409374
  C     16.446987   18.758447   16.323035
  N     17.924195   19.192831   18.187118
  C     18.938563   18.995223   19.086231
  S     19.670217   20.256802   19.866528
  N     19.316330   17.694821   19.304024
  C     18.609340   16.512927   18.776079
  C     17.869985   15.788629   19.898395
  C     18.095927   14.419590   20.132597
  C     17.417331   13.746955   21.162645
  C     16.503627   14.448580   21.967282
  C     16.272554   15.811229   21.735159
  O     15.386252   16.490109   22.506560
  C     16.949186   16.477868   20.708884
  H     16.381174   14.361109   14.125951
  H     14.947939   13.329035   14.305419
  H     16.283936   13.169483   15.447903
  H     14.227392   15.437397   15.189031
  H     14.593128   14.464542   16.624727
  H     15.393552   18.529455   16.526937
  H     16.703060   18.331902   15.345220
  H     16.536699   19.847586   16.230219
  H     17.660288   20.154133   18.041703
  H     20.044753   17.572684   19.995638
  H     19.367207   15.829286   18.366893
  H     18.789012   13.870583   19.499774
  H     17.596769   12.686318   21.328749
  H     15.975977   13.932596   22.762385
  H     15.052946   15.873212   23.175165
  H     16.757739   17.533319   20.549747

 Total Charge           Charge          ....    0
 Multiplicity           Mult            ....    1
 Number of Electrons    NEL             ....  154
 Basis Dimension        Dim             ....  828

ORBITAL ENERGIES
----------------

  NO   OCC          E(Eh)            E(eV)
   0   2.0000     -91.887310     -2500.3808
   1   2.0000     -20.601151      -560.5858
   2   2.0000     -20.591118      -560.3128
   3   2.0000     -20.546442      -559.0971
   4   2.0000     -15.627208      -425.2380
   5   2.0000     -15.606049      -424.6622
   6   2.0000     -11.397809      -310.1501
   7   2.0000     -11.382193      -309.7252
   8   2.0000     -11.334380      -308.4242
   9   2.0000     -11.306941      -307.6775
  10   2.0000     -11.305144      -307.6286
  11   2.0000     -11.304438      -307.6094
  12   2.0000     -11.259695      -306.3919
  13   2.0000     -11.258140      -306.3496
  14   2.0000     -11.252887      -306.2066
  15   2.0000     -11.247192      -306.0517
  16   2.0000     -11.236780      -305.7683
  17   2.0000     -11.232769      -305.6592
  18   2.0000     -11.229928      -305.5819
  19   2.0000     -11.223639      -305.4107
  20   2.0000      -8.892380      -241.9740
  21   2.0000      -6.573960      -178.8865
  22   2.0000      -6.571951      -178.8319
  23   2.0000      -6.571368      -178.8160
  24   2.0000      -1.449727       -39.4491
  25   2.0000      -1.410850       -38.3912
  26   2.0000      -1.357746       -36.9462
  27   2.0000      -1.338373       -36.4190
  28   2.0000      -1.236111       -33.6363
  29   2.0000      -1.151430       -31.3320
  30   2.0000      -1.118535       -30.4369
  31   2.0000      -1.041481       -28.3401
  32   2.0000      -1.033730       -28.1292
  33   2.0000      -1.008856       -27.4524
  34   2.0000      -0.996279       -27.1101
  35   2.0000      -0.981779       -26.7156
  36   2.0000      -0.920779       -25.0557
  37   2.0000      -0.894885       -24.3511
  38   2.0000      -0.847142       -23.0519
  39   2.0000      -0.835123       -22.7249
  40   2.0000      -0.827355       -22.5135
  41   2.0000      -0.817593       -22.2478
  42   2.0000      -0.747060       -20.3285
  43   2.0000      -0.730493       -19.8777
  44   2.0000      -0.724288       -19.7089
  45   2.0000      -0.690368       -18.7859
  46   2.0000      -0.684271       -18.6200
  47   2.0000      -0.679217       -18.4824
  48   2.0000      -0.670196       -18.2369
  49   2.0000      -0.663901       -18.0657
  50   2.0000      -0.645117       -17.5545
  51   2.0000      -0.641553       -17.4575
  52   2.0000      -0.633048       -17.2261
  53   2.0000      -0.606181       -16.4950
  54   2.0000      -0.599216       -16.3055
  55   2.0000      -0.598274       -16.2799
  56   2.0000      -0.594197       -16.1689
  57   2.0000      -0.586726       -15.9656
  58   2.0000      -0.572202       -15.5704
  59   2.0000      -0.567887       -15.4530
  60   2.0000      -0.559415       -15.2224
  61   2.0000      -0.544208       -14.8086
  62   2.0000      -0.536022       -14.5859
  63   2.0000      -0.520948       -14.1757
  64   2.0000      -0.516690       -14.0599
  65   2.0000      -0.510779       -13.8990
  66   2.0000      -0.501167       -13.6375
  67   2.0000      -0.494877       -13.4663
  68   2.0000      -0.479429       -13.0459
  69   2.0000      -0.461128       -12.5479
  70   2.0000      -0.457476       -12.4486
  71   2.0000      -0.448722       -12.2103
  72   2.0000      -0.353166        -9.6101
  73   2.0000      -0.343343        -9.3428
  74   2.0000      -0.326485        -8.8841
  75   2.0000      -0.314914        -8.5692
  76   2.0000      -0.313239        -8.5237
  77   0.0000       0.077154         2.0995
  78   0.0000       0.113535         3.0894
  79   0.0000       0.121517         3.3067
  80   0.0000       0.136455         3.7131
  81   0.0000       0.140762         3.8303

MULLIKEN ATOMIC CHARGES
-----------------------
   0 C :   -0.302099
   1 C :    0.049897
   2 O :   -0.352470
   3 C :    0.439862
   4 O :   -0.430275
   5 C :   -0.148742
   6 C :    0.137368
   7 C :   -0.285770
   8 N :   -0.121323
   9 C :    0.201510
  10 S :   -0.440640
  11 N :   -0.196758
  12 C :    0.033789
  13 C :    0.056844
  14 C :   -0.162344
  15 C :   -0.134241
  16 C :   -0.279150
  17 C :    0.311373
  18 O :   -0.358995
  19 C :   -0.270373
  20 H :    0.092557
  21 H :    0.095656
  22 H :    0.128371
  23 H :    0.100506
  24 H :    0.093487
  25 H :    0.128257
  26 H :    0.123547
  27 H :    0.101999
  28 H :    0.196600
  29 H :    0.193226
  30 H :    0.153869
  31 H :    0.153367
  32 H :    0.158799
  33 H :    0.127841
  34 H :    0.239891
  35 H :    0.164562
Sum of atomic charges:    0.0000000

LOEWDIN ATOMIC CHARGES
----------------------
   0 C :    0.103426
   1 C :   -0.011015
   2 O :    0.296687
   3 C :   -0.412292
   4 O :    0.112696
   5 C :   -0.089874
   6 C :   -0.067463
   7 C :    0.124627
   8 N :    0.404439
   9 C :   -0.458893
  10 S :   -0.037049
  11 N :    0.397724
  12 C :   -0.046166
  13 C :   -0.038608
  14 C :    0.021459
  15 C :    0.040533
  16 C :   -0.002480
  17 C :   -0.192463
  18 O :    0.393048
  19 C :    0.028993
  20 H :   -0.028225
  21 H :   -0.029110
  22 H :   -0.025634
  23 H :   -0.024919
  24 H :   -0.027719
  25 H :   -0.009591
  26 H :   -0.009316
  27 H :   -0.021000
  28 H :   -0.059297
  29 H :   -0.063804
  30 H :   -0.005280
  31 H :   -0.025544
  32 H :   -0.021411
  33 H :   -0.036506
  34 H :   -0.155027
  35 H :   -0.024948

  Mayer bond orders larger than 0.100000
B(  0-C ,  1-C ) :   0.9675 B(  0-C , 20-H ) :   0.9759 B(  0-C , 21-H ) :   0.9773
B(  0-C , 22-H ) :   0.9711 B(  1-C ,  2-O ) :   0.9067 B(  1-C , 23-H ) :   0.9841
B(  1-C , 24-H ) :   0.9797 B(  2-O ,  3-C ) :   1.1442 B(  3-C ,  4-O ) :   1.9652
B(  3-C ,  5-C ) :   1.0576 B(  5-C ,  6-C ) :   1.6487 B(  5-C , 12-C ) :   0.9648
B(  6-C ,  7-C ) :   0.9556 B(  6-C ,  8-N ) :   1.1455 B(  7-C , 25-H ) :   0.9629
B(  7-C , 26-H ) :   0.9671 B(  7-C , 27-H ) :   0.9914 B(  8-N ,  9-C ) :   1.1798
B(  8-N , 28-H ) :   0.9493 B(  9-C , 10-S ) :   1.6097 B(  9-C , 11-N ) :   1.3034
B( 11-N , 12-C ) :   0.9940 B( 11-N , 29-H ) :   0.9520 B( 12-C , 13-C ) :   0.9471
B( 12-C , 30-H ) :   0.9996 B( 13-C , 14-C ) :   1.3756 B( 13-C , 19-C ) :   1.3702
B( 14-C , 15-C ) :   1.3948 B( 14-C , 31-H ) :   0.9651 B( 15-C , 16-C ) :   1.3628
B( 15-C , 32-H ) :   0.9715 B( 16-C , 17-C ) :   1.3313 B( 16-C , 33-H ) :   0.9861
B( 17-C , 18-O ) :   1.1080 B( 17-C , 19-C ) :   1.3791 B( 18-O , 34-H ) :   0.9807
B( 19-C , 35-H ) :   0.9584

MP2 TOTAL ENERGY:    -1274.339737293 Eh
FINAL SINGLE POINT ENERGY     -1274.339737292658

DIPOLE MOMENT
-------------
                                X             Y             Z
Electronic contribution:      9.73220      10.04551      11.37360
Nuclear contribution   :    -11.40018     -11.22096     -12.33735
                        -----------------------------------------
Total Dipole Moment    :     -1.66798      -1.17546      -0.96374
                        -----------------------------------------
Magnitude (a.u.)       :      2.25669
Magnitude (Debye)      :      5.73606

Rotational constants in cm-1:     0.010636     0.008890     0.005840
Rotational constants in MHz :   318.868124   266.518577   175.092178

                             ****ORCA TERMINATED NORMALLY****
TOTAL RUN TIME: 0 days 1 hours 50 minutes 4 seconds 829 msec
