                         Program Version 5.0.0 -  RELEASE  -
|  1> ! ri-mp2 cc-pvtz cc-pvtz/c TightSCF NoKeepInts
|  2>
|  3> %scf
|  4>   MaxCore 4096
|  5> end
|  6> *xyz  0  1
|  7>     C       14.9511400   16.0836416   17.2647284
|  8>     C       15.5229251   14.9992569   16.3292873
|  9>     O       16.9149300   15.0819861   15.9091198
| 10>     C       18.0320103   15.6421336   16.4893066
| 11>     O       19.0880589   15.0400056   16.4259707
| 12>     C       17.8979585   16.8140598   17.4016738
| 13>     C       17.4029899   18.0004092   16.9771016
| 14>     C       16.9259661   18.3441478   15.5805836
| 15>     N       17.4179811   19.1064986   17.8293967
| 16>     C       18.0131844   19.1330885   19.0633887
| 17>     S       18.0296837   20.5022126   19.9904721
| 18>     N       18.6014146   17.9681886   19.4903452
| 19>     C       18.5604093   16.6757022   18.7768334
| 20>     C       17.9073617   15.5814447   19.6213644
| 21>     C       18.3754753   14.2568812   19.5344647
| 22>     C       17.7845644   13.2335993   20.2938411
| 23>     C       16.7147132   13.5345424   21.1530035
| 24>     C       16.2452901   14.8511981   21.2465853
| 25>     O       15.2072230   15.1445748   22.0692920
| 26>     C       16.8357300   15.8682401   20.4895856
| 27>     H       15.5139828   16.1663345   18.1966295
| 28>     H       13.9258918   15.8122017   17.5449338
| 29>     H       14.8909387   17.0580508   16.7728116
| 30>     H       15.4054212   14.0417045   16.8539071
| 31>     H       14.8921569   14.9370780   15.4330993
| 32>     H       16.7003576   17.4570777   14.9785798
| 33>     H       17.6983806   18.9087885   15.0430199
| 34>     H       16.0175624   18.9584030   15.6060378
| 35>     H       17.0198061   19.9801033   17.5227660
| 36>     H       19.0240013   18.0150595   20.4089891
| 37>     H       19.6029413   16.3701156   18.6026361
| 38>     H       19.1997078   14.0167475   18.8657972
| 39>     H       18.1563536   12.2135406   20.2119287
| 40>     H       16.2545661   12.7467178   21.7402748
| 41>     H       14.9688104   14.3307529   22.5384876
| 42>     H       16.4471120   16.8775123   20.5777571
| 43> *
| 44>
| 45>                          ****END OF INPUT****

CARTESIAN COORDINATES (ANGSTROEM)
---------------------------------
  C     14.951140   16.083642   17.264728
  C     15.522925   14.999257   16.329287
  O     16.914930   15.081986   15.909120
  C     18.032010   15.642134   16.489307
  O     19.088059   15.040006   16.425971
  C     17.897959   16.814060   17.401674
  C     17.402990   18.000409   16.977102
  C     16.925966   18.344148   15.580584
  N     17.417981   19.106499   17.829397
  C     18.013184   19.133088   19.063389
  S     18.029684   20.502213   19.990472
  N     18.601415   17.968189   19.490345
  C     18.560409   16.675702   18.776833
  C     17.907362   15.581445   19.621364
  C     18.375475   14.256881   19.534465
  C     17.784564   13.233599   20.293841
  C     16.714713   13.534542   21.153003
  C     16.245290   14.851198   21.246585
  O     15.207223   15.144575   22.069292
  C     16.835730   15.868240   20.489586
  H     15.513983   16.166335   18.196630
  H     13.925892   15.812202   17.544934
  H     14.890939   17.058051   16.772812
  H     15.405421   14.041704   16.853907
  H     14.892157   14.937078   15.433099
  H     16.700358   17.457078   14.978580
  H     17.698381   18.908788   15.043020
  H     16.017562   18.958403   15.606038
  H     17.019806   19.980103   17.522766
  H     19.024001   18.015059   20.408989
  H     19.602941   16.370116   18.602636
  H     19.199708   14.016747   18.865797
  H     18.156354   12.213541   20.211929
  H     16.254566   12.746718   21.740275
  H     14.968810   14.330753   22.538488
  H     16.447112   16.877512   20.577757

 Total Charge           Charge          ....    0
 Multiplicity           Mult            ....    1
 Number of Electrons    NEL             ....  154
 Basis Dimension        Dim             ....  828

ORBITAL ENERGIES
----------------

  NO   OCC          E(Eh)            E(eV)
   0   2.0000     -91.890320     -2500.4627
   1   2.0000     -20.599350      -560.5368
   2   2.0000     -20.594400      -560.4021
   3   2.0000     -20.547835      -559.1350
   4   2.0000     -15.627523      -425.2465
   5   2.0000     -15.611423      -424.8084
   6   2.0000     -11.399738      -310.2026
   7   2.0000     -11.386842      -309.8517
   8   2.0000     -11.329935      -308.3032
   9   2.0000     -11.316337      -307.9332
  10   2.0000     -11.314238      -307.8761
  11   2.0000     -11.312440      -307.8271
  12   2.0000     -11.266164      -306.5679
  13   2.0000     -11.264485      -306.5222
  14   2.0000     -11.262922      -306.4797
  15   2.0000     -11.256405      -306.3024
  16   2.0000     -11.245372      -306.0021
  17   2.0000     -11.241767      -305.9040
  18   2.0000     -11.237862      -305.7978
  19   2.0000     -11.236386      -305.7576
  20   2.0000      -8.895423      -242.0568
  21   2.0000      -6.577010      -178.9695
  22   2.0000      -6.574986      -178.9145
  23   2.0000      -6.574409      -178.8988
  24   2.0000      -1.440727       -39.2042
  25   2.0000      -1.419146       -38.6169
  26   2.0000      -1.353064       -36.8187
  27   2.0000      -1.340414       -36.4745
  28   2.0000      -1.240019       -33.7426
  29   2.0000      -1.160332       -31.5743
  30   2.0000      -1.124653       -30.6034
  31   2.0000      -1.047832       -28.5130
  32   2.0000      -1.041718       -28.3466
  33   2.0000      -1.018757       -27.7218
  34   2.0000      -1.004782       -27.3415
  35   2.0000      -0.990304       -26.9476
  36   2.0000      -0.927784       -25.2463
  37   2.0000      -0.901355       -24.5271
  38   2.0000      -0.853016       -23.2117
  39   2.0000      -0.841021       -22.8854
  40   2.0000      -0.835924       -22.7466
  41   2.0000      -0.828309       -22.5394
  42   2.0000      -0.747087       -20.3293
  43   2.0000      -0.733363       -19.9558
  44   2.0000      -0.729807       -19.8590
  45   2.0000      -0.696733       -18.9591
  46   2.0000      -0.686605       -18.6835
  47   2.0000      -0.676227       -18.4011
  48   2.0000      -0.675207       -18.3733
  49   2.0000      -0.662822       -18.0363
  50   2.0000      -0.655430       -17.8352
  51   2.0000      -0.652634       -17.7591
  52   2.0000      -0.639631       -17.4052
  53   2.0000      -0.613579       -16.6963
  54   2.0000      -0.606071       -16.4920
  55   2.0000      -0.603426       -16.4201
  56   2.0000      -0.600802       -16.3487
  57   2.0000      -0.596264       -16.2252
  58   2.0000      -0.578066       -15.7300
  59   2.0000      -0.576134       -15.6774
  60   2.0000      -0.565971       -15.4009
  61   2.0000      -0.557641       -15.1742
  62   2.0000      -0.543933       -14.8012
  63   2.0000      -0.531974       -14.4757
  64   2.0000      -0.521558       -14.1923
  65   2.0000      -0.514199       -13.9921
  66   2.0000      -0.502169       -13.6647
  67   2.0000      -0.493896       -13.4396
  68   2.0000      -0.484626       -13.1873
  69   2.0000      -0.466881       -12.7045
  70   2.0000      -0.456041       -12.4095
  71   2.0000      -0.447943       -12.1892
  72   2.0000      -0.355484        -9.6732
  73   2.0000      -0.349811        -9.5188
  74   2.0000      -0.329905        -8.9772
  75   2.0000      -0.324101        -8.8192
  76   2.0000      -0.319024        -8.6811
  77   0.0000       0.085071         2.3149
  78   0.0000       0.105391         2.8678
  79   0.0000       0.116218         3.1624
  80   0.0000       0.125930         3.4267
  81   0.0000       0.130092         3.5400

MULLIKEN ATOMIC CHARGES
-----------------------
   0 C :   -0.345163
   1 C :    0.047480
   2 O :   -0.348055
   3 C :    0.418749
   4 O :   -0.382765
   5 C :   -0.230070
   6 C :    0.164320
   7 C :   -0.320237
   8 N :   -0.138752
   9 C :    0.207210
  10 S :   -0.441097
  11 N :   -0.231933
  12 C :    0.109699
  13 C :    0.016176
  14 C :   -0.223950
  15 C :   -0.134853
  16 C :   -0.275526
  17 C :    0.326980
  18 O :   -0.356401
  19 C :   -0.286396
  20 H :    0.127831
  21 H :    0.130004
  22 H :    0.094445
  23 H :    0.111672
  24 H :    0.112147
  25 H :    0.126167
  26 H :    0.149870
  27 H :    0.107253
  28 H :    0.196555
  29 H :    0.203428
  30 H :    0.166021
  31 H :    0.178811
  32 H :    0.165056
  33 H :    0.132029
  34 H :    0.241191
  35 H :    0.182101
Sum of atomic charges:    0.0000000

LOEWDIN ATOMIC CHARGES
----------------------
   0 C :    0.105506
   1 C :   -0.011865
   2 O :    0.284648
   3 C :   -0.415029
   4 O :    0.123508
   5 C :   -0.084119
   6 C :   -0.093671
   7 C :    0.123796
   8 N :    0.403863
   9 C :   -0.456060
  10 S :   -0.037460
  11 N :    0.398023
  12 C :   -0.043273
  13 C :   -0.043112
  14 C :    0.020398
  15 C :    0.044065
  16 C :   -0.001238
  17 C :   -0.193392
  18 O :    0.395249
  19 C :    0.024916
  20 H :   -0.031706
  21 H :   -0.018249
  22 H :   -0.033260
  23 H :   -0.023465
  24 H :   -0.022126
  25 H :   -0.011236
  26 H :   -0.007487
  27 H :   -0.019213
  28 H :   -0.057781
  29 H :   -0.063906
  30 H :   -0.002856
  31 H :   -0.021647
  32 H :   -0.018360
  33 H :   -0.034904
  34 H :   -0.153216
  35 H :   -0.025341

  Mayer bond orders larger than 0.100000
B(  0-C ,  1-C ) :   0.9618 B(  0-C , 20-H ) :   0.9654 B(  0-C , 21-H ) :   0.9772
B(  0-C , 22-H ) :   0.9745 B(  1-C ,  2-O ) :   0.9038 B(  1-C , 23-H ) :   0.9786
B(  1-C , 24-H ) :   0.9802 B(  2-O ,  3-C ) :   1.1637 B(  3-C ,  4-O ) :   2.0805
B(  3-C ,  5-C ) :   0.9482 B(  5-C ,  6-C ) :   1.6771 B(  5-C , 12-C ) :   0.9411
B(  6-C ,  7-C ) :   0.9461 B(  6-C ,  8-N ) :   1.1179 B(  7-C , 25-H ) :   0.9772
B(  7-C , 26-H ) :   0.9639 B(  7-C , 27-H ) :   0.9728 B(  8-N ,  9-C ) :   1.1976
B(  8-N , 28-H ) :   0.9508 B(  9-C , 10-S ) :   1.6074 B(  9-C , 11-N ) :   1.2881
B( 11-N , 12-C ) :   0.9878 B( 11-N , 29-H ) :   0.9469 B( 12-C , 13-C ) :   0.9536
B( 12-C , 30-H ) :   0.9952 B( 13-C , 14-C ) :   1.3917 B( 13-C , 19-C ) :   1.3368
B( 14-C , 15-C ) :   1.4029 B( 14-C , 31-H ) :   0.9568 B( 15-C , 16-C ) :   1.3578
B( 15-C , 32-H ) :   0.9695 B( 16-C , 17-C ) :   1.3327 B( 16-C , 33-H ) :   0.9846
B( 17-C , 18-O ) :   1.1091 B( 17-C , 19-C ) :   1.3649 B( 18-O , 34-H ) :   0.9794
B( 19-C , 35-H ) :   0.9571

MP2 TOTAL ENERGY:    -1274.322259310 Eh
FINAL SINGLE POINT ENERGY     -1274.322259310044

DIPOLE MOMENT
-------------
                                X             Y             Z
Electronic contribution:      9.31819       5.50553       6.62133
Nuclear contribution   :    -10.86756      -6.69195      -7.12130
                        -----------------------------------------
Total Dipole Moment    :     -1.54937      -1.18642      -0.49998
                        -----------------------------------------
Magnitude (a.u.)       :      2.01447
Magnitude (Debye)      :      5.12038

Rotational constants in cm-1:     0.011777     0.009413     0.006739
Rotational constants in MHz :   353.072863   282.207000   202.040199

                             ****ORCA TERMINATED NORMALLY****
TOTAL RUN TIME: 0 days 2 hours 8 minutes 30 seconds 847 msec
