                         Program Version 5.0.0 -  RELEASE  -
|  1> ! ri-mp2 cc-pvtz cc-pvtz/c TightSCF NoKeepInts
|  2>
|  3> %scf
|  4>   MaxCore 4096
|  5> end
|  6> *xyz  0  1
|  7>     C       14.2736863   15.2924167   16.2213759
|  8>     C       15.4170552   15.5093457   17.2260036
|  9>     O       16.6331709   15.0675975   16.5897754
| 10>     C       17.7966066   15.7888226   16.4843383
| 11>     O       18.7962271   15.2272113   16.0773640
| 12>     C       17.9317581   16.9278643   17.4364135
| 13>     C       17.3934059   18.1412240   17.1826048
| 14>     C       16.5909152   18.5357308   15.9615992
| 15>     N       17.5936396   19.1917014   18.0801542
| 16>     C       18.3863436   19.1197856   19.1969341
| 17>     S       18.6050033   20.4235555   20.1900321
| 18>     N       18.9828664   17.9090443   19.4562337
| 19>     C       18.7748047   16.6685147   18.6816484
| 20>     C       18.1403689   15.5737125   19.5328198
| 21>     C       18.6064147   14.2497575   19.4390206
| 22>     C       18.0082907   13.2253005   20.1913501
| 23>     C       16.9310727   13.5253653   21.0422869
| 24>     C       16.4583380   14.8413361   21.1321086
| 25>     O       15.4071249   15.1318711   21.9388354
| 26>     C       17.0552113   15.8596345   20.3821271
| 27>     H       13.3111907   15.5738650   16.6656651
| 28>     H       14.2183099   14.2375140   15.9238247
| 29>     H       14.4278356   15.8974113   15.3194779
| 30>     H       15.4343606   16.5614154   17.5239344
| 31>     H       15.2385828   14.9079881   18.1274413
| 32>     H       16.5788163   17.7492455   15.1970195
| 33>     H       17.0157887   19.4302909   15.4883994
| 34>     H       15.5498836   18.7560040   16.2282650
| 35>     H       17.1765600   20.0919381   17.9014600
| 36>     H       19.5443153   17.8816156   20.2981318
| 37>     H       19.7605754   16.3135253   18.3460553
| 38>     H       19.4253495   14.0109517   18.7636217
| 39>     H       18.3752367   12.2038471   20.1052951
| 40>     H       16.4638546   12.7355687   21.6213080
| 41>     H       15.1745190   14.3207506   22.4160615
| 42>     H       16.6695170   16.8702768   20.4650135
| 43> *
| 44>
| 45>                          ****END OF INPUT****

CARTESIAN COORDINATES (ANGSTROEM)
---------------------------------
  C     14.273686   15.292417   16.221376
  C     15.417055   15.509346   17.226004
  O     16.633171   15.067597   16.589775
  C     17.796607   15.788823   16.484338
  O     18.796227   15.227211   16.077364
  C     17.931758   16.927864   17.436414
  C     17.393406   18.141224   17.182605
  C     16.590915   18.535731   15.961599
  N     17.593640   19.191701   18.080154
  C     18.386344   19.119786   19.196934
  S     18.605003   20.423555   20.190032
  N     18.982866   17.909044   19.456234
  C     18.774805   16.668515   18.681648
  C     18.140369   15.573712   19.532820
  C     18.606415   14.249757   19.439021
  C     18.008291   13.225300   20.191350
  C     16.931073   13.525365   21.042287
  C     16.458338   14.841336   21.132109
  O     15.407125   15.131871   21.938835
  C     17.055211   15.859635   20.382127
  H     13.311191   15.573865   16.665665
  H     14.218310   14.237514   15.923825
  H     14.427836   15.897411   15.319478
  H     15.434361   16.561415   17.523934
  H     15.238583   14.907988   18.127441
  H     16.578816   17.749246   15.197019
  H     17.015789   19.430291   15.488399
  H     15.549884   18.756004   16.228265
  H     17.176560   20.091938   17.901460
  H     19.544315   17.881616   20.298132
  H     19.760575   16.313525   18.346055
  H     19.425349   14.010952   18.763622
  H     18.375237   12.203847   20.105295
  H     16.463855   12.735569   21.621308
  H     15.174519   14.320751   22.416062
  H     16.669517   16.870277   20.465013

 Total Charge           Charge          ....    0
 Multiplicity           Mult            ....    1
 Number of Electrons    NEL             ....  154
 Basis Dimension        Dim             ....  828

ORBITAL ENERGIES
----------------

  NO   OCC          E(Eh)            E(eV)
   0   2.0000     -91.889277     -2500.4343
   1   2.0000     -20.602238      -560.6154
   2   2.0000     -20.600326      -560.5634
   3   2.0000     -20.551509      -559.2350
   4   2.0000     -15.625376      -425.1881
   5   2.0000     -15.611766      -424.8178
   6   2.0000     -11.397897      -310.1526
   7   2.0000     -11.386427      -309.8404
   8   2.0000     -11.325475      -308.1818
   9   2.0000     -11.316868      -307.9476
  10   2.0000     -11.316366      -307.9340
  11   2.0000     -11.302791      -307.5646
  12   2.0000     -11.270821      -306.6946
  13   2.0000     -11.264729      -306.5289
  14   2.0000     -11.263761      -306.5025
  15   2.0000     -11.257054      -306.3200
  16   2.0000     -11.246421      -306.0307
  17   2.0000     -11.242343      -305.9197
  18   2.0000     -11.239845      -305.8517
  19   2.0000     -11.234304      -305.7010
  20   2.0000      -8.894405      -242.0291
  21   2.0000      -6.575997      -178.9420
  22   2.0000      -6.573967      -178.8867
  23   2.0000      -6.573397      -178.8712
  24   2.0000      -1.449537       -39.4439
  25   2.0000      -1.420146       -38.6441
  26   2.0000      -1.359810       -37.0023
  27   2.0000      -1.339162       -36.4405
  28   2.0000      -1.239456       -33.7273
  29   2.0000      -1.161711       -31.6118
  30   2.0000      -1.126056       -30.6415
  31   2.0000      -1.049656       -28.5626
  32   2.0000      -1.041279       -28.3347
  33   2.0000      -1.019127       -27.7319
  34   2.0000      -1.005383       -27.3579
  35   2.0000      -0.989388       -26.9226
  36   2.0000      -0.928181       -25.2571
  37   2.0000      -0.886089       -24.1117
  38   2.0000      -0.854386       -23.2490
  39   2.0000      -0.841615       -22.9015
  40   2.0000      -0.837334       -22.7850
  41   2.0000      -0.836794       -22.7703
  42   2.0000      -0.757084       -20.6013
  43   2.0000      -0.738042       -20.0831
  44   2.0000      -0.732453       -19.9311
  45   2.0000      -0.697761       -18.9870
  46   2.0000      -0.688792       -18.7430
  47   2.0000      -0.679848       -18.4996
  48   2.0000      -0.677287       -18.4299
  49   2.0000      -0.668438       -18.1891
  50   2.0000      -0.652669       -17.7600
  51   2.0000      -0.646758       -17.5992
  52   2.0000      -0.639765       -17.4089
  53   2.0000      -0.613102       -16.6834
  54   2.0000      -0.608518       -16.5586
  55   2.0000      -0.604237       -16.4421
  56   2.0000      -0.599774       -16.3207
  57   2.0000      -0.589611       -16.0441
  58   2.0000      -0.578682       -15.7467
  59   2.0000      -0.569591       -15.4994
  60   2.0000      -0.564313       -15.3557
  61   2.0000      -0.562067       -15.2946
  62   2.0000      -0.546098       -14.8601
  63   2.0000      -0.530403       -14.4330
  64   2.0000      -0.522825       -14.2268
  65   2.0000      -0.515425       -14.0254
  66   2.0000      -0.505805       -13.7637
  67   2.0000      -0.502526       -13.6744
  68   2.0000      -0.488382       -13.2896
  69   2.0000      -0.470643       -12.8068
  70   2.0000      -0.452468       -12.3123
  71   2.0000      -0.449069       -12.2198
  72   2.0000      -0.356382        -9.6976
  73   2.0000      -0.352033        -9.5793
  74   2.0000      -0.329097        -8.9552
  75   2.0000      -0.324669        -8.8347
  76   2.0000      -0.317578        -8.6417
  77   0.0000       0.089822         2.4442
  78   0.0000       0.104665         2.8481
  79   0.0000       0.110338         3.0024
  80   0.0000       0.126992         3.4556
  81   0.0000       0.129270         3.5176

MULLIKEN ATOMIC CHARGES
-----------------------
   0 C :   -0.256772
   1 C :    0.007035
   2 O :   -0.309291
   3 C :    0.381941
   4 O :   -0.377741
   5 C :   -0.161803
   6 C :    0.118569
   7 C :   -0.321660
   8 N :   -0.135889
   9 C :    0.207604
  10 S :   -0.442721
  11 N :   -0.214904
  12 C :    0.059783
  13 C :    0.029394
  14 C :   -0.186475
  15 C :   -0.130649
  16 C :   -0.274968
  17 C :    0.311495
  18 O :   -0.359568
  19 C :   -0.273207
  20 H :    0.090729
  21 H :    0.110033
  22 H :    0.087105
  23 H :    0.094303
  24 H :    0.130156
  25 H :    0.120833
  26 H :    0.140044
  27 H :    0.121685
  28 H :    0.195412
  29 H :    0.198637
  30 H :    0.164990
  31 H :    0.163972
  32 H :    0.163244
  33 H :    0.133009
  34 H :    0.241904
  35 H :    0.173772
Sum of atomic charges:   -0.0000000

LOEWDIN ATOMIC CHARGES
----------------------
   0 C :    0.105588
   1 C :   -0.019912
   2 O :    0.316349
   3 C :   -0.420298
   4 O :    0.127493
   5 C :   -0.080400
   6 C :   -0.112329
   7 C :    0.124642
   8 N :    0.400000
   9 C :   -0.454877
  10 S :   -0.039231
  11 N :    0.397310
  12 C :   -0.043413
  13 C :   -0.042459
  14 C :    0.024312
  15 C :    0.046375
  16 C :   -0.000513
  17 C :   -0.194797
  18 O :    0.394433
  19 C :    0.028599
  20 H :   -0.025901
  21 H :   -0.022817
  22 H :   -0.031662
  23 H :   -0.040127
  24 H :   -0.023754
  25 H :   -0.009649
  26 H :   -0.009472
  27 H :   -0.016413
  28 H :   -0.058558
  29 H :   -0.063734
  30 H :   -0.002327
  31 H :   -0.022208
  32 H :   -0.018373
  33 H :   -0.034572
  34 H :   -0.152827
  35 H :   -0.024476

  Mayer bond orders larger than 0.100000
B(  0-C ,  1-C ) :   0.9785 B(  0-C , 20-H ) :   0.9765 B(  0-C , 21-H ) :   0.9790
B(  0-C , 22-H ) :   0.9773 B(  1-C ,  2-O ) :   0.9036 B(  1-C , 23-H ) :   0.9644
B(  1-C , 24-H ) :   0.9711 B(  2-O ,  3-C ) :   1.1683 B(  3-C ,  4-O ) :   2.0977
B(  3-C ,  5-C ) :   0.9233 B(  5-C ,  6-C ) :   1.7015 B(  5-C , 12-C ) :   0.9616
B(  6-C ,  7-C ) :   0.9451 B(  6-C ,  8-N ) :   1.1086 B(  7-C , 25-H ) :   0.9809
B(  7-C , 26-H ) :   0.9708 B(  7-C , 27-H ) :   0.9656 B(  8-N ,  9-C ) :   1.1983
B(  8-N , 28-H ) :   0.9528 B(  9-C , 10-S ) :   1.6094 B(  9-C , 11-N ) :   1.2855
B( 11-N , 12-C ) :   0.9983 B( 11-N , 29-H ) :   0.9483 B( 12-C , 13-C ) :   0.9490
B( 12-C , 30-H ) :   0.9974 B( 13-C , 14-C ) :   1.3850 B( 13-C , 19-C ) :   1.3441
B( 14-C , 15-C ) :   1.3966 B( 14-C , 31-H ) :   0.9631 B( 15-C , 16-C ) :   1.3641
B( 15-C , 32-H ) :   0.9702 B( 16-C , 17-C ) :   1.3280 B( 16-C , 33-H ) :   0.9842
B( 17-C , 18-O ) :   1.1080 B( 17-C , 19-C ) :   1.3705 B( 18-O , 34-H ) :   0.9789
B( 19-C , 35-H ) :   0.9598

MP2 TOTAL ENERGY:    -1274.327356602 Eh
FINAL SINGLE POINT ENERGY     -1274.327356602314

DIPOLE MOMENT
-------------
                                X             Y             Z
Electronic contribution:     11.86027       6.12513       7.83442
Nuclear contribution   :    -13.49602      -7.16497      -8.15440
                        -----------------------------------------
Total Dipole Moment    :     -1.63575      -1.03984      -0.31998
                        -----------------------------------------
Magnitude (a.u.)       :      1.96452
Magnitude (Debye)      :      4.99340

Rotational constants in cm-1:     0.011648     0.009172     0.006798
Rotational constants in MHz :   349.190444   274.973196   203.784162

                             ****ORCA TERMINATED NORMALLY****
TOTAL RUN TIME: 0 days 2 hours 6 minutes 27 seconds 435 msec
