                         Program Version 5.0.0 -  RELEASE  -
|  1> ! ri-mp2 cc-pvtz cc-pvtz/c TightSCF NoKeepInts
|  2>
|  3> %scf
|  4>   MaxCore 4096
|  5> end
|  6> *xyz  0  1
|  7>     C       15.2368104   14.6635574   16.8459496
|  8>     C       16.6705722   14.1567778   16.5764800
|  9>     O       17.4018918   15.0889800   15.7553085
| 10>     C       17.3469857   16.4548789   15.8595172
| 11>     O       17.1364684   17.1005425   14.8499289
| 12>     C       17.6011133   17.0981032   17.2041446
| 13>     C       17.2930318   18.4053667   17.4191674
| 14>     C       16.4915841   19.3259028   16.5239115
| 15>     N       17.8081225   19.0672672   18.5398191
| 16>     C       18.8764233   18.6070603   19.2662301
| 17>     S       19.6580036   19.5469688   20.3804665
| 18>     N       19.2804270   17.3241400   18.9905998
| 19>     C       18.4405582   16.3559596   18.2633826
| 20>     C       17.6360303   15.5875512   19.3128186
| 21>     C       18.1559611   14.3903057   19.8430980
| 22>     C       17.4484800   13.6695418   20.8195605
| 23>     C       16.2150940   14.1554732   21.2840413
| 24>     C       15.7048389   15.3586774   20.7796722
| 25>     O       14.5183120   15.8369721   21.2308816
| 26>     C       16.4105097   16.0730342   19.8068235
| 27>     H       15.2267534   15.6037111   17.4064549
| 28>     H       14.6763704   13.9221391   17.4284312
| 29>     H       14.7038707   14.8238660   15.9000325
| 30>     H       17.1913414   13.9560890   17.5125016
| 31>     H       16.6118133   13.1981419   16.0448970
| 32>     H       15.6072985   18.8126055   16.1256272
| 33>     H       17.0959793   19.6475310   15.6656578
| 34>     H       16.1396030   20.2239287   17.0449437
| 35>     H       17.5378864   20.0205436   18.7232033
| 36>     H       20.0652621   17.0022158   19.5417875
| 37>     H       19.1036196   15.6515793   17.7411270
| 38>     H       19.1145435   14.0146989   19.4944284
| 39>     H       17.8589939   12.7432114   21.2185602
| 40>     H       15.6657107   13.6039566   22.0402232
| 41>     H       14.2200719   15.2523772   21.9443800
| 42>     H       15.9966634   17.0083440   19.4499427
| 43> *
| 44>
| 45>                          ****END OF INPUT****

CARTESIAN COORDINATES (ANGSTROEM)
---------------------------------
  C     15.236810   14.663557   16.845950
  C     16.670572   14.156778   16.576480
  O     17.401892   15.088980   15.755308
  C     17.346986   16.454879   15.859517
  O     17.136468   17.100542   14.849929
  C     17.601113   17.098103   17.204145
  C     17.293032   18.405367   17.419167
  C     16.491584   19.325903   16.523912
  N     17.808122   19.067267   18.539819
  C     18.876423   18.607060   19.266230
  S     19.658004   19.546969   20.380466
  N     19.280427   17.324140   18.990600
  C     18.440558   16.355960   18.263383
  C     17.636030   15.587551   19.312819
  C     18.155961   14.390306   19.843098
  C     17.448480   13.669542   20.819561
  C     16.215094   14.155473   21.284041
  C     15.704839   15.358677   20.779672
  O     14.518312   15.836972   21.230882
  C     16.410510   16.073034   19.806823
  H     15.226753   15.603711   17.406455
  H     14.676370   13.922139   17.428431
  H     14.703871   14.823866   15.900033
  H     17.191341   13.956089   17.512502
  H     16.611813   13.198142   16.044897
  H     15.607299   18.812606   16.125627
  H     17.095979   19.647531   15.665658
  H     16.139603   20.223929   17.044944
  H     17.537886   20.020544   18.723203
  H     20.065262   17.002216   19.541787
  H     19.103620   15.651579   17.741127
  H     19.114543   14.014699   19.494428
  H     17.858994   12.743211   21.218560
  H     15.665711   13.603957   22.040223
  H     14.220072   15.252377   21.944380
  H     15.996663   17.008344   19.449943

 Total Charge           Charge          ....    0
 Multiplicity           Mult            ....    1
 Number of Electrons    NEL             ....  154
 Basis Dimension        Dim             ....  828

ORBITAL ENERGIES
----------------

  NO   OCC          E(Eh)            E(eV)
   0   2.0000     -91.892446     -2500.5206
   1   2.0000     -20.604856      -560.6866
   2   2.0000     -20.587420      -560.2122
   3   2.0000     -20.541503      -558.9627
   4   2.0000     -15.632530      -425.3828
   5   2.0000     -15.611258      -424.8039
   6   2.0000     -11.393523      -310.0335
   7   2.0000     -11.386383      -309.8392
   8   2.0000     -11.337724      -308.5152
   9   2.0000     -11.322423      -308.0988
  10   2.0000     -11.318276      -307.9859
  11   2.0000     -11.299794      -307.4830
  12   2.0000     -11.269769      -306.6660
  13   2.0000     -11.264416      -306.5203
  14   2.0000     -11.261404      -306.4384
  15   2.0000     -11.253693      -306.2285
  16   2.0000     -11.250508      -306.1419
  17   2.0000     -11.247006      -306.0466
  18   2.0000     -11.245997      -306.0191
  19   2.0000     -11.229724      -305.5763
  20   2.0000      -8.897397      -242.1105
  21   2.0000      -6.578948      -179.0223
  22   2.0000      -6.576973      -178.9685
  23   2.0000      -6.576365      -178.9520
  24   2.0000      -1.441206       -39.2172
  25   2.0000      -1.424399       -38.7599
  26   2.0000      -1.350874       -36.7592
  27   2.0000      -1.344370       -36.5822
  28   2.0000      -1.242823       -33.8189
  29   2.0000      -1.165150       -31.7053
  30   2.0000      -1.121938       -30.5295
  31   2.0000      -1.048784       -28.5389
  32   2.0000      -1.032289       -28.0900
  33   2.0000      -1.024310       -27.8729
  34   2.0000      -1.001898       -27.2630
  35   2.0000      -0.987494       -26.8711
  36   2.0000      -0.927983       -25.2517
  37   2.0000      -0.897234       -24.4150
  38   2.0000      -0.850816       -23.1519
  39   2.0000      -0.849880       -23.1264
  40   2.0000      -0.841770       -22.9057
  41   2.0000      -0.826457       -22.4890
  42   2.0000      -0.751455       -20.4481
  43   2.0000      -0.738249       -20.0888
  44   2.0000      -0.714381       -19.4393
  45   2.0000      -0.704167       -19.1614
  46   2.0000      -0.695525       -18.9262
  47   2.0000      -0.676932       -18.4203
  48   2.0000      -0.672304       -18.2943
  49   2.0000      -0.661660       -18.0047
  50   2.0000      -0.654397       -17.8071
  51   2.0000      -0.652967       -17.7681
  52   2.0000      -0.637843       -17.3566
  53   2.0000      -0.625045       -17.0083
  54   2.0000      -0.616076       -16.7643
  55   2.0000      -0.606623       -16.5071
  56   2.0000      -0.602103       -16.3841
  57   2.0000      -0.585144       -15.9226
  58   2.0000      -0.574460       -15.6318
  59   2.0000      -0.566758       -15.4223
  60   2.0000      -0.549518       -14.9532
  61   2.0000      -0.543527       -14.7901
  62   2.0000      -0.539671       -14.6852
  63   2.0000      -0.537233       -14.6189
  64   2.0000      -0.534060       -14.5325
  65   2.0000      -0.517577       -14.0840
  66   2.0000      -0.510373       -13.8880
  67   2.0000      -0.496659       -13.5148
  68   2.0000      -0.481151       -13.0928
  69   2.0000      -0.466762       -12.7012
  70   2.0000      -0.450531       -12.2596
  71   2.0000      -0.442496       -12.0409
  72   2.0000      -0.363010        -9.8780
  73   2.0000      -0.357175        -9.7192
  74   2.0000      -0.333325        -9.0702
  75   2.0000      -0.328084        -8.9276
  76   2.0000      -0.318458        -8.6657
  77   0.0000       0.070914         1.9297
  78   0.0000       0.103226         2.8089
  79   0.0000       0.118026         3.2116
  80   0.0000       0.122335         3.3289
  81   0.0000       0.129129         3.5138

MULLIKEN ATOMIC CHARGES
-----------------------
   0 C :   -0.317922
   1 C :    0.023525
   2 O :   -0.345372
   3 C :    0.468194
   4 O :   -0.387163
   5 C :   -0.249692
   6 C :    0.123078
   7 C :   -0.272350
   8 N :   -0.122222
   9 C :    0.215376
  10 S :   -0.433788
  11 N :   -0.199942
  12 C :    0.036640
  13 C :    0.082064
  14 C :   -0.229115
  15 C :   -0.125555
  16 C :   -0.277414
  17 C :    0.329127
  18 O :   -0.357207
  19 C :   -0.289696
  20 H :    0.098777
  21 H :    0.107946
  22 H :    0.122795
  23 H :    0.093118
  24 H :    0.124831
  25 H :    0.124241
  26 H :    0.143460
  27 H :    0.093438
  28 H :    0.199464
  29 H :    0.189010
  30 H :    0.160450
  31 H :    0.154638
  32 H :    0.163147
  33 H :    0.133451
  34 H :    0.243200
  35 H :    0.177469
Sum of atomic charges:    0.0000000

LOEWDIN ATOMIC CHARGES
----------------------
   0 C :    0.106947
   1 C :   -0.019341
   2 O :    0.292606
   3 C :   -0.424477
   4 O :    0.120511
   5 C :   -0.097309
   6 C :   -0.060644
   7 C :    0.129157
   8 N :    0.409054
   9 C :   -0.453197
  10 S :   -0.029146
  11 N :    0.395773
  12 C :   -0.052423
  13 C :   -0.038053
  14 C :    0.006341
  15 C :    0.043193
  16 C :   -0.000285
  17 C :   -0.187760
  18 O :    0.396694
  19 C :    0.032504
  20 H :   -0.035462
  21 H :   -0.022135
  22 H :   -0.023522
  23 H :   -0.044204
  24 H :   -0.020473
  25 H :   -0.006851
  26 H :   -0.001538
  27 H :   -0.022973
  28 H :   -0.057012
  29 H :   -0.067982
  30 H :   -0.003730
  31 H :   -0.031236
  32 H :   -0.018778
  33 H :   -0.033967
  34 H :   -0.151468
  35 H :   -0.028815

  Mayer bond orders larger than 0.100000
B(  0-C ,  1-C ) :   0.9630 B(  0-C , 20-H ) :   0.9705 B(  0-C , 21-H ) :   0.9754
B(  0-C , 22-H ) :   0.9748 B(  1-C ,  2-O ) :   0.9067 B(  1-C , 23-H ) :   0.9687
B(  1-C , 24-H ) :   0.9810 B(  2-O ,  3-C ) :   1.1505 B(  3-C ,  4-O ) :   2.0620
B(  3-C ,  5-C ) :   0.9916 B(  5-C ,  6-C ) :   1.6514 B(  5-C , 12-C ) :   0.9692
B(  6-C ,  7-C ) :   0.9797 B(  6-C ,  8-N ) :   1.1434 B(  7-C , 25-H ) :   0.9682
B(  7-C , 26-H ) :   0.9526 B(  7-C , 27-H ) :   0.9845 B(  8-N ,  9-C ) :   1.1815
B(  8-N , 28-H ) :   0.9496 B(  9-C , 10-S ) :   1.6186 B(  9-C , 11-N ) :   1.2935
B( 11-N , 12-C ) :   0.9539 B( 11-N , 29-H ) :   0.9545 B( 12-C , 13-C ) :   0.9607
B( 12-C , 30-H ) :   0.9952 B( 13-C , 14-C ) :   1.3316 B( 13-C , 19-C ) :   1.3656
B( 14-C , 15-C ) :   1.4016 B( 14-C , 31-H ) :   0.9757 B( 15-C , 16-C ) :   1.3653
B( 15-C , 32-H ) :   0.9697 B( 16-C , 17-C ) :   1.3326 B( 16-C , 33-H ) :   0.9835
B( 17-C , 18-O ) :   1.1177 B( 17-C , 19-C ) :   1.3634 B( 18-O , 34-H ) :   0.9785
B( 19-C , 35-H ) :   0.9494

MP2 TOTAL ENERGY:    -1274.330785453 Eh
FINAL SINGLE POINT ENERGY     -1274.330785453479

DIPOLE MOMENT
-------------
                                X             Y             Z
Electronic contribution:      9.37555       8.07698       4.29349
Nuclear contribution   :    -10.63664      -9.75592      -3.47977
                        -----------------------------------------
Total Dipole Moment    :     -1.26109      -1.67895       0.81372
                        -----------------------------------------
Magnitude (a.u.)       :      2.25197
Magnitude (Debye)      :      5.72405

Rotational constants in cm-1:     0.011161     0.010069     0.006799
Rotational constants in MHz :   334.594666   301.860511   203.830671

                             ****ORCA TERMINATED NORMALLY****
TOTAL RUN TIME: 0 days 2 hours 1 minutes 38 seconds 949 msec
