                         Program Version 5.0.0 -  RELEASE  -
|  1> ! ri-mp2 cc-pvtz cc-pvtz/c TightSCF NoKeepInts
|  2>
|  3> %scf
|  4>   MaxCore 4096
|  5> end
|  6> *xyz  0  1
|  7>     C       15.0655827   15.7232948   17.4017300
|  8>     C       15.5327448   15.2681160   16.0025785
|  9>     O       16.9615678   15.0618411   15.8409721
| 10>     C       18.0654009   15.5852711   16.4794146
| 11>     O       19.0944181   14.9348273   16.4847844
| 12>     C       17.9197038   16.7566164   17.3973917
| 13>     C       17.3976653   17.9366794   16.9840952
| 14>     C       16.8600551   18.2705761   15.6082884
| 15>     N       17.4097031   19.0423391   17.8375122
| 16>     C       18.0762775   19.0956922   19.0332825
| 17>     S       18.1223046   20.4767515   19.9413862
| 18>     N       18.7080637   17.9456536   19.4367165
| 19>     C       18.6033886   16.6351548   18.7637035
| 20>     C       17.9070007   15.6055290   19.6504578
| 21>     C       18.3363960   14.2654994   19.6383321
| 22>     C       17.7005099   13.3002970   20.4364938
| 23>     C       16.6235963   13.6760736   21.2567658
| 24>     C       16.1902501   15.0084072   21.2719882
| 25>     O       15.1433592   15.3723940   22.0543566
| 26>     C       16.8246891   15.9676202   20.4761038
| 27>     H       15.5660783   15.1392082   18.1817879
| 28>     H       13.9895414   15.5371673   17.5043809
| 29>     H       15.2124473   16.7895014   17.5873011
| 30>     H       15.0315547   14.3213257   15.7621658
| 31>     H       15.1849641   15.9998737   15.2631507
| 32>     H       17.1686769   17.5375219   14.8531883
| 33>     H       17.2359246   19.2429850   15.2650655
| 34>     H       15.7647089   18.3181827   15.6116829
| 35>     H       16.9704300   19.9024824   17.5493483
| 36>     H       19.1823630   18.0093807   20.3286683
| 37>     H       19.6287426   16.2770047   18.5880893
| 38>     H       19.1631343   13.9681155   18.9962358
| 39>     H       18.0418516   12.2667127   20.4131488
| 40>     H       16.1284687   12.9329443   21.8730569
| 41>     H       14.8720418   14.5906650   22.5588171
| 42>     H       16.4633948   16.9902950   20.5015585
| 43> *
| 44>
| 45>                          ****END OF INPUT****

CARTESIAN COORDINATES (ANGSTROEM)
---------------------------------
  C     15.065583   15.723295   17.401730
  C     15.532745   15.268116   16.002578
  O     16.961568   15.061841   15.840972
  C     18.065401   15.585271   16.479415
  O     19.094418   14.934827   16.484784
  C     17.919704   16.756616   17.397392
  C     17.397665   17.936679   16.984095
  C     16.860055   18.270576   15.608288
  N     17.409703   19.042339   17.837512
  C     18.076277   19.095692   19.033282
  S     18.122305   20.476751   19.941386
  N     18.708064   17.945654   19.436716
  C     18.603389   16.635155   18.763703
  C     17.907001   15.605529   19.650458
  C     18.336396   14.265499   19.638332
  C     17.700510   13.300297   20.436494
  C     16.623596   13.676074   21.256766
  C     16.190250   15.008407   21.271988
  O     15.143359   15.372394   22.054357
  C     16.824689   15.967620   20.476104
  H     15.566078   15.139208   18.181788
  H     13.989541   15.537167   17.504381
  H     15.212447   16.789501   17.587301
  H     15.031555   14.321326   15.762166
  H     15.184964   15.999874   15.263151
  H     17.168677   17.537522   14.853188
  H     17.235925   19.242985   15.265066
  H     15.764709   18.318183   15.611683
  H     16.970430   19.902482   17.549348
  H     19.182363   18.009381   20.328668
  H     19.628743   16.277005   18.588089
  H     19.163134   13.968115   18.996236
  H     18.041852   12.266713   20.413149
  H     16.128469   12.932944   21.873057
  H     14.872042   14.590665   22.558817
  H     16.463395   16.990295   20.501559

 Total Charge           Charge          ....    0
 Multiplicity           Mult            ....    1
 Number of Electrons    NEL             ....  154
 Basis Dimension        Dim             ....  828

ORBITAL ENERGIES
----------------

  NO   OCC          E(Eh)            E(eV)
   0   2.0000     -91.890870     -2500.4777
   1   2.0000     -20.597758      -560.4935
   2   2.0000     -20.596770      -560.4666
   3   2.0000     -20.545976      -559.0844
   4   2.0000     -15.629250      -425.2935
   5   2.0000     -15.611106      -424.7998
   6   2.0000     -11.400411      -310.2209
   7   2.0000     -11.387100      -309.8587
   8   2.0000     -11.332582      -308.3752
   9   2.0000     -11.314465      -307.8823
  10   2.0000     -11.313145      -307.8463
  11   2.0000     -11.312911      -307.8400
  12   2.0000     -11.269895      -306.6694
  13   2.0000     -11.265481      -306.5493
  14   2.0000     -11.261702      -306.4465
  15   2.0000     -11.254900      -306.2614
  16   2.0000     -11.244004      -305.9649
  17   2.0000     -11.239551      -305.8437
  18   2.0000     -11.236331      -305.7561
  19   2.0000     -11.234489      -305.7060
  20   2.0000      -8.895961      -242.0714
  21   2.0000      -6.577546      -178.9841
  22   2.0000      -6.575524      -178.9291
  23   2.0000      -6.574944      -178.9133
  24   2.0000      -1.441304       -39.2199
  25   2.0000      -1.417572       -38.5741
  26   2.0000      -1.353724       -36.8367
  27   2.0000      -1.341831       -36.5131
  28   2.0000      -1.240558       -33.7573
  29   2.0000      -1.159093       -31.5405
  30   2.0000      -1.125141       -30.6166
  31   2.0000      -1.047604       -28.5067
  32   2.0000      -1.041085       -28.3294
  33   2.0000      -1.017289       -27.6818
  34   2.0000      -1.005549       -27.3624
  35   2.0000      -0.990482       -26.9524
  36   2.0000      -0.928123       -25.2555
  37   2.0000      -0.901170       -24.5221
  38   2.0000      -0.854679       -23.2570
  39   2.0000      -0.840971       -22.8840
  40   2.0000      -0.834542       -22.7091
  41   2.0000      -0.827835       -22.5265
  42   2.0000      -0.745035       -20.2734
  43   2.0000      -0.735248       -20.0071
  44   2.0000      -0.730665       -19.8824
  45   2.0000      -0.695030       -18.9127
  46   2.0000      -0.686826       -18.6895
  47   2.0000      -0.678757       -18.4699
  48   2.0000      -0.674349       -18.3500
  49   2.0000      -0.660568       -17.9750
  50   2.0000      -0.658121       -17.9084
  51   2.0000      -0.652043       -17.7430
  52   2.0000      -0.641798       -17.4642
  53   2.0000      -0.616196       -16.7675
  54   2.0000      -0.608147       -16.5485
  55   2.0000      -0.605229       -16.4691
  56   2.0000      -0.602197       -16.3866
  57   2.0000      -0.591066       -16.0837
  58   2.0000      -0.577174       -15.7057
  59   2.0000      -0.572133       -15.5685
  60   2.0000      -0.565570       -15.3899
  61   2.0000      -0.556887       -15.1537
  62   2.0000      -0.543483       -14.7889
  63   2.0000      -0.530205       -14.4276
  64   2.0000      -0.521420       -14.1886
  65   2.0000      -0.513871       -13.9831
  66   2.0000      -0.501258       -13.6399
  67   2.0000      -0.497392       -13.5347
  68   2.0000      -0.483252       -13.1500
  69   2.0000      -0.467926       -12.7329
  70   2.0000      -0.454936       -12.3794
  71   2.0000      -0.448372       -12.2008
  72   2.0000      -0.356623        -9.7042
  73   2.0000      -0.348888        -9.4937
  74   2.0000      -0.330369        -8.9898
  75   2.0000      -0.323124        -8.7927
  76   2.0000      -0.319036        -8.6814
  77   0.0000       0.081654         2.2219
  78   0.0000       0.107684         2.9302
  79   0.0000       0.114502         3.1158
  80   0.0000       0.129974         3.5368
  81   0.0000       0.131118         3.5679

MULLIKEN ATOMIC CHARGES
-----------------------
   0 C :   -0.344554
   1 C :    0.044864
   2 O :   -0.334051
   3 C :    0.426826
   4 O :   -0.386840
   5 C :   -0.204245
   6 C :    0.137448
   7 C :   -0.335204
   8 N :   -0.137501
   9 C :    0.200305
  10 S :   -0.439141
  11 N :   -0.221928
  12 C :    0.082740
  13 C :    0.017497
  14 C :   -0.210685
  15 C :   -0.135677
  16 C :   -0.276581
  17 C :    0.318477
  18 O :   -0.357844
  19 C :   -0.270622
  20 H :    0.131822
  21 H :    0.120906
  22 H :    0.108161
  23 H :    0.131364
  24 H :    0.084564
  25 H :    0.135324
  26 H :    0.137029
  27 H :    0.121589
  28 H :    0.197391
  29 H :    0.201289
  30 H :    0.167197
  31 H :    0.176983
  32 H :    0.163890
  33 H :    0.132027
  34 H :    0.241087
  35 H :    0.176097
Sum of atomic charges:   -0.0000000

LOEWDIN ATOMIC CHARGES
----------------------
   0 C :    0.104974
   1 C :   -0.014859
   2 O :    0.291057
   3 C :   -0.416100
   4 O :    0.119729
   5 C :   -0.081917
   6 C :   -0.094175
   7 C :    0.126190
   8 N :    0.403150
   9 C :   -0.457981
  10 S :   -0.036360
  11 N :    0.398264
  12 C :   -0.042756
  13 C :   -0.043699
  14 C :    0.019576
  15 C :    0.043715
  16 C :   -0.001711
  17 C :   -0.194083
  18 O :    0.395240
  19 C :    0.027844
  20 H :   -0.021618
  21 H :   -0.021720
  22 H :   -0.036309
  23 H :   -0.017352
  24 H :   -0.036874
  25 H :   -0.006981
  26 H :   -0.010112
  27 H :   -0.018107
  28 H :   -0.057611
  29 H :   -0.063392
  30 H :   -0.001907
  31 H :   -0.021684
  32 H :   -0.018627
  33 H :   -0.035037
  34 H :   -0.153586
  35 H :   -0.025181

  Mayer bond orders larger than 0.100000
B(  0-C ,  1-C ) :   0.9569 B(  0-C , 20-H ) :   0.9650 B(  0-C , 21-H ) :   0.9779
B(  0-C , 22-H ) :   0.9738 B(  1-C ,  2-O ) :   0.9059 B(  1-C , 23-H ) :   0.9788
B(  1-C , 24-H ) :   0.9747 B(  2-O ,  3-C ) :   1.1790 B(  3-C ,  4-O ) :   2.0719
B(  3-C ,  5-C ) :   0.9340 B(  5-C ,  6-C ) :   1.6955 B(  5-C , 12-C ) :   0.9545
B(  6-C ,  7-C ) :   0.9425 B(  6-C ,  8-N ) :   1.1028 B(  7-C , 25-H ) :   0.9773
B(  7-C , 26-H ) :   0.9754 B(  7-C , 27-H ) :   0.9640 B(  8-N ,  9-C ) :   1.1926
B(  8-N , 28-H ) :   0.9515 B(  9-C , 10-S ) :   1.6110 B(  9-C , 11-N ) :   1.2900
B( 11-N , 12-C ) :   0.9879 B( 11-N , 29-H ) :   0.9486 B( 12-C , 13-C ) :   0.9472
B( 12-C , 30-H ) :   0.9947 B( 13-C , 14-C ) :   1.3915 B( 13-C , 19-C ) :   1.3447
B( 14-C , 15-C ) :   1.3990 B( 14-C , 31-H ) :   0.9572 B( 15-C , 16-C ) :   1.3603
B( 15-C , 32-H ) :   0.9702 B( 16-C , 17-C ) :   1.3300 B( 16-C , 33-H ) :   0.9847
B( 17-C , 18-O ) :   1.1108 B( 17-C , 19-C ) :   1.3686 B( 18-O , 34-H ) :   0.9796
B( 19-C , 35-H ) :   0.9578

MP2 TOTAL ENERGY:    -1274.326062856 Eh
FINAL SINGLE POINT ENERGY     -1274.326062856280

DIPOLE MOMENT
-------------
                                X             Y             Z
Electronic contribution:      9.50954       5.75923       6.55291
Nuclear contribution   :    -11.14421      -6.77655      -7.15048
                        -----------------------------------------
Total Dipole Moment    :     -1.63467      -1.01732      -0.59758
                        -----------------------------------------
Magnitude (a.u.)       :      2.01598
Magnitude (Debye)      :      5.12421

Rotational constants in cm-1:     0.011505     0.009663     0.006791
Rotational constants in MHz :   344.911071   289.684475   203.592965

                             ****ORCA TERMINATED NORMALLY****
TOTAL RUN TIME: 0 days 2 hours 13 minutes 12 seconds 17 msec
