                         Program Version 5.0.0 -  RELEASE  -
|  1> ! ri-mp2 cc-pvtz cc-pvtz/c TightSCF NoKeepInts
|  2>
|  3> %scf
|  4>   MaxCore 4096
|  5> end
|  6> *xyz  0  1
|  7>     C       14.3681240   14.7257390   15.9678233
|  8>     C       15.7774814   14.7285888   15.3516050
|  9>     O       16.4607793   15.8916298   15.8554957
| 10>     C       17.5495244   15.7568562   16.6685991
| 11>     O       18.1554538   14.7039588   16.7836340
| 12>     C       17.8142545   16.9375229   17.5601813
| 13>     C       17.2955046   18.1825851   17.3890574
| 14>     C       16.3689282   18.6694596   16.2934593
| 15>     N       17.6672484   19.2144510   18.2576941
| 16>     C       18.6488514   19.1243191   19.2088089
| 17>     S       19.1176495   20.4330563   20.1049795
| 18>     N       19.2227585   17.8903225   19.3783258
| 19>     C       18.7521940   16.6479653   18.7380497
| 20>     C       18.0784343   15.7410210   19.7647519
| 21>     C       18.5195305   14.4168479   19.9439330
| 22>     C       17.9006771   13.5763126   20.8843904
| 23>     C       16.8302229   14.0629350   21.6537522
| 24>     C       16.3851474   15.3798718   21.4759119
| 25>     O       15.3474462   15.8507562   22.2126965
| 26>     C       17.0029395   16.2140070   20.5389056
| 27>     H       14.4260663   14.6476487   17.0609655
| 28>     H       13.7870348   13.8738229   15.5942881
| 29>     H       13.8305070   15.6474116   15.7130807
| 30>     H       16.2957908   13.7927950   15.6008428
| 31>     H       15.6986135   14.7930498   14.2587871
| 32>     H       16.7664960   18.4116757   15.3039281
| 33>     H       16.2275687   19.7568986   16.3092914
| 34>     H       15.3784491   18.2076928   16.3912224
| 35>     H       17.2575453   20.1283610   18.1491056
| 36>     H       19.9216458   17.8419172   20.1084623
| 37>     H       19.6346346   16.1241989   18.3428431
| 38>     H       19.3356698   14.0324520   19.3369941
| 39>     H       18.2476275   12.5520907   21.0083889
| 40>     H       16.3481126   13.4165341   22.3794318
| 41>     H       15.0833534   15.1465218   22.8234804
| 42>     H       16.6447350   17.2307231   20.4208327
| 43> *
| 44>
| 45>                          ****END OF INPUT****

CARTESIAN COORDINATES (ANGSTROEM)
---------------------------------
  C     14.368124   14.725739   15.967823
  C     15.777481   14.728589   15.351605
  O     16.460779   15.891630   15.855496
  C     17.549524   15.756856   16.668599
  O     18.155454   14.703959   16.783634
  C     17.814255   16.937523   17.560181
  C     17.295505   18.182585   17.389057
  C     16.368928   18.669460   16.293459
  N     17.667248   19.214451   18.257694
  C     18.648851   19.124319   19.208809
  S     19.117649   20.433056   20.104979
  N     19.222759   17.890322   19.378326
  C     18.752194   16.647965   18.738050
  C     18.078434   15.741021   19.764752
  C     18.519530   14.416848   19.943933
  C     17.900677   13.576313   20.884390
  C     16.830223   14.062935   21.653752
  C     16.385147   15.379872   21.475912
  O     15.347446   15.850756   22.212696
  C     17.002940   16.214007   20.538906
  H     14.426066   14.647649   17.060965
  H     13.787035   13.873823   15.594288
  H     13.830507   15.647412   15.713081
  H     16.295791   13.792795   15.600843
  H     15.698613   14.793050   14.258787
  H     16.766496   18.411676   15.303928
  H     16.227569   19.756899   16.309291
  H     15.378449   18.207693   16.391222
  H     17.257545   20.128361   18.149106
  H     19.921646   17.841917   20.108462
  H     19.634635   16.124199   18.342843
  H     19.335670   14.032452   19.336994
  H     18.247628   12.552091   21.008389
  H     16.348113   13.416534   22.379432
  H     15.083353   15.146522   22.823480
  H     16.644735   17.230723   20.420833

 Total Charge           Charge          ....    0
 Multiplicity           Mult            ....    1
 Number of Electrons    NEL             ....  154
 Basis Dimension        Dim             ....  828

ORBITAL ENERGIES
----------------

  NO   OCC          E(Eh)            E(eV)
   0   2.0000     -91.888100     -2500.4023
   1   2.0000     -20.603052      -560.6376
   2   2.0000     -20.591810      -560.3316
   3   2.0000     -20.545334      -559.0670
   4   2.0000     -15.628528      -425.2739
   5   2.0000     -15.606698      -424.6798
   6   2.0000     -11.396436      -310.1128
   7   2.0000     -11.382949      -309.7458
   8   2.0000     -11.336639      -308.4856
   9   2.0000     -11.307618      -307.6959
  10   2.0000     -11.305432      -307.6365
  11   2.0000     -11.298706      -307.4534
  12   2.0000     -11.260683      -306.4188
  13   2.0000     -11.258995      -306.3728
  14   2.0000     -11.253428      -306.2213
  15   2.0000     -11.247666      -306.0646
  16   2.0000     -11.237347      -305.7838
  17   2.0000     -11.233507      -305.6793
  18   2.0000     -11.231975      -305.6376
  19   2.0000     -11.230383      -305.5943
  20   2.0000      -8.893162      -241.9953
  21   2.0000      -6.574739      -178.9078
  22   2.0000      -6.572733      -178.8532
  23   2.0000      -6.572147      -178.8372
  24   2.0000      -1.453538       -39.5528
  25   2.0000      -1.411553       -38.4103
  26   2.0000      -1.357372       -36.9360
  27   2.0000      -1.339444       -36.4481
  28   2.0000      -1.237015       -33.6609
  29   2.0000      -1.152166       -31.3520
  30   2.0000      -1.119482       -30.4626
  31   2.0000      -1.043843       -28.4044
  32   2.0000      -1.036467       -28.2037
  33   2.0000      -1.009544       -27.4711
  34   2.0000      -0.997794       -27.1514
  35   2.0000      -0.983287       -26.7566
  36   2.0000      -0.921189       -25.0668
  37   2.0000      -0.891511       -24.2593
  38   2.0000      -0.847285       -23.0558
  39   2.0000      -0.834996       -22.7214
  40   2.0000      -0.827874       -22.5276
  41   2.0000      -0.815784       -22.1986
  42   2.0000      -0.760851       -20.7038
  43   2.0000      -0.736243       -20.0342
  44   2.0000      -0.724826       -19.7235
  45   2.0000      -0.691134       -18.8067
  46   2.0000      -0.685101       -18.6425
  47   2.0000      -0.679049       -18.4779
  48   2.0000      -0.672902       -18.3106
  49   2.0000      -0.659210       -17.9380
  50   2.0000      -0.648868       -17.6566
  51   2.0000      -0.644117       -17.5273
  52   2.0000      -0.633899       -17.2493
  53   2.0000      -0.602963       -16.4075
  54   2.0000      -0.600136       -16.3305
  55   2.0000      -0.596473       -16.2309
  56   2.0000      -0.593853       -16.1596
  57   2.0000      -0.584161       -15.8958
  58   2.0000      -0.573762       -15.6128
  59   2.0000      -0.561833       -15.2882
  60   2.0000      -0.559983       -15.2379
  61   2.0000      -0.557269       -15.1641
  62   2.0000      -0.537338       -14.6217
  63   2.0000      -0.527993       -14.3674
  64   2.0000      -0.517328       -14.0772
  65   2.0000      -0.509833       -13.8733
  66   2.0000      -0.499282       -13.5861
  67   2.0000      -0.495529       -13.4840
  68   2.0000      -0.481117       -13.0919
  69   2.0000      -0.463581       -12.6147
  70   2.0000      -0.457370       -12.4457
  71   2.0000      -0.454784       -12.3753
  72   2.0000      -0.354346        -9.6423
  73   2.0000      -0.344066        -9.3625
  74   2.0000      -0.327219        -8.9041
  75   2.0000      -0.315717        -8.5911
  76   2.0000      -0.313793        -8.5388
  77   0.0000       0.075798         2.0626
  78   0.0000       0.112755         3.0682
  79   0.0000       0.120303         3.2736
  80   0.0000       0.136006         3.7009
  81   0.0000       0.140281         3.8172

MULLIKEN ATOMIC CHARGES
-----------------------
   0 C :   -0.272551
   1 C :    0.014573
   2 O :   -0.344661
   3 C :    0.451625
   4 O :   -0.429170
   5 C :   -0.179579
   6 C :    0.143066
   7 C :   -0.284979
   8 N :   -0.122149
   9 C :    0.201710
  10 S :   -0.439178
  11 N :   -0.197026
  12 C :    0.036931
  13 C :    0.056719
  14 C :   -0.159846
  15 C :   -0.133958
  16 C :   -0.279487
  17 C :    0.311513
  18 O :   -0.359167
  19 C :   -0.274257
  20 H :    0.103560
  21 H :    0.097871
  22 H :    0.089351
  23 H :    0.122005
  24 H :    0.100685
  25 H :    0.127302
  26 H :    0.102683
  27 H :    0.126885
  28 H :    0.196815
  29 H :    0.193637
  30 H :    0.153776
  31 H :    0.153262
  32 H :    0.159078
  33 H :    0.128140
  34 H :    0.240111
  35 H :    0.164709
Sum of atomic charges:   -0.0000000

LOEWDIN ATOMIC CHARGES
----------------------
   0 C :    0.103829
   1 C :   -0.012406
   2 O :    0.307892
   3 C :   -0.415005
   4 O :    0.103241
   5 C :   -0.091533
   6 C :   -0.065545
   7 C :    0.124897
   8 N :    0.404856
   9 C :   -0.458920
  10 S :   -0.035901
  11 N :    0.397922
  12 C :   -0.046549
  13 C :   -0.038821
  14 C :    0.022324
  15 C :    0.040915
  16 C :   -0.002477
  17 C :   -0.192983
  18 O :    0.392927
  19 C :    0.028098
  20 H :   -0.024497
  21 H :   -0.024986
  22 H :   -0.030442
  23 H :   -0.026687
  24 H :   -0.029753
  25 H :   -0.008165
  26 H :   -0.021080
  27 H :   -0.010370
  28 H :   -0.059193
  29 H :   -0.063654
  30 H :   -0.004999
  31 H :   -0.025253
  32 H :   -0.021228
  33 H :   -0.036414
  34 H :   -0.154900
  35 H :   -0.025141

  Mayer bond orders larger than 0.100000
B(  0-C ,  1-C ) :   0.9711 B(  0-C , 20-H ) :   0.9762 B(  0-C , 21-H ) :   0.9768
B(  0-C , 22-H ) :   0.9796 B(  1-C ,  2-O ) :   0.8863 B(  1-C , 23-H ) :   0.9726
B(  1-C , 24-H ) :   0.9833 B(  2-O ,  3-C ) :   1.1653 B(  3-C ,  4-O ) :   1.9852
B(  3-C ,  5-C ) :   1.0442 B(  5-C ,  6-C ) :   1.6488 B(  5-C , 12-C ) :   0.9659
B(  6-C ,  7-C ) :   0.9556 B(  6-C ,  8-N ) :   1.1484 B(  7-C , 25-H ) :   0.9658
B(  7-C , 26-H ) :   0.9910 B(  7-C , 27-H ) :   0.9639 B(  8-N ,  9-C ) :   1.1784
B(  8-N , 28-H ) :   0.9487 B(  9-C , 10-S ) :   1.6107 B(  9-C , 11-N ) :   1.3045
B( 11-N , 12-C ) :   0.9920 B( 11-N , 29-H ) :   0.9521 B( 12-C , 13-C ) :   0.9474
B( 12-C , 30-H ) :   0.9999 B( 13-C , 14-C ) :   1.3762 B( 13-C , 19-C ) :   1.3686
B( 14-C , 15-C ) :   1.3946 B( 14-C , 31-H ) :   0.9648 B( 15-C , 16-C ) :   1.3625
B( 15-C , 32-H ) :   0.9714 B( 16-C , 17-C ) :   1.3317 B( 16-C , 33-H ) :   0.9859
B( 17-C , 18-O ) :   1.1080 B( 17-C , 19-C ) :   1.3787 B( 18-O , 34-H ) :   0.9806
B( 19-C , 35-H ) :   0.9585

MP2 TOTAL ENERGY:    -1274.346675566 Eh
FINAL SINGLE POINT ENERGY     -1274.346675565520

DIPOLE MOMENT
-------------
                                X             Y             Z
Electronic contribution:     11.66047       8.97852       9.47836
Nuclear contribution   :    -13.12297     -10.28511     -10.51079
                        -----------------------------------------
Total Dipole Moment    :     -1.46249      -1.30659      -1.03243
                        -----------------------------------------
Magnitude (a.u.)       :      2.21630
Magnitude (Debye)      :      5.63339

Rotational constants in cm-1:     0.010487     0.009158     0.006115
Rotational constants in MHz :   314.386406   274.542645   183.325135

                             ****ORCA TERMINATED NORMALLY****
TOTAL RUN TIME: 0 days 1 hours 46 minutes 46 seconds 441 msec
