                         Program Version 5.0.0 -  RELEASE  -
|  1> ! ri-mp2 cc-pvtz cc-pvtz/c TightSCF NoKeepInts
|  2>
|  3> %scf
|  4>   MaxCore 4096
|  5> end
|  6> *xyz  0  1
|  7>     C       15.5399825   14.2856082   14.7818985
|  8>     C       15.7394599   14.0317426   16.2930116
|  9>     O       16.5746456   15.0351205   16.9119571
| 10>     C       16.3303959   16.3814783   16.8323240
| 11>     O       15.3657788   16.8524677   16.2556897
| 12>     C       17.3151169   17.1897032   17.6331845
| 13>     C       17.2943925   18.5470032   17.6584009
| 14>     C       16.3311162   19.4643532   16.9356104
| 15>     N       18.2629879   19.2499161   18.3814475
| 16>     C       19.3430116   18.6817000   19.0024223
| 17>     S       20.5041958   19.5939678   19.7476867
| 18>     N       19.4158821   17.3125815   18.9711039
| 19>     C       18.3652791   16.4187184   18.4504899
| 20>     C       17.7329191   15.6430931   19.6027491
| 21>     C       17.9127559   14.2510802   19.7095041
| 22>     C       17.3327392   13.5343369   20.7697796
| 23>     C       16.5688288   14.2149354   21.7332048
| 24>     C       16.3911866   15.6016159   21.6323349
| 25>     O       15.6554210   16.2617656   22.5618431
| 26>     C       16.9696854   16.3121681   20.5761603
| 27>     H       14.8227832   15.0937339   14.5956690
| 28>     H       15.1461366   13.3842276   14.2971955
| 29>     H       16.4912990   14.5422246   14.2998603
| 30>     H       14.7589689   14.0091549   16.7870342
| 31>     H       16.2069868   13.0489540   16.4342069
| 32>     H       15.3027335   19.2858170   17.2752136
| 33>     H       16.3556353   19.2763947   15.8547334
| 34>     H       16.5512821   20.5269439   17.0911017
| 35>     H       18.2258947   20.2561856   18.4137828
| 36>     H       20.2032868   16.9206578   19.4712600
| 37>     H       18.8536620   15.7019378   17.7755937
| 38>     H       18.4990599   13.7218507   18.9632862
| 39>     H       17.4756279   12.4576704   20.8424546
| 40>     H       16.1189817   13.6659897   22.5538707
| 41>     H       15.3624245   15.6110523   23.2171340
| 42>     H       16.8264567   17.3858492   20.5208006
| 43> *
| 44>
| 45>                          ****END OF INPUT****

CARTESIAN COORDINATES (ANGSTROEM)
---------------------------------
  C     15.539982   14.285608   14.781899
  C     15.739460   14.031743   16.293012
  O     16.574646   15.035120   16.911957
  C     16.330396   16.381478   16.832324
  O     15.365779   16.852468   16.255690
  C     17.315117   17.189703   17.633184
  C     17.294393   18.547003   17.658401
  C     16.331116   19.464353   16.935610
  N     18.262988   19.249916   18.381448
  C     19.343012   18.681700   19.002422
  S     20.504196   19.593968   19.747687
  N     19.415882   17.312582   18.971104
  C     18.365279   16.418718   18.450490
  C     17.732919   15.643093   19.602749
  C     17.912756   14.251080   19.709504
  C     17.332739   13.534337   20.769780
  C     16.568829   14.214935   21.733205
  C     16.391187   15.601616   21.632335
  O     15.655421   16.261766   22.561843
  C     16.969685   16.312168   20.576160
  H     14.822783   15.093734   14.595669
  H     15.146137   13.384228   14.297196
  H     16.491299   14.542225   14.299860
  H     14.758969   14.009155   16.787034
  H     16.206987   13.048954   16.434207
  H     15.302734   19.285817   17.275214
  H     16.355635   19.276395   15.854733
  H     16.551282   20.526944   17.091102
  H     18.225895   20.256186   18.413783
  H     20.203287   16.920658   19.471260
  H     18.853662   15.701938   17.775594
  H     18.499060   13.721851   18.963286
  H     17.475628   12.457670   20.842455
  H     16.118982   13.665990   22.553871
  H     15.362424   15.611052   23.217134
  H     16.826457   17.385849   20.520801

 Total Charge           Charge          ....    0
 Multiplicity           Mult            ....    1
 Number of Electrons    NEL             ....  154
 Basis Dimension        Dim             ....  828

ORBITAL ENERGIES
----------------

  NO   OCC          E(Eh)            E(eV)
   0   2.0000     -91.888072     -2500.4016
   1   2.0000     -20.600913      -560.5793
   2   2.0000     -20.594626      -560.4083
   3   2.0000     -20.541508      -558.9628
   4   2.0000     -15.628262      -425.2666
   5   2.0000     -15.607219      -424.6940
   6   2.0000     -11.396681      -310.1195
   7   2.0000     -11.383072      -309.7491
   8   2.0000     -11.335114      -308.4441
   9   2.0000     -11.311546      -307.8028
  10   2.0000     -11.307693      -307.6980
  11   2.0000     -11.301747      -307.5362
  12   2.0000     -11.258519      -306.3599
  13   2.0000     -11.257563      -306.3339
  14   2.0000     -11.253045      -306.2109
  15   2.0000     -11.251492      -306.1687
  16   2.0000     -11.240874      -305.8797
  17   2.0000     -11.236333      -305.7562
  18   2.0000     -11.236188      -305.7522
  19   2.0000     -11.223319      -305.4020
  20   2.0000      -8.893138      -241.9946
  21   2.0000      -6.574715      -178.9071
  22   2.0000      -6.572709      -178.8525
  23   2.0000      -6.572124      -178.8366
  24   2.0000      -1.447893       -39.3992
  25   2.0000      -1.414266       -38.4841
  26   2.0000      -1.355076       -36.8735
  27   2.0000      -1.339240       -36.4426
  28   2.0000      -1.237553       -33.6755
  29   2.0000      -1.155582       -31.4450
  30   2.0000      -1.119126       -30.4530
  31   2.0000      -1.041318       -28.3357
  32   2.0000      -1.036117       -28.1942
  33   2.0000      -1.012919       -27.5629
  34   2.0000      -0.994491       -27.0615
  35   2.0000      -0.982973       -26.7481
  36   2.0000      -0.921278       -25.0692
  37   2.0000      -0.897179       -24.4135
  38   2.0000      -0.846353       -23.0304
  39   2.0000      -0.836325       -22.7576
  40   2.0000      -0.832001       -22.6399
  41   2.0000      -0.817645       -22.2492
  42   2.0000      -0.750634       -20.4258
  43   2.0000      -0.729759       -19.8578
  44   2.0000      -0.721053       -19.6209
  45   2.0000      -0.694032       -18.8856
  46   2.0000      -0.687410       -18.7054
  47   2.0000      -0.679785       -18.4979
  48   2.0000      -0.669202       -18.2099
  49   2.0000      -0.653076       -17.7711
  50   2.0000      -0.650507       -17.7012
  51   2.0000      -0.644199       -17.5295
  52   2.0000      -0.632434       -17.2094
  53   2.0000      -0.611083       -16.6284
  54   2.0000      -0.604761       -16.4564
  55   2.0000      -0.598080       -16.2746
  56   2.0000      -0.597081       -16.2474
  57   2.0000      -0.578827       -15.7507
  58   2.0000      -0.571632       -15.5549
  59   2.0000      -0.570026       -15.5112
  60   2.0000      -0.561518       -15.2797
  61   2.0000      -0.538204       -14.6453
  62   2.0000      -0.536848       -14.6084
  63   2.0000      -0.523934       -14.2570
  64   2.0000      -0.522590       -14.2204
  65   2.0000      -0.512425       -13.9438
  66   2.0000      -0.502250       -13.6669
  67   2.0000      -0.498474       -13.5642
  68   2.0000      -0.483248       -13.1499
  69   2.0000      -0.463050       -12.6002
  70   2.0000      -0.456018       -12.4089
  71   2.0000      -0.442566       -12.0428
  72   2.0000      -0.353506        -9.6194
  73   2.0000      -0.347469        -9.4551
  74   2.0000      -0.327369        -8.9082
  75   2.0000      -0.319242        -8.6870
  76   2.0000      -0.314955        -8.5704
  77   0.0000       0.077185         2.1003
  78   0.0000       0.109583         2.9819
  79   0.0000       0.124625         3.3912
  80   0.0000       0.133638         3.6365
  81   0.0000       0.137185         3.7330

MULLIKEN ATOMIC CHARGES
-----------------------
   0 C :   -0.301240
   1 C :    0.046787
   2 O :   -0.352716
   3 C :    0.471634
   4 O :   -0.437567
   5 C :   -0.211942
   6 C :    0.146863
   7 C :   -0.274808
   8 N :   -0.119847
   9 C :    0.211237
  10 S :   -0.440944
  11 N :   -0.202835
  12 C :    0.045358
  13 C :    0.074415
  14 C :   -0.179529
  15 C :   -0.132211
  16 C :   -0.278060
  17 C :    0.315307
  18 O :   -0.357073
  19 C :   -0.269041
  20 H :    0.128681
  21 H :    0.095518
  22 H :    0.091502
  23 H :    0.091646
  24 H :    0.104150
  25 H :    0.132763
  26 H :    0.129269
  27 H :    0.095183
  28 H :    0.197115
  29 H :    0.194056
  30 H :    0.148637
  31 H :    0.145920
  32 H :    0.158603
  33 H :    0.128774
  34 H :    0.240414
  35 H :    0.163981
Sum of atomic charges:    0.0000000

LOEWDIN ATOMIC CHARGES
----------------------
   0 C :    0.104165
   1 C :   -0.011118
   2 O :    0.301458
   3 C :   -0.412026
   4 O :    0.101307
   5 C :   -0.093098
   6 C :   -0.059328
   7 C :    0.130931
   8 N :    0.406401
   9 C :   -0.456791
  10 S :   -0.036252
  11 N :    0.396495
  12 C :   -0.052984
  13 C :   -0.037985
  14 C :    0.013876
  15 C :    0.039243
  16 C :   -0.001692
  17 C :   -0.189398
  18 O :    0.394904
  19 C :    0.031571
  20 H :   -0.025814
  21 H :   -0.028210
  22 H :   -0.029286
  23 H :   -0.027947
  24 H :   -0.024831
  25 H :   -0.004567
  26 H :   -0.004577
  27 H :   -0.023528
  28 H :   -0.057730
  29 H :   -0.064717
  30 H :   -0.011596
  31 H :   -0.030903
  32 H :   -0.021777
  33 H :   -0.035902
  34 H :   -0.154220
  35 H :   -0.024073

  Mayer bond orders larger than 0.100000
B(  0-C ,  1-C ) :   0.9683 B(  0-C , 20-H ) :   0.9713 B(  0-C , 21-H ) :   0.9779
B(  0-C , 22-H ) :   0.9757 B(  1-C ,  2-O ) :   0.9038 B(  1-C , 23-H ) :   0.9780
B(  1-C , 24-H ) :   0.9839 B(  2-O ,  3-C ) :   1.1667 B(  3-C ,  4-O ) :   1.9577
B(  3-C ,  5-C ) :   1.0577 B(  5-C ,  6-C ) :   1.6565 B(  5-C , 12-C ) :   0.9735
B(  6-C ,  7-C ) :   0.9676 B(  6-C ,  8-N ) :   1.1643 B(  7-C , 25-H ) :   0.9604
B(  7-C , 26-H ) :   0.9604 B(  7-C , 27-H ) :   0.9908 B(  8-N ,  9-C ) :   1.1825
B(  8-N , 28-H ) :   0.9481 B(  9-C , 10-S ) :   1.6066 B(  9-C , 11-N ) :   1.3054
B( 11-N , 12-C ) :   0.9870 B( 11-N , 29-H ) :   0.9519 B( 12-C , 13-C ) :   0.9384
B( 12-C , 30-H ) :   1.0028 B( 13-C , 14-C ) :   1.3553 B( 13-C , 19-C ) :   1.3825
B( 14-C , 15-C ) :   1.3938 B( 14-C , 31-H ) :   0.9723 B( 15-C , 16-C ) :   1.3645
B( 15-C , 32-H ) :   0.9712 B( 16-C , 17-C ) :   1.3318 B( 16-C , 33-H ) :   0.9854
B( 17-C , 18-O ) :   1.1096 B( 17-C , 19-C ) :   1.3741 B( 18-O , 34-H ) :   0.9802
B( 19-C , 35-H ) :   0.9584

MP2 TOTAL ENERGY:    -1274.345854748 Eh
FINAL SINGLE POINT ENERGY     -1274.345854747696

DIPOLE MOMENT
-------------
                                X             Y             Z
Electronic contribution:      9.62995       9.05515      10.47325
Nuclear contribution   :    -10.73331     -10.74266     -10.88631
                        -----------------------------------------
Total Dipole Moment    :     -1.10337      -1.68751      -0.41307
                        -----------------------------------------
Magnitude (a.u.)       :      2.05809
Magnitude (Debye)      :      5.23125

Rotational constants in cm-1:     0.010686     0.008932     0.005998
Rotational constants in MHz :   320.350014   267.774137   179.808714

                             ****ORCA TERMINATED NORMALLY****
TOTAL RUN TIME: 0 days 2 hours 18 minutes 52 seconds 17 msec
