                         Program Version 5.0.0 -  RELEASE  -
|  1> ! ri-mp2 cc-pvtz cc-pvtz/c TightSCF NoKeepInts
|  2>
|  3> %scf
|  4>   MaxCore 4096
|  5> end
|  6> *xyz  0  1
|  7>     C       15.4258198   13.4720662   15.9218430
|  8>     C       15.7403978   14.5951945   16.9234462
|  9>     O       16.8990344   15.2951284   16.4321313
| 10>     C       16.8195666   16.6521588   16.3208352
| 11>     O       15.9556277   17.1579550   15.6265771
| 12>     C       17.5413108   17.3841711   17.4213787
| 13>     C       17.4210019   18.7250793   17.6030078
| 14>     C       16.5520977   19.6863794   16.8199847
| 15>     N       18.1888225   19.3717570   18.5764463
| 16>     C       19.2126940   18.7904769   19.2756042
| 17>     S       20.1779339   19.6582321   20.3007799
| 18>     N       19.4064923   17.4485937   19.0695741
| 19>     C       18.4901619   16.5709214   18.3198297
| 20>     C       17.7544113   15.6675080   19.3038736
| 21>     C       18.1630891   14.3314815   19.4765783
| 22>     C       17.4929260   13.4899641   20.3803772
| 23>     C       16.4091466   13.9895201   21.1224347
| 24>     C       16.0070331   15.3224603   20.9618954
| 25>     O       14.9627160   15.8086840   21.6783001
| 26>     C       16.6743934   16.1573044   20.0603820
| 27>     H       14.5493798   12.8992456   16.2479416
| 28>     H       16.2750229   12.7834004   15.8328662
| 29>     H       15.2131485   13.8910036   14.9300380
| 30>     H       14.8724299   15.2644751   17.0044836
| 31>     H       15.9364103   14.1655044   17.9128244
| 32>     H       15.4939498   19.4084294   16.9073376
| 33>     H       16.8099555   19.6590605   15.7535249
| 34>     H       16.6497089   20.7252910   17.1561333
| 35>     H       18.0660707   20.3597651   18.7312715
| 36>     H       20.1513564   17.0420316   19.6206670
| 37>     H       19.1022276   15.9364199   17.6630855
| 38>     H       19.0000531   13.9418200   18.9029255
| 39>     H       17.8150924   12.4573516   20.5051011
| 40>     H       15.8894539   13.3437149   21.8228417
| 41>     H       14.6749927   15.1111143   22.2865944
| 42>     H       16.3530706   17.1883365   19.9610846
| 43> *
| 44>
| 45>                          ****END OF INPUT****

CARTESIAN COORDINATES (ANGSTROEM)
---------------------------------
  C     15.425820   13.472066   15.921843
  C     15.740398   14.595194   16.923446
  O     16.899034   15.295128   16.432131
  C     16.819567   16.652159   16.320835
  O     15.955628   17.157955   15.626577
  C     17.541311   17.384171   17.421379
  C     17.421002   18.725079   17.603008
  C     16.552098   19.686379   16.819985
  N     18.188823   19.371757   18.576446
  C     19.212694   18.790477   19.275604
  S     20.177934   19.658232   20.300780
  N     19.406492   17.448594   19.069574
  C     18.490162   16.570921   18.319830
  C     17.754411   15.667508   19.303874
  C     18.163089   14.331482   19.476578
  C     17.492926   13.489964   20.380377
  C     16.409147   13.989520   21.122435
  C     16.007033   15.322460   20.961895
  O     14.962716   15.808684   21.678300
  C     16.674393   16.157304   20.060382
  H     14.549380   12.899246   16.247942
  H     16.275023   12.783400   15.832866
  H     15.213149   13.891004   14.930038
  H     14.872430   15.264475   17.004484
  H     15.936410   14.165504   17.912824
  H     15.493950   19.408429   16.907338
  H     16.809956   19.659060   15.753525
  H     16.649709   20.725291   17.156133
  H     18.066071   20.359765   18.731271
  H     20.151356   17.042032   19.620667
  H     19.102228   15.936420   17.663085
  H     19.000053   13.941820   18.902925
  H     17.815092   12.457352   20.505101
  H     15.889454   13.343715   21.822842
  H     14.674993   15.111114   22.286594
  H     16.353071   17.188336   19.961085

 Total Charge           Charge          ....    0
 Multiplicity           Mult            ....    1
 Number of Electrons    NEL             ....  154
 Basis Dimension        Dim             ....  828

ORBITAL ENERGIES
----------------

  NO   OCC          E(Eh)            E(eV)
   0   2.0000     -91.890526     -2500.4683
   1   2.0000     -20.601693      -560.6006
   2   2.0000     -20.583745      -560.1122
   3   2.0000     -20.546677      -559.1035
   4   2.0000     -15.631113      -425.3442
   5   2.0000     -15.609745      -424.7628
   6   2.0000     -11.393299      -310.0274
   7   2.0000     -11.385344      -309.8110
   8   2.0000     -11.337731      -308.5153
   9   2.0000     -11.319536      -308.0202
  10   2.0000     -11.311647      -307.8056
  11   2.0000     -11.292439      -307.2829
  12   2.0000     -11.264133      -306.5126
  13   2.0000     -11.260905      -306.4248
  14   2.0000     -11.259882      -306.3970
  15   2.0000     -11.253553      -306.2247
  16   2.0000     -11.248276      -306.0811
  17   2.0000     -11.242858      -305.9337
  18   2.0000     -11.242777      -305.9315
  19   2.0000     -11.221405      -305.3500
  20   2.0000      -8.895568      -242.0607
  21   2.0000      -6.577137      -178.9730
  22   2.0000      -6.575138      -178.9186
  23   2.0000      -6.574546      -178.9025
  24   2.0000      -1.448697       -39.4210
  25   2.0000      -1.421339       -38.6766
  26   2.0000      -1.352135       -36.7935
  27   2.0000      -1.342186       -36.5227
  28   2.0000      -1.240704       -33.7613
  29   2.0000      -1.162201       -31.6251
  30   2.0000      -1.121607       -30.5205
  31   2.0000      -1.046061       -28.4648
  32   2.0000      -1.032843       -28.1051
  33   2.0000      -1.020392       -27.7663
  34   2.0000      -0.997600       -27.1461
  35   2.0000      -0.985557       -26.8184
  36   2.0000      -0.925430       -25.1822
  37   2.0000      -0.879456       -23.9312
  38   2.0000      -0.849483       -23.1156
  39   2.0000      -0.842294       -22.9200
  40   2.0000      -0.838312       -22.8116
  41   2.0000      -0.826978       -22.5032
  42   2.0000      -0.760256       -20.6876
  43   2.0000      -0.736021       -20.0282
  44   2.0000      -0.724198       -19.7064
  45   2.0000      -0.700720       -19.0676
  46   2.0000      -0.691170       -18.8077
  47   2.0000      -0.678296       -18.4574
  48   2.0000      -0.671647       -18.2764
  49   2.0000      -0.656268       -17.8580
  50   2.0000      -0.648609       -17.6495
  51   2.0000      -0.644833       -17.5468
  52   2.0000      -0.632036       -17.1986
  53   2.0000      -0.613841       -16.7035
  54   2.0000      -0.611984       -16.6529
  55   2.0000      -0.603242       -16.4151
  56   2.0000      -0.601053       -16.3555
  57   2.0000      -0.582038       -15.8380
  58   2.0000      -0.572730       -15.5848
  59   2.0000      -0.566458       -15.4141
  60   2.0000      -0.563606       -15.3365
  61   2.0000      -0.539560       -14.6822
  62   2.0000      -0.534627       -14.5480
  63   2.0000      -0.529758       -14.4155
  64   2.0000      -0.516601       -14.0574
  65   2.0000      -0.511450       -13.9173
  66   2.0000      -0.504733       -13.7345
  67   2.0000      -0.496185       -13.5019
  68   2.0000      -0.489567       -13.3218
  69   2.0000      -0.464540       -12.6408
  70   2.0000      -0.452675       -12.3179
  71   2.0000      -0.445712       -12.1284
  72   2.0000      -0.356950        -9.7131
  73   2.0000      -0.354613        -9.6495
  74   2.0000      -0.330749        -9.0001
  75   2.0000      -0.326577        -8.8866
  76   2.0000      -0.317866        -8.6496
  77   0.0000       0.069472         1.8904
  78   0.0000       0.101916         2.7733
  79   0.0000       0.122289         3.3277
  80   0.0000       0.128161         3.4874
  81   0.0000       0.132387         3.6024

MULLIKEN ATOMIC CHARGES
-----------------------
   0 C :   -0.260462
   1 C :    0.029106
   2 O :   -0.386459
   3 C :    0.495345
   4 O :   -0.411678
   5 C :   -0.278434
   6 C :    0.160075
   7 C :   -0.268378
   8 N :   -0.124106
   9 C :    0.215687
  10 S :   -0.438596
  11 N :   -0.206291
  12 C :    0.063644
  13 C :    0.022414
  14 C :   -0.176776
  15 C :   -0.135178
  16 C :   -0.274960
  17 C :    0.303192
  18 O :   -0.355828
  19 C :   -0.229159
  20 H :    0.085189
  21 H :    0.091001
  22 H :    0.105731
  23 H :    0.099342
  24 H :    0.118316
  25 H :    0.130352
  26 H :    0.133030
  27 H :    0.095186
  28 H :    0.198142
  29 H :    0.193968
  30 H :    0.149447
  31 H :    0.150501
  32 H :    0.162662
  33 H :    0.133307
  34 H :    0.241982
  35 H :    0.168686
Sum of atomic charges:   -0.0000000

LOEWDIN ATOMIC CHARGES
----------------------
   0 C :    0.106626
   1 C :   -0.015328
   2 O :    0.291808
   3 C :   -0.420592
   4 O :    0.114003
   5 C :   -0.098536
   6 C :   -0.057809
   7 C :    0.131219
   8 N :    0.407305
   9 C :   -0.455741
  10 S :   -0.033775
  11 N :    0.396108
  12 C :   -0.053043
  13 C :   -0.037030
  14 C :    0.011819
  15 C :    0.041016
  16 C :   -0.002196
  17 C :   -0.189803
  18 O :    0.396570
  19 C :    0.031288
  20 H :   -0.028459
  21 H :   -0.028993
  22 H :   -0.023406
  23 H :   -0.029289
  24 H :   -0.030538
  25 H :   -0.005188
  26 H :   -0.003308
  27 H :   -0.023201
  28 H :   -0.057310
  29 H :   -0.065365
  30 H :   -0.007906
  31 H :   -0.029488
  32 H :   -0.019696
  33 H :   -0.034470
  34 H :   -0.152561
  35 H :   -0.024731

  Mayer bond orders larger than 0.100000
B(  0-C ,  1-C ) :   0.9865 B(  0-C , 20-H ) :   0.9770 B(  0-C , 21-H ) :   0.9796
B(  0-C , 22-H ) :   0.9793 B(  1-C ,  2-O ) :   0.8685 B(  1-C , 23-H ) :   0.9718
B(  1-C , 24-H ) :   0.9676 B(  2-O ,  3-C ) :   1.1021 B(  3-C ,  4-O ) :   2.0048
B(  3-C ,  5-C ) :   1.0734 B(  5-C ,  6-C ) :   1.6467 B(  5-C , 12-C ) :   0.9698
B(  6-C ,  7-C ) :   0.9681 B(  6-C ,  8-N ) :   1.1596 B(  7-C , 25-H ) :   0.9611
B(  7-C , 26-H ) :   0.9589 B(  7-C , 27-H ) :   0.9899 B(  8-N ,  9-C ) :   1.1814
B(  8-N , 28-H ) :   0.9476 B(  9-C , 10-S ) :   1.6070 B(  9-C , 11-N ) :   1.3065
B( 11-N , 12-C ) :   0.9675 B( 11-N , 29-H ) :   0.9528 B( 12-C , 13-C ) :   0.9454
B( 12-C , 30-H ) :   1.0022 B( 13-C , 14-C ) :   1.3496 B( 13-C , 19-C ) :   1.3773
B( 14-C , 15-C ) :   1.3963 B( 14-C , 31-H ) :   0.9735 B( 15-C , 16-C ) :   1.3617
B( 15-C , 32-H ) :   0.9706 B( 16-C , 17-C ) :   1.3286 B( 16-C , 33-H ) :   0.9841
B( 17-C , 18-O ) :   1.1147 B( 17-C , 19-C ) :   1.3756 B( 18-O , 34-H ) :   0.9788
B( 19-C , 35-H ) :   0.9567

MP2 TOTAL ENERGY:    -1274.331836551 Eh
FINAL SINGLE POINT ENERGY     -1274.331836551413

DIPOLE MOMENT
-------------
                                X             Y             Z
Electronic contribution:      9.93149      10.45901       6.98794
Nuclear contribution   :    -10.94625     -11.92769      -6.84196
                        -----------------------------------------
Total Dipole Moment    :     -1.01475      -1.46868       0.14598
                        -----------------------------------------
Magnitude (a.u.)       :      1.79110
Magnitude (Debye)      :      4.55262

Rotational constants in cm-1:     0.012245     0.008730     0.006308
Rotational constants in MHz :   367.106553   261.707586   189.106373

                             ****ORCA TERMINATED NORMALLY****
TOTAL RUN TIME: 0 days 1 hours 59 minutes 46 seconds 666 msec
