                         Program Version 5.0.0 -  RELEASE  -
|  1> ! ri-mp2 cc-pvtz cc-pvtz/c TightSCF NoKeepInts
|  2>
|  3> %scf
|  4>   MaxCore 4096
|  5> end
|  6> *xyz  0  1
|  7>     C       14.2267131   15.1265862   16.2292457
|  8>     C       15.6823984   14.6557426   16.0737816
|  9>     O       16.4997089   15.8298949   15.9357854
| 10>     C       17.7256434   15.8347955   16.5321163
| 11>     O       18.3879247   14.8144814   16.6274333
| 12>     C       17.9066376   16.9854884   17.4765327
| 13>     C       17.3338565   18.2053604   17.3128782
| 14>     C       16.4535114   18.6678909   16.1703039
| 15>     N       17.6003616   19.2265877   18.2302679
| 16>     C       18.5219365   19.1498364   19.2412984
| 17>     S       18.8595347   20.4453567   20.2124709
| 18>     N       19.1511027   17.9415527   19.4061486
| 19>     C       18.8030848   16.7020823   18.6858687
| 20>     C       18.1372150   15.7044692   19.6298934
| 21>     C       18.6650804   14.4097278   19.7874721
| 22>     C       18.0487791   13.4845006   20.6465769
| 23>     C       16.8931012   13.8557282   21.3546082
| 24>     C       16.3616310   15.1429015   21.1972462
| 25>     O       15.2410972   15.5018972   21.8730973
| 26>     C       16.9772267   16.0615455   20.3414496
| 27>     H       14.1186830   15.7602990   17.1184595
| 28>     H       13.5547720   14.2665318   16.3378903
| 29>     H       13.9097686   15.7017029   15.3504475
| 30>     H       15.9646641   14.0842821   16.9696767
| 31>     H       15.7946931   14.0059008   15.1960775
| 32>     H       16.8560371   18.3345263   15.2055998
| 33>     H       16.3674896   19.7601550   16.1206615
| 34>     H       15.4412597   18.2570206   16.2715235
| 35>     H       17.1491606   20.1213482   18.1256453
| 36>     H       19.8031258   17.9030173   20.1790316
| 37>     H       19.7375346   16.2570527   18.3144482
| 38>     H       19.5479614   14.1141240   19.2258948
| 39>     H       18.4641244   12.4841856   20.7551053
| 40>     H       16.4128489   13.1435065   22.0172440
| 41>     H       14.9971158   14.7585375   22.4447799
| 42>     H       16.5512164   17.0533836   20.2370392
| 43> *
| 44>
| 45>                          ****END OF INPUT****

CARTESIAN COORDINATES (ANGSTROEM)
---------------------------------
  C     14.226713   15.126586   16.229246
  C     15.682398   14.655743   16.073782
  O     16.499709   15.829895   15.935785
  C     17.725643   15.834796   16.532116
  O     18.387925   14.814481   16.627433
  C     17.906638   16.985488   17.476533
  C     17.333856   18.205360   17.312878
  C     16.453511   18.667891   16.170304
  N     17.600362   19.226588   18.230268
  C     18.521936   19.149836   19.241298
  S     18.859535   20.445357   20.212471
  N     19.151103   17.941553   19.406149
  C     18.803085   16.702082   18.685869
  C     18.137215   15.704469   19.629893
  C     18.665080   14.409728   19.787472
  C     18.048779   13.484501   20.646577
  C     16.893101   13.855728   21.354608
  C     16.361631   15.142901   21.197246
  O     15.241097   15.501897   21.873097
  C     16.977227   16.061546   20.341450
  H     14.118683   15.760299   17.118460
  H     13.554772   14.266532   16.337890
  H     13.909769   15.701703   15.350447
  H     15.964664   14.084282   16.969677
  H     15.794693   14.005901   15.196077
  H     16.856037   18.334526   15.205600
  H     16.367490   19.760155   16.120662
  H     15.441260   18.257021   16.271524
  H     17.149161   20.121348   18.125645
  H     19.803126   17.903017   20.179032
  H     19.737535   16.257053   18.314448
  H     19.547961   14.114124   19.225895
  H     18.464124   12.484186   20.755105
  H     16.412849   13.143506   22.017244
  H     14.997116   14.758537   22.444780
  H     16.551216   17.053384   20.237039

 Total Charge           Charge          ....    0
 Multiplicity           Mult            ....    1
 Number of Electrons    NEL             ....  154
 Basis Dimension        Dim             ....  828

ORBITAL ENERGIES
----------------

  NO   OCC          E(Eh)            E(eV)
   0   2.0000     -91.888353     -2500.4092
   1   2.0000     -20.594454      -560.4036
   2   2.0000     -20.593681      -560.3825
   3   2.0000     -20.550606      -559.2104
   4   2.0000     -15.628169      -425.2641
   5   2.0000     -15.607627      -424.7051
   6   2.0000     -11.394524      -310.0608
   7   2.0000     -11.383657      -309.7651
   8   2.0000     -11.333993      -308.4136
   9   2.0000     -11.310462      -307.7733
  10   2.0000     -11.307490      -307.6924
  11   2.0000     -11.299030      -307.4622
  12   2.0000     -11.260065      -306.4020
  13   2.0000     -11.259393      -306.3837
  14   2.0000     -11.256063      -306.2931
  15   2.0000     -11.250538      -306.1427
  16   2.0000     -11.240168      -305.8605
  17   2.0000     -11.236203      -305.7526
  18   2.0000     -11.233292      -305.6734
  19   2.0000     -11.233224      -305.6716
  20   2.0000      -8.893428      -242.0025
  21   2.0000      -6.575007      -178.9150
  22   2.0000      -6.572997      -178.8603
  23   2.0000      -6.572413      -178.8445
  24   2.0000      -1.454201       -39.5708
  25   2.0000      -1.414205       -38.4825
  26   2.0000      -1.356891       -36.9229
  27   2.0000      -1.339294       -36.4440
  28   2.0000      -1.237392       -33.6711
  29   2.0000      -1.154703       -31.4211
  30   2.0000      -1.120642       -30.4942
  31   2.0000      -1.044498       -28.4222
  32   2.0000      -1.036908       -28.2157
  33   2.0000      -1.012098       -27.5406
  34   2.0000      -0.998692       -27.1758
  35   2.0000      -0.984362       -26.7859
  36   2.0000      -0.922410       -25.1001
  37   2.0000      -0.886924       -24.1344
  38   2.0000      -0.847319       -23.0567
  39   2.0000      -0.836880       -22.7727
  40   2.0000      -0.830607       -22.6020
  41   2.0000      -0.820200       -22.3188
  42   2.0000      -0.759750       -20.6739
  43   2.0000      -0.736072       -20.0295
  44   2.0000      -0.726882       -19.7795
  45   2.0000      -0.692883       -18.8543
  46   2.0000      -0.684345       -18.6220
  47   2.0000      -0.681134       -18.5346
  48   2.0000      -0.676639       -18.4123
  49   2.0000      -0.659476       -17.9453
  50   2.0000      -0.651508       -17.7284
  51   2.0000      -0.644398       -17.5350
  52   2.0000      -0.635890       -17.3034
  53   2.0000      -0.603347       -16.4179
  54   2.0000      -0.601925       -16.3792
  55   2.0000      -0.598065       -16.2742
  56   2.0000      -0.597410       -16.2563
  57   2.0000      -0.576503       -15.6874
  58   2.0000      -0.575262       -15.6537
  59   2.0000      -0.567315       -15.4374
  60   2.0000      -0.559273       -15.2186
  61   2.0000      -0.556305       -15.1378
  62   2.0000      -0.542551       -14.7636
  63   2.0000      -0.519921       -14.1478
  64   2.0000      -0.515563       -14.0292
  65   2.0000      -0.511766       -13.9259
  66   2.0000      -0.503639       -13.7047
  67   2.0000      -0.497265       -13.5313
  68   2.0000      -0.482127       -13.1193
  69   2.0000      -0.463162       -12.6033
  70   2.0000      -0.458618       -12.4796
  71   2.0000      -0.456470       -12.4212
  72   2.0000      -0.353873        -9.6294
  73   2.0000      -0.346484        -9.4283
  74   2.0000      -0.327624        -8.9151
  75   2.0000      -0.317548        -8.6409
  76   2.0000      -0.315183        -8.5766
  77   0.0000       0.073917         2.0114
  78   0.0000       0.107399         2.9225
  79   0.0000       0.119182         3.2431
  80   0.0000       0.133828         3.6416
  81   0.0000       0.139622         3.7993

MULLIKEN ATOMIC CHARGES
-----------------------
   0 C :   -0.285283
   1 C :    0.052664
   2 O :   -0.357037
   3 C :    0.432710
   4 O :   -0.408047
   5 C :   -0.177246
   6 C :    0.140705
   7 C :   -0.285698
   8 N :   -0.124858
   9 C :    0.203440
  10 S :   -0.440097
  11 N :   -0.199990
  12 C :    0.050090
  13 C :    0.050950
  14 C :   -0.161511
  15 C :   -0.133227
  16 C :   -0.280933
  17 C :    0.312552
  18 O :   -0.358942
  19 C :   -0.278942
  20 H :    0.098655
  21 H :    0.104614
  22 H :    0.095063
  23 H :    0.097912
  24 H :    0.099411
  25 H :    0.125506
  26 H :    0.105325
  27 H :    0.125443
  28 H :    0.197112
  29 H :    0.194101
  30 H :    0.154115
  31 H :    0.154510
  32 H :    0.160382
  33 H :    0.129534
  34 H :    0.240628
  35 H :    0.166392
Sum of atomic charges:   -0.0000000

LOEWDIN ATOMIC CHARGES
----------------------
   0 C :    0.105424
   1 C :   -0.014759
   2 O :    0.299719
   3 C :   -0.417011
   4 O :    0.116704
   5 C :   -0.092884
   6 C :   -0.071741
   7 C :    0.125713
   8 N :    0.404251
   9 C :   -0.457811
  10 S :   -0.036544
  11 N :    0.397326
  12 C :   -0.045706
  13 C :   -0.039721
  14 C :    0.021750
  15 C :    0.041105
  16 C :   -0.002406
  17 C :   -0.193461
  18 O :    0.393105
  19 C :    0.027767
  20 H :   -0.027284
  21 H :   -0.023161
  22 H :   -0.029139
  23 H :   -0.024847
  24 H :   -0.029387
  25 H :   -0.008095
  26 H :   -0.020046
  27 H :   -0.010389
  28 H :   -0.058906
  29 H :   -0.063947
  30 H :   -0.004757
  31 H :   -0.024935
  32 H :   -0.020698
  33 H :   -0.036003
  34 H :   -0.154462
  35 H :   -0.024762

  Mayer bond orders larger than 0.100000
B(  0-C ,  1-C ) :   0.9696 B(  0-C , 20-H ) :   0.9764 B(  0-C , 21-H ) :   0.9785
B(  0-C , 22-H ) :   0.9771 B(  1-C ,  2-O ) :   0.9004 B(  1-C , 23-H ) :   0.9708
B(  1-C , 24-H ) :   0.9840 B(  2-O ,  3-C ) :   1.1173 B(  3-C ,  4-O ) :   2.0163
B(  3-C ,  5-C ) :   1.0345 B(  5-C ,  6-C ) :   1.6615 B(  5-C , 12-C ) :   0.9661
B(  6-C ,  7-C ) :   0.9535 B(  6-C ,  8-N ) :   1.1405 B(  7-C , 25-H ) :   0.9689
B(  7-C , 26-H ) :   0.9893 B(  7-C , 27-H ) :   0.9637 B(  8-N ,  9-C ) :   1.1832
B(  8-N , 28-H ) :   0.9495 B(  9-C , 10-S ) :   1.6100 B(  9-C , 11-N ) :   1.3016
B( 11-N , 12-C ) :   0.9917 B( 11-N , 29-H ) :   0.9518 B( 12-C , 13-C ) :   0.9445
B( 12-C , 30-H ) :   0.9984 B( 13-C , 14-C ) :   1.3763 B( 13-C , 19-C ) :   1.3691
B( 14-C , 15-C ) :   1.3942 B( 14-C , 31-H ) :   0.9646 B( 15-C , 16-C ) :   1.3632
B( 15-C , 32-H ) :   0.9711 B( 16-C , 17-C ) :   1.3310 B( 16-C , 33-H ) :   0.9855
B( 17-C , 18-O ) :   1.1088 B( 17-C , 19-C ) :   1.3761 B( 18-O , 34-H ) :   0.9802
B( 19-C , 35-H ) :   0.9583

MP2 TOTAL ENERGY:    -1274.335135983 Eh
FINAL SINGLE POINT ENERGY     -1274.335135983428

DIPOLE MOMENT
-------------
                                X             Y             Z
Electronic contribution:     11.80966       8.31027       8.16118
Nuclear contribution   :    -13.18825      -9.64287      -8.93994
                        -----------------------------------------
Total Dipole Moment    :     -1.37859      -1.33260      -0.77876
                        -----------------------------------------
Magnitude (a.u.)       :      2.06949
Magnitude (Debye)      :      5.26024

Rotational constants in cm-1:     0.010963     0.009223     0.006488
Rotational constants in MHz :   328.660684   276.505627   194.505108

                             ****ORCA TERMINATED NORMALLY****
TOTAL RUN TIME: 0 days 1 hours 55 minutes 52 seconds 176 msec
