                         Program Version 5.0.0 -  RELEASE  -
|  1> ! ri-mp2 cc-pvtz cc-pvtz/c TightSCF NoKeepInts
|  2>
|  3> %scf
|  4>   MaxCore 4096
|  5> end
|  6> *xyz  0  1
|  7>     C       15.0795705   14.2740914   17.2033191
|  8>     C       15.4277324   15.6558157   16.6229435
|  9>     O       16.6519406   15.5204658   15.8720435
| 10>     C       17.8635862   15.6847132   16.4860005
| 11>     O       18.6632926   14.7677067   16.5286505
| 12>     C       18.0004705   16.8983380   17.3531795
| 13>     C       17.5371294   18.1238553   17.0067043
| 14>     C       16.8669023   18.5156925   15.7066064
| 15>     N       17.7308337   19.2083402   17.8661125
| 16>     C       18.4652919   19.1672491   19.0225819
| 17>     S       18.7049107   20.5168986   19.9472686
| 18>     N       18.9872556   17.9479168   19.3777345
| 19>     C       18.7269223   16.6739714   18.6793493
| 20>     C       17.9255315   15.7210088   19.5608157
| 21>     C       18.3505669   14.3922473   19.7416634
| 22>     C       17.5990923   13.5003884   20.5249138
| 23>     C       16.4089830   13.9388366   21.1299308
| 24>     C       15.9790592   15.2599246   20.9473118
| 25>     O       14.8225355   15.6829182   21.5164463
| 26>     C       16.7298949   16.1461038   20.1687046
| 27>     H       15.8604544   13.9361905   17.8966531
| 28>     H       14.9862801   13.5297936   16.4025953
| 29>     H       14.1305879   14.3129848   17.7515131
| 30>     H       14.6209719   15.9640010   15.9455671
| 31>     H       15.4984340   16.3973864   17.4280915
| 32>     H       17.1905092   17.8743870   14.8769630
| 33>     H       17.1142076   19.5450027   15.4178002
| 34>     H       15.7759015   18.4424007   15.7853973
| 35>     H       17.3639523   20.1143251   17.6199503
| 36>     H       19.5034078   17.9422973   20.2484706
| 37>     H       19.6978787   16.2074764   18.4564171
| 38>     H       19.2583147   14.0436040   19.2540525
| 39>     H       17.9362003   12.4729307   20.6515735
| 40>     H       15.8233486   13.2512574   21.7312200
| 41>     H       14.4861059   14.9569016   22.0636197
| 42>     H       16.3789434   17.1645785   20.0418354
| 43> *
| 44>
| 45>                          ****END OF INPUT****

CARTESIAN COORDINATES (ANGSTROEM)
---------------------------------
  C     15.079571   14.274091   17.203319
  C     15.427732   15.655816   16.622944
  O     16.651941   15.520466   15.872044
  C     17.863586   15.684713   16.486000
  O     18.663293   14.767707   16.528651
  C     18.000470   16.898338   17.353179
  C     17.537129   18.123855   17.006704
  C     16.866902   18.515693   15.706606
  N     17.730834   19.208340   17.866112
  C     18.465292   19.167249   19.022582
  S     18.704911   20.516899   19.947269
  N     18.987256   17.947917   19.377734
  C     18.726922   16.673971   18.679349
  C     17.925532   15.721009   19.560816
  C     18.350567   14.392247   19.741663
  C     17.599092   13.500388   20.524914
  C     16.408983   13.938837   21.129931
  C     15.979059   15.259925   20.947312
  O     14.822536   15.682918   21.516446
  C     16.729895   16.146104   20.168705
  H     15.860454   13.936191   17.896653
  H     14.986280   13.529794   16.402595
  H     14.130588   14.312985   17.751513
  H     14.620972   15.964001   15.945567
  H     15.498434   16.397386   17.428092
  H     17.190509   17.874387   14.876963
  H     17.114208   19.545003   15.417800
  H     15.775901   18.442401   15.785397
  H     17.363952   20.114325   17.619950
  H     19.503408   17.942297   20.248471
  H     19.697879   16.207476   18.456417
  H     19.258315   14.043604   19.254053
  H     17.936200   12.472931   20.651573
  H     15.823349   13.251257   21.731220
  H     14.486106   14.956902   22.063620
  H     16.378943   17.164579   20.041835

 Total Charge           Charge          ....    0
 Multiplicity           Mult            ....    1
 Number of Electrons    NEL             ....  154
 Basis Dimension        Dim             ....  828

ORBITAL ENERGIES
----------------

  NO   OCC          E(Eh)            E(eV)
   0   2.0000     -91.891244     -2500.4879
   1   2.0000     -20.599854      -560.5505
   2   2.0000     -20.592692      -560.3557
   3   2.0000     -20.551990      -559.2481
   4   2.0000     -15.630417      -425.3253
   5   2.0000     -15.611359      -424.8067
   6   2.0000     -11.395631      -310.0909
   7   2.0000     -11.387329      -309.8650
   8   2.0000     -11.335340      -308.4503
   9   2.0000     -11.316323      -307.9328
  10   2.0000     -11.311909      -307.8127
  11   2.0000     -11.303789      -307.5917
  12   2.0000     -11.265869      -306.5599
  13   2.0000     -11.262922      -306.4797
  14   2.0000     -11.262073      -306.4566
  15   2.0000     -11.256072      -306.2933
  16   2.0000     -11.245677      -306.0104
  17   2.0000     -11.242161      -305.9147
  18   2.0000     -11.238735      -305.8215
  19   2.0000     -11.224098      -305.4232
  20   2.0000      -8.896325      -242.0813
  21   2.0000      -6.577903      -178.9938
  22   2.0000      -6.575889      -178.9390
  23   2.0000      -6.575305      -178.9231
  24   2.0000      -1.448485       -39.4153
  25   2.0000      -1.419622       -38.6299
  26   2.0000      -1.359062       -36.9820
  27   2.0000      -1.342183       -36.5227
  28   2.0000      -1.240794       -33.7637
  29   2.0000      -1.160876       -31.5890
  30   2.0000      -1.125010       -30.6131
  31   2.0000      -1.048068       -28.5194
  32   2.0000      -1.033630       -28.1265
  33   2.0000      -1.018155       -27.7054
  34   2.0000      -1.004431       -27.3320
  35   2.0000      -0.989252       -26.9189
  36   2.0000      -0.927407       -25.2360
  37   2.0000      -0.884543       -24.0696
  38   2.0000      -0.854761       -23.2592
  39   2.0000      -0.842448       -22.9242
  40   2.0000      -0.836532       -22.7632
  41   2.0000      -0.834018       -22.6948
  42   2.0000      -0.749849       -20.4044
  43   2.0000      -0.738234       -20.0884
  44   2.0000      -0.731084       -19.8938
  45   2.0000      -0.697945       -18.9921
  46   2.0000      -0.688001       -18.7214
  47   2.0000      -0.679614       -18.4932
  48   2.0000      -0.677288       -18.4299
  49   2.0000      -0.662979       -18.0406
  50   2.0000      -0.655185       -17.8285
  51   2.0000      -0.649339       -17.6694
  52   2.0000      -0.640473       -17.4282
  53   2.0000      -0.611391       -16.6368
  54   2.0000      -0.609087       -16.5741
  55   2.0000      -0.604947       -16.4614
  56   2.0000      -0.599537       -16.3142
  57   2.0000      -0.582104       -15.8398
  58   2.0000      -0.577747       -15.7213
  59   2.0000      -0.570532       -15.5250
  60   2.0000      -0.560045       -15.2396
  61   2.0000      -0.557061       -15.1584
  62   2.0000      -0.542890       -14.7728
  63   2.0000      -0.527414       -14.3517
  64   2.0000      -0.519368       -14.1327
  65   2.0000      -0.513777       -13.9806
  66   2.0000      -0.502631       -13.6773
  67   2.0000      -0.496081       -13.4990
  68   2.0000      -0.488215       -13.2850
  69   2.0000      -0.470274       -12.7968
  70   2.0000      -0.458545       -12.4777
  71   2.0000      -0.447769       -12.1844
  72   2.0000      -0.357612        -9.7311
  73   2.0000      -0.352201        -9.5839
  74   2.0000      -0.330653        -8.9975
  75   2.0000      -0.323830        -8.8119
  76   2.0000      -0.319192        -8.6857
  77   0.0000       0.074066         2.0154
  78   0.0000       0.102728         2.7954
  79   0.0000       0.116965         3.1828
  80   0.0000       0.127805         3.4777
  81   0.0000       0.136400         3.7116

MULLIKEN ATOMIC CHARGES
-----------------------
   0 C :   -0.270791
   1 C :   -0.003737
   2 O :   -0.345935
   3 C :    0.438793
   4 O :   -0.384891
   5 C :   -0.230927
   6 C :    0.155131
   7 C :   -0.304090
   8 N :   -0.129855
   9 C :    0.200869
  10 S :   -0.437714
  11 N :   -0.205144
  12 C :    0.064650
  13 C :    0.033344
  14 C :   -0.176519
  15 C :   -0.132271
  16 C :   -0.276884
  17 C :    0.317915
  18 O :   -0.360901
  19 C :   -0.290346
  20 H :    0.109005
  21 H :    0.109707
  22 H :    0.091338
  23 H :    0.118395
  24 H :    0.102960
  25 H :    0.138650
  26 H :    0.119610
  27 H :    0.120256
  28 H :    0.197641
  29 H :    0.195944
  30 H :    0.159453
  31 H :    0.162839
  32 H :    0.163363
  33 H :    0.131958
  34 H :    0.242058
  35 H :    0.176128
Sum of atomic charges:   -0.0000000

LOEWDIN ATOMIC CHARGES
----------------------
   0 C :    0.108885
   1 C :   -0.024420
   2 O :    0.297422
   3 C :   -0.418648
   4 O :    0.127519
   5 C :   -0.092004
   6 C :   -0.085022
   7 C :    0.128436
   8 N :    0.403349
   9 C :   -0.457317
  10 S :   -0.034753
  11 N :    0.397196
  12 C :   -0.045922
  13 C :   -0.044025
  14 C :    0.022430
  15 C :    0.043799
  16 C :   -0.000117
  17 C :   -0.193487
  18 O :    0.394251
  19 C :    0.027585
  20 H :   -0.023039
  21 H :   -0.023995
  22 H :   -0.027176
  23 H :   -0.027460
  24 H :   -0.039268
  25 H :   -0.005867
  26 H :   -0.014673
  27 H :   -0.014534
  28 H :   -0.057776
  29 H :   -0.063481
  30 H :   -0.003460
  31 H :   -0.022600
  32 H :   -0.019022
  33 H :   -0.034780
  34 H :   -0.152862
  35 H :   -0.025164

  Mayer bond orders larger than 0.100000
B(  0-C ,  1-C ) :   0.9843 B(  0-C , 20-H ) :   0.9694 B(  0-C , 21-H ) :   0.9789
B(  0-C , 22-H ) :   0.9760 B(  1-C ,  2-O ) :   0.8923 B(  1-C , 23-H ) :   0.9794
B(  1-C , 24-H ) :   0.9605 B(  2-O ,  3-C ) :   1.1485 B(  3-C ,  4-O ) :   2.0803
B(  3-C ,  5-C ) :   0.9524 B(  5-C ,  6-C ) :   1.6694 B(  5-C , 12-C ) :   0.9623
B(  6-C ,  7-C ) :   0.9469 B(  6-C ,  8-N ) :   1.1344 B(  7-C , 25-H ) :   0.9717
B(  7-C , 26-H ) :   0.9823 B(  7-C , 27-H ) :   0.9629 B(  8-N ,  9-C ) :   1.1864
B(  8-N , 28-H ) :   0.9502 B(  9-C , 10-S ) :   1.6138 B(  9-C , 11-N ) :   1.2952
B( 11-N , 12-C ) :   0.9977 B( 11-N , 29-H ) :   0.9509 B( 12-C , 13-C ) :   0.9412
B( 12-C , 30-H ) :   0.9978 B( 13-C , 14-C ) :   1.3862 B( 13-C , 19-C ) :   1.3500
B( 14-C , 15-C ) :   1.3930 B( 14-C , 31-H ) :   0.9619 B( 15-C , 16-C ) :   1.3625
B( 15-C , 32-H ) :   0.9708 B( 16-C , 17-C ) :   1.3309 B( 16-C , 33-H ) :   0.9848
B( 17-C , 18-O ) :   1.1081 B( 17-C , 19-C ) :   1.3695 B( 18-O , 34-H ) :   0.9790
B( 19-C , 35-H ) :   0.9568

MP2 TOTAL ENERGY:    -1274.336176726 Eh
FINAL SINGLE POINT ENERGY     -1274.336176726371

DIPOLE MOMENT
-------------
                                X             Y             Z
Electronic contribution:     10.11126       8.56692       5.63237
Nuclear contribution   :    -11.58630      -9.45869      -5.96152
                        -----------------------------------------
Total Dipole Moment    :     -1.47504      -0.89177      -0.32915
                        -----------------------------------------
Magnitude (a.u.)       :      1.75480
Magnitude (Debye)      :      4.46035

Rotational constants in cm-1:     0.012479     0.009225     0.006860
Rotational constants in MHz :   374.101680   276.546901   205.664322

                             ****ORCA TERMINATED NORMALLY****
TOTAL RUN TIME: 0 days 1 hours 38 minutes 36 seconds 745 msec
