                         Program Version 5.0.0 -  RELEASE  -
|  1> ! ri-mp2 cc-pvtz cc-pvtz/c TightSCF NoKeepInts
|  2>
|  3> %scf
|  4>   MaxCore 4096
|  5> end
|  6> *xyz  0  1
|  7>     C       15.6883379   13.2967858   16.7467602
|  8>     C       15.7016788   14.8336197   16.8012798
|  9>     O       16.9248878   15.2802485   16.1900684
| 10>     C       17.0926877   16.6241518   16.0386251
| 11>     O       16.5072450   17.1899580   15.1337295
| 12>     C       17.5841834   17.3284519   17.2767393
| 13>     C       17.3982178   18.6590165   17.4800183
| 14>     C       16.5847984   19.6172696   16.6364202
| 15>     N       18.0500935   19.3004903   18.5384967
| 16>     C       19.0785283   18.7513519   19.2584947
| 17>     S       19.9560198   19.6328689   20.3484584
| 18>     N       19.3525888   17.4293167   19.0133217
| 19>     C       18.4732331   16.5281559   18.2465380
| 20>     C       17.6928710   15.6608637   19.2279895
| 21>     C       17.9808063   14.2879816   19.3429406
| 22>     C       17.2706553   13.4813276   20.2479652
| 23>     C       16.2690430   14.0528023   21.0508213
| 24>     C       15.9888798   15.4221191   20.9496848
| 25>     O       15.0236075   15.9779305   21.7239227
| 26>     C       16.6959968   16.2222963   20.0470349
| 27>     H       14.7694515   12.9044870   17.1988172
| 28>     H       16.5436741   12.8793888   17.2906991
| 29>     H       15.7365371   12.9483071   15.7075080
| 30>     H       14.8421858   15.2207366   16.2370087
| 31>     H       15.6081676   15.1785986   17.8357233
| 32>     H       15.5698311   19.2305133   16.4799590
| 33>     H       17.0427410   19.7423510   15.6467061
| 34>     H       16.4902064   20.6115952   17.0883021
| 35>     H       17.8727921   20.2768923   18.7134593
| 36>     H       20.1021498   17.0437321   19.5732795
| 37>     H       19.1141603   15.8707392   17.6419248
| 38>     H       18.7539109   13.8418601   18.7226076
| 39>     H       17.4985807   12.4195067   20.3264216
| 40>     H       15.7184332   13.4337087   21.7517108
| 41>     H       14.7004896   15.2912350   22.3268560
| 42>     H       16.4693289   17.2813417   19.9937076
| 43> *
| 44>
| 45>                          ****END OF INPUT****

CARTESIAN COORDINATES (ANGSTROEM)
---------------------------------
  C     15.688338   13.296786   16.746760
  C     15.701679   14.833620   16.801280
  O     16.924888   15.280248   16.190068
  C     17.092688   16.624152   16.038625
  O     16.507245   17.189958   15.133729
  C     17.584183   17.328452   17.276739
  C     17.398218   18.659016   17.480018
  C     16.584798   19.617270   16.636420
  N     18.050093   19.300490   18.538497
  C     19.078528   18.751352   19.258495
  S     19.956020   19.632869   20.348458
  N     19.352589   17.429317   19.013322
  C     18.473233   16.528156   18.246538
  C     17.692871   15.660864   19.227989
  C     17.980806   14.287982   19.342941
  C     17.270655   13.481328   20.247965
  C     16.269043   14.052802   21.050821
  C     15.988880   15.422119   20.949685
  O     15.023608   15.977930   21.723923
  C     16.695997   16.222296   20.047035
  H     14.769452   12.904487   17.198817
  H     16.543674   12.879389   17.290699
  H     15.736537   12.948307   15.707508
  H     14.842186   15.220737   16.237009
  H     15.608168   15.178599   17.835723
  H     15.569831   19.230513   16.479959
  H     17.042741   19.742351   15.646706
  H     16.490206   20.611595   17.088302
  H     17.872792   20.276892   18.713459
  H     20.102150   17.043732   19.573280
  H     19.114160   15.870739   17.641925
  H     18.753911   13.841860   18.722608
  H     17.498581   12.419507   20.326422
  H     15.718433   13.433709   21.751711
  H     14.700490   15.291235   22.326856
  H     16.469329   17.281342   19.993708

 Total Charge           Charge          ....    0
 Multiplicity           Mult            ....    1
 Number of Electrons    NEL             ....  154
 Basis Dimension        Dim             ....  828

ORBITAL ENERGIES
----------------

  NO   OCC          E(Eh)            E(eV)
   0   2.0000     -91.891783     -2500.5025
   1   2.0000     -20.602267      -560.6162
   2   2.0000     -20.580813      -560.0324
   3   2.0000     -20.549695      -559.1856
   4   2.0000     -15.632148      -425.3724
   5   2.0000     -15.610464      -424.7823
   6   2.0000     -11.392006      -309.9923
   7   2.0000     -11.386188      -309.8339
   8   2.0000     -11.338335      -308.5318
   9   2.0000     -11.320207      -308.0385
  10   2.0000     -11.313620      -307.8592
  11   2.0000     -11.293752      -307.3186
  12   2.0000     -11.265098      -306.5389
  13   2.0000     -11.261594      -306.4436
  14   2.0000     -11.260463      -306.4128
  15   2.0000     -11.254054      -306.2384
  16   2.0000     -11.249333      -306.1099
  17   2.0000     -11.243857      -305.9609
  18   2.0000     -11.243514      -305.9516
  19   2.0000     -11.225578      -305.4635
  20   2.0000      -8.896790      -242.0940
  21   2.0000      -6.578351      -179.0060
  22   2.0000      -6.576362      -178.9519
  23   2.0000      -6.575762      -178.9356
  24   2.0000      -1.448827       -39.4246
  25   2.0000      -1.421971       -38.6938
  26   2.0000      -1.352578       -36.8055
  27   2.0000      -1.343333       -36.5539
  28   2.0000      -1.241628       -33.7864
  29   2.0000      -1.163022       -31.6474
  30   2.0000      -1.121888       -30.5281
  31   2.0000      -1.047035       -28.4913
  32   2.0000      -1.033286       -28.1171
  33   2.0000      -1.021547       -27.7977
  34   2.0000      -0.999210       -27.1899
  35   2.0000      -0.986735       -26.8504
  36   2.0000      -0.926478       -25.2107
  37   2.0000      -0.877240       -23.8709
  38   2.0000      -0.850185       -23.1347
  39   2.0000      -0.843967       -22.9655
  40   2.0000      -0.839568       -22.8458
  41   2.0000      -0.831260       -22.6197
  42   2.0000      -0.761402       -20.7188
  43   2.0000      -0.736802       -20.0494
  44   2.0000      -0.724623       -19.7180
  45   2.0000      -0.701811       -19.0973
  46   2.0000      -0.692600       -18.8466
  47   2.0000      -0.679772       -18.4975
  48   2.0000      -0.673028       -18.3140
  49   2.0000      -0.657529       -17.8923
  50   2.0000      -0.649458       -17.6727
  51   2.0000      -0.644845       -17.5471
  52   2.0000      -0.630139       -17.1470
  53   2.0000      -0.624305       -16.9882
  54   2.0000      -0.612748       -16.6737
  55   2.0000      -0.604456       -16.4481
  56   2.0000      -0.601662       -16.3720
  57   2.0000      -0.582647       -15.8546
  58   2.0000      -0.573223       -15.5982
  59   2.0000      -0.565644       -15.3920
  60   2.0000      -0.552948       -15.0465
  61   2.0000      -0.541699       -14.7404
  62   2.0000      -0.532657       -14.4943
  63   2.0000      -0.530588       -14.4380
  64   2.0000      -0.519257       -14.1297
  65   2.0000      -0.517798       -14.0900
  66   2.0000      -0.507648       -13.8138
  67   2.0000      -0.501121       -13.6362
  68   2.0000      -0.483654       -13.1609
  69   2.0000      -0.465334       -12.6624
  70   2.0000      -0.458632       -12.4800
  71   2.0000      -0.444082       -12.0841
  72   2.0000      -0.359471        -9.7817
  73   2.0000      -0.354249        -9.6396
  74   2.0000      -0.331550        -9.0219
  75   2.0000      -0.327658        -8.9160
  76   2.0000      -0.318627        -8.6703
  77   0.0000       0.067226         1.8293
  78   0.0000       0.100936         2.7466
  79   0.0000       0.121197         3.2979
  80   0.0000       0.126349         3.4381
  81   0.0000       0.131388         3.5752

MULLIKEN ATOMIC CHARGES
-----------------------
   0 C :   -0.270022
   1 C :    0.018625
   2 O :   -0.375760
   3 C :    0.499690
   4 O :   -0.395098
   5 C :   -0.279654
   6 C :    0.150250
   7 C :   -0.270469
   8 N :   -0.125992
   9 C :    0.208215
  10 S :   -0.433583
  11 N :   -0.193470
  12 C :    0.037611
  13 C :    0.039870
  14 C :   -0.185573
  15 C :   -0.133916
  16 C :   -0.267395
  17 C :    0.303623
  18 O :   -0.356152
  19 C :   -0.250995
  20 H :    0.089110
  21 H :    0.091161
  22 H :    0.108736
  23 H :    0.113681
  24 H :    0.111384
  25 H :    0.127940
  26 H :    0.136977
  27 H :    0.094045
  28 H :    0.198922
  29 H :    0.191302
  30 H :    0.148841
  31 H :    0.156643
  32 H :    0.166728
  33 H :    0.134094
  34 H :    0.241785
  35 H :    0.168844
Sum of atomic charges:   -0.0000000

LOEWDIN ATOMIC CHARGES
----------------------
   0 C :    0.110860
   1 C :   -0.018117
   2 O :    0.285339
   3 C :   -0.421948
   4 O :    0.126285
   5 C :   -0.099913
   6 C :   -0.058783
   7 C :    0.130453
   8 N :    0.406968
   9 C :   -0.457212
  10 S :   -0.030715
  11 N :    0.396204
  12 C :   -0.053352
  13 C :   -0.039697
  14 C :    0.015460
  15 C :    0.044975
  16 C :   -0.000391
  17 C :   -0.191108
  18 O :    0.396733
  19 C :    0.030334
  20 H :   -0.025217
  21 H :   -0.031983
  22 H :   -0.025195
  23 H :   -0.030500
  24 H :   -0.037786
  25 H :   -0.005720
  26 H :   -0.002842
  27 H :   -0.023133
  28 H :   -0.057404
  29 H :   -0.065455
  30 H :   -0.006072
  31 H :   -0.029669
  32 H :   -0.019699
  33 H :   -0.034080
  34 H :   -0.152513
  35 H :   -0.025107

  Mayer bond orders larger than 0.100000
B(  0-C ,  1-C ) :   0.9815 B(  0-C , 20-H ) :   0.9756 B(  0-C , 21-H ) :   0.9759
B(  0-C , 22-H ) :   0.9787 B(  1-C ,  2-O ) :   0.8762 B(  1-C , 23-H ) :   0.9791
B(  1-C , 24-H ) :   0.9612 B(  2-O ,  3-C ) :   1.1156 B(  3-C ,  4-O ) :   2.0420
B(  3-C ,  5-C ) :   1.0370 B(  5-C ,  6-C ) :   1.6616 B(  5-C , 12-C ) :   0.9697
B(  6-C ,  7-C ) :   0.9723 B(  6-C ,  8-N ) :   1.1506 B(  7-C , 25-H ) :   0.9647
B(  7-C , 26-H ) :   0.9560 B(  7-C , 27-H ) :   0.9880 B(  8-N ,  9-C ) :   1.1771
B(  8-N , 28-H ) :   0.9484 B(  9-C , 10-S ) :   1.6179 B(  9-C , 11-N ) :   1.2997
B( 11-N , 12-C ) :   0.9761 B( 11-N , 29-H ) :   0.9546 B( 12-C , 13-C ) :   0.9513
B( 12-C , 30-H ) :   1.0024 B( 13-C , 14-C ) :   1.3548 B( 13-C , 19-C ) :   1.3645
B( 14-C , 15-C ) :   1.3783 B( 14-C , 31-H ) :   0.9714 B( 15-C , 16-C ) :   1.3706
B( 15-C , 32-H ) :   0.9681 B( 16-C , 17-C ) :   1.3247 B( 16-C , 33-H ) :   0.9832
B( 17-C , 18-O ) :   1.1154 B( 17-C , 19-C ) :   1.3830 B( 18-O , 34-H ) :   0.9789
B( 19-C , 35-H ) :   0.9567

MP2 TOTAL ENERGY:    -1274.327520679 Eh
FINAL SINGLE POINT ENERGY     -1274.327520679321

DIPOLE MOMENT
-------------
                                X             Y             Z
Electronic contribution:      9.67908      10.48994       5.14303
Nuclear contribution   :    -10.84337     -11.93044      -4.80287
                        -----------------------------------------
Total Dipole Moment    :     -1.16429      -1.44050       0.34017
                        -----------------------------------------
Magnitude (a.u.)       :      1.88317
Magnitude (Debye)      :      4.78663

Rotational constants in cm-1:     0.012152     0.009213     0.006441
Rotational constants in MHz :   364.307395   276.206894   193.105389

                             ****ORCA TERMINATED NORMALLY****
TOTAL RUN TIME: 0 days 2 hours 12 minutes 41 seconds 479 msec
