                         Program Version 5.0.0 -  RELEASE  -
|  1> ! ri-mp2 cc-pvtz cc-pvtz/c TightSCF NoKeepInts
|  2>
|  3> %scf
|  4>   MaxCore 4096
|  5> end
|  6> *xyz  0  1
|  7>     C       14.6698519   14.4217118   16.3916280
|  8>     C       15.7179074   14.8286962   15.3397983
|  9>     O       16.4144307   15.9860042   15.8363412
| 10>     C       17.5262918   15.8256734   16.6131322
| 11>     O       18.1049982   14.7557736   16.7131244
| 12>     C       17.8222249   16.9860935   17.5197860
| 13>     C       17.3513105   18.2498229   17.3514116
| 14>     C       16.4674754   18.7773454   16.2396733
| 15>     N       17.7407227   19.2593172   18.2381749
| 16>     C       18.6940599   19.1232192   19.2124108
| 17>     S       19.1855152   20.4040673   20.1363126
| 18>     N       19.2200128   17.8677672   19.3812300
| 19>     C       18.7272947   16.6502480   18.7104202
| 20>     C       18.0041073   15.7468030   19.7060833
| 21>     C       18.3998783   14.4064790   19.8702482
| 22>     C       17.7324021   13.5682827   20.7789814
| 23>     C       16.6584794   14.0735576   21.5312916
| 24>     C       16.2584930   15.4067698   21.3681912
| 25>     O       15.2173829   15.8957771   22.0881400
| 26>     C       16.9246249   16.2385146   20.4627383
| 27>     H       15.1582967   14.1234507   17.3284798
| 28>     H       14.0746179   13.5733420   16.0329043
| 29>     H       13.9889009   15.2547459   16.6055556
| 30>     H       16.4024350   13.9973352   15.1218186
| 31>     H       15.1989595   15.0917576   14.4092269
| 32>     H       16.8606775   18.4863525   15.2576577
| 33>     H       16.3901558   19.8713319   16.2428012
| 34>     H       15.4509286   18.3743757   16.3299659
| 35>     H       17.3658453   20.1882255   18.1308817
| 36>     H       19.8978028   17.7865409   20.1281525
| 37>     H       19.6018392   16.1069613   18.3241337
| 38>     H       19.2182173   14.0080745   19.2754235
| 39>     H       18.0446287   12.5316315   20.8915061
| 40>     H       16.1388784   13.4290987   22.2324150
| 41>     H       14.9171061   15.1891838   22.6791623
| 42>     H       16.6002463   17.2676686   20.3547974
| 43> *
| 44>
| 45>                          ****END OF INPUT****

CARTESIAN COORDINATES (ANGSTROEM)
---------------------------------
  C     14.669852   14.421712   16.391628
  C     15.717907   14.828696   15.339798
  O     16.414431   15.986004   15.836341
  C     17.526292   15.825673   16.613132
  O     18.104998   14.755774   16.713124
  C     17.822225   16.986093   17.519786
  C     17.351310   18.249823   17.351412
  C     16.467475   18.777345   16.239673
  N     17.740723   19.259317   18.238175
  C     18.694060   19.123219   19.212411
  S     19.185515   20.404067   20.136313
  N     19.220013   17.867767   19.381230
  C     18.727295   16.650248   18.710420
  C     18.004107   15.746803   19.706083
  C     18.399878   14.406479   19.870248
  C     17.732402   13.568283   20.778981
  C     16.658479   14.073558   21.531292
  C     16.258493   15.406770   21.368191
  O     15.217383   15.895777   22.088140
  C     16.924625   16.238515   20.462738
  H     15.158297   14.123451   17.328480
  H     14.074618   13.573342   16.032904
  H     13.988901   15.254746   16.605556
  H     16.402435   13.997335   15.121819
  H     15.198959   15.091758   14.409227
  H     16.860678   18.486352   15.257658
  H     16.390156   19.871332   16.242801
  H     15.450929   18.374376   16.329966
  H     17.365845   20.188225   18.130882
  H     19.897803   17.786541   20.128152
  H     19.601839   16.106961   18.324134
  H     19.218217   14.008074   19.275423
  H     18.044629   12.531631   20.891506
  H     16.138878   13.429099   22.232415
  H     14.917106   15.189184   22.679162
  H     16.600246   17.267669   20.354797

 Total Charge           Charge          ....    0
 Multiplicity           Mult            ....    1
 Number of Electrons    NEL             ....  154
 Basis Dimension        Dim             ....  828

ORBITAL ENERGIES
----------------

  NO   OCC          E(Eh)            E(eV)
   0   2.0000     -91.888114     -2500.4027
   1   2.0000     -20.602585      -560.6248
   2   2.0000     -20.592131      -560.3404
   3   2.0000     -20.546092      -559.0876
   4   2.0000     -15.628381      -425.2699
   5   2.0000     -15.606874      -424.6846
   6   2.0000     -11.396359      -310.1107
   7   2.0000     -11.383081      -309.7494
   8   2.0000     -11.336149      -308.4723
   9   2.0000     -11.308044      -307.7075
  10   2.0000     -11.305802      -307.6465
  11   2.0000     -11.298590      -307.4503
  12   2.0000     -11.260463      -306.4128
  13   2.0000     -11.258870      -306.3694
  14   2.0000     -11.253845      -306.2327
  15   2.0000     -11.248193      -306.0789
  16   2.0000     -11.237873      -305.7981
  17   2.0000     -11.233913      -305.6903
  18   2.0000     -11.230916      -305.6088
  19   2.0000     -11.228244      -305.5361
  20   2.0000      -8.893179      -241.9957
  21   2.0000      -6.574756      -178.9082
  22   2.0000      -6.572749      -178.8536
  23   2.0000      -6.572163      -178.8377
  24   2.0000      -1.454016       -39.5658
  25   2.0000      -1.411878       -38.4192
  26   2.0000      -1.357354       -36.9355
  27   2.0000      -1.339345       -36.4454
  28   2.0000      -1.237041       -33.6616
  29   2.0000      -1.152660       -31.3655
  30   2.0000      -1.119765       -30.4704
  31   2.0000      -1.042708       -28.3735
  32   2.0000      -1.034868       -28.1602
  33   2.0000      -1.009947       -27.4821
  34   2.0000      -0.997754       -27.1503
  35   2.0000      -0.983245       -26.7555
  36   2.0000      -0.921509       -25.0755
  37   2.0000      -0.893023       -24.3004
  38   2.0000      -0.847451       -23.0603
  39   2.0000      -0.835274       -22.7290
  40   2.0000      -0.828346       -22.5404
  41   2.0000      -0.814932       -22.1754
  42   2.0000      -0.756836       -20.5946
  43   2.0000      -0.736314       -20.0361
  44   2.0000      -0.725157       -19.7325
  45   2.0000      -0.691214       -18.8089
  46   2.0000      -0.685513       -18.6537
  47   2.0000      -0.679392       -18.4872
  48   2.0000      -0.671560       -18.2741
  49   2.0000      -0.657044       -17.8791
  50   2.0000      -0.650042       -17.6886
  51   2.0000      -0.644541       -17.5389
  52   2.0000      -0.632400       -17.2085
  53   2.0000      -0.608144       -16.5485
  54   2.0000      -0.600462       -16.3394
  55   2.0000      -0.599410       -16.3108
  56   2.0000      -0.595398       -16.2016
  57   2.0000      -0.581485       -15.8230
  58   2.0000      -0.574268       -15.6266
  59   2.0000      -0.562724       -15.3125
  60   2.0000      -0.558080       -15.1861
  61   2.0000      -0.551436       -15.0053
  62   2.0000      -0.534236       -14.5373
  63   2.0000      -0.531942       -14.4749
  64   2.0000      -0.517452       -14.0806
  65   2.0000      -0.509493       -13.8640
  66   2.0000      -0.497632       -13.5412
  67   2.0000      -0.495174       -13.4744
  68   2.0000      -0.481916       -13.1136
  69   2.0000      -0.463284       -12.6066
  70   2.0000      -0.459510       -12.5039
  71   2.0000      -0.452389       -12.3101
  72   2.0000      -0.354249        -9.6396
  73   2.0000      -0.344488        -9.3740
  74   2.0000      -0.327263        -8.9053
  75   2.0000      -0.315859        -8.5950
  76   2.0000      -0.314222        -8.5504
  77   0.0000       0.075965         2.0671
  78   0.0000       0.112323         3.0565
  79   0.0000       0.120061         3.2670
  80   0.0000       0.135445         3.6856
  81   0.0000       0.141692         3.8556

MULLIKEN ATOMIC CHARGES
-----------------------
   0 C :   -0.281570
   1 C :    0.020149
   2 O :   -0.350349
   3 C :    0.443767
   4 O :   -0.427797
   5 C :   -0.169466
   6 C :    0.141200
   7 C :   -0.284509
   8 N :   -0.122495
   9 C :    0.202305
  10 S :   -0.439354
  11 N :   -0.198361
  12 C :    0.039941
  13 C :    0.054575
  14 C :   -0.161550
  15 C :   -0.134123
  16 C :   -0.280178
  17 C :    0.312556
  18 O :   -0.358943
  19 C :   -0.274056
  20 H :    0.113573
  21 H :    0.094636
  22 H :    0.091511
  23 H :    0.117597
  24 H :    0.104548
  25 H :    0.126479
  26 H :    0.101716
  27 H :    0.127150
  28 H :    0.196883
  29 H :    0.193831
  30 H :    0.153745
  31 H :    0.153888
  32 H :    0.159393
  33 H :    0.128565
  34 H :    0.240105
  35 H :    0.164638
Sum of atomic charges:    0.0000000

LOEWDIN ATOMIC CHARGES
----------------------
   0 C :    0.105356
   1 C :   -0.017302
   2 O :    0.306657
   3 C :   -0.414576
   4 O :    0.103542
   5 C :   -0.091104
   6 C :   -0.066417
   7 C :    0.125214
   8 N :    0.404767
   9 C :   -0.458597
  10 S :   -0.036019
  11 N :    0.397835
  12 C :   -0.046323
  13 C :   -0.039269
  14 C :    0.021947
  15 C :    0.040545
  16 C :   -0.002513
  17 C :   -0.192820
  18 O :    0.393137
  19 C :    0.028537
  20 H :   -0.022565
  21 H :   -0.026162
  22 H :   -0.029254
  23 H :   -0.027424
  24 H :   -0.027597
  25 H :   -0.008273
  26 H :   -0.020955
  27 H :   -0.010111
  28 H :   -0.059114
  29 H :   -0.063697
  30 H :   -0.005032
  31 H :   -0.025196
  32 H :   -0.021134
  33 H :   -0.036291
  34 H :   -0.154848
  35 H :   -0.024944

  Mayer bond orders larger than 0.100000
B(  0-C ,  1-C ) :   0.9659 B(  0-C , 20-H ) :   0.9753 B(  0-C , 21-H ) :   0.9757
B(  0-C , 22-H ) :   0.9782 B(  1-C ,  2-O ) :   0.8889 B(  1-C , 23-H ) :   0.9751
B(  1-C , 24-H ) :   0.9842 B(  2-O ,  3-C ) :   1.1535 B(  3-C ,  4-O ) :   1.9849
B(  3-C ,  5-C ) :   1.0461 B(  5-C ,  6-C ) :   1.6488 B(  5-C , 12-C ) :   0.9663
B(  6-C ,  7-C ) :   0.9555 B(  6-C ,  8-N ) :   1.1468 B(  7-C , 25-H ) :   0.9664
B(  7-C , 26-H ) :   0.9907 B(  7-C , 27-H ) :   0.9633 B(  8-N ,  9-C ) :   1.1793
B(  8-N , 28-H ) :   0.9489 B(  9-C , 10-S ) :   1.6106 B(  9-C , 11-N ) :   1.3038
B( 11-N , 12-C ) :   0.9922 B( 11-N , 29-H ) :   0.9519 B( 12-C , 13-C ) :   0.9459
B( 12-C , 30-H ) :   0.9999 B( 13-C , 14-C ) :   1.3758 B( 13-C , 19-C ) :   1.3697
B( 14-C , 15-C ) :   1.3948 B( 14-C , 31-H ) :   0.9646 B( 15-C , 16-C ) :   1.3624
B( 15-C , 32-H ) :   0.9714 B( 16-C , 17-C ) :   1.3312 B( 16-C , 33-H ) :   0.9858
B( 17-C , 18-O ) :   1.1082 B( 17-C , 19-C ) :   1.3785 B( 18-O , 34-H ) :   0.9805
B( 19-C , 35-H ) :   0.9585

MP2 TOTAL ENERGY:    -1274.347564888 Eh
FINAL SINGLE POINT ENERGY     -1274.347564888272

DIPOLE MOMENT
-------------
                                X             Y             Z
Electronic contribution:     11.05609       9.51307       8.64261
Nuclear contribution   :    -12.51833     -10.77985      -9.68498
                        -----------------------------------------
Total Dipole Moment    :     -1.46224      -1.26678      -1.04237
                        -----------------------------------------
Magnitude (a.u.)       :      2.19759
Magnitude (Debye)      :      5.58584

Rotational constants in cm-1:     0.010899     0.009209     0.006196
Rotational constants in MHz :   326.736025   276.092179   185.746669

                             ****ORCA TERMINATED NORMALLY****
TOTAL RUN TIME: 0 days 1 hours 43 minutes 48 seconds 646 msec
