                         Program Version 5.0.0 -  RELEASE  -
|  1> ! ri-mp2 cc-pvtz cc-pvtz/c TightSCF NoKeepInts
|  2>
|  3> %scf
|  4>   MaxCore 4096
|  5> end
|  6> *xyz  0  1
|  7>     C       15.1171955   15.1154989   17.5115887
|  8>     C       15.5067489   15.5114001   16.0761533
|  9>     O       16.8830935   15.1645724   15.8042695
| 10>     C       18.0081126   15.6067645   16.4612618
| 11>     O       19.0000756   14.9015488   16.4802972
| 12>     C       17.9030538   16.8015960   17.3589179
| 13>     C       17.4347092   18.0040039   16.9426911
| 14>     C       16.9994726   18.3954106   15.5453793
| 15>     N       17.4766043   19.1045653   17.8017235
| 16>     C       18.1235202   19.1291739   19.0086764
| 17>     S       18.2094473   20.5054041   19.9210781
| 18>     N       18.7058374   17.9557613   19.4168050
| 19>     C       18.5643247   16.6527482   18.7369390
| 20>     C       17.8450678   15.6358739   19.6230766
| 21>     C       18.2243929   14.2808740   19.5860518
| 22>     C       17.5711886   13.3286344   20.3856870
| 23>     C       16.5288479   13.7323321   21.2363880
| 24>     C       16.1493219   15.0800851   21.2823793
| 25>     O       15.1379551   15.4725329   22.0969869
| 26>     C       16.8015589   16.0264770   20.4854652
| 27>     H       15.4012788   15.8985568   18.2202691
| 28>     H       15.5965309   14.1736207   17.8089547
| 29>     H       14.0312117   14.9838464   17.5893017
| 30>     H       14.8757782   14.9427501   15.3806345
| 31>     H       15.2908463   16.5688755   15.9092384
| 32>     H       17.1484934   17.5901337   14.8161509
| 33>     H       17.5891562   19.2480496   15.1843018
| 34>     H       15.9433439   18.6903123   15.5222084
| 35>     H       17.0808454   19.9836494   17.5074881
| 36>     H       19.1696795   17.9990897   20.3155473
| 37>     H       19.5812902   16.2686196   18.5671749
| 38>     H       19.0268604   13.9608687   18.9246290
| 39>     H       17.8734462   12.2836368   20.3408089
| 40>     H       16.0203335   12.9994657   21.8540777
| 41>     H       14.8462162   14.6934925   22.5941852
| 42>     H       16.4811605   17.0617750   20.5372138
| 43> *
| 44>
| 45>                          ****END OF INPUT****

CARTESIAN COORDINATES (ANGSTROEM)
---------------------------------
  C     15.117195   15.115499   17.511589
  C     15.506749   15.511400   16.076153
  O     16.883094   15.164572   15.804269
  C     18.008113   15.606765   16.461262
  O     19.000076   14.901549   16.480297
  C     17.903054   16.801596   17.358918
  C     17.434709   18.004004   16.942691
  C     16.999473   18.395411   15.545379
  N     17.476604   19.104565   17.801724
  C     18.123520   19.129174   19.008676
  S     18.209447   20.505404   19.921078
  N     18.705837   17.955761   19.416805
  C     18.564325   16.652748   18.736939
  C     17.845068   15.635874   19.623077
  C     18.224393   14.280874   19.586052
  C     17.571189   13.328634   20.385687
  C     16.528848   13.732332   21.236388
  C     16.149322   15.080085   21.282379
  O     15.137955   15.472533   22.096987
  C     16.801559   16.026477   20.485465
  H     15.401279   15.898557   18.220269
  H     15.596531   14.173621   17.808955
  H     14.031212   14.983846   17.589302
  H     14.875778   14.942750   15.380634
  H     15.290846   16.568876   15.909238
  H     17.148493   17.590134   14.816151
  H     17.589156   19.248050   15.184302
  H     15.943344   18.690312   15.522208
  H     17.080845   19.983649   17.507488
  H     19.169680   17.999090   20.315547
  H     19.581290   16.268620   18.567175
  H     19.026860   13.960869   18.924629
  H     17.873446   12.283637   20.340809
  H     16.020333   12.999466   21.854078
  H     14.846216   14.693492   22.594185
  H     16.481161   17.061775   20.537214

 Total Charge           Charge          ....    0
 Multiplicity           Mult            ....    1
 Number of Electrons    NEL             ....  154
 Basis Dimension        Dim             ....  828

ORBITAL ENERGIES
----------------

  NO   OCC          E(Eh)            E(eV)
   0   2.0000     -91.891076     -2500.4833
   1   2.0000     -20.599809      -560.5493
   2   2.0000     -20.597586      -560.4888
   3   2.0000     -20.549252      -559.1736
   4   2.0000     -15.629012      -425.2870
   5   2.0000     -15.611447      -424.8091
   6   2.0000     -11.400829      -310.2323
   7   2.0000     -11.387294      -309.8640
   8   2.0000     -11.335213      -308.4468
   9   2.0000     -11.314306      -307.8779
  10   2.0000     -11.314116      -307.8728
  11   2.0000     -11.307698      -307.6981
  12   2.0000     -11.270302      -306.6805
  13   2.0000     -11.269154      -306.6493
  14   2.0000     -11.262053      -306.4560
  15   2.0000     -11.254530      -306.2513
  16   2.0000     -11.243749      -305.9580
  17   2.0000     -11.239439      -305.8407
  18   2.0000     -11.235706      -305.7391
  19   2.0000     -11.226999      -305.5022
  20   2.0000      -8.896176      -242.0773
  21   2.0000      -6.577763      -178.9900
  22   2.0000      -6.575737      -178.9349
  23   2.0000      -6.575159      -178.9192
  24   2.0000      -1.446083       -39.3499
  25   2.0000      -1.417393       -38.5692
  26   2.0000      -1.358613       -36.9697
  27   2.0000      -1.342473       -36.5306
  28   2.0000      -1.241242       -33.7759
  29   2.0000      -1.158779       -31.5320
  30   2.0000      -1.125332       -30.6218
  31   2.0000      -1.047535       -28.5049
  32   2.0000      -1.037902       -28.2428
  33   2.0000      -1.017446       -27.6861
  34   2.0000      -1.005956       -27.3735
  35   2.0000      -0.990243       -26.9459
  36   2.0000      -0.928043       -25.2533
  37   2.0000      -0.895476       -24.3671
  38   2.0000      -0.855763       -23.2865
  39   2.0000      -0.841256       -22.8917
  40   2.0000      -0.834298       -22.7024
  41   2.0000      -0.830408       -22.5966
  42   2.0000      -0.747182       -20.3318
  43   2.0000      -0.740630       -20.1536
  44   2.0000      -0.730338       -19.8735
  45   2.0000      -0.695430       -18.9236
  46   2.0000      -0.687503       -18.7079
  47   2.0000      -0.680647       -18.5213
  48   2.0000      -0.675570       -18.3832
  49   2.0000      -0.661687       -18.0054
  50   2.0000      -0.654186       -17.8013
  51   2.0000      -0.648955       -17.6590
  52   2.0000      -0.639207       -17.3937
  53   2.0000      -0.622760       -16.9462
  54   2.0000      -0.610713       -16.6183
  55   2.0000      -0.605720       -16.4825
  56   2.0000      -0.601522       -16.3682
  57   2.0000      -0.589150       -16.0316
  58   2.0000      -0.576947       -15.6995
  59   2.0000      -0.567288       -15.4367
  60   2.0000      -0.565990       -15.4014
  61   2.0000      -0.552392       -15.0313
  62   2.0000      -0.539105       -14.6698
  63   2.0000      -0.535783       -14.5794
  64   2.0000      -0.519795       -14.1443
  65   2.0000      -0.512918       -13.9572
  66   2.0000      -0.501684       -13.6515
  67   2.0000      -0.500647       -13.6233
  68   2.0000      -0.482374       -13.1261
  69   2.0000      -0.468531       -12.7494
  70   2.0000      -0.456444       -12.4205
  71   2.0000      -0.449994       -12.2450
  72   2.0000      -0.359346        -9.7783
  73   2.0000      -0.348370        -9.4796
  74   2.0000      -0.330628        -8.9968
  75   2.0000      -0.323040        -8.7904
  76   2.0000      -0.319730        -8.7003
  77   0.0000       0.080770         2.1979
  78   0.0000       0.106897         2.9088
  79   0.0000       0.113760         3.0956
  80   0.0000       0.129639         3.5276
  81   0.0000       0.131150         3.5688

MULLIKEN ATOMIC CHARGES
-----------------------
   0 C :   -0.323394
   1 C :    0.024244
   2 O :   -0.326119
   3 C :    0.430122
   4 O :   -0.386612
   5 C :   -0.247307
   6 C :    0.171340
   7 C :   -0.330354
   8 N :   -0.137939
   9 C :    0.201478
  10 S :   -0.439503
  11 N :   -0.226676
  12 C :    0.094190
  13 C :    0.021390
  14 C :   -0.221094
  15 C :   -0.137449
  16 C :   -0.274679
  17 C :    0.323465
  18 O :   -0.357150
  19 C :   -0.273322
  20 H :    0.107623
  21 H :    0.125078
  22 H :    0.111776
  23 H :    0.127337
  24 H :    0.086933
  25 H :    0.131904
  26 H :    0.141613
  27 H :    0.119865
  28 H :    0.196482
  29 H :    0.202842
  30 H :    0.166868
  31 H :    0.178797
  32 H :    0.165049
  33 H :    0.131807
  34 H :    0.240945
  35 H :    0.180453
Sum of atomic charges:   -0.0000000

LOEWDIN ATOMIC CHARGES
----------------------
   0 C :    0.105955
   1 C :   -0.021297
   2 O :    0.298644
   3 C :   -0.413732
   4 O :    0.122052
   5 C :   -0.080060
   6 C :   -0.094664
   7 C :    0.121598
   8 N :    0.402866
   9 C :   -0.458869
  10 S :   -0.036491
  11 N :    0.398096
  12 C :   -0.042361
  13 C :   -0.041868
  14 C :    0.019954
  15 C :    0.043082
  16 C :   -0.001371
  17 C :   -0.192533
  18 O :    0.395447
  19 C :    0.027173
  20 H :   -0.034773
  21 H :   -0.018928
  22 H :   -0.025426
  23 H :   -0.019635
  24 H :   -0.039533
  25 H :   -0.008004
  26 H :   -0.008559
  27 H :   -0.019028
  28 H :   -0.056970
  29 H :   -0.063119
  30 H :   -0.002003
  31 H :   -0.022498
  32 H :   -0.018812
  33 H :   -0.035055
  34 H :   -0.153489
  35 H :   -0.025788

  Mayer bond orders larger than 0.100000
B(  0-C ,  1-C ) :   0.9557 B(  0-C , 20-H ) :   0.9725 B(  0-C , 21-H ) :   0.9684
B(  0-C , 22-H ) :   0.9780 B(  1-C ,  2-O ) :   0.9019 B(  1-C , 23-H ) :   0.9839
B(  1-C , 24-H ) :   0.9723 B(  2-O ,  3-C ) :   1.1798 B(  3-C ,  4-O ) :   2.0769
B(  3-C ,  5-C ) :   0.9337 B(  5-C ,  6-C ) :   1.6815 B(  5-C , 12-C ) :   0.9446
B(  6-C ,  7-C ) :   0.9421 B(  6-C ,  8-N ) :   1.1154 B(  7-C , 25-H ) :   0.9787
B(  7-C , 26-H ) :   0.9685 B(  7-C , 27-H ) :   0.9668 B(  8-N ,  9-C ) :   1.1945
B(  8-N , 28-H ) :   0.9523 B(  9-C , 10-S ) :   1.6095 B(  9-C , 11-N ) :   1.2908
B( 11-N , 12-C ) :   0.9863 B( 11-N , 29-H ) :   0.9478 B( 12-C , 13-C ) :   0.9554
B( 12-C , 30-H ) :   0.9945 B( 13-C , 14-C ) :   1.3874 B( 13-C , 19-C ) :   1.3363
B( 14-C , 15-C ) :   1.4015 B( 14-C , 31-H ) :   0.9569 B( 15-C , 16-C ) :   1.3579
B( 15-C , 32-H ) :   0.9697 B( 16-C , 17-C ) :   1.3316 B( 16-C , 33-H ) :   0.9847
B( 17-C , 18-O ) :   1.1098 B( 17-C , 19-C ) :   1.3640 B( 18-O , 34-H ) :   0.9797
B( 19-C , 35-H ) :   0.9580

MP2 TOTAL ENERGY:    -1274.332379535 Eh
FINAL SINGLE POINT ENERGY     -1274.332379534734

DIPOLE MOMENT
-------------
                                X             Y             Z
Electronic contribution:      9.13602       6.63845       6.16032
Nuclear contribution   :    -10.67929      -7.56313      -6.77104
                        -----------------------------------------
Total Dipole Moment    :     -1.54327      -0.92468      -0.61073
                        -----------------------------------------
Magnitude (a.u.)       :      1.89992
Magnitude (Debye)      :      4.82921

Rotational constants in cm-1:     0.011708     0.009602     0.006681
Rotational constants in MHz :   350.986403   287.868284   200.280774

                             ****ORCA TERMINATED NORMALLY****
TOTAL RUN TIME: 0 days 2 hours 12 minutes 21 seconds 893 msec
