                         Program Version 5.0.0 -  RELEASE  -
|  1> ! ri-mp2 cc-pvtz cc-pvtz/c TightSCF NoKeepInts
|  2>
|  3> %scf
|  4>   MaxCore 4096
|  5> end
|  6> *xyz  0  1
|  7>     C       14.9537765   16.2229792   17.3445883
|  8>     C       15.5567400   14.8978752   16.8340652
|  9>     O       16.8864623   14.9221989   16.2435416
| 10>     C       18.0090803   15.6811028   16.4898858
| 11>     O       19.1039069   15.2227323   16.2218144
| 12>     C       17.9098184   16.8661923   17.3802905
| 13>     C       17.4682602   18.0580751   16.9219126
| 14>     C       17.0061023   18.3646971   15.5135920
| 15>     N       17.4850044   19.1743878   17.7603337
| 16>     C       17.9767700   19.1796378   19.0403137
| 17>     S       17.9524522   20.5439776   19.9741987
| 18>     N       18.4885302   17.9952416   19.5133132
| 19>     C       18.5214765   16.7165236   18.7742607
| 20>     C       17.8809393   15.5731121   19.5609433
| 21>     C       18.3774698   14.2640696   19.4153589
| 22>     C       17.7937921   13.1919797   20.1100669
| 23>     C       16.7028044   13.4279057   20.9629272
| 24>     C       16.2054143   14.7287434   21.1148080
| 25>     O       15.1463618   14.9595360   21.9304817
| 26>     C       16.7881662   15.7944332   20.4215101
| 27>     H       15.4881868   16.6296020   18.2062983
| 28>     H       13.9242711   16.0440153   17.6783147
| 29>     H       14.9025610   16.9705878   16.5473419
| 30>     H       15.5872511   14.2090832   17.6891298
| 31>     H       14.8663099   14.4560995   16.1039994
| 32>     H       16.7323254   17.4586417   14.9592186
| 33>     H       17.8052539   18.8614974   14.9487776
| 34>     H       16.1295608   19.0241807   15.5121554
| 35>     H       17.1381855   20.0591953   17.4245800
| 36>     H       18.8326853   18.0284880   20.4647610
| 37>     H       19.5801352   16.4542826   18.6291326
| 38>     H       19.2155368   14.0743830   18.7472433
| 39>     H       18.1868285   12.1845370   19.9825424
| 40>     H       16.2481418   12.6021671   21.5004369
| 41>     H       14.9195599   14.1199883   22.3585763
| 42>     H       16.3768789   16.7898499   20.5532853
| 43> *
| 44>
| 45>                          ****END OF INPUT****

CARTESIAN COORDINATES (ANGSTROEM)
---------------------------------
  C     14.953777   16.222979   17.344588
  C     15.556740   14.897875   16.834065
  O     16.886462   14.922199   16.243542
  C     18.009080   15.681103   16.489886
  O     19.103907   15.222732   16.221814
  C     17.909818   16.866192   17.380291
  C     17.468260   18.058075   16.921913
  C     17.006102   18.364697   15.513592
  N     17.485004   19.174388   17.760334
  C     17.976770   19.179638   19.040314
  S     17.952452   20.543978   19.974199
  N     18.488530   17.995242   19.513313
  C     18.521476   16.716524   18.774261
  C     17.880939   15.573112   19.560943
  C     18.377470   14.264070   19.415359
  C     17.793792   13.191980   20.110067
  C     16.702804   13.427906   20.962927
  C     16.205414   14.728743   21.114808
  O     15.146362   14.959536   21.930482
  C     16.788166   15.794433   20.421510
  H     15.488187   16.629602   18.206298
  H     13.924271   16.044015   17.678315
  H     14.902561   16.970588   16.547342
  H     15.587251   14.209083   17.689130
  H     14.866310   14.456099   16.103999
  H     16.732325   17.458642   14.959219
  H     17.805254   18.861497   14.948778
  H     16.129561   19.024181   15.512155
  H     17.138185   20.059195   17.424580
  H     18.832685   18.028488   20.464761
  H     19.580135   16.454283   18.629133
  H     19.215537   14.074383   18.747243
  H     18.186829   12.184537   19.982542
  H     16.248142   12.602167   21.500437
  H     14.919560   14.119988   22.358576
  H     16.376879   16.789850   20.553285

 Total Charge           Charge          ....    0
 Multiplicity           Mult            ....    1
 Number of Electrons    NEL             ....  154
 Basis Dimension        Dim             ....  828

ORBITAL ENERGIES
----------------

  NO   OCC          E(Eh)            E(eV)
   0   2.0000     -91.889751     -2500.4473
   1   2.0000     -20.602048      -560.6102
   2   2.0000     -20.595961      -560.4446
   3   2.0000     -20.549514      -559.1807
   4   2.0000     -15.625331      -425.1869
   5   2.0000     -15.612504      -424.8378
   6   2.0000     -11.399664      -310.2006
   7   2.0000     -11.386937      -309.8543
   8   2.0000     -11.323879      -308.1384
   9   2.0000     -11.319378      -308.0159
  10   2.0000     -11.317367      -307.9612
  11   2.0000     -11.309846      -307.7565
  12   2.0000     -11.267996      -306.6178
  13   2.0000     -11.265863      -306.5597
  14   2.0000     -11.260837      -306.4230
  15   2.0000     -11.259435      -306.3848
  16   2.0000     -11.248421      -306.0851
  17   2.0000     -11.244910      -305.9896
  18   2.0000     -11.241412      -305.8944
  19   2.0000     -11.235897      -305.7443
  20   2.0000      -8.894873      -242.0418
  21   2.0000      -6.576465      -178.9547
  22   2.0000      -6.574435      -178.8995
  23   2.0000      -6.573863      -178.8839
  24   2.0000      -1.441349       -39.2211
  25   2.0000      -1.421866       -38.6910
  26   2.0000      -1.354161       -36.8486
  27   2.0000      -1.338815       -36.4310
  28   2.0000      -1.239625       -33.7319
  29   2.0000      -1.163386       -31.6573
  30   2.0000      -1.125536       -30.6274
  31   2.0000      -1.049982       -28.5715
  32   2.0000      -1.040318       -28.3085
  33   2.0000      -1.021606       -27.7993
  34   2.0000      -1.005081       -27.3496
  35   2.0000      -0.990648       -26.9569
  36   2.0000      -0.928541       -25.2669
  37   2.0000      -0.901012       -24.5178
  38   2.0000      -0.852590       -23.2002
  39   2.0000      -0.842239       -22.9185
  40   2.0000      -0.838339       -22.8124
  41   2.0000      -0.830750       -22.6059
  42   2.0000      -0.747936       -20.3524
  43   2.0000      -0.735084       -20.0027
  44   2.0000      -0.728460       -19.8224
  45   2.0000      -0.699680       -19.0393
  46   2.0000      -0.687842       -18.7171
  47   2.0000      -0.676867       -18.4185
  48   2.0000      -0.675868       -18.3913
  49   2.0000      -0.661974       -18.0132
  50   2.0000      -0.656391       -17.8613
  51   2.0000      -0.652635       -17.7591
  52   2.0000      -0.639292       -17.3960
  53   2.0000      -0.614466       -16.7205
  54   2.0000      -0.608107       -16.5474
  55   2.0000      -0.606010       -16.4904
  56   2.0000      -0.602993       -16.4083
  57   2.0000      -0.592095       -16.1117
  58   2.0000      -0.582262       -15.8441
  59   2.0000      -0.578055       -15.7297
  60   2.0000      -0.567549       -15.4438
  61   2.0000      -0.557274       -15.1642
  62   2.0000      -0.542262       -14.7557
  63   2.0000      -0.532853       -14.4997
  64   2.0000      -0.520014       -14.1503
  65   2.0000      -0.514557       -14.0018
  66   2.0000      -0.503978       -13.7139
  67   2.0000      -0.499880       -13.6024
  68   2.0000      -0.487896       -13.2763
  69   2.0000      -0.466824       -12.7029
  70   2.0000      -0.452933       -12.3249
  71   2.0000      -0.447910       -12.1882
  72   2.0000      -0.355818        -9.6823
  73   2.0000      -0.350967        -9.5503
  74   2.0000      -0.329538        -8.9672
  75   2.0000      -0.326993        -8.8979
  76   2.0000      -0.318167        -8.6578
  77   0.0000       0.092167         2.5080
  78   0.0000       0.104050         2.8313
  79   0.0000       0.118017         3.2114
  80   0.0000       0.124359         3.3840
  81   0.0000       0.128022         3.4837

MULLIKEN ATOMIC CHARGES
-----------------------
   0 C :   -0.348087
   1 C :    0.050506
   2 O :   -0.339229
   3 C :    0.393171
   4 O :   -0.379824
   5 C :   -0.186397
   6 C :    0.139955
   7 C :   -0.322796
   8 N :   -0.139386
   9 C :    0.214106
  10 S :   -0.443407
  11 N :   -0.235933
  12 C :    0.118197
  13 C :    0.004806
  14 C :   -0.217625
  15 C :   -0.131383
  16 C :   -0.279270
  17 C :    0.325018
  18 O :   -0.355780
  19 C :   -0.284250
  20 H :    0.119503
  21 H :    0.129617
  22 H :    0.100194
  23 H :    0.104000
  24 H :    0.121377
  25 H :    0.117363
  26 H :    0.151001
  27 H :    0.109543
  28 H :    0.195760
  29 H :    0.204570
  30 H :    0.165310
  31 H :    0.172390
  32 H :    0.166021
  33 H :    0.133357
  34 H :    0.242005
  35 H :    0.185599
Sum of atomic charges:   -0.0000000

LOEWDIN ATOMIC CHARGES
----------------------
   0 C :    0.103970
   1 C :   -0.009994
   2 O :    0.290401
   3 C :   -0.418438
   4 O :    0.125329
   5 C :   -0.082192
   6 C :   -0.102831
   7 C :    0.123623
   8 N :    0.402530
   9 C :   -0.454076
  10 S :   -0.039149
  11 N :    0.397642
  12 C :   -0.043708
  13 C :   -0.042123
  14 C :    0.022247
  15 C :    0.044867
  16 C :   -0.001219
  17 C :   -0.193791
  18 O :    0.395836
  19 C :    0.025449
  20 H :   -0.034169
  21 H :   -0.018703
  22 H :   -0.031962
  23 H :   -0.025179
  24 H :   -0.020543
  25 H :   -0.010716
  26 H :   -0.007321
  27 H :   -0.018227
  28 H :   -0.058420
  29 H :   -0.064676
  30 H :   -0.003307
  31 H :   -0.021029
  32 H :   -0.017630
  33 H :   -0.034275
  34 H :   -0.152604
  35 H :   -0.025614

  Mayer bond orders larger than 0.100000
B(  0-C ,  1-C ) :   0.9607 B(  0-C , 20-H ) :   0.9670 B(  0-C , 21-H ) :   0.9766
B(  0-C , 22-H ) :   0.9770 B(  1-C ,  2-O ) :   0.9062 B(  1-C , 23-H ) :   0.9720
B(  1-C , 24-H ) :   0.9808 B(  2-O ,  3-C ) :   1.1766 B(  3-C ,  4-O ) :   2.0970
B(  3-C ,  5-C ) :   0.9261 B(  5-C ,  6-C ) :   1.6975 B(  5-C , 12-C ) :   0.9450
B(  6-C ,  7-C ) :   0.9476 B(  6-C ,  8-N ) :   1.1140 B(  7-C , 25-H ) :   0.9796
B(  7-C , 26-H ) :   0.9646 B(  7-C , 27-H ) :   0.9738 B(  8-N ,  9-C ) :   1.2037
B(  8-N , 28-H ) :   0.9521 B(  9-C , 10-S ) :   1.6048 B(  9-C , 11-N ) :   1.2844
B( 11-N , 12-C ) :   0.9916 B( 11-N , 29-H ) :   0.9450 B( 12-C , 13-C ) :   0.9480
B( 12-C , 30-H ) :   0.9961 B( 13-C , 14-C ) :   1.3889 B( 13-C , 19-C ) :   1.3360
B( 14-C , 15-C ) :   1.4047 B( 14-C , 31-H ) :   0.9611 B( 15-C , 16-C ) :   1.3557
B( 15-C , 32-H ) :   0.9691 B( 16-C , 17-C ) :   1.3327 B( 16-C , 33-H ) :   0.9844
B( 17-C , 18-O ) :   1.1105 B( 17-C , 19-C ) :   1.3639 B( 18-O , 34-H ) :   0.9787
B( 19-C , 35-H ) :   0.9521

MP2 TOTAL ENERGY:    -1274.321815721 Eh
FINAL SINGLE POINT ENERGY     -1274.321815721328

DIPOLE MOMENT
-------------
                                X             Y             Z
Electronic contribution:      8.95808       5.28807       6.13406
Nuclear contribution   :    -10.44283      -6.59966      -6.48406
                        -----------------------------------------
Total Dipole Moment    :     -1.48475      -1.31160      -0.35000
                        -----------------------------------------
Magnitude (a.u.)       :      2.01178
Magnitude (Debye)      :      5.11355

Rotational constants in cm-1:     0.012614     0.009182     0.006808
Rotational constants in MHz :   378.143710   275.255501   204.104002

                             ****ORCA TERMINATED NORMALLY****
TOTAL RUN TIME: 0 days 2 hours 17 minutes 34 seconds 498 msec
