                         Program Version 5.0.0 -  RELEASE  -
|  1> ! ri-mp2 cc-pvtz cc-pvtz/c TightSCF NoKeepInts
|  2>
|  3> %scf
|  4>   MaxCore 4096
|  5> end
|  6> *xyz  0  1
|  7>     C       14.6315236   14.3242317   16.4838608
|  8>     C       15.5578433   15.5182883   16.7638595
|  9>     O       16.7872334   15.2755005   16.0528718
| 10>     C       17.9978274   15.6077882   16.5998329
| 11>     O       18.9003879   14.7918751   16.6357421
| 12>     C       18.0320038   16.8576068   17.4239336
| 13>     C       17.5218432   18.0424406   17.0086118
| 14>     C       16.8982904   18.3601356   15.6655084
| 15>     N       17.6407982   19.1726102   17.8210770
| 16>     C       18.3572925   19.2236846   18.9883277
| 17>     S       18.5150168   20.6260531   19.8498544
| 18>     N       18.9351170   18.0509087   19.4077995
| 19>     C       18.7436212   16.7326097   18.7716573
| 20>     C       17.9794586   15.7818339   19.6886871
| 21>     C       18.4075665   14.4505492   19.8422405
| 22>     C       17.6949124   13.5582714   20.6603078
| 23>     C       16.5409758   13.9989176   21.3300549
| 24>     C       16.1073237   15.3222895   21.1756595
| 25>     O       14.9855799   15.7477617   21.8089165
| 26>     C       16.8182757   16.2084445   20.3601487
| 27>     H       15.0962461   13.3895302   16.8228936
| 28>     H       14.4250513   14.2372690   15.4098347
| 29>     H       13.6769982   14.4436605   17.0106133
| 30>     H       15.0833475   16.4493525   16.4336621
| 31>     H       15.7323604   15.5710986   17.8466549
| 32>     H       17.0583771   17.5620099   14.9305946
| 33>     H       17.3400832   19.2678185   15.2347880
| 34>     H       15.8183767   18.5263087   15.7568997
| 35>     H       17.2374149   20.0472616   17.5236147
| 36>     H       19.4409390   18.1133320   20.2824506
| 37>     H       19.7397180   16.3038463   18.5862858
| 38>     H       19.2891812   14.1007588   19.3089868
| 39>     H       18.0349349   12.5293394   20.7657926
| 40>     H       15.9860705   13.3114698   21.9600053
| 41>     H       14.6731454   15.0194324   22.3670903
| 42>     H       16.4618645   17.2277107   20.2548810
| 43> *
| 44>
| 45>                          ****END OF INPUT****

CARTESIAN COORDINATES (ANGSTROEM)
---------------------------------
  C     14.631524   14.324232   16.483861
  C     15.557843   15.518288   16.763859
  O     16.787233   15.275500   16.052872
  C     17.997827   15.607788   16.599833
  O     18.900388   14.791875   16.635742
  C     18.032004   16.857607   17.423934
  C     17.521843   18.042441   17.008612
  C     16.898290   18.360136   15.665508
  N     17.640798   19.172610   17.821077
  C     18.357292   19.223685   18.988328
  S     18.515017   20.626053   19.849854
  N     18.935117   18.050909   19.407799
  C     18.743621   16.732610   18.771657
  C     17.979459   15.781834   19.688687
  C     18.407566   14.450549   19.842240
  C     17.694912   13.558271   20.660308
  C     16.540976   13.998918   21.330055
  C     16.107324   15.322290   21.175659
  O     14.985580   15.747762   21.808916
  C     16.818276   16.208444   20.360149
  H     15.096246   13.389530   16.822894
  H     14.425051   14.237269   15.409835
  H     13.676998   14.443660   17.010613
  H     15.083347   16.449352   16.433662
  H     15.732360   15.571099   17.846655
  H     17.058377   17.562010   14.930595
  H     17.340083   19.267819   15.234788
  H     15.818377   18.526309   15.756900
  H     17.237415   20.047262   17.523615
  H     19.440939   18.113332   20.282451
  H     19.739718   16.303846   18.586286
  H     19.289181   14.100759   19.308987
  H     18.034935   12.529339   20.765793
  H     15.986070   13.311470   21.960005
  H     14.673145   15.019432   22.367090
  H     16.461865   17.227711   20.254881

 Total Charge           Charge          ....    0
 Multiplicity           Mult            ....    1
 Number of Electrons    NEL             ....  154
 Basis Dimension        Dim             ....  828

ORBITAL ENERGIES
----------------

  NO   OCC          E(Eh)            E(eV)
   0   2.0000     -91.890890     -2500.4782
   1   2.0000     -20.599557      -560.5425
   2   2.0000     -20.595879      -560.4424
   3   2.0000     -20.551645      -559.2387
   4   2.0000     -15.629147      -425.2907
   5   2.0000     -15.611340      -424.8061
   6   2.0000     -11.396587      -310.1169
   7   2.0000     -11.387185      -309.8611
   8   2.0000     -11.334450      -308.4261
   9   2.0000     -11.316419      -307.9354
  10   2.0000     -11.312847      -307.8382
  11   2.0000     -11.303353      -307.5799
  12   2.0000     -11.267084      -306.5929
  13   2.0000     -11.264786      -306.5304
  14   2.0000     -11.262669      -306.4728
  15   2.0000     -11.256286      -306.2991
  16   2.0000     -11.245730      -306.0119
  17   2.0000     -11.241914      -305.9080
  18   2.0000     -11.238554      -305.8166
  19   2.0000     -11.230857      -305.6072
  20   2.0000      -8.895987      -242.0721
  21   2.0000      -6.577569      -178.9848
  22   2.0000      -6.575550      -178.9298
  23   2.0000      -6.574969      -178.9140
  24   2.0000      -1.449061       -39.4309
  25   2.0000      -1.419383       -38.6234
  26   2.0000      -1.360223       -37.0135
  27   2.0000      -1.341771       -36.5114
  28   2.0000      -1.240674       -33.7605
  29   2.0000      -1.160857       -31.5885
  30   2.0000      -1.125057       -30.6144
  31   2.0000      -1.048291       -28.5254
  32   2.0000      -1.038285       -28.2532
  33   2.0000      -1.018442       -27.7132
  34   2.0000      -1.005000       -27.3474
  35   2.0000      -0.989180       -26.9170
  36   2.0000      -0.927585       -25.2409
  37   2.0000      -0.879259       -23.9258
  38   2.0000      -0.856141       -23.2968
  39   2.0000      -0.842984       -22.9388
  40   2.0000      -0.836876       -22.7726
  41   2.0000      -0.835913       -22.7463
  42   2.0000      -0.756176       -20.5766
  43   2.0000      -0.739477       -20.1222
  44   2.0000      -0.731550       -19.9065
  45   2.0000      -0.697401       -18.9772
  46   2.0000      -0.688393       -18.7321
  47   2.0000      -0.681432       -18.5427
  48   2.0000      -0.677330       -18.4311
  49   2.0000      -0.662811       -18.0360
  50   2.0000      -0.655952       -17.8494
  51   2.0000      -0.650196       -17.6927
  52   2.0000      -0.641304       -17.4508
  53   2.0000      -0.611145       -16.6301
  54   2.0000      -0.607657       -16.5352
  55   2.0000      -0.603468       -16.4212
  56   2.0000      -0.595240       -16.1973
  57   2.0000      -0.585242       -15.9253
  58   2.0000      -0.577796       -15.7226
  59   2.0000      -0.568421       -15.4675
  60   2.0000      -0.563553       -15.3351
  61   2.0000      -0.559602       -15.2275
  62   2.0000      -0.547582       -14.9005
  63   2.0000      -0.525947       -14.3117
  64   2.0000      -0.516888       -14.0652
  65   2.0000      -0.515889       -14.0380
  66   2.0000      -0.502492       -13.6735
  67   2.0000      -0.499555       -13.5936
  68   2.0000      -0.490145       -13.3375
  69   2.0000      -0.470812       -12.8114
  70   2.0000      -0.457137       -12.4393
  71   2.0000      -0.451721       -12.2919
  72   2.0000      -0.358202        -9.7472
  73   2.0000      -0.351575        -9.5668
  74   2.0000      -0.330389        -8.9903
  75   2.0000      -0.324093        -8.8190
  76   2.0000      -0.319408        -8.6915
  77   0.0000       0.078071         2.1244
  78   0.0000       0.104330         2.8390
  79   0.0000       0.116202         3.1620
  80   0.0000       0.129346         3.5197
  81   0.0000       0.133685         3.6378

MULLIKEN ATOMIC CHARGES
-----------------------
   0 C :   -0.256590
   1 C :    0.018606
   2 O :   -0.326276
   3 C :    0.422749
   4 O :   -0.381795
   5 C :   -0.220087
   6 C :    0.158827
   7 C :   -0.329225
   8 N :   -0.135805
   9 C :    0.199592
  10 S :   -0.438487
  11 N :   -0.209867
  12 C :    0.071455
  13 C :    0.024477
  14 C :   -0.188193
  15 C :   -0.132917
  16 C :   -0.275788
  17 C :    0.324344
  18 O :   -0.358487
  19 C :   -0.290863
  20 H :    0.107538
  21 H :    0.099955
  22 H :    0.088615
  23 H :    0.085436
  24 H :    0.111017
  25 H :    0.137896
  26 H :    0.133435
  27 H :    0.120895
  28 H :    0.197252
  29 H :    0.197211
  30 H :    0.162833
  31 H :    0.168960
  32 H :    0.163812
  33 H :    0.132439
  34 H :    0.241496
  35 H :    0.175542
Sum of atomic charges:   -0.0000000

LOEWDIN ATOMIC CHARGES
----------------------
   0 C :    0.111377
   1 C :   -0.022665
   2 O :    0.299685
   3 C :   -0.417391
   4 O :    0.125845
   5 C :   -0.087108
   6 C :   -0.088586
   7 C :    0.125183
   8 N :    0.403051
   9 C :   -0.457616
  10 S :   -0.035654
  11 N :    0.397131
  12 C :   -0.045049
  13 C :   -0.044816
  14 C :    0.021791
  15 C :    0.044749
  16 C :   -0.000373
  17 C :   -0.194782
  18 O :    0.394466
  19 C :    0.026137
  20 H :   -0.021431
  21 H :   -0.026619
  22 H :   -0.025821
  23 H :   -0.037770
  24 H :   -0.030304
  25 H :   -0.007635
  26 H :   -0.011491
  27 H :   -0.018554
  28 H :   -0.056909
  29 H :   -0.063526
  30 H :   -0.002695
  31 H :   -0.021899
  32 H :   -0.018652
  33 H :   -0.034684
  34 H :   -0.152999
  35 H :   -0.024385

  Mayer bond orders larger than 0.100000
B(  0-C ,  1-C ) :   0.9875 B(  0-C , 20-H ) :   0.9779 B(  0-C , 21-H ) :   0.9797
B(  0-C , 22-H ) :   0.9765 B(  1-C ,  2-O ) :   0.8979 B(  1-C , 23-H ) :   0.9732
B(  1-C , 24-H ) :   0.9633 B(  2-O ,  3-C ) :   1.1737 B(  3-C ,  4-O ) :   2.0872
B(  3-C ,  5-C ) :   0.9444 B(  5-C ,  6-C ) :   1.6643 B(  5-C , 12-C ) :   0.9565
B(  6-C ,  7-C ) :   0.9453 B(  6-C ,  8-N ) :   1.1295 B(  7-C , 25-H ) :   0.9748
B(  7-C , 26-H ) :   0.9731 B(  7-C , 27-H ) :   0.9658 B(  8-N ,  9-C ) :   1.1899
B(  8-N , 28-H ) :   0.9517 B(  9-C , 10-S ) :   1.6132 B(  9-C , 11-N ) :   1.2923
B( 11-N , 12-C ) :   0.9958 B( 11-N , 29-H ) :   0.9502 B( 12-C , 13-C ) :   0.9416
B( 12-C , 30-H ) :   0.9978 B( 13-C , 14-C ) :   1.3879 B( 13-C , 19-C ) :   1.3466
B( 14-C , 15-C ) :   1.3965 B( 14-C , 31-H ) :   0.9595 B( 15-C , 16-C ) :   1.3639
B( 15-C , 32-H ) :   0.9700 B( 16-C , 17-C ) :   1.3301 B( 16-C , 33-H ) :   0.9842
B( 17-C , 18-O ) :   1.1101 B( 17-C , 19-C ) :   1.3645 B( 18-O , 34-H ) :   0.9793
B( 19-C , 35-H ) :   0.9593

MP2 TOTAL ENERGY:    -1274.335751317 Eh
FINAL SINGLE POINT ENERGY     -1274.335751317042

DIPOLE MOMENT
-------------
                                X             Y             Z
Electronic contribution:     10.78559       8.65039       7.24505
Nuclear contribution   :    -12.27235      -9.63447      -7.58670
                        -----------------------------------------
Total Dipole Moment    :     -1.48676      -0.98408      -0.34165
                        -----------------------------------------
Magnitude (a.u.)       :      1.81538
Magnitude (Debye)      :      4.61432

Rotational constants in cm-1:     0.011612     0.009194     0.006682
Rotational constants in MHz :   348.104265   275.634929   200.320941

                             ****ORCA TERMINATED NORMALLY****
TOTAL RUN TIME: 0 days 2 hours 10 minutes 23 seconds 828 msec
