                         Program Version 5.0.0 -  RELEASE  -
|  1> ! ri-mp2 cc-pvtz cc-pvtz/c TightSCF NoKeepInts
|  2>
|  3> %scf
|  4>   MaxCore 4096
|  5> end
|  6> *xyz  0  1
|  7>     C       15.2096403   15.3533191   17.3167005
|  8>     C       15.6284373   15.1440138   15.8464753
|  9>     O       16.9718410   15.5739064   15.5076369
| 10>     C       18.0046985   15.7148113   16.3956220
| 11>     O       18.7861315   14.7947695   16.5559621
| 12>     C       17.9100505   16.8495491   17.3770170
| 13>     C       17.3119963   18.0363596   17.0986655
| 14>     C       16.6402541   18.4537065   15.8061773
| 15>     N       17.3694494   19.0787989   18.0286675
| 16>     C       18.1681972   19.0867122   19.1417062
| 17>     S       18.2962963   20.4193785   20.1122715
| 18>     N       18.8566730   17.9299397   19.4077704
| 19>     C       18.6518545   16.6481839   18.7053051
| 20>     C       17.9328802   15.6472072   19.6067317
| 21>     C       18.3836305   14.3165988   19.6869592
| 22>     C       17.7228698   13.3826221   20.5020907
| 23>     C       16.5996715   13.7807573   21.2463506
| 24>     C       16.1456184   15.1040924   21.1696723
| 25>     O       15.0547859   15.4893878   21.8784235
| 26>     C       16.8052066   16.0317615   20.3573200
| 27>     H       15.8684362   14.7942245   17.9908120
| 28>     H       14.1936504   14.9700429   17.4708091
| 29>     H       15.2033868   16.4099139   17.6028145
| 30>     H       15.5558892   14.0691838   15.6336887
| 31>     H       14.9117849   15.6485934   15.1859514
| 32>     H       15.6157171   18.0689376   15.7507302
| 33>     H       17.1918710   18.0790447   14.9347363
| 34>     H       16.5913633   19.5443338   15.6979437
| 35>     H       16.8791907   19.9397898   17.8449563
| 36>     H       19.4228662   17.9535714   20.2463484
| 37>     H       19.6460200   16.2384994   18.4736734
| 38>     H       19.2433766   14.0007935   19.0999110
| 39>     H       18.0800392   12.3553019   20.5492671
| 40>     H       16.0850166   13.0616946   21.8750057
| 41>     H       14.7759343   14.7328930   22.4160755
| 42>     H       16.4322746   17.0493062   20.3137512
| 43> *
| 44>
| 45>                          ****END OF INPUT****

CARTESIAN COORDINATES (ANGSTROEM)
---------------------------------
  C     15.209640   15.353319   17.316700
  C     15.628437   15.144014   15.846475
  O     16.971841   15.573906   15.507637
  C     18.004698   15.714811   16.395622
  O     18.786131   14.794769   16.555962
  C     17.910051   16.849549   17.377017
  C     17.311996   18.036360   17.098665
  C     16.640254   18.453706   15.806177
  N     17.369449   19.078799   18.028668
  C     18.168197   19.086712   19.141706
  S     18.296296   20.419378   20.112271
  N     18.856673   17.929940   19.407770
  C     18.651854   16.648184   18.705305
  C     17.932880   15.647207   19.606732
  C     18.383630   14.316599   19.686959
  C     17.722870   13.382622   20.502091
  C     16.599671   13.780757   21.246351
  C     16.145618   15.104092   21.169672
  O     15.054786   15.489388   21.878424
  C     16.805207   16.031762   20.357320
  H     15.868436   14.794225   17.990812
  H     14.193650   14.970043   17.470809
  H     15.203387   16.409914   17.602815
  H     15.555889   14.069184   15.633689
  H     14.911785   15.648593   15.185951
  H     15.615717   18.068938   15.750730
  H     17.191871   18.079045   14.934736
  H     16.591363   19.544334   15.697944
  H     16.879191   19.939790   17.844956
  H     19.422866   17.953571   20.246348
  H     19.646020   16.238499   18.473673
  H     19.243377   14.000794   19.099911
  H     18.080039   12.355302   20.549267
  H     16.085017   13.061695   21.875006
  H     14.775934   14.732893   22.416076
  H     16.432275   17.049306   20.313751

 Total Charge           Charge          ....    0
 Multiplicity           Mult            ....    1
 Number of Electrons    NEL             ....  154
 Basis Dimension        Dim             ....  828

ORBITAL ENERGIES
----------------

  NO   OCC          E(Eh)            E(eV)
   0   2.0000     -91.891246     -2500.4879
   1   2.0000     -20.596169      -560.4503
   2   2.0000     -20.583079      -560.0941
   3   2.0000     -20.551491      -559.2345
   4   2.0000     -15.631586      -425.3571
   5   2.0000     -15.609714      -424.7619
   6   2.0000     -11.396246      -310.1076
   7   2.0000     -11.386324      -309.8376
   8   2.0000     -11.337704      -308.5146
   9   2.0000     -11.312420      -307.8266
  10   2.0000     -11.309539      -307.7482
  11   2.0000     -11.309448      -307.7457
  12   2.0000     -11.264580      -306.5248
  13   2.0000     -11.262971      -306.4810
  14   2.0000     -11.258419      -306.3572
  15   2.0000     -11.252761      -306.2032
  16   2.0000     -11.242402      -305.9213
  17   2.0000     -11.237719      -305.7939
  18   2.0000     -11.234473      -305.7056
  19   2.0000     -11.232904      -305.6629
  20   2.0000      -8.896300      -242.0806
  21   2.0000      -6.577874      -178.9930
  22   2.0000      -6.575867      -178.9384
  23   2.0000      -6.575277      -178.9224
  24   2.0000      -1.443609       -39.2826
  25   2.0000      -1.415992       -38.5311
  26   2.0000      -1.353209       -36.8227
  27   2.0000      -1.342695       -36.5366
  28   2.0000      -1.240183       -33.7471
  29   2.0000      -1.156742       -31.4766
  30   2.0000      -1.122584       -30.5471
  31   2.0000      -1.045046       -28.4372
  32   2.0000      -1.036816       -28.2132
  33   2.0000      -1.014709       -27.6116
  34   2.0000      -1.003117       -27.2962
  35   2.0000      -0.988934       -26.9103
  36   2.0000      -0.926115       -25.2009
  37   2.0000      -0.898131       -24.4394
  38   2.0000      -0.852201       -23.1896
  39   2.0000      -0.840378       -22.8679
  40   2.0000      -0.832743       -22.6601
  41   2.0000      -0.821796       -22.3622
  42   2.0000      -0.745919       -20.2975
  43   2.0000      -0.731690       -19.9103
  44   2.0000      -0.728396       -19.8207
  45   2.0000      -0.694081       -18.8869
  46   2.0000      -0.687728       -18.7140
  47   2.0000      -0.676342       -18.4042
  48   2.0000      -0.673859       -18.3366
  49   2.0000      -0.662517       -18.0280
  50   2.0000      -0.652464       -17.7545
  51   2.0000      -0.650336       -17.6965
  52   2.0000      -0.642088       -17.4721
  53   2.0000      -0.620329       -16.8800
  54   2.0000      -0.604572       -16.4512
  55   2.0000      -0.603766       -16.4293
  56   2.0000      -0.600489       -16.3401
  57   2.0000      -0.584320       -15.9001
  58   2.0000      -0.575687       -15.6652
  59   2.0000      -0.563841       -15.3429
  60   2.0000      -0.559900       -15.2356
  61   2.0000      -0.549956       -14.9651
  62   2.0000      -0.545622       -14.8471
  63   2.0000      -0.532421       -14.4879
  64   2.0000      -0.521464       -14.1898
  65   2.0000      -0.513273       -13.9669
  66   2.0000      -0.500132       -13.6093
  67   2.0000      -0.488841       -13.3020
  68   2.0000      -0.483303       -13.1513
  69   2.0000      -0.469264       -12.7693
  70   2.0000      -0.455833       -12.4039
  71   2.0000      -0.447820       -12.1858
  72   2.0000      -0.356966        -9.7135
  73   2.0000      -0.347385        -9.4528
  74   2.0000      -0.330381        -8.9901
  75   2.0000      -0.321081        -8.7371
  76   2.0000      -0.318329        -8.6622
  77   0.0000       0.070268         1.9121
  78   0.0000       0.107545         2.9264
  79   0.0000       0.117432         3.1955
  80   0.0000       0.132061         3.5936
  81   0.0000       0.133838         3.6419

MULLIKEN ATOMIC CHARGES
-----------------------
   0 C :   -0.348810
   1 C :    0.039746
   2 O :   -0.378793
   3 C :    0.468005
   4 O :   -0.387792
   5 C :   -0.210975
   6 C :    0.137715
   7 C :   -0.304608
   8 N :   -0.126680
   9 C :    0.189140
  10 S :   -0.434798
  11 N :   -0.203405
  12 C :    0.054756
  13 C :    0.027478
  14 C :   -0.182079
  15 C :   -0.136168
  16 C :   -0.278421
  17 C :    0.312338
  18 O :   -0.358975
  19 C :   -0.263167
  20 H :    0.130681
  21 H :    0.125422
  22 H :    0.105414
  23 H :    0.119222
  24 H :    0.104970
  25 H :    0.115399
  26 H :    0.141775
  27 H :    0.114974
  28 H :    0.197804
  29 H :    0.195328
  30 H :    0.160701
  31 H :    0.167318
  32 H :    0.162329
  33 H :    0.131284
  34 H :    0.240842
  35 H :    0.172031
Sum of atomic charges:    0.0000000

LOEWDIN ATOMIC CHARGES
----------------------
   0 C :    0.104647
   1 C :   -0.015519
   2 O :    0.277894
   3 C :   -0.419221
   4 O :    0.126451
   5 C :   -0.091642
   6 C :   -0.074057
   7 C :    0.128089
   8 N :    0.405344
   9 C :   -0.460188
  10 S :   -0.033439
  11 N :    0.397750
  12 C :   -0.044884
  13 C :   -0.042760
  14 C :    0.019828
  15 C :    0.041539
  16 C :   -0.002210
  17 C :   -0.194300
  18 O :    0.394495
  19 C :    0.029731
  20 H :   -0.020857
  21 H :   -0.020434
  22 H :   -0.034907
  23 H :   -0.023338
  24 H :   -0.028450
  25 H :   -0.014981
  26 H :   -0.005295
  27 H :   -0.017044
  28 H :   -0.058491
  29 H :   -0.063450
  30 H :   -0.002707
  31 H :   -0.023075
  32 H :   -0.019604
  33 H :   -0.035394
  34 H :   -0.154005
  35 H :   -0.025515

  Mayer bond orders larger than 0.100000
B(  0-C ,  1-C ) :   0.9630 B(  0-C , 20-H ) :   0.9649 B(  0-C , 21-H ) :   0.9758
B(  0-C , 22-H ) :   0.9703 B(  1-C ,  2-O ) :   0.8908 B(  1-C , 23-H ) :   0.9839
B(  1-C , 24-H ) :   0.9805 B(  2-O ,  3-C ) :   1.1101 B(  3-C ,  4-O ) :   2.0540
B(  3-C ,  5-C ) :   0.9905 B(  5-C ,  6-C ) :   1.6671 B(  5-C , 12-C ) :   0.9594
B(  6-C ,  7-C ) :   0.9530 B(  6-C ,  8-N ) :   1.1269 B(  7-C , 25-H ) :   0.9647
B(  7-C , 26-H ) :   0.9655 B(  7-C , 27-H ) :   0.9884 B(  8-N ,  9-C ) :   1.1796
B(  8-N , 28-H ) :   0.9491 B(  9-C , 10-S ) :   1.6165 B(  9-C , 11-N ) :   1.2978
B( 11-N , 12-C ) :   0.9855 B( 11-N , 29-H ) :   0.9518 B( 12-C , 13-C ) :   0.9471
B( 12-C , 30-H ) :   0.9982 B( 13-C , 14-C ) :   1.3895 B( 13-C , 19-C ) :   1.3512
B( 14-C , 15-C ) :   1.3959 B( 14-C , 31-H ) :   0.9594 B( 15-C , 16-C ) :   1.3621
B( 15-C , 32-H ) :   0.9708 B( 16-C , 17-C ) :   1.3296 B( 16-C , 33-H ) :   0.9849
B( 17-C , 18-O ) :   1.1111 B( 17-C , 19-C ) :   1.3760 B( 18-O , 34-H ) :   0.9800
B( 19-C , 35-H ) :   0.9581

MP2 TOTAL ENERGY:    -1274.325199865 Eh
FINAL SINGLE POINT ENERGY     -1274.325199864601

DIPOLE MOMENT
-------------
                                X             Y             Z
Electronic contribution:      9.62796       7.10289       6.30287
Nuclear contribution   :    -11.12650      -8.17541      -6.88976
                        -----------------------------------------
Total Dipole Moment    :     -1.49853      -1.07252      -0.58689
                        -----------------------------------------
Magnitude (a.u.)       :      1.93400
Magnitude (Debye)      :      4.91583

Rotational constants in cm-1:     0.011296     0.009954     0.006814
Rotational constants in MHz :   338.643299   298.425789   204.292436

                             ****ORCA TERMINATED NORMALLY****
TOTAL RUN TIME: 0 days 2 hours 9 minutes 12 seconds 347 msec
