                         Program Version 5.0.0 -  RELEASE  -
|  1> ! ri-mp2 cc-pvtz cc-pvtz/c TightSCF NoKeepInts
|  2>
|  3> %scf
|  4>   MaxCore 4096
|  5> end
|  6> *xyz  0  1
|  7>     C       14.2629959   15.1223174   16.2704346
|  8>     C       15.7066168   14.8647275   16.7330113
|  9>     O       16.5727094   15.7096601   15.9581815
| 10>     C       17.8410141   15.8685577   16.4278754
| 11>     O       18.5820258   14.9042992   16.5096202
| 12>     C       17.9326996   16.9978729   17.4082523
| 13>     C       17.2985040   18.1841801   17.2390246
| 14>     C       16.4421159   18.6043156   16.0631448
| 15>     N       17.4729446   19.2056234   18.1773791
| 16>     C       18.3668254   19.1666949   19.2156948
| 17>     S       18.5980997   20.4643816   20.2143655
| 18>     N       19.0593723   17.9934603   19.3856117
| 19>     C       18.8026051   16.7446092   18.6423559
| 20>     C       18.1538152   15.7011844   19.5483435
| 21>     C       18.6931401   14.4051262   19.6422002
| 22>     C       18.0879352   13.4341274   20.4573851
| 23>     C       16.9313301   13.7601775   21.1856753
| 24>     C       16.3882443   15.0485186   21.0923275
| 25>     O       15.2646930   15.3636132   21.7843885
| 26>     C       16.9922437   16.0125543   20.2792022
| 27>     H       13.5646758   14.4781145   16.8185096
| 28>     H       14.1572695   14.9096182   15.1992490
| 29>     H       13.9771175   16.1658317   16.4482840
| 30>     H       15.7907581   15.0984103   17.8029961
| 31>     H       15.9759229   13.8098869   16.5867401
| 32>     H       15.4233913   18.2117670   16.1654521
| 33>     H       16.8531234   18.2248354   15.1191795
| 34>     H       16.3744026   19.6947408   15.9652553
| 35>     H       16.9755287   20.0751651   18.0680073
| 36>     H       19.6920371   17.9829427   20.1754550
| 37>     H       19.7710652   16.3526516   18.2988989
| 38>     H       19.5763438   14.1442547   19.0635893
| 39>     H       18.5128911   12.4335460   20.5162680
| 40>     H       16.4596128   13.0122717   21.8144605
| 41>     H       15.0378995   14.5983399   22.3341815
| 42>     H       16.5550306   17.0036220   20.2230000
| 43> *
| 44>
| 45>                          ****END OF INPUT****

CARTESIAN COORDINATES (ANGSTROEM)
---------------------------------
  C     14.262996   15.122317   16.270435
  C     15.706617   14.864727   16.733011
  O     16.572709   15.709660   15.958182
  C     17.841014   15.868558   16.427875
  O     18.582026   14.904299   16.509620
  C     17.932700   16.997873   17.408252
  C     17.298504   18.184180   17.239025
  C     16.442116   18.604316   16.063145
  N     17.472945   19.205623   18.177379
  C     18.366825   19.166695   19.215695
  S     18.598100   20.464382   20.214365
  N     19.059372   17.993460   19.385612
  C     18.802605   16.744609   18.642356
  C     18.153815   15.701184   19.548344
  C     18.693140   14.405126   19.642200
  C     18.087935   13.434127   20.457385
  C     16.931330   13.760177   21.185675
  C     16.388244   15.048519   21.092327
  O     15.264693   15.363613   21.784388
  C     16.992244   16.012554   20.279202
  H     13.564676   14.478114   16.818510
  H     14.157269   14.909618   15.199249
  H     13.977118   16.165832   16.448284
  H     15.790758   15.098410   17.802996
  H     15.975923   13.809887   16.586740
  H     15.423391   18.211767   16.165452
  H     16.853123   18.224835   15.119179
  H     16.374403   19.694741   15.965255
  H     16.975529   20.075165   18.068007
  H     19.692037   17.982943   20.175455
  H     19.771065   16.352652   18.298899
  H     19.576344   14.144255   19.063589
  H     18.512891   12.433546   20.516268
  H     16.459613   13.012272   21.814460
  H     15.037899   14.598340   22.334181
  H     16.555031   17.003622   20.223000

 Total Charge           Charge          ....    0
 Multiplicity           Mult            ....    1
 Number of Electrons    NEL             ....  154
 Basis Dimension        Dim             ....  828

ORBITAL ENERGIES
----------------

  NO   OCC          E(Eh)            E(eV)
   0   2.0000     -91.889856     -2500.4501
   1   2.0000     -20.597163      -560.4773
   2   2.0000     -20.581498      -560.0510
   3   2.0000     -20.557144      -559.3883
   4   2.0000     -15.629451      -425.2990
   5   2.0000     -15.609282      -424.7502
   6   2.0000     -11.393510      -310.0332
   7   2.0000     -11.385368      -309.8116
   8   2.0000     -11.334053      -308.4153
   9   2.0000     -11.313521      -307.8566
  10   2.0000     -11.309790      -307.7550
  11   2.0000     -11.297824      -307.4294
  12   2.0000     -11.261561      -306.4427
  13   2.0000     -11.260296      -306.4082
  14   2.0000     -11.258973      -306.3722
  15   2.0000     -11.253509      -306.2236
  16   2.0000     -11.243161      -305.9420
  17   2.0000     -11.238963      -305.8277
  18   2.0000     -11.235984      -305.7467
  19   2.0000     -11.233111      -305.6685
  20   2.0000      -8.894923      -242.0432
  21   2.0000      -6.576499      -178.9556
  22   2.0000      -6.574491      -178.9010
  23   2.0000      -6.573905      -178.8850
  24   2.0000      -1.453349       -39.5476
  25   2.0000      -1.416993       -38.5583
  26   2.0000      -1.356765       -36.9194
  27   2.0000      -1.340580       -36.4790
  28   2.0000      -1.238800       -33.7095
  29   2.0000      -1.157521       -31.4977
  30   2.0000      -1.122263       -30.5383
  31   2.0000      -1.045733       -28.4558
  32   2.0000      -1.035432       -28.1755
  33   2.0000      -1.015115       -27.6227
  34   2.0000      -1.000512       -27.2253
  35   2.0000      -0.986379       -26.8407
  36   2.0000      -0.924446       -25.1554
  37   2.0000      -0.880466       -23.9587
  38   2.0000      -0.849447       -23.1146
  39   2.0000      -0.840213       -22.8634
  40   2.0000      -0.833539       -22.6817
  41   2.0000      -0.828990       -22.5580
  42   2.0000      -0.757195       -20.6043
  43   2.0000      -0.735886       -20.0245
  44   2.0000      -0.729360       -19.8469
  45   2.0000      -0.695236       -18.9183
  46   2.0000      -0.686666       -18.6851
  47   2.0000      -0.681866       -18.5545
  48   2.0000      -0.675639       -18.3851
  49   2.0000      -0.656401       -17.8616
  50   2.0000      -0.652130       -17.7454
  51   2.0000      -0.642732       -17.4896
  52   2.0000      -0.633314       -17.2333
  53   2.0000      -0.619422       -16.8553
  54   2.0000      -0.605782       -16.4842
  55   2.0000      -0.604093       -16.4382
  56   2.0000      -0.600784       -16.3482
  57   2.0000      -0.579063       -15.7571
  58   2.0000      -0.575884       -15.6706
  59   2.0000      -0.565487       -15.3877
  60   2.0000      -0.558278       -15.1915
  61   2.0000      -0.548282       -14.9195
  62   2.0000      -0.543079       -14.7779
  63   2.0000      -0.522978       -14.2310
  64   2.0000      -0.519246       -14.1294
  65   2.0000      -0.513296       -13.9675
  66   2.0000      -0.503873       -13.7111
  67   2.0000      -0.498636       -13.5686
  68   2.0000      -0.481829       -13.1112
  69   2.0000      -0.466108       -12.6834
  70   2.0000      -0.457010       -12.4359
  71   2.0000      -0.453185       -12.3318
  72   2.0000      -0.355806        -9.6820
  73   2.0000      -0.348983        -9.4963
  74   2.0000      -0.329134        -8.9562
  75   2.0000      -0.320758        -8.7283
  76   2.0000      -0.316954        -8.6248
  77   0.0000       0.069332         1.8866
  78   0.0000       0.103142         2.8066
  79   0.0000       0.118683         3.2295
  80   0.0000       0.131212         3.5705
  81   0.0000       0.134319         3.6550

MULLIKEN ATOMIC CHARGES
-----------------------
   0 C :   -0.274426
   1 C :    0.040924
   2 O :   -0.371813
   3 C :    0.465670
   4 O :   -0.391417
   5 C :   -0.212742
   6 C :    0.133993
   7 C :   -0.283088
   8 N :   -0.123927
   9 C :    0.198486
  10 S :   -0.437917
  11 N :   -0.201630
  12 C :    0.058091
  13 C :    0.038025
  14 C :   -0.162309
  15 C :   -0.134944
  16 C :   -0.277572
  17 C :    0.320062
  18 O :   -0.360058
  19 C :   -0.291466
  20 H :    0.099929
  21 H :    0.103604
  22 H :    0.088202
  23 H :    0.093828
  24 H :    0.111272
  25 H :    0.122426
  26 H :    0.125329
  27 H :    0.108552
  28 H :    0.197550
  29 H :    0.194305
  30 H :    0.157210
  31 H :    0.160121
  32 H :    0.161814
  33 H :    0.131569
  34 H :    0.241030
  35 H :    0.171316
Sum of atomic charges:    0.0000000

LOEWDIN ATOMIC CHARGES
----------------------
   0 C :    0.109766
   1 C :   -0.017257
   2 O :    0.286683
   3 C :   -0.419277
   4 O :    0.134608
   5 C :   -0.095000
   6 C :   -0.075809
   7 C :    0.127028
   8 N :    0.404230
   9 C :   -0.457908
  10 S :   -0.035206
  11 N :    0.396981
  12 C :   -0.045170
  13 C :   -0.041922
  14 C :    0.021937
  15 C :    0.042908
  16 C :   -0.001804
  17 C :   -0.195259
  18 O :    0.393879
  19 C :    0.026790
  20 H :   -0.022955
  21 H :   -0.024923
  22 H :   -0.031742
  23 H :   -0.031611
  24 H :   -0.027067
  25 H :   -0.012097
  26 H :   -0.007156
  27 H :   -0.018685
  28 H :   -0.058476
  29 H :   -0.064048
  30 H :   -0.004006
  31 H :   -0.023826
  32 H :   -0.019801
  33 H :   -0.035327
  34 H :   -0.153686
  35 H :   -0.024794

  Mayer bond orders larger than 0.100000
B(  0-C ,  1-C ) :   0.9770 B(  0-C , 20-H ) :   0.9768 B(  0-C , 21-H ) :   0.9778
B(  0-C , 22-H ) :   0.9785 B(  1-C ,  2-O ) :   0.8937 B(  1-C , 23-H ) :   0.9621
B(  1-C , 24-H ) :   0.9822 B(  2-O ,  3-C ) :   1.0922 B(  3-C ,  4-O ) :   2.0398
B(  3-C ,  5-C ) :   1.0139 B(  5-C ,  6-C ) :   1.6684 B(  5-C , 12-C ) :   0.9590
B(  6-C ,  7-C ) :   0.9531 B(  6-C ,  8-N ) :   1.1359 B(  7-C , 25-H ) :   0.9635
B(  7-C , 26-H ) :   0.9705 B(  7-C , 27-H ) :   0.9873 B(  8-N ,  9-C ) :   1.1839
B(  8-N , 28-H ) :   0.9500 B(  9-C , 10-S ) :   1.6136 B(  9-C , 11-N ) :   1.2981
B( 11-N , 12-C ) :   0.9931 B( 11-N , 29-H ) :   0.9518 B( 12-C , 13-C ) :   0.9457
B( 12-C , 30-H ) :   0.9984 B( 13-C , 14-C ) :   1.3819 B( 13-C , 19-C ) :   1.3556
B( 14-C , 15-C ) :   1.3951 B( 14-C , 31-H ) :   0.9618 B( 15-C , 16-C ) :   1.3643
B( 15-C , 32-H ) :   0.9706 B( 16-C , 17-C ) :   1.3304 B( 16-C , 33-H ) :   0.9845
B( 17-C , 18-O ) :   1.1101 B( 17-C , 19-C ) :   1.3689 B( 18-O , 34-H ) :   0.9797
B( 19-C , 35-H ) :   0.9598

MP2 TOTAL ENERGY:    -1274.322582127 Eh
FINAL SINGLE POINT ENERGY     -1274.322582126778

DIPOLE MOMENT
-------------
                                X             Y             Z
Electronic contribution:     11.63241       8.10493       7.30715
Nuclear contribution   :    -12.90509      -9.34752      -7.80176
                        -----------------------------------------
Total Dipole Moment    :     -1.27268      -1.24259      -0.49461
                        -----------------------------------------
Magnitude (a.u.)       :      1.84618
Magnitude (Debye)      :      4.69262

Rotational constants in cm-1:     0.011361     0.009322     0.006757
Rotational constants in MHz :   340.582941   279.467418   202.584498

                             ****ORCA TERMINATED NORMALLY****
TOTAL RUN TIME: 0 days 2 hours 4 minutes 13 seconds 667 msec
