                         Program Version 5.0.0 -  RELEASE  -
|  1> ! ri-mp2 cc-pvtz cc-pvtz/c TightSCF NoKeepInts
|  2>
|  3> %scf
|  4>   MaxCore 4096
|  5> end
|  6> *xyz  0  1
|  7>     C       15.2717755   14.6681557   17.2329182
|  8>     C       15.5965383   14.9736698   15.7530100
|  9>     O       16.6720269   15.9285471   15.6191469
| 10>     C       17.7745461   15.8587387   16.4198433
| 11>     O       18.3727942   14.8069116   16.5721064
| 12>     C       17.8951809   16.9945055   17.3950258
| 13>     C       17.3667757   18.2315431   17.2068273
| 14>     C       16.5849189   18.7365304   16.0116930
| 15>     N       17.5919091   19.2343295   18.1555666
| 16>     C       18.4504026   19.1283130   19.2180117
| 17>     S       18.7601786   20.4077558   20.2191780
| 18>     N       19.0396488   17.9040003   19.4077995
| 19>     C       18.6914997   16.6775306   18.6659469
| 20>     C       17.9250488   15.7100176   19.5639993
| 21>     C       18.3669239   14.3835858   19.7229846
| 22>     C       17.6562682   13.4838074   20.5348289
| 23>     C       16.4921761   13.9128084   21.1945991
| 24>     C       16.0475868   15.2324707   21.0379123
| 25>     O       14.9182939   15.6473118   21.6652185
| 26>     C       16.7574877   16.1260173   20.2300010
| 27>     H       16.0859132   14.1163147   17.7193407
| 28>     H       14.3696142   14.0487664   17.3023284
| 29>     H       15.0900873   15.5930906   17.7939043
| 30>     H       15.8811681   14.0362340   15.2566744
| 31>     H       14.7020801   15.3615495   15.2491166
| 32>     H       15.5723083   18.3147401   16.0049745
| 33>     H       17.0763881   18.4495643   15.0735391
| 34>     H       16.4897225   19.8291367   16.0007184
| 35>     H       17.1703899   20.1410890   18.0322090
| 36>     H       19.6458991   17.8434486   20.2157665
| 37>     H       19.6310830   16.1940982   18.3613421
| 38>     H       19.2554077   14.0433676   19.1963654
| 39>     H       18.0052586   12.4584067   20.6430866
| 40>     H       15.9384774   13.2201030   21.8195586
| 41>     H       14.6051789   14.9125383   22.2139393
| 42>     H       16.3960430   17.1430020   20.1245191
| 43> *
| 44>
| 45>                          ****END OF INPUT****

CARTESIAN COORDINATES (ANGSTROEM)
---------------------------------
  C     15.271776   14.668156   17.232918
  C     15.596538   14.973670   15.753010
  O     16.672027   15.928547   15.619147
  C     17.774546   15.858739   16.419843
  O     18.372794   14.806912   16.572106
  C     17.895181   16.994505   17.395026
  C     17.366776   18.231543   17.206827
  C     16.584919   18.736530   16.011693
  N     17.591909   19.234330   18.155567
  C     18.450403   19.128313   19.218012
  S     18.760179   20.407756   20.219178
  N     19.039649   17.904000   19.407799
  C     18.691500   16.677531   18.665947
  C     17.925049   15.710018   19.563999
  C     18.366924   14.383586   19.722985
  C     17.656268   13.483807   20.534829
  C     16.492176   13.912808   21.194599
  C     16.047587   15.232471   21.037912
  O     14.918294   15.647312   21.665218
  C     16.757488   16.126017   20.230001
  H     16.085913   14.116315   17.719341
  H     14.369614   14.048766   17.302328
  H     15.090087   15.593091   17.793904
  H     15.881168   14.036234   15.256674
  H     14.702080   15.361549   15.249117
  H     15.572308   18.314740   16.004974
  H     17.076388   18.449564   15.073539
  H     16.489722   19.829137   16.000718
  H     17.170390   20.141089   18.032209
  H     19.645899   17.843449   20.215767
  H     19.631083   16.194098   18.361342
  H     19.255408   14.043368   19.196365
  H     18.005259   12.458407   20.643087
  H     15.938477   13.220103   21.819559
  H     14.605179   14.912538   22.213939
  H     16.396043   17.143002   20.124519

 Total Charge           Charge          ....    0
 Multiplicity           Mult            ....    1
 Number of Electrons    NEL             ....  154
 Basis Dimension        Dim             ....  828

ORBITAL ENERGIES
----------------

  NO   OCC          E(Eh)            E(eV)
   0   2.0000     -91.889530     -2500.4412
   1   2.0000     -20.595118      -560.4216
   2   2.0000     -20.586137      -560.1773
   3   2.0000     -20.550579      -559.2097
   4   2.0000     -15.629944      -425.3124
   5   2.0000     -15.608291      -424.7232
   6   2.0000     -11.395200      -310.0792
   7   2.0000     -11.384564      -309.7897
   8   2.0000     -11.336904      -308.4928
   9   2.0000     -11.310973      -307.7872
  10   2.0000     -11.307717      -307.6986
  11   2.0000     -11.302550      -307.5580
  12   2.0000     -11.261071      -306.4293
  13   2.0000     -11.260245      -306.4068
  14   2.0000     -11.256394      -306.3021
  15   2.0000     -11.251248      -306.1620
  16   2.0000     -11.240954      -305.8819
  17   2.0000     -11.236415      -305.7584
  18   2.0000     -11.233650      -305.6832
  19   2.0000     -11.224650      -305.4383
  20   2.0000      -8.894587      -242.0340
  21   2.0000      -6.576162      -178.9465
  22   2.0000      -6.574156      -178.8919
  23   2.0000      -6.573568      -178.8759
  24   2.0000      -1.448882       -39.4261
  25   2.0000      -1.414893       -38.5012
  26   2.0000      -1.354219       -36.8502
  27   2.0000      -1.340826       -36.4857
  28   2.0000      -1.238522       -33.7019
  29   2.0000      -1.155333       -31.4382
  30   2.0000      -1.120953       -30.5027
  31   2.0000      -1.043488       -28.3948
  32   2.0000      -1.030760       -28.0484
  33   2.0000      -1.012880       -27.5619
  34   2.0000      -0.999909       -27.2089
  35   2.0000      -0.985632       -26.8204
  36   2.0000      -0.923792       -25.1377
  37   2.0000      -0.895194       -24.3595
  38   2.0000      -0.849145       -23.1064
  39   2.0000      -0.838145       -22.8071
  40   2.0000      -0.831361       -22.6225
  41   2.0000      -0.816657       -22.2224
  42   2.0000      -0.746428       -20.3113
  43   2.0000      -0.732977       -19.9453
  44   2.0000      -0.727435       -19.7945
  45   2.0000      -0.693283       -18.8652
  46   2.0000      -0.686702       -18.6861
  47   2.0000      -0.676764       -18.4157
  48   2.0000      -0.671960       -18.2850
  49   2.0000      -0.659350       -17.9418
  50   2.0000      -0.653771       -17.7900
  51   2.0000      -0.645929       -17.5766
  52   2.0000      -0.635076       -17.2813
  53   2.0000      -0.619169       -16.8485
  54   2.0000      -0.603234       -16.4148
  55   2.0000      -0.602314       -16.3898
  56   2.0000      -0.598952       -16.2983
  57   2.0000      -0.579560       -15.7706
  58   2.0000      -0.575627       -15.6636
  59   2.0000      -0.563432       -15.3318
  60   2.0000      -0.551836       -15.0162
  61   2.0000      -0.546466       -14.8701
  62   2.0000      -0.534325       -14.5397
  63   2.0000      -0.532668       -14.4946
  64   2.0000      -0.520341       -14.1592
  65   2.0000      -0.511213       -13.9108
  66   2.0000      -0.499401       -13.5894
  67   2.0000      -0.493370       -13.4253
  68   2.0000      -0.480789       -13.0829
  69   2.0000      -0.464410       -12.6372
  70   2.0000      -0.456114       -12.4115
  71   2.0000      -0.449227       -12.2241
  72   2.0000      -0.355250        -9.6668
  73   2.0000      -0.346847        -9.4382
  74   2.0000      -0.328662        -8.9433
  75   2.0000      -0.318665        -8.6713
  76   2.0000      -0.316372        -8.6089
  77   0.0000       0.070602         1.9212
  78   0.0000       0.107309         2.9200
  79   0.0000       0.118694         3.2298
  80   0.0000       0.132622         3.6088
  81   0.0000       0.139695         3.8013

MULLIKEN ATOMIC CHARGES
-----------------------
   0 C :   -0.342768
   1 C :    0.049716
   2 O :   -0.384655
   3 C :    0.471677
   4 O :   -0.412456
   5 C :   -0.200775
   6 C :    0.148487
   7 C :   -0.282910
   8 N :   -0.123137
   9 C :    0.198977
  10 S :   -0.437426
  11 N :   -0.198879
  12 C :    0.045335
  13 C :    0.054562
  14 C :   -0.168766
  15 C :   -0.133636
  16 C :   -0.278628
  17 C :    0.321444
  18 O :   -0.360950
  19 C :   -0.292145
  20 H :    0.133146
  21 H :    0.112611
  22 H :    0.102950
  23 H :    0.108011
  24 H :    0.106923
  25 H :    0.120941
  26 H :    0.130345
  27 H :    0.104700
  28 H :    0.197347
  29 H :    0.193718
  30 H :    0.154433
  31 H :    0.157640
  32 H :    0.161387
  33 H :    0.130457
  34 H :    0.240784
  35 H :    0.171542
Sum of atomic charges:   -0.0000000

LOEWDIN ATOMIC CHARGES
----------------------
   0 C :    0.105230
   1 C :   -0.015169
   2 O :    0.287020
   3 C :   -0.418267
   4 O :    0.118679
   5 C :   -0.093867
   6 C :   -0.068211
   7 C :    0.125893
   8 N :    0.405118
   9 C :   -0.458899
  10 S :   -0.034722
  11 N :    0.397728
  12 C :   -0.045767
  13 C :   -0.040387
  14 C :    0.021158
  15 C :    0.040714
  16 C :   -0.002184
  17 C :   -0.193073
  18 O :    0.393856
  19 C :    0.030716
  20 H :   -0.021739
  21 H :   -0.024701
  22 H :   -0.030846
  23 H :   -0.027503
  24 H :   -0.025630
  25 H :   -0.010788
  26 H :   -0.006619
  27 H :   -0.020324
  28 H :   -0.058769
  29 H :   -0.063763
  30 H :   -0.004219
  31 H :   -0.024690
  32 H :   -0.020530
  33 H :   -0.035760
  34 H :   -0.154165
  35 H :   -0.025520

  Mayer bond orders larger than 0.100000
B(  0-C ,  1-C ) :   0.9584 B(  0-C , 20-H ) :   0.9656 B(  0-C , 21-H ) :   0.9760
B(  0-C , 22-H ) :   0.9717 B(  1-C ,  2-O ) :   0.8946 B(  1-C , 23-H ) :   0.9857
B(  1-C , 24-H ) :   0.9826 B(  2-O ,  3-C ) :   1.0898 B(  3-C ,  4-O ) :   2.0152
B(  3-C ,  5-C ) :   1.0404 B(  5-C ,  6-C ) :   1.6528 B(  5-C , 12-C ) :   0.9661
B(  6-C ,  7-C ) :   0.9551 B(  6-C ,  8-N ) :   1.1435 B(  7-C , 25-H ) :   0.9648
B(  7-C , 26-H ) :   0.9661 B(  7-C , 27-H ) :   0.9901 B(  8-N ,  9-C ) :   1.1798
B(  8-N , 28-H ) :   0.9489 B(  9-C , 10-S ) :   1.6133 B(  9-C , 11-N ) :   1.3023
B( 11-N , 12-C ) :   0.9902 B( 11-N , 29-H ) :   0.9521 B( 12-C , 13-C ) :   0.9453
B( 12-C , 30-H ) :   0.9993 B( 13-C , 14-C ) :   1.3798 B( 13-C , 19-C ) :   1.3534
B( 14-C , 15-C ) :   1.3930 B( 14-C , 31-H ) :   0.9635 B( 15-C , 16-C ) :   1.3620
B( 15-C , 32-H ) :   0.9710 B( 16-C , 17-C ) :   1.3324 B( 16-C , 33-H ) :   0.9849
B( 17-C , 18-O ) :   1.1086 B( 17-C , 19-C ) :   1.3686 B( 18-O , 34-H ) :   0.9803
B( 19-C , 35-H ) :   0.9586

MP2 TOTAL ENERGY:    -1274.333116270 Eh
FINAL SINGLE POINT ENERGY     -1274.333116270300

DIPOLE MOMENT
-------------
                                X             Y             Z
Electronic contribution:      9.74849       8.89637       6.37537
Nuclear contribution   :    -11.16777     -10.09655      -7.11811
                        -----------------------------------------
Total Dipole Moment    :     -1.41927      -1.20018      -0.74274
                        -----------------------------------------
Magnitude (a.u.)       :      2.00161
Magnitude (Debye)      :      5.08768

Rotational constants in cm-1:     0.011737     0.009581     0.006684
Rotational constants in MHz :   351.874446   287.242586   200.370631

                             ****ORCA TERMINATED NORMALLY****
TOTAL RUN TIME: 0 days 2 hours 5 minutes 19 seconds 904 msec
