                         Program Version 5.0.0 -  RELEASE  -
|  1> ! ri-mp2 cc-pvtz cc-pvtz/c TightSCF NoKeepInts
|  2>
|  3> %scf
|  4>   MaxCore 4096
|  5> end
|  6> *xyz  0  1
|  7>     C       14.1723109   15.3044973   16.2498013
|  8>     C       15.4184810   15.5013005   17.1282179
|  9>     O       16.5675292   15.2085052   16.3061636
| 10>     C       17.8246467   15.7223115   16.5082283
| 11>     O       18.8007707   15.0445032   16.2457750
| 12>     C       17.9333843   16.8928520   17.4292744
| 13>     C       17.3579425   18.0879531   17.1617715
| 14>     C       16.5499493   18.4532569   15.9346226
| 15>     N       17.5393345   19.1587208   18.0394607
| 16>     C       18.3529916   19.1320793   19.1427472
| 17>     S       18.5519989   20.4611821   20.1058865
| 18>     N       18.9891674   17.9446801   19.4132925
| 19>     C       18.7972797   16.6830996   18.6699155
| 20>     C       18.1840034   15.6018089   19.5534189
| 21>     C       18.6948265   14.2914852   19.5244010
| 22>     C       18.1148246   13.2795254   20.3072762
| 23>     C       17.0106349   13.5781709   21.1234748
| 24>     C       16.4933693   14.8801447   21.1486843
| 25>     O       15.4168059   15.1687497   21.9219698
| 26>     C       17.0723186   15.8857863   20.3682232
| 27>     H       13.2591542   15.4878622   16.8290744
| 28>     H       14.1326202   14.2782004   15.8631722
| 29>     H       14.1846571   15.9942408   15.3969242
| 30>     H       15.4085256   16.5255814   17.5114938
| 31>     H       15.3925941   14.8178587   17.9877501
| 32>     H       16.6065473   17.6836508   15.1548425
| 33>     H       16.9192145   19.3838149   15.4849648
| 34>     H       15.4918501   18.5961409   16.1857572
| 35>     H       17.0929648   20.0428977   17.8515212
| 36>     H       19.5654701   17.9494380   20.2455517
| 37>     H       19.7860380   16.3357704   18.3350416
| 38>     H       19.5353718   14.0525333   18.8760829
| 39>     H       18.5170456   12.2683550   20.2718441
| 40>     H       16.5576085   12.7978498   21.7261919
| 41>     H       15.2013388   14.3711947   22.4292089
| 42>     H       16.6534295   16.8859980   20.4019737
| 43> *
| 44>
| 45>                          ****END OF INPUT****

CARTESIAN COORDINATES (ANGSTROEM)
---------------------------------
  C     14.172311   15.304497   16.249801
  C     15.418481   15.501300   17.128218
  O     16.567529   15.208505   16.306164
  C     17.824647   15.722311   16.508228
  O     18.800771   15.044503   16.245775
  C     17.933384   16.892852   17.429274
  C     17.357942   18.087953   17.161772
  C     16.549949   18.453257   15.934623
  N     17.539334   19.158721   18.039461
  C     18.352992   19.132079   19.142747
  S     18.551999   20.461182   20.105887
  N     18.989167   17.944680   19.413293
  C     18.797280   16.683100   18.669915
  C     18.184003   15.601809   19.553419
  C     18.694827   14.291485   19.524401
  C     18.114825   13.279525   20.307276
  C     17.010635   13.578171   21.123475
  C     16.493369   14.880145   21.148684
  O     15.416806   15.168750   21.921970
  C     17.072319   15.885786   20.368223
  H     13.259154   15.487862   16.829074
  H     14.132620   14.278200   15.863172
  H     14.184657   15.994241   15.396924
  H     15.408526   16.525581   17.511494
  H     15.392594   14.817859   17.987750
  H     16.606547   17.683651   15.154843
  H     16.919214   19.383815   15.484965
  H     15.491850   18.596141   16.185757
  H     17.092965   20.042898   17.851521
  H     19.565470   17.949438   20.245552
  H     19.786038   16.335770   18.335042
  H     19.535372   14.052533   18.876083
  H     18.517046   12.268355   20.271844
  H     16.557609   12.797850   21.726192
  H     15.201339   14.371195   22.429209
  H     16.653430   16.885998   20.401974

 Total Charge           Charge          ....    0
 Multiplicity           Mult            ....    1
 Number of Electrons    NEL             ....  154
 Basis Dimension        Dim             ....  828

ORBITAL ENERGIES
----------------

  NO   OCC          E(Eh)            E(eV)
   0   2.0000     -91.890449     -2500.4662
   1   2.0000     -20.600210      -560.5602
   2   2.0000     -20.599604      -560.5437
   3   2.0000     -20.550420      -559.2054
   4   2.0000     -15.627949      -425.2581
   5   2.0000     -15.611837      -424.8197
   6   2.0000     -11.397479      -310.1412
   7   2.0000     -11.387274      -309.8635
   8   2.0000     -11.330260      -308.3120
   9   2.0000     -11.316820      -307.9463
  10   2.0000     -11.314432      -307.8813
  11   2.0000     -11.303239      -307.5768
  12   2.0000     -11.269468      -306.6578
  13   2.0000     -11.264295      -306.5170
  14   2.0000     -11.263282      -306.4895
  15   2.0000     -11.256880      -306.3153
  16   2.0000     -11.246416      -306.0305
  17   2.0000     -11.242391      -305.9210
  18   2.0000     -11.239604      -305.8452
  19   2.0000     -11.234879      -305.7166
  20   2.0000      -8.895559      -242.0605
  21   2.0000      -6.577144      -178.9732
  22   2.0000      -6.575121      -178.9181
  23   2.0000      -6.574544      -178.9024
  24   2.0000      -1.447507       -39.3887
  25   2.0000      -1.420025       -38.6409
  26   2.0000      -1.359164       -36.9847
  27   2.0000      -1.340814       -36.4854
  28   2.0000      -1.240335       -33.7512
  29   2.0000      -1.161710       -31.6117
  30   2.0000      -1.126127       -30.6435
  31   2.0000      -1.049353       -28.5543
  32   2.0000      -1.041354       -28.3367
  33   2.0000      -1.018972       -27.7276
  34   2.0000      -1.005393       -27.3581
  35   2.0000      -0.989892       -26.9363
  36   2.0000      -0.928117       -25.2554
  37   2.0000      -0.882710       -24.0198
  38   2.0000      -0.855188       -23.2708
  39   2.0000      -0.842544       -22.9268
  40   2.0000      -0.837414       -22.7872
  41   2.0000      -0.836595       -22.7649
  42   2.0000      -0.757964       -20.6253
  43   2.0000      -0.740031       -20.1373
  44   2.0000      -0.732327       -19.9276
  45   2.0000      -0.697762       -18.9871
  46   2.0000      -0.688382       -18.7318
  47   2.0000      -0.681669       -18.5492
  48   2.0000      -0.676803       -18.4167
  49   2.0000      -0.665347       -18.1050
  50   2.0000      -0.652939       -17.7674
  51   2.0000      -0.646526       -17.5929
  52   2.0000      -0.640577       -17.4310
  53   2.0000      -0.612761       -16.6741
  54   2.0000      -0.608448       -16.5567
  55   2.0000      -0.604362       -16.4455
  56   2.0000      -0.602909       -16.4060
  57   2.0000      -0.587525       -15.9874
  58   2.0000      -0.578620       -15.7450
  59   2.0000      -0.568911       -15.4809
  60   2.0000      -0.562094       -15.2954
  61   2.0000      -0.559954       -15.2371
  62   2.0000      -0.543561       -14.7910
  63   2.0000      -0.531432       -14.4610
  64   2.0000      -0.524467       -14.2715
  65   2.0000      -0.516186       -14.0461
  66   2.0000      -0.502782       -13.6814
  67   2.0000      -0.501993       -13.6599
  68   2.0000      -0.489730       -13.3262
  69   2.0000      -0.470312       -12.7978
  70   2.0000      -0.455983       -12.4079
  71   2.0000      -0.449170       -12.2225
  72   2.0000      -0.357340        -9.7237
  73   2.0000      -0.352182        -9.5834
  74   2.0000      -0.330077        -8.9818
  75   2.0000      -0.324741        -8.8367
  76   2.0000      -0.318648        -8.6709
  77   0.0000       0.082736         2.2514
  78   0.0000       0.104430         2.8417
  79   0.0000       0.113369         3.0849
  80   0.0000       0.128144         3.4870
  81   0.0000       0.131442         3.5767

MULLIKEN ATOMIC CHARGES
-----------------------
   0 C :   -0.261018
   1 C :    0.013215
   2 O :   -0.319147
   3 C :    0.403272
   4 O :   -0.381832
   5 C :   -0.198689
   6 C :    0.137175
   7 C :   -0.322873
   8 N :   -0.134771
   9 C :    0.204519
  10 S :   -0.440135
  11 N :   -0.210950
  12 C :    0.064842
  13 C :    0.030654
  14 C :   -0.190064
  15 C :   -0.130244
  16 C :   -0.276559
  17 C :    0.316342
  18 O :   -0.359125
  19 C :   -0.282543
  20 H :    0.091280
  21 H :    0.109658
  22 H :    0.091057
  23 H :    0.092863
  24 H :    0.128431
  25 H :    0.129952
  26 H :    0.138238
  27 H :    0.120974
  28 H :    0.196583
  29 H :    0.197521
  30 H :    0.163262
  31 H :    0.166710
  32 H :    0.163640
  33 H :    0.132784
  34 H :    0.241949
  35 H :    0.173029
Sum of atomic charges:   -0.0000000

LOEWDIN ATOMIC CHARGES
----------------------
   0 C :    0.108532
   1 C :   -0.019090
   2 O :    0.304812
   3 C :   -0.416349
   4 O :    0.125351
   5 C :   -0.084580
   6 C :   -0.101956
   7 C :    0.126062
   8 N :    0.401470
   9 C :   -0.455787
  10 S :   -0.037014
  11 N :    0.397162
  12 C :   -0.044834
  13 C :   -0.044093
  14 C :    0.022798
  15 C :    0.045532
  16 C :   -0.000427
  17 C :   -0.194847
  18 O :    0.394263
  19 C :    0.028264
  20 H :   -0.024624
  21 H :   -0.023032
  22 H :   -0.030148
  23 H :   -0.040548
  24 H :   -0.025842
  25 H :   -0.007804
  26 H :   -0.010324
  27 H :   -0.016740
  28 H :   -0.057636
  29 H :   -0.063633
  30 H :   -0.002671
  31 H :   -0.021910
  32 H :   -0.018438
  33 H :   -0.034518
  34 H :   -0.152827
  35 H :   -0.024574

  Mayer bond orders larger than 0.100000
B(  0-C ,  1-C ) :   0.9772 B(  0-C , 20-H ) :   0.9762 B(  0-C , 21-H ) :   0.9793
B(  0-C , 22-H ) :   0.9783 B(  1-C ,  2-O ) :   0.9020 B(  1-C , 23-H ) :   0.9651
B(  1-C , 24-H ) :   0.9733 B(  2-O ,  3-C ) :   1.1847 B(  3-C ,  4-O ) :   2.0997
B(  3-C ,  5-C ) :   0.9278 B(  5-C ,  6-C ) :   1.6872 B(  5-C , 12-C ) :   0.9599
B(  6-C ,  7-C ) :   0.9441 B(  6-C ,  8-N ) :   1.1170 B(  7-C , 25-H ) :   0.9783
B(  7-C , 26-H ) :   0.9729 B(  7-C , 27-H ) :   0.9648 B(  8-N ,  9-C ) :   1.1924
B(  8-N , 28-H ) :   0.9517 B(  9-C , 10-S ) :   1.6122 B(  9-C , 11-N ) :   1.2890
B( 11-N , 12-C ) :   1.0007 B( 11-N , 29-H ) :   0.9494 B( 12-C , 13-C ) :   0.9447
B( 12-C , 30-H ) :   0.9973 B( 13-C , 14-C ) :   1.3859 B( 13-C , 19-C ) :   1.3487
B( 14-C , 15-C ) :   1.3951 B( 14-C , 31-H ) :   0.9613 B( 15-C , 16-C ) :   1.3648
B( 15-C , 32-H ) :   0.9701 B( 16-C , 17-C ) :   1.3275 B( 16-C , 33-H ) :   0.9842
B( 17-C , 18-O ) :   1.1094 B( 17-C , 19-C ) :   1.3698 B( 18-O , 34-H ) :   0.9789
B( 19-C , 35-H ) :   0.9589

MP2 TOTAL ENERGY:    -1274.333317707 Eh
FINAL SINGLE POINT ENERGY     -1274.333317706769

DIPOLE MOMENT
-------------
                                X             Y             Z
Electronic contribution:     11.97397       6.31687       7.54674
Nuclear contribution   :    -13.51602      -7.31070      -7.79064
                        -----------------------------------------
Total Dipole Moment    :     -1.54205      -0.99383      -0.24390
                        -----------------------------------------
Magnitude (a.u.)       :      1.85070
Magnitude (Debye)      :      4.70410

Rotational constants in cm-1:     0.011369     0.009202     0.006806
Rotational constants in MHz :   340.823260   275.877230   204.050240

                             ****ORCA TERMINATED NORMALLY****
TOTAL RUN TIME: 0 days 2 hours 0 minutes 0 seconds 553 msec
