                         Program Version 5.0.0 -  RELEASE  -
|  1> ! ri-mp2 cc-pvtz cc-pvtz/c TightSCF NoKeepInts
|  2>
|  3> %scf
|  4>   MaxCore 4096
|  5> end
|  6> *xyz  0  1
|  7>     C       15.0896783   14.1533623   14.7713379
|  8>     C       15.2138450   14.7313357   16.1912490
|  9>     O       16.2106873   15.7687448   16.1519457
| 10>     C       17.3803841   15.6027216   16.8356742
| 11>     O       17.8425762   14.4966667   17.0635414
| 12>     C       17.8090195   16.8182848   17.6056259
| 13>     C       17.4619422   18.0940488   17.2930468
| 14>     C       16.6170862   18.5701179   16.1290723
| 15>     N       17.9674792   19.1563410   18.0496758
| 16>     C       18.9282136   19.0401612   19.0193731
| 17>     S       19.5643329   20.3643405   19.7792805
| 18>     N       19.3356476   17.7667680   19.3266168
| 19>     C       18.7093736   16.5339599   18.8130795
| 20>     C       17.9317061   15.8286602   19.9213571
| 21>     C       18.1979631   14.4825277   20.2329848
| 22>     C       17.4825193   13.8269982   21.2490225
| 23>     C       16.4908596   14.5227549   21.9611593
| 24>     C       16.2196361   15.8623831   21.6514990
| 25>     O       15.2580557   16.5350867   22.3327981
| 26>     C       16.9329407   16.5119384   20.6391951
| 27>     H       14.8238513   14.9389803   14.0533373
| 28>     H       14.3145388   13.3782408   14.7376119
| 29>     H       16.0392426   13.7018230   14.4569682
| 30>     H       14.2502016   15.1609388   16.4935767
| 31>     H       15.4698194   13.9368579   16.9060738
| 32>     H       16.9315500   18.0878942   15.1950009
| 33>     H       16.6890220   19.6528654   15.9697794
| 34>     H       15.5597159   18.3283600   16.2939186
| 35>     H       17.6814813   20.0990146   17.8384826
| 36>     H       20.0225017   17.7062937   20.0672430
| 37>     H       19.5161873   15.8653850   18.4794444
| 38>     H       18.9524474   13.9370005   19.6713078
| 39>     H       17.6945471   12.7837316   21.4759522
| 40>     H       15.9348539   14.0198126   22.7452799
| 41>     H       14.9137551   15.9375651   23.0134186
| 42>     H       16.7093382   17.5500343   20.4190699
| 43> *
| 44>
| 45>                          ****END OF INPUT****

CARTESIAN COORDINATES (ANGSTROEM)
---------------------------------
  C     15.089678   14.153362   14.771338
  C     15.213845   14.731336   16.191249
  O     16.210687   15.768745   16.151946
  C     17.380384   15.602722   16.835674
  O     17.842576   14.496667   17.063541
  C     17.809020   16.818285   17.605626
  C     17.461942   18.094049   17.293047
  C     16.617086   18.570118   16.129072
  N     17.967479   19.156341   18.049676
  C     18.928214   19.040161   19.019373
  S     19.564333   20.364341   19.779280
  N     19.335648   17.766768   19.326617
  C     18.709374   16.533960   18.813080
  C     17.931706   15.828660   19.921357
  C     18.197963   14.482528   20.232985
  C     17.482519   13.826998   21.249022
  C     16.490860   14.522755   21.961159
  C     16.219636   15.862383   21.651499
  O     15.258056   16.535087   22.332798
  C     16.932941   16.511938   20.639195
  H     14.823851   14.938980   14.053337
  H     14.314539   13.378241   14.737612
  H     16.039243   13.701823   14.456968
  H     14.250202   15.160939   16.493577
  H     15.469819   13.936858   16.906074
  H     16.931550   18.087894   15.195001
  H     16.689022   19.652865   15.969779
  H     15.559716   18.328360   16.293919
  H     17.681481   20.099015   17.838483
  H     20.022502   17.706294   20.067243
  H     19.516187   15.865385   18.479444
  H     18.952447   13.937000   19.671308
  H     17.694547   12.783732   21.475952
  H     15.934854   14.019813   22.745280
  H     14.913755   15.937565   23.013419
  H     16.709338   17.550034   20.419070

 Total Charge           Charge          ....    0
 Multiplicity           Mult            ....    1
 Number of Electrons    NEL             ....  154
 Basis Dimension        Dim             ....  828

ORBITAL ENERGIES
----------------

  NO   OCC          E(Eh)            E(eV)
   0   2.0000     -91.888182     -2500.4045
   1   2.0000     -20.597396      -560.4837
   2   2.0000     -20.592540      -560.3515
   3   2.0000     -20.549029      -559.1675
   4   2.0000     -15.628331      -425.2685
   5   2.0000     -15.607027      -424.6888
   6   2.0000     -11.396358      -310.1107
   7   2.0000     -11.383219      -309.7531
   8   2.0000     -11.335351      -308.4506
   9   2.0000     -11.308460      -307.7188
  10   2.0000     -11.306354      -307.6615
  11   2.0000     -11.299425      -307.4730
  12   2.0000     -11.260361      -306.4100
  13   2.0000     -11.259238      -306.3795
  14   2.0000     -11.254368      -306.2469
  15   2.0000     -11.248659      -306.0916
  16   2.0000     -11.238260      -305.8086
  17   2.0000     -11.234323      -305.7015
  18   2.0000     -11.231421      -305.6225
  19   2.0000     -11.227664      -305.5203
  20   2.0000      -8.893247      -241.9976
  21   2.0000      -6.574825      -178.9101
  22   2.0000      -6.572817      -178.8554
  23   2.0000      -6.572232      -178.8395
  24   2.0000      -1.453663       -39.5562
  25   2.0000      -1.412278       -38.4300
  26   2.0000      -1.357497       -36.9394
  27   2.0000      -1.339315       -36.4446
  28   2.0000      -1.237096       -33.6631
  29   2.0000      -1.152966       -31.3738
  30   2.0000      -1.119951       -30.4754
  31   2.0000      -1.043241       -28.3880
  32   2.0000      -1.035380       -28.1741
  33   2.0000      -1.010351       -27.4931
  34   2.0000      -0.997717       -27.1493
  35   2.0000      -0.983110       -26.7518
  36   2.0000      -0.921590       -25.0777
  37   2.0000      -0.887733       -24.1564
  38   2.0000      -0.847681       -23.0666
  39   2.0000      -0.836104       -22.7516
  40   2.0000      -0.828809       -22.5530
  41   2.0000      -0.820646       -22.3309
  42   2.0000      -0.758100       -20.6290
  43   2.0000      -0.735535       -20.0149
  44   2.0000      -0.725705       -19.7474
  45   2.0000      -0.691221       -18.8091
  46   2.0000      -0.685451       -18.6521
  47   2.0000      -0.680353       -18.5133
  48   2.0000      -0.672295       -18.2941
  49   2.0000      -0.656962       -17.8769
  50   2.0000      -0.646690       -17.5973
  51   2.0000      -0.641357       -17.4522
  52   2.0000      -0.628070       -17.0907
  53   2.0000      -0.616767       -16.7831
  54   2.0000      -0.600945       -16.3525
  55   2.0000      -0.600697       -16.3458
  56   2.0000      -0.595817       -16.2130
  57   2.0000      -0.582733       -15.8570
  58   2.0000      -0.573937       -15.6176
  59   2.0000      -0.564418       -15.3586
  60   2.0000      -0.561445       -15.2777
  61   2.0000      -0.546640       -14.8748
  62   2.0000      -0.533682       -14.5222
  63   2.0000      -0.525346       -14.2954
  64   2.0000      -0.518007       -14.0957
  65   2.0000      -0.510240       -13.8843
  66   2.0000      -0.501222       -13.6390
  67   2.0000      -0.495969       -13.4960
  68   2.0000      -0.480894       -13.0858
  69   2.0000      -0.462665       -12.5898
  70   2.0000      -0.458526       -12.4771
  71   2.0000      -0.454033       -12.3549
  72   2.0000      -0.354030        -9.6336
  73   2.0000      -0.344789        -9.3822
  74   2.0000      -0.327347        -8.9076
  75   2.0000      -0.316024        -8.5995
  76   2.0000      -0.314566        -8.5598
  77   0.0000       0.074657         2.0315
  78   0.0000       0.111199         3.0259
  79   0.0000       0.120914         3.2902
  80   0.0000       0.135188         3.6787
  81   0.0000       0.139473         3.7952

MULLIKEN ATOMIC CHARGES
-----------------------
   0 C :   -0.268571
   1 C :    0.037168
   2 O :   -0.357121
   3 C :    0.442274
   4 O :   -0.419930
   5 C :   -0.174800
   6 C :    0.143960
   7 C :   -0.283727
   8 N :   -0.123605
   9 C :    0.201739
  10 S :   -0.439532
  11 N :   -0.198159
  12 C :    0.040758
  13 C :    0.054227
  14 C :   -0.163541
  15 C :   -0.134108
  16 C :   -0.279378
  17 C :    0.311290
  18 O :   -0.358910
  19 C :   -0.272249
  20 H :    0.090425
  21 H :    0.090553
  22 H :    0.104647
  23 H :    0.098250
  24 H :    0.110501
  25 H :    0.126033
  26 H :    0.102715
  27 H :    0.126537
  28 H :    0.196967
  29 H :    0.193849
  30 H :    0.153964
  31 H :    0.154380
  32 H :    0.159615
  33 H :    0.128463
  34 H :    0.240171
  35 H :    0.165143
Sum of atomic charges:    0.0000000

LOEWDIN ATOMIC CHARGES
----------------------
   0 C :    0.104448
   1 C :   -0.013107
   2 O :    0.302929
   3 C :   -0.414766
   4 O :    0.109364
   5 C :   -0.091801
   6 C :   -0.068198
   7 C :    0.125225
   8 N :    0.404606
   9 C :   -0.458541
  10 S :   -0.036192
  11 N :    0.397583
  12 C :   -0.046053
  13 C :   -0.039191
  14 C :    0.021511
  15 C :    0.040604
  16 C :   -0.002362
  17 C :   -0.192743
  18 O :    0.393070
  19 C :    0.028437
  20 H :   -0.029572
  21 H :   -0.027242
  22 H :   -0.023688
  23 H :   -0.029881
  24 H :   -0.025887
  25 H :   -0.008381
  26 H :   -0.020547
  27 H :   -0.009735
  28 H :   -0.059001
  29 H :   -0.063794
  30 H :   -0.004875
  31 H :   -0.025194
  32 H :   -0.021110
  33 H :   -0.036295
  34 H :   -0.154770
  35 H :   -0.024847

  Mayer bond orders larger than 0.100000
B(  0-C ,  1-C ) :   0.9727 B(  0-C , 20-H ) :   0.9788 B(  0-C , 21-H ) :   0.9760
B(  0-C , 22-H ) :   0.9774 B(  1-C ,  2-O ) :   0.8877 B(  1-C , 23-H ) :   0.9815
B(  1-C , 24-H ) :   0.9721 B(  2-O ,  3-C ) :   1.1234 B(  3-C ,  4-O ) :   1.9916
B(  3-C ,  5-C ) :   1.0486 B(  5-C ,  6-C ) :   1.6559 B(  5-C , 12-C ) :   0.9648
B(  6-C ,  7-C ) :   0.9534 B(  6-C ,  8-N ) :   1.1425 B(  7-C , 25-H ) :   0.9677
B(  7-C , 26-H ) :   0.9904 B(  7-C , 27-H ) :   0.9635 B(  8-N ,  9-C ) :   1.1808
B(  8-N , 28-H ) :   0.9491 B(  9-C , 10-S ) :   1.6106 B(  9-C , 11-N ) :   1.3028
B( 11-N , 12-C ) :   0.9913 B( 11-N , 29-H ) :   0.9518 B( 12-C , 13-C ) :   0.9469
B( 12-C , 30-H ) :   0.9992 B( 13-C , 14-C ) :   1.3760 B( 13-C , 19-C ) :   1.3696
B( 14-C , 15-C ) :   1.3944 B( 14-C , 31-H ) :   0.9646 B( 15-C , 16-C ) :   1.3628
B( 15-C , 32-H ) :   0.9713 B( 16-C , 17-C ) :   1.3313 B( 16-C , 33-H ) :   0.9859
B( 17-C , 18-O ) :   1.1083 B( 17-C , 19-C ) :   1.3783 B( 18-O , 34-H ) :   0.9805
B( 19-C , 35-H ) :   0.9584

MP2 TOTAL ENERGY:    -1274.339257457 Eh
FINAL SINGLE POINT ENERGY     -1274.339257456742

DIPOLE MOMENT
-------------
                                X             Y             Z
Electronic contribution:     10.96545       9.84490      11.00932
Nuclear contribution   :    -12.58115     -11.04265     -11.75510
                        -----------------------------------------
Total Dipole Moment    :     -1.61570      -1.19775      -0.74578
                        -----------------------------------------
Magnitude (a.u.)       :      2.14505
Magnitude (Debye)      :      5.45229

Rotational constants in cm-1:     0.010615     0.008929     0.005881
Rotational constants in MHz :   318.228364   267.692042   176.321654

                             ****ORCA TERMINATED NORMALLY****
TOTAL RUN TIME: 0 days 1 hours 23 minutes 56 seconds 973 msec
