                         Program Version 5.0.0 -  RELEASE  -
|  1> ! ri-mp2 cc-pvtz cc-pvtz/c TightSCF NoKeepInts
|  2>
|  3> %scf
|  4>   MaxCore 4096
|  5> end
|  6> *xyz  0  1
|  7>     C       15.4245983   13.7354035   17.0849130
|  8>     C       16.4522556   14.0980553   15.9973559
|  9>     O       17.3113412   15.1275394   16.5203633
| 10>     C       16.9655745   16.4419697   16.3662697
| 11>     O       16.1386616   16.8069778   15.5476374
| 12>     C       17.5968604   17.3351446   17.3987355
| 13>     C       17.4004566   18.6782899   17.4162289
| 14>     C       16.5555009   19.4945758   16.4615249
| 15>     N       18.0414933   19.4687152   18.3746937
| 16>     C       18.9662027   19.0129976   19.2756150
| 17>     S       19.7497457   20.0320064   20.3167018
| 18>     N       19.2157244   17.6646255   19.2673135
| 19>     C       18.4822737   16.6686661   18.4655414
| 20>     C       17.6891766   15.7540289   19.3947059
| 21>     C       18.1523736   14.4545834   19.6743717
| 22>     C       17.4320634   13.6079409   20.5338757
| 23>     C       16.2381909   14.0638651   21.1183717
| 24>     C       15.7768478   15.3590932   20.8461280
| 25>     O       14.6257374   15.8029011   21.4107705
| 26>     C       16.4977944   16.2008800   19.9937373
| 27>     H       15.9281309   13.3915209   17.9961843
| 28>     H       14.7619435   12.9344477   16.7360198
| 29>     H       14.8053985   14.6048856   17.3394503
| 30>     H       17.0527359   13.2078911   15.7707217
| 31>     H       15.9513159   14.4119961   15.0713424
| 32>     H       15.5046075   19.1823427   16.5147451
| 33>     H       16.8886565   19.3456890   15.4265435
| 34>     H       16.5921260   20.5705643   16.6682116
| 35>     H       17.8722835   20.4616874   18.3941435
| 36>     H       19.8736814   17.3538071   19.9702866
| 37>     H       19.2293968   16.0588148   17.9383390
| 38>     H       19.0727239   14.0980337   19.2198152
| 39>     H       17.7983052   12.6043730   20.7432188
| 40>     H       15.6775786   13.4135810   21.7817892
| 41>     H       14.2966129   15.1008853   21.9919009
| 42>     H       16.1286297   17.2032209   19.8064334
| 43> *
| 44>
| 45>                          ****END OF INPUT****

CARTESIAN COORDINATES (ANGSTROEM)
---------------------------------
  C     15.424598   13.735403   17.084913
  C     16.452256   14.098055   15.997356
  O     17.311341   15.127539   16.520363
  C     16.965574   16.441970   16.366270
  O     16.138662   16.806978   15.547637
  C     17.596860   17.335145   17.398735
  C     17.400457   18.678290   17.416229
  C     16.555501   19.494576   16.461525
  N     18.041493   19.468715   18.374694
  C     18.966203   19.012998   19.275615
  S     19.749746   20.032006   20.316702
  N     19.215724   17.664625   19.267314
  C     18.482274   16.668666   18.465541
  C     17.689177   15.754029   19.394706
  C     18.152374   14.454583   19.674372
  C     17.432063   13.607941   20.533876
  C     16.238191   14.063865   21.118372
  C     15.776848   15.359093   20.846128
  O     14.625737   15.802901   21.410771
  C     16.497794   16.200880   19.993737
  H     15.928131   13.391521   17.996184
  H     14.761943   12.934448   16.736020
  H     14.805398   14.604886   17.339450
  H     17.052736   13.207891   15.770722
  H     15.951316   14.411996   15.071342
  H     15.504608   19.182343   16.514745
  H     16.888656   19.345689   15.426543
  H     16.592126   20.570564   16.668212
  H     17.872284   20.461687   18.394143
  H     19.873681   17.353807   19.970287
  H     19.229397   16.058815   17.938339
  H     19.072724   14.098034   19.219815
  H     17.798305   12.604373   20.743219
  H     15.677579   13.413581   21.781789
  H     14.296613   15.100885   21.991901
  H     16.128630   17.203221   19.806433

 Total Charge           Charge          ....    0
 Multiplicity           Mult            ....    1
 Number of Electrons    NEL             ....  154
 Basis Dimension        Dim             ....  828

ORBITAL ENERGIES
----------------

  NO   OCC          E(Eh)            E(eV)
   0   2.0000     -91.888906     -2500.4242
   1   2.0000     -20.599341      -560.5366
   2   2.0000     -20.598030      -560.5009
   3   2.0000     -20.541494      -558.9625
   4   2.0000     -15.629227      -425.2929
   5   2.0000     -15.608421      -424.7267
   6   2.0000     -11.394870      -310.0702
   7   2.0000     -11.384076      -309.7765
   8   2.0000     -11.336412      -308.4795
   9   2.0000     -11.315289      -307.9047
  10   2.0000     -11.309388      -307.7441
  11   2.0000     -11.293856      -307.3214
  12   2.0000     -11.261010      -306.4277
  13   2.0000     -11.259180      -306.3779
  14   2.0000     -11.256594      -306.3075
  15   2.0000     -11.252260      -306.1896
  16   2.0000     -11.244165      -305.9693
  17   2.0000     -11.239138      -305.8325
  18   2.0000     -11.239025      -305.8294
  19   2.0000     -11.221136      -305.3426
  20   2.0000      -8.893966      -242.0171
  21   2.0000      -6.575541      -178.9296
  22   2.0000      -6.573536      -178.8750
  23   2.0000      -6.572950      -178.8591
  24   2.0000      -1.450284       -39.4642
  25   2.0000      -1.417668       -38.5767
  26   2.0000      -1.353920       -36.8420
  27   2.0000      -1.340276       -36.4708
  28   2.0000      -1.238871       -33.7114
  29   2.0000      -1.158689       -31.5295
  30   2.0000      -1.120735       -30.4967
  31   2.0000      -1.043401       -28.3924
  32   2.0000      -1.034740       -28.1567
  33   2.0000      -1.016377       -27.6570
  34   2.0000      -0.995785       -27.0967
  35   2.0000      -0.984345       -26.7854
  36   2.0000      -0.923092       -25.1186
  37   2.0000      -0.891918       -24.2703
  38   2.0000      -0.847339       -23.0573
  39   2.0000      -0.838646       -22.8207
  40   2.0000      -0.834804       -22.7162
  41   2.0000      -0.814484       -22.1632
  42   2.0000      -0.758124       -20.6296
  43   2.0000      -0.733235       -19.9523
  44   2.0000      -0.723123       -19.6772
  45   2.0000      -0.697015       -18.9667
  46   2.0000      -0.688727       -18.7412
  47   2.0000      -0.678787       -18.4707
  48   2.0000      -0.670226       -18.2378
  49   2.0000      -0.663349       -18.0506
  50   2.0000      -0.648382       -17.6434
  51   2.0000      -0.642214       -17.4755
  52   2.0000      -0.633247       -17.2315
  53   2.0000      -0.608722       -16.5642
  54   2.0000      -0.604012       -16.4360
  55   2.0000      -0.600302       -16.3350
  56   2.0000      -0.599380       -16.3100
  57   2.0000      -0.578676       -15.7466
  58   2.0000      -0.570867       -15.5341
  59   2.0000      -0.566948       -15.4274
  60   2.0000      -0.559422       -15.2227
  61   2.0000      -0.544741       -14.8232
  62   2.0000      -0.534513       -14.5448
  63   2.0000      -0.529798       -14.4165
  64   2.0000      -0.526341       -14.3225
  65   2.0000      -0.513204       -13.9650
  66   2.0000      -0.502159       -13.6644
  67   2.0000      -0.498599       -13.5676
  68   2.0000      -0.480407       -13.0725
  69   2.0000      -0.463925       -12.6240
  70   2.0000      -0.453139       -12.3305
  71   2.0000      -0.446904       -12.1609
  72   2.0000      -0.354500        -9.6464
  73   2.0000      -0.350824        -9.5464
  74   2.0000      -0.328504        -8.9390
  75   2.0000      -0.322763        -8.7828
  76   2.0000      -0.316558        -8.6140
  77   0.0000       0.076370         2.0781
  78   0.0000       0.104888         2.8542
  79   0.0000       0.124162         3.3786
  80   0.0000       0.132217         3.5978
  81   0.0000       0.137034         3.7289

MULLIKEN ATOMIC CHARGES
-----------------------
   0 C :   -0.301190
   1 C :    0.020188
   2 O :   -0.357729
   3 C :    0.461442
   4 O :   -0.432684
   5 C :   -0.240451
   6 C :    0.157526
   7 C :   -0.270936
   8 N :   -0.122386
   9 C :    0.215721
  10 S :   -0.441293
  11 N :   -0.209104
  12 C :    0.068867
  13 C :    0.072373
  14 C :   -0.193114
  15 C :   -0.139422
  16 C :   -0.275947
  17 C :    0.315720
  18 O :   -0.357258
  19 C :   -0.261768
  20 H :    0.103990
  21 H :    0.105047
  22 H :    0.105452
  23 H :    0.106471
  24 H :    0.121133
  25 H :    0.131597
  26 H :    0.131303
  27 H :    0.095212
  28 H :    0.197148
  29 H :    0.195588
  30 H :    0.148945
  31 H :    0.147984
  32 H :    0.162424
  33 H :    0.131225
  34 H :    0.241160
  35 H :    0.166767
Sum of atomic charges:    0.0000000

LOEWDIN ATOMIC CHARGES
----------------------
   0 C :    0.104461
   1 C :   -0.016214
   2 O :    0.306415
   3 C :   -0.415031
   4 O :    0.096278
   5 C :   -0.094938
   6 C :   -0.058927
   7 C :    0.131498
   8 N :    0.406915
   9 C :   -0.455169
  10 S :   -0.035922
  11 N :    0.396292
  12 C :   -0.051942
  13 C :   -0.036452
  14 C :    0.011790
  15 C :    0.040103
  16 C :   -0.002157
  17 C :   -0.188642
  18 O :    0.395985
  19 C :    0.032085
  20 H :   -0.026692
  21 H :   -0.027607
  22 H :   -0.026400
  23 H :   -0.027026
  24 H :   -0.028546
  25 H :   -0.004747
  26 H :   -0.003800
  27 H :   -0.023381
  28 H :   -0.057512
  29 H :   -0.064935
  30 H :   -0.010597
  31 H :   -0.030440
  32 H :   -0.021080
  33 H :   -0.035488
  34 H :   -0.153510
  35 H :   -0.024665

  Mayer bond orders larger than 0.100000
B(  0-C ,  1-C ) :   0.9634 B(  0-C , 20-H ) :   0.9717 B(  0-C , 21-H ) :   0.9779
B(  0-C , 22-H ) :   0.9761 B(  1-C ,  2-O ) :   0.8887 B(  1-C , 23-H ) :   0.9851
B(  1-C , 24-H ) :   0.9774 B(  2-O ,  3-C ) :   1.1651 B(  3-C ,  4-O ) :   1.9748
B(  3-C ,  5-C ) :   1.0558 B(  5-C ,  6-C ) :   1.6526 B(  5-C , 12-C ) :   0.9737
B(  6-C ,  7-C ) :   0.9667 B(  6-C ,  8-N ) :   1.1656 B(  7-C , 25-H ) :   0.9601
B(  7-C , 26-H ) :   0.9603 B(  7-C , 27-H ) :   0.9904 B(  8-N ,  9-C ) :   1.1837
B(  8-N , 28-H ) :   0.9478 B(  9-C , 10-S ) :   1.6031 B(  9-C , 11-N ) :   1.3084
B( 11-N , 12-C ) :   0.9759 B( 11-N , 29-H ) :   0.9515 B( 12-C , 13-C ) :   0.9391
B( 12-C , 30-H ) :   1.0019 B( 13-C , 14-C ) :   1.3516 B( 13-C , 19-C ) :   1.3779
B( 14-C , 15-C ) :   1.3906 B( 14-C , 31-H ) :   0.9736 B( 15-C , 16-C ) :   1.3590
B( 15-C , 32-H ) :   0.9715 B( 16-C , 17-C ) :   1.3316 B( 16-C , 33-H ) :   0.9850
B( 17-C , 18-O ) :   1.1106 B( 17-C , 19-C ) :   1.3697 B( 18-O , 34-H ) :   0.9795
B( 19-C , 35-H ) :   0.9581

MP2 TOTAL ENERGY:    -1274.351051079 Eh
FINAL SINGLE POINT ENERGY     -1274.351051079405

DIPOLE MOMENT
-------------
                                X             Y             Z
Electronic contribution:      8.80565      10.86060       6.27598
Nuclear contribution   :     -9.63352     -12.60536      -6.61312
                        -----------------------------------------
Total Dipole Moment    :     -0.82786      -1.74476      -0.33715
                        -----------------------------------------
Magnitude (a.u.)       :      1.96041
Magnitude (Debye)      :      4.98296

Rotational constants in cm-1:     0.012567     0.008690     0.006368
Rotational constants in MHz :   376.735018   260.527163   190.897882

                             ****ORCA TERMINATED NORMALLY****
TOTAL RUN TIME: 0 days 1 hours 34 minutes 44 seconds 786 msec
