                         Program Version 5.0.0 -  RELEASE  -
|  1> ! ri-mp2 cc-pvtz cc-pvtz/c TightSCF NoKeepInts
|  2>
|  3> %scf
|  4>   MaxCore 4096
|  5> end
|  6> *xyz  0  1
|  7>     C       14.9929170   14.1776894   16.7423180
|  8>     C       16.4249936   13.9652991   16.2007403
|  9>     O       17.3068150   15.0519180   16.5579134
| 10>     C       16.9367867   16.3663221   16.4652018
| 11>     O       16.1239973   16.7615556   15.6471176
| 12>     C       17.6813521   17.2454637   17.4310894
| 13>     C       17.5824041   18.5987623   17.4107985
| 14>     C       16.7644045   19.4432784   16.4574162
| 15>     N       18.3075867   19.3688432   18.3248299
| 16>     C       19.2016356   18.8719096   19.2350665
| 17>     S       20.0701277   19.8604335   20.2373130
| 18>     N       19.3412799   17.5081847   19.2754008
| 19>     C       18.5419794   16.5456797   18.4955447
| 20>     C       17.6935950   15.6940605   19.4359101
| 21>     C       17.9652985   14.3223966   19.5970378
| 22>     C       17.1757999   13.5325104   20.4495895
| 23>     C       16.1075750   14.1191638   21.1493158
| 24>     C       15.8377567   15.4859423   20.9955186
| 25>     O       14.8070252   16.0551981   21.6695203
| 26>     C       16.6248898   16.2693460   20.1460160
| 27>     H       15.0161000   14.4487656   17.8056175
| 28>     H       14.4111569   13.2536957   16.6418175
| 29>     H       14.4594837   14.9612100   16.1910746
| 30>     H       16.8326451   13.0280220   16.6004118
| 31>     H       16.3795146   13.8737946   15.1074482
| 32>     H       17.0473390   19.2354630   15.4176119
| 33>     H       16.8870335   20.5198280   16.6240028
| 34>     H       15.6963367   19.2112824   16.5577833
| 35>     H       18.2178055   20.3722269   18.3107603
| 36>     H       19.9781336   17.1700386   19.9852644
| 37>     H       19.2480558   15.8868401   17.9707483
| 38>     H       18.7866112   13.8652804   19.0516760
| 39>     H       17.3924826   12.4720492   20.5659876
| 40>     H       15.4950472   13.5134618   21.8090738
| 41>     H       14.4084012   15.3698530   22.2265332
| 42>     H       16.4026336   17.3262314   20.0445306
| 43> *
| 44>
| 45>                          ****END OF INPUT****

CARTESIAN COORDINATES (ANGSTROEM)
---------------------------------
  C     14.992917   14.177689   16.742318
  C     16.424994   13.965299   16.200740
  O     17.306815   15.051918   16.557913
  C     16.936787   16.366322   16.465202
  O     16.123997   16.761556   15.647118
  C     17.681352   17.245464   17.431089
  C     17.582404   18.598762   17.410798
  C     16.764405   19.443278   16.457416
  N     18.307587   19.368843   18.324830
  C     19.201636   18.871910   19.235066
  S     20.070128   19.860433   20.237313
  N     19.341280   17.508185   19.275401
  C     18.541979   16.545680   18.495545
  C     17.693595   15.694061   19.435910
  C     17.965298   14.322397   19.597038
  C     17.175800   13.532510   20.449589
  C     16.107575   14.119164   21.149316
  C     15.837757   15.485942   20.995519
  O     14.807025   16.055198   21.669520
  C     16.624890   16.269346   20.146016
  H     15.016100   14.448766   17.805618
  H     14.411157   13.253696   16.641817
  H     14.459484   14.961210   16.191075
  H     16.832645   13.028022   16.600412
  H     16.379515   13.873795   15.107448
  H     17.047339   19.235463   15.417612
  H     16.887034   20.519828   16.624003
  H     15.696337   19.211282   16.557783
  H     18.217805   20.372227   18.310760
  H     19.978134   17.170039   19.985264
  H     19.248056   15.886840   17.970748
  H     18.786611   13.865280   19.051676
  H     17.392483   12.472049   20.565988
  H     15.495047   13.513462   21.809074
  H     14.408401   15.369853   22.226533
  H     16.402634   17.326231   20.044531

 Total Charge           Charge          ....    0
 Multiplicity           Mult            ....    1
 Number of Electrons    NEL             ....  154
 Basis Dimension        Dim             ....  828

ORBITAL ENERGIES
----------------

  NO   OCC          E(Eh)            E(eV)
   0   2.0000     -91.888819     -2500.4219
   1   2.0000     -20.598039      -560.5011
   2   2.0000     -20.595976      -560.4450
   3   2.0000     -20.541393      -558.9597
   4   2.0000     -15.628874      -425.2833
   5   2.0000     -15.608326      -424.7241
   6   2.0000     -11.394906      -310.0712
   7   2.0000     -11.384044      -309.7756
   8   2.0000     -11.335710      -308.4604
   9   2.0000     -11.315468      -307.9096
  10   2.0000     -11.308811      -307.7284
  11   2.0000     -11.299608      -307.4780
  12   2.0000     -11.261071      -306.4293
  13   2.0000     -11.258368      -306.3558
  14   2.0000     -11.256938      -306.3169
  15   2.0000     -11.251940      -306.1809
  16   2.0000     -11.244774      -305.9859
  17   2.0000     -11.239964      -305.8550
  18   2.0000     -11.239703      -305.8479
  19   2.0000     -11.221936      -305.3644
  20   2.0000      -8.893885      -242.0149
  21   2.0000      -6.575461      -178.9274
  22   2.0000      -6.573455      -178.8728
  23   2.0000      -6.572869      -178.8569
  24   2.0000      -1.446733       -39.3676
  25   2.0000      -1.417745       -38.5788
  26   2.0000      -1.352963       -36.8160
  27   2.0000      -1.339864       -36.4596
  28   2.0000      -1.238496       -33.7012
  29   2.0000      -1.159108       -31.5409
  30   2.0000      -1.120556       -30.4919
  31   2.0000      -1.043528       -28.3958
  32   2.0000      -1.034006       -28.1367
  33   2.0000      -1.016674       -27.6651
  34   2.0000      -0.995644       -27.0929
  35   2.0000      -0.984347       -26.7855
  36   2.0000      -0.922914       -25.1138
  37   2.0000      -0.897059       -24.4102
  38   2.0000      -0.847258       -23.0551
  39   2.0000      -0.838838       -22.8259
  40   2.0000      -0.835535       -22.7361
  41   2.0000      -0.816622       -22.2214
  42   2.0000      -0.747924       -20.3520
  43   2.0000      -0.732989       -19.9457
  44   2.0000      -0.722537       -19.6612
  45   2.0000      -0.696945       -18.9648
  46   2.0000      -0.688693       -18.7403
  47   2.0000      -0.676458       -18.4074
  48   2.0000      -0.671210       -18.2646
  49   2.0000      -0.659811       -17.9544
  50   2.0000      -0.650265       -17.6946
  51   2.0000      -0.641055       -17.4440
  52   2.0000      -0.634351       -17.2616
  53   2.0000      -0.616672       -16.7805
  54   2.0000      -0.608143       -16.5484
  55   2.0000      -0.601229       -16.3603
  56   2.0000      -0.599348       -16.3091
  57   2.0000      -0.578488       -15.7415
  58   2.0000      -0.570885       -15.5346
  59   2.0000      -0.567450       -15.4411
  60   2.0000      -0.557274       -15.1642
  61   2.0000      -0.542789       -14.7700
  62   2.0000      -0.534573       -14.5465
  63   2.0000      -0.525973       -14.3125
  64   2.0000      -0.522711       -14.2237
  65   2.0000      -0.513483       -13.9726
  66   2.0000      -0.501846       -13.6559
  67   2.0000      -0.500239       -13.6122
  68   2.0000      -0.484150       -13.1744
  69   2.0000      -0.464511       -12.6400
  70   2.0000      -0.453974       -12.3533
  71   2.0000      -0.443705       -12.0738
  72   2.0000      -0.354010        -9.6331
  73   2.0000      -0.350777        -9.5451
  74   2.0000      -0.328404        -8.9363
  75   2.0000      -0.323047        -8.7906
  76   2.0000      -0.316276        -8.6063
  77   0.0000       0.075832         2.0635
  78   0.0000       0.104672         2.8483
  79   0.0000       0.124650         3.3919
  80   0.0000       0.131887         3.5888
  81   0.0000       0.137322         3.7367

MULLIKEN ATOMIC CHARGES
-----------------------
   0 C :   -0.321807
   1 C :    0.032760
   2 O :   -0.367705
   3 C :    0.470259
   4 O :   -0.432691
   5 C :   -0.232678
   6 C :    0.155176
   7 C :   -0.272654
   8 N :   -0.120728
   9 C :    0.212218
  10 S :   -0.440584
  11 N :   -0.207118
  12 C :    0.071186
  13 C :    0.043144
  14 C :   -0.183350
  15 C :   -0.133611
  16 C :   -0.276426
  17 C :    0.312297
  18 O :   -0.357597
  19 C :   -0.261033
  20 H :    0.108830
  21 H :    0.098228
  22 H :    0.126719
  23 H :    0.109151
  24 H :    0.114122
  25 H :    0.131585
  26 H :    0.095270
  27 H :    0.131432
  28 H :    0.197041
  29 H :    0.195310
  30 H :    0.150484
  31 H :    0.153265
  32 H :    0.161138
  33 H :    0.131227
  34 H :    0.240892
  35 H :    0.166247
Sum of atomic charges:   -0.0000000

LOEWDIN ATOMIC CHARGES
----------------------
   0 C :    0.104835
   1 C :   -0.014059
   2 O :    0.299674
   3 C :   -0.414429
   4 O :    0.100618
   5 C :   -0.094770
   6 C :   -0.059237
   7 C :    0.131623
   8 N :    0.406559
   9 C :   -0.456042
  10 S :   -0.035932
  11 N :    0.396384
  12 C :   -0.051799
  13 C :   -0.039602
  14 C :    0.015062
  15 C :    0.038862
  16 C :   -0.002041
  17 C :   -0.190595
  18 O :    0.395922
  19 C :    0.030974
  20 H :   -0.026365
  21 H :   -0.027012
  22 H :   -0.026172
  23 H :   -0.025709
  24 H :   -0.028275
  25 H :   -0.003753
  26 H :   -0.023436
  27 H :   -0.004785
  28 H :   -0.057594
  29 H :   -0.064602
  30 H :   -0.011199
  31 H :   -0.029674
  32 H :   -0.021141
  33 H :   -0.035297
  34 H :   -0.153605
  35 H :   -0.023388

  Mayer bond orders larger than 0.100000
B(  0-C ,  1-C ) :   0.9572 B(  0-C , 20-H ) :   0.9705 B(  0-C , 21-H ) :   0.9779
B(  0-C , 22-H ) :   0.9731 B(  1-C ,  2-O ) :   0.8927 B(  1-C , 23-H ) :   0.9831
B(  1-C , 24-H ) :   0.9853 B(  2-O ,  3-C ) :   1.1551 B(  3-C ,  4-O ) :   1.9770
B(  3-C ,  5-C ) :   1.0527 B(  5-C ,  6-C ) :   1.6533 B(  5-C , 12-C ) :   0.9693
B(  6-C ,  7-C ) :   0.9660 B(  6-C ,  8-N ) :   1.1648 B(  7-C , 25-H ) :   0.9606
B(  7-C , 26-H ) :   0.9903 B(  7-C , 27-H ) :   0.9604 B(  8-N ,  9-C ) :   1.1840
B(  8-N , 28-H ) :   0.9478 B(  9-C , 10-S ) :   1.6063 B(  9-C , 11-N ) :   1.3059
B( 11-N , 12-C ) :   0.9880 B( 11-N , 29-H ) :   0.9512 B( 12-C , 13-C ) :   0.9350
B( 12-C , 30-H ) :   1.0018 B( 13-C , 14-C ) :   1.3570 B( 13-C , 19-C ) :   1.3850
B( 14-C , 15-C ) :   1.3890 B( 14-C , 31-H ) :   0.9710 B( 15-C , 16-C ) :   1.3622
B( 15-C , 32-H ) :   0.9708 B( 16-C , 17-C ) :   1.3315 B( 16-C , 33-H ) :   0.9847
B( 17-C , 18-O ) :   1.1108 B( 17-C , 19-C ) :   1.3693 B( 18-O , 34-H ) :   0.9796
B( 19-C , 35-H ) :   0.9582

MP2 TOTAL ENERGY:    -1274.346578556 Eh
FINAL SINGLE POINT ENERGY     -1274.346578556470

DIPOLE MOMENT
-------------
                                X             Y             Z
Electronic contribution:     10.18864       9.82579       6.98745
Nuclear contribution   :    -11.20830     -11.57476      -7.29032
                        -----------------------------------------
Total Dipole Moment    :     -1.01966      -1.74897      -0.30287
                        -----------------------------------------
Magnitude (a.u.)       :      2.04703
Magnitude (Debye)      :      5.20314

Rotational constants in cm-1:     0.012484     0.008687     0.006345
Rotational constants in MHz :   374.254873   260.433732   190.218311

                             ****ORCA TERMINATED NORMALLY****
TOTAL RUN TIME: 0 days 2 hours 1 minutes 52 seconds 659 msec
