                         Program Version 5.0.0 -  RELEASE  -
|  1> ! ri-mp2 cc-pvtz cc-pvtz/c TightSCF NoKeepInts
|  2>
|  3> %scf
|  4>   MaxCore 4096
|  5> end
|  6> *xyz  0  1
|  7>     C       14.6791240   14.9850733   16.9300175
|  8>     C       15.7701360   14.7191195   15.8777403
|  9>     O       16.6008601   15.8921067   15.8088980
| 10>     C       17.8007420   15.8930152   16.4589881
| 11>     O       18.4759956   14.8819504   16.5605861
| 12>     C       17.9255129   17.0246348   17.4348906
| 13>     C       17.3581946   18.2459005   17.2642459
| 14>     C       16.5425386   18.7289960   16.0829700
| 15>     N       17.5696204   19.2489614   18.2154298
| 16>     C       18.4358373   19.1544965   19.2729446
| 17>     S       18.7162425   20.4313521   20.2861095
| 18>     N       19.0587182   17.9443370   19.4482471
| 19>     C       18.7512213   16.7180500   18.6878831
| 20>     C       18.0283030   15.7054753   19.5723531
| 21>     C       18.5259142   14.3968008   19.7118220
| 22>     C       17.8547126   13.4563722   20.5111598
| 23>     C       16.6737113   13.8261218   21.1768376
| 24>     C       16.1724442   15.1273198   21.0375221
| 25>     O       15.0264347   15.4846093   21.6699823
| 26>     C       16.8430223   16.0612721   20.2417932
| 27>     H       15.1258386   15.1230926   17.9228733
| 28>     H       13.9841020   14.1384906   16.9847808
| 29>     H       14.1056159   15.8855704   16.6783315
| 30>     H       16.3409092   13.8152733   16.1315735
| 31>     H       15.2924345   14.5557713   14.9032307
| 32>     H       15.5260420   18.3180214   16.1215026
| 33>     H       16.9974402   18.4113445   15.1364252
| 34>     H       16.4602908   19.8221025   16.0473283
| 35>     H       17.1217721   20.1445639   18.1038854
| 36>     H       19.6690559   17.8921390   20.2536752
| 37>     H       19.7049098   16.2770275   18.3635185
| 38>     H       19.4281508   14.1025177   19.1810401
| 39>     H       18.2472946   12.4454862   20.6055433
| 40>     H       16.1506307   13.1019426   21.7924234
| 41>     H       14.7451078   14.7295953   22.2083121
| 42>     H       16.4381193   17.0630966   20.1491354
| 43> *
| 44>
| 45>                          ****END OF INPUT****

CARTESIAN COORDINATES (ANGSTROEM)
---------------------------------
  C     14.679124   14.985073   16.930018
  C     15.770136   14.719119   15.877740
  O     16.600860   15.892107   15.808898
  C     17.800742   15.893015   16.458988
  O     18.475996   14.881950   16.560586
  C     17.925513   17.024635   17.434891
  C     17.358195   18.245901   17.264246
  C     16.542539   18.728996   16.082970
  N     17.569620   19.248961   18.215430
  C     18.435837   19.154497   19.272945
  S     18.716242   20.431352   20.286109
  N     19.058718   17.944337   19.448247
  C     18.751221   16.718050   18.687883
  C     18.028303   15.705475   19.572353
  C     18.525914   14.396801   19.711822
  C     17.854713   13.456372   20.511160
  C     16.673711   13.826122   21.176838
  C     16.172444   15.127320   21.037522
  O     15.026435   15.484609   21.669982
  C     16.843022   16.061272   20.241793
  H     15.125839   15.123093   17.922873
  H     13.984102   14.138491   16.984781
  H     14.105616   15.885570   16.678331
  H     16.340909   13.815273   16.131573
  H     15.292435   14.555771   14.903231
  H     15.526042   18.318021   16.121503
  H     16.997440   18.411344   15.136425
  H     16.460291   19.822102   16.047328
  H     17.121772   20.144564   18.103885
  H     19.669056   17.892139   20.253675
  H     19.704910   16.277027   18.363519
  H     19.428151   14.102518   19.181040
  H     18.247295   12.445486   20.605543
  H     16.150631   13.101943   21.792423
  H     14.745108   14.729595   22.208312
  H     16.438119   17.063097   20.149135

 Total Charge           Charge          ....    0
 Multiplicity           Mult            ....    1
 Number of Electrons    NEL             ....  154
 Basis Dimension        Dim             ....  828

ORBITAL ENERGIES
----------------

  NO   OCC          E(Eh)            E(eV)
   0   2.0000     -91.888528     -2500.4140
   1   2.0000     -20.594991      -560.4182
   2   2.0000     -20.593305      -560.3723
   3   2.0000     -20.551040      -559.2222
   4   2.0000     -15.628199      -425.2649
   5   2.0000     -15.607822      -424.7104
   6   2.0000     -11.395744      -310.0940
   7   2.0000     -11.383812      -309.7693
   8   2.0000     -11.333833      -308.4093
   9   2.0000     -11.311019      -307.7885
  10   2.0000     -11.307851      -307.7023
  11   2.0000     -11.297837      -307.4298
  12   2.0000     -11.259939      -306.3985
  13   2.0000     -11.259398      -306.3838
  14   2.0000     -11.256711      -306.3107
  15   2.0000     -11.251295      -306.1633
  16   2.0000     -11.240864      -305.8795
  17   2.0000     -11.236660      -305.7651
  18   2.0000     -11.233971      -305.6919
  19   2.0000     -11.227585      -305.5181
  20   2.0000      -8.893596      -242.0071
  21   2.0000      -6.575175      -178.9196
  22   2.0000      -6.573166      -178.8649
  23   2.0000      -6.572581      -178.8490
  24   2.0000      -1.453033       -39.5390
  25   2.0000      -1.414781       -38.4981
  26   2.0000      -1.357294       -36.9338
  27   2.0000      -1.339375       -36.4462
  28   2.0000      -1.237510       -33.6744
  29   2.0000      -1.155372       -31.4393
  30   2.0000      -1.120858       -30.5001
  31   2.0000      -1.044022       -28.4093
  32   2.0000      -1.034428       -28.1482
  33   2.0000      -1.012811       -27.5600
  34   2.0000      -0.998935       -27.1824
  35   2.0000      -0.984620       -26.7929
  36   2.0000      -0.922901       -25.1134
  37   2.0000      -0.890008       -24.2184
  38   2.0000      -0.847516       -23.0621
  39   2.0000      -0.837285       -22.7837
  40   2.0000      -0.831306       -22.6210
  41   2.0000      -0.816668       -22.2227
  42   2.0000      -0.757395       -20.6098
  43   2.0000      -0.736406       -20.0386
  44   2.0000      -0.727289       -19.7905
  45   2.0000      -0.693509       -18.8713
  46   2.0000      -0.685626       -18.6568
  47   2.0000      -0.677785       -18.4435
  48   2.0000      -0.675431       -18.3794
  49   2.0000      -0.661072       -17.9887
  50   2.0000      -0.651461       -17.7271
  51   2.0000      -0.645237       -17.5578
  52   2.0000      -0.635637       -17.2966
  53   2.0000      -0.604824       -16.4581
  54   2.0000      -0.602140       -16.3851
  55   2.0000      -0.598775       -16.2935
  56   2.0000      -0.592366       -16.1191
  57   2.0000      -0.582990       -15.8640
  58   2.0000      -0.575555       -15.6616
  59   2.0000      -0.563807       -15.3420
  60   2.0000      -0.561203       -15.2711
  61   2.0000      -0.554029       -15.0759
  62   2.0000      -0.541105       -14.7242
  63   2.0000      -0.522433       -14.2161
  64   2.0000      -0.520228       -14.1561
  65   2.0000      -0.511457       -13.9175
  66   2.0000      -0.499200       -13.5839
  67   2.0000      -0.496494       -13.5103
  68   2.0000      -0.482182       -13.1208
  69   2.0000      -0.463859       -12.6223
  70   2.0000      -0.459237       -12.4965
  71   2.0000      -0.451393       -12.2830
  72   2.0000      -0.353970        -9.6320
  73   2.0000      -0.346976        -9.4417
  74   2.0000      -0.327788        -8.9196
  75   2.0000      -0.318388        -8.6638
  76   2.0000      -0.315412        -8.5828
  77   0.0000       0.073647         2.0040
  78   0.0000       0.107941         2.9372
  79   0.0000       0.119650         3.2558
  80   0.0000       0.132860         3.6153
  81   0.0000       0.140989         3.8365

MULLIKEN ATOMIC CHARGES
-----------------------
   0 C :   -0.287290
   1 C :    0.029259
   2 O :   -0.363652
   3 C :    0.454144
   4 O :   -0.413765
   5 C :   -0.181918
   6 C :    0.137783
   7 C :   -0.283644
   8 N :   -0.124102
   9 C :    0.201822
  10 S :   -0.439589
  11 N :   -0.199774
  12 C :    0.049712
  13 C :    0.060906
  14 C :   -0.165129
  15 C :   -0.134222
  16 C :   -0.276995
  17 C :    0.325849
  18 O :   -0.362682
  19 C :   -0.307918
  20 H :    0.114537
  21 H :    0.100813
  22 H :    0.088763
  23 H :    0.114714
  24 H :    0.102792
  25 H :    0.125738
  26 H :    0.124977
  27 H :    0.103747
  28 H :    0.197088
  29 H :    0.194009
  30 H :    0.155139
  31 H :    0.157101
  32 H :    0.160767
  33 H :    0.130427
  34 H :    0.240528
  35 H :    0.170065
Sum of atomic charges:    0.0000000

LOEWDIN ATOMIC CHARGES
----------------------
   0 C :    0.104120
   1 C :   -0.014998
   2 O :    0.299793
   3 C :   -0.414308
   4 O :    0.115972
   5 C :   -0.092894
   6 C :   -0.071842
   7 C :    0.125798
   8 N :    0.404390
   9 C :   -0.457957
  10 S :   -0.036303
  11 N :    0.397355
  12 C :   -0.045584
  13 C :   -0.040697
  14 C :    0.021847
  15 C :    0.041515
  16 C :   -0.002373
  17 C :   -0.194217
  18 O :    0.393779
  19 C :    0.028678
  20 H :   -0.025104
  21 H :   -0.025496
  22 H :   -0.030967
  23 H :   -0.026300
  24 H :   -0.027825
  25 H :   -0.011039
  26 H :   -0.007948
  27 H :   -0.020047
  28 H :   -0.058881
  29 H :   -0.064019
  30 H :   -0.004555
  31 H :   -0.024572
  32 H :   -0.020549
  33 H :   -0.035837
  34 H :   -0.154185
  35 H :   -0.024750

  Mayer bond orders larger than 0.100000
B(  0-C ,  1-C ) :   0.9669 B(  0-C , 20-H ) :   0.9707 B(  0-C , 21-H ) :   0.9783
B(  0-C , 22-H ) :   0.9795 B(  1-C ,  2-O ) :   0.8881 B(  1-C , 23-H ) :   0.9724
B(  1-C , 24-H ) :   0.9849 B(  2-O ,  3-C ) :   1.1211 B(  3-C ,  4-O ) :   2.0056
B(  3-C ,  5-C ) :   1.0295 B(  5-C ,  6-C ) :   1.6656 B(  5-C , 12-C ) :   0.9632
B(  6-C ,  7-C ) :   0.9541 B(  6-C ,  8-N ) :   1.1404 B(  7-C , 25-H ) :   0.9633
B(  7-C , 26-H ) :   0.9692 B(  7-C , 27-H ) :   0.9887 B(  8-N ,  9-C ) :   1.1831
B(  8-N , 28-H ) :   0.9495 B(  9-C , 10-S ) :   1.6110 B(  9-C , 11-N ) :   1.3006
B( 11-N , 12-C ) :   0.9926 B( 11-N , 29-H ) :   0.9518 B( 12-C , 13-C ) :   0.9454
B( 12-C , 30-H ) :   0.9988 B( 13-C , 14-C ) :   1.3780 B( 13-C , 19-C ) :   1.3561
B( 14-C , 15-C ) :   1.3939 B( 14-C , 31-H ) :   0.9631 B( 15-C , 16-C ) :   1.3635
B( 15-C , 32-H ) :   0.9711 B( 16-C , 17-C ) :   1.3313 B( 16-C , 33-H ) :   0.9848
B( 17-C , 18-O ) :   1.1050 B( 17-C , 19-C ) :   1.3692 B( 18-O , 34-H ) :   0.9803
B( 19-C , 35-H ) :   0.9597

MP2 TOTAL ENERGY:    -1274.335923481 Eh
FINAL SINGLE POINT ENERGY     -1274.335923480943

DIPOLE MOMENT
-------------
                                X             Y             Z
Electronic contribution:     10.69645       8.57497       7.03713
Nuclear contribution   :    -12.01589      -9.92191      -7.87110
                        -----------------------------------------
Total Dipole Moment    :     -1.31944      -1.34694      -0.83397
                        -----------------------------------------
Magnitude (a.u.)       :      2.06172
Magnitude (Debye)      :      5.24047

Rotational constants in cm-1:     0.011587     0.009332     0.006681
Rotational constants in MHz :   347.383302   279.760851   200.286693

                             ****ORCA TERMINATED NORMALLY****
TOTAL RUN TIME: 0 days 2 hours 22 minutes 48 seconds 842 msec
