                         Program Version 5.0.0 -  RELEASE  -
|  1> ! ri-mp2 cc-pvtz cc-pvtz/c TightSCF NoKeepInts
|  2>
|  3> %scf
|  4>   MaxCore 4096
|  5> end
|  6> *xyz  0  1
|  7>     C       14.9832550   15.5511949   17.1884843
|  8>     C       15.7682132   14.8591341   16.0569514
|  9>     O       16.8766011   15.6469632   15.5676903
| 10>     C       17.9957223   15.8257597   16.3334840
| 11>     O       18.7626202   14.8912213   16.4821435
| 12>     C       17.8948519   16.9100836   17.3650467
| 13>     C       17.2885503   18.0988056   17.1214173
| 14>     C       16.6525793   18.5547020   15.8232175
| 15>     N       17.3345208   19.1116679   18.0837450
| 16>     C       18.1378019   19.0927121   19.1938358
| 17>     S       18.2586303   20.3961679   20.2042225
| 18>     N       18.8399524   17.9352686   19.4216642
| 19>     C       18.6396801   16.6705457   18.6866182
| 20>     C       17.9393557   15.6340616   19.5659612
| 21>     C       18.3598079   14.2909956   19.5465523
| 22>     C       17.7231626   13.3258207   20.3442528
| 23>     C       16.6556108   13.7045588   21.1750344
| 24>     C       16.2341931   15.0403686   21.2025921
| 25>     O       15.1986034   15.4085992   21.9979631
| 26>     C       16.8700113   15.9990715   20.4073574
| 27>     H       15.5962419   15.6775937   18.0830716
| 28>     H       14.1205141   14.9364285   17.4726201
| 29>     H       14.6029638   16.5283254   16.8744231
| 30>     H       16.1361352   13.8856797   16.4097153
| 31>     H       15.0803009   14.6669788   15.2235639
| 32>     H       15.6286881   18.1798368   15.7240474
| 33>     H       17.2236185   18.1962740   14.9575438
| 34>     H       16.6152605   19.6480683   15.7421887
| 35>     H       16.8345725   19.9724947   17.9274275
| 36>     H       19.4108517   17.9404097   20.2573736
| 37>     H       19.6361399   16.2762967   18.4388007
| 38>     H       19.1805627   13.9905729   18.8989886
| 39>     H       18.0576134   12.2902754   20.3133860
| 40>     H       16.1600067   12.9619752   21.7915503
| 41>     H       14.9291200   14.6277657   22.5046058
| 42>     H       16.5206864   17.0253220   20.4464598
| 43> *
| 44>
| 45>                          ****END OF INPUT****

CARTESIAN COORDINATES (ANGSTROEM)
---------------------------------
  C     14.983255   15.551195   17.188484
  C     15.768213   14.859134   16.056951
  O     16.876601   15.646963   15.567690
  C     17.995722   15.825760   16.333484
  O     18.762620   14.891221   16.482143
  C     17.894852   16.910084   17.365047
  C     17.288550   18.098806   17.121417
  C     16.652579   18.554702   15.823218
  N     17.334521   19.111668   18.083745
  C     18.137802   19.092712   19.193836
  S     18.258630   20.396168   20.204223
  N     18.839952   17.935269   19.421664
  C     18.639680   16.670546   18.686618
  C     17.939356   15.634062   19.565961
  C     18.359808   14.290996   19.546552
  C     17.723163   13.325821   20.344253
  C     16.655611   13.704559   21.175034
  C     16.234193   15.040369   21.202592
  O     15.198603   15.408599   21.997963
  C     16.870011   15.999071   20.407357
  H     15.596242   15.677594   18.083072
  H     14.120514   14.936428   17.472620
  H     14.602964   16.528325   16.874423
  H     16.136135   13.885680   16.409715
  H     15.080301   14.666979   15.223564
  H     15.628688   18.179837   15.724047
  H     17.223619   18.196274   14.957544
  H     16.615261   19.648068   15.742189
  H     16.834573   19.972495   17.927428
  H     19.410852   17.940410   20.257374
  H     19.636140   16.276297   18.438801
  H     19.180563   13.990573   18.898989
  H     18.057613   12.290275   20.313386
  H     16.160007   12.961975   21.791550
  H     14.929120   14.627766   22.504606
  H     16.520686   17.025322   20.446460

 Total Charge           Charge          ....    0
 Multiplicity           Mult            ....    1
 Number of Electrons    NEL             ....  154
 Basis Dimension        Dim             ....  828

ORBITAL ENERGIES
----------------

  NO   OCC          E(Eh)            E(eV)
   0   2.0000     -91.891039     -2500.4823
   1   2.0000     -20.596161      -560.4500
   2   2.0000     -20.581112      -560.0405
   3   2.0000     -20.555201      -559.3355
   4   2.0000     -15.630664      -425.3320
   5   2.0000     -15.609812      -424.7646
   6   2.0000     -11.395180      -310.0786
   7   2.0000     -11.386255      -309.8358
   8   2.0000     -11.336005      -308.4684
   9   2.0000     -11.312789      -307.8366
  10   2.0000     -11.311105      -307.7908
  11   2.0000     -11.304080      -307.5996
  12   2.0000     -11.262254      -306.4615
  13   2.0000     -11.262151      -306.4587
  14   2.0000     -11.259906      -306.3976
  15   2.0000     -11.253044      -306.2109
  16   2.0000     -11.242413      -305.9216
  17   2.0000     -11.238353      -305.8111
  18   2.0000     -11.234632      -305.7099
  19   2.0000     -11.228149      -305.5335
  20   2.0000      -8.896095      -242.0750
  21   2.0000      -6.577670      -178.9875
  22   2.0000      -6.575662      -178.9329
  23   2.0000      -6.575072      -178.9168
  24   2.0000      -1.448289       -39.4100
  25   2.0000      -1.415995       -38.5312
  26   2.0000      -1.353908       -36.8417
  27   2.0000      -1.341886       -36.5146
  28   2.0000      -1.239749       -33.7353
  29   2.0000      -1.156675       -31.4747
  30   2.0000      -1.122498       -30.5447
  31   2.0000      -1.044975       -28.4352
  32   2.0000      -1.033697       -28.1283
  33   2.0000      -1.014957       -27.6184
  34   2.0000      -1.001608       -27.2551
  35   2.0000      -0.988637       -26.9022
  36   2.0000      -0.925437       -25.1824
  37   2.0000      -0.892380       -24.2829
  38   2.0000      -0.850572       -23.1452
  39   2.0000      -0.840213       -22.8634
  40   2.0000      -0.832919       -22.6649
  41   2.0000      -0.821723       -22.3602
  42   2.0000      -0.751646       -20.4533
  43   2.0000      -0.734336       -19.9823
  44   2.0000      -0.728708       -19.8291
  45   2.0000      -0.694849       -18.9078
  46   2.0000      -0.687419       -18.7056
  47   2.0000      -0.675546       -18.3825
  48   2.0000      -0.674079       -18.3426
  49   2.0000      -0.661818       -18.0090
  50   2.0000      -0.653272       -17.7764
  51   2.0000      -0.647050       -17.6071
  52   2.0000      -0.639563       -17.4034
  53   2.0000      -0.611008       -16.6264
  54   2.0000      -0.603562       -16.4238
  55   2.0000      -0.600621       -16.3437
  56   2.0000      -0.598001       -16.2724
  57   2.0000      -0.586648       -15.9635
  58   2.0000      -0.574917       -15.6443
  59   2.0000      -0.567618       -15.4457
  60   2.0000      -0.562785       -15.3141
  61   2.0000      -0.552635       -15.0380
  62   2.0000      -0.546036       -14.8584
  63   2.0000      -0.525419       -14.2974
  64   2.0000      -0.520041       -14.1510
  65   2.0000      -0.513288       -13.9673
  66   2.0000      -0.500447       -13.6179
  67   2.0000      -0.490948       -13.3594
  68   2.0000      -0.482772       -13.1369
  69   2.0000      -0.465075       -12.6553
  70   2.0000      -0.454995       -12.3810
  71   2.0000      -0.453056       -12.3283
  72   2.0000      -0.356893        -9.7115
  73   2.0000      -0.347390        -9.4530
  74   2.0000      -0.330225        -8.9859
  75   2.0000      -0.321216        -8.7407
  76   2.0000      -0.318163        -8.6577
  77   0.0000       0.068962         1.8765
  78   0.0000       0.105798         2.8789
  79   0.0000       0.119591         3.2542
  80   0.0000       0.131073         3.5667
  81   0.0000       0.132465         3.6046

MULLIKEN ATOMIC CHARGES
-----------------------
   0 C :   -0.331722
   1 C :    0.047613
   2 O :   -0.382303
   3 C :    0.476396
   4 O :   -0.393970
   5 C :   -0.251797
   6 C :    0.180598
   7 C :   -0.285087
   8 N :   -0.130481
   9 C :    0.188504
  10 S :   -0.434505
  11 N :   -0.211162
  12 C :    0.070345
  13 C :    0.027410
  14 C :   -0.197481
  15 C :   -0.138871
  16 C :   -0.274666
  17 C :    0.318265
  18 O :   -0.357704
  19 C :   -0.271644
  20 H :    0.123766
  21 H :    0.121123
  22 H :    0.093546
  23 H :    0.103215
  24 H :    0.112377
  25 H :    0.121464
  26 H :    0.129367
  27 H :    0.109152
  28 H :    0.198041
  29 H :    0.197105
  30 H :    0.161560
  31 H :    0.171911
  32 H :    0.162982
  33 H :    0.131402
  34 H :    0.240438
  35 H :    0.174814
Sum of atomic charges:    0.0000000

LOEWDIN ATOMIC CHARGES
----------------------
   0 C :    0.107005
   1 C :   -0.014313
   2 O :    0.275925
   3 C :   -0.415985
   4 O :    0.131437
   5 C :   -0.092299
   6 C :   -0.070977
   7 C :    0.127610
   8 N :    0.405783
   9 C :   -0.459561
  10 S :   -0.033799
  11 N :    0.396947
  12 C :   -0.043745
  13 C :   -0.041886
  14 C :    0.019778
  15 C :    0.041596
  16 C :   -0.001973
  17 C :   -0.193744
  18 O :    0.395027
  19 C :    0.027357
  20 H :   -0.032928
  21 H :   -0.021537
  22 H :   -0.034761
  23 H :   -0.026723
  24 H :   -0.021492
  25 H :   -0.016059
  26 H :   -0.006517
  27 H :   -0.017884
  28 H :   -0.058260
  29 H :   -0.063874
  30 H :   -0.002632
  31 H :   -0.023499
  32 H :   -0.019665
  33 H :   -0.035437
  34 H :   -0.153960
  35 H :   -0.024955

  Mayer bond orders larger than 0.100000
B(  0-C ,  1-C ) :   0.9628 B(  0-C , 20-H ) :   0.9664 B(  0-C , 21-H ) :   0.9790
B(  0-C , 22-H ) :   0.9769 B(  1-C ,  2-O ) :   0.8952 B(  1-C , 23-H ) :   0.9782
B(  1-C , 24-H ) :   0.9833 B(  2-O ,  3-C ) :   1.0934 B(  3-C ,  4-O ) :   2.0334
B(  3-C ,  5-C ) :   1.0132 B(  5-C ,  6-C ) :   1.6561 B(  5-C , 12-C ) :   0.9512
B(  6-C ,  7-C ) :   0.9514 B(  6-C ,  8-N ) :   1.1335 B(  7-C , 25-H ) :   0.9638
B(  7-C , 26-H ) :   0.9687 B(  7-C , 27-H ) :   0.9874 B(  8-N ,  9-C ) :   1.1830
B(  8-N , 28-H ) :   0.9499 B(  9-C , 10-S ) :   1.6161 B(  9-C , 11-N ) :   1.2939
B( 11-N , 12-C ) :   0.9805 B( 11-N , 29-H ) :   0.9510 B( 12-C , 13-C ) :   0.9537
B( 12-C , 30-H ) :   0.9968 B( 13-C , 14-C ) :   1.3877 B( 13-C , 19-C ) :   1.3433
B( 14-C , 15-C ) :   1.3998 B( 14-C , 31-H ) :   0.9577 B( 15-C , 16-C ) :   1.3609
B( 15-C , 32-H ) :   0.9704 B( 16-C , 17-C ) :   1.3313 B( 16-C , 33-H ) :   0.9846
B( 17-C , 18-O ) :   1.1110 B( 17-C , 19-C ) :   1.3722 B( 18-O , 34-H ) :   0.9801
B( 19-C , 35-H ) :   0.9603

MP2 TOTAL ENERGY:    -1274.322288217 Eh
FINAL SINGLE POINT ENERGY     -1274.322288217086

DIPOLE MOMENT
-------------
                                X             Y             Z
Electronic contribution:      9.71221       7.14337       6.42168
Nuclear contribution   :    -11.03148      -8.33960      -7.04523
                        -----------------------------------------
Total Dipole Moment    :     -1.31927      -1.19623      -0.62355
                        -----------------------------------------
Magnitude (a.u.)       :      1.88686
Magnitude (Debye)      :      4.79602

Rotational constants in cm-1:     0.011338     0.009921     0.006770
Rotational constants in MHz :   339.913741   297.423608   202.956048

                             ****ORCA TERMINATED NORMALLY****
TOTAL RUN TIME: 0 days 1 hours 56 minutes 13 seconds 18 msec
