                         Program Version 5.0.0 -  RELEASE  -
|  1> ! ri-mp2 cc-pvtz cc-pvtz/c TightSCF NoKeepInts
|  2>
|  3> %scf
|  4>   MaxCore 4096
|  5> end
|  6> *xyz  0  1
|  7>     C       15.8615642   12.9658784   16.4536181
|  8>     C       15.8289418   14.3499177   15.7836294
|  9>     O       16.4986167   15.2621145   16.6714455
| 10>     C       16.0524210   16.5476314   16.8115160
| 11>     O       15.0436080   16.9521312   16.2585953
| 12>     C       17.0464056   17.4234697   17.5238022
| 13>     C       16.8923599   18.7680142   17.6287191
| 14>     C       15.7559482   19.6066865   17.0839664
| 15>     N       17.8645552   19.5370521   18.2754126
| 16>     C       19.0516839   19.0559864   18.7593149
| 17>     S       20.1877570   20.0499577   19.4355021
| 18>     N       19.2524516   17.7034015   18.6544022
| 19>     C       18.2547502   16.7297657   18.1740749
| 20>     C       17.8309412   15.8129203   19.3180104
| 21>     C       18.1190266   14.4358398   19.2740802
| 22>     C       17.7252025   13.5889194   20.3237059
| 23>     C       17.0406205   14.1234203   21.4284975
| 24>     C       16.7555404   15.4949064   21.4774187
| 25>     O       16.0949064   16.0139732   22.5428855
| 26>     C       17.1481182   16.3351156   20.4309377
| 27>     H       16.8957299   12.6331213   16.6048751
| 28>     H       15.3482445   12.2238253   15.8301528
| 29>     H       15.3625831   12.9990394   17.4305232
| 30>     H       16.3290074   14.3263390   14.8068089
| 31>     H       14.7785845   14.6339672   15.6318707
| 32>     H       15.8606671   20.6732796   17.3145759
| 33>     H       14.7968026   19.2717323   17.4993104
| 34>     H       15.6921947   19.5079259   15.9928648
| 35>     H       17.7346438   20.5324249   18.3613091
| 36>     H       20.1200147   17.3728763   19.0568155
| 37>     H       18.7450556   16.1194126   17.4027984
| 38>     H       18.6416201   14.0189537   18.4174608
| 39>     H       17.9491221   12.5246597   20.2783748
| 40>     H       16.7341264   13.4735382   22.2414541
| 41>     H       15.9299285   15.2892424   23.1644160
| 42>     H       16.9232558   17.3945601   20.4908551
| 43> *
| 44>
| 45>                          ****END OF INPUT****

CARTESIAN COORDINATES (ANGSTROEM)
---------------------------------
  C     15.861564   12.965878   16.453618
  C     15.828942   14.349918   15.783629
  O     16.498617   15.262114   16.671446
  C     16.052421   16.547631   16.811516
  O     15.043608   16.952131   16.258595
  C     17.046406   17.423470   17.523802
  C     16.892360   18.768014   17.628719
  C     15.755948   19.606686   17.083966
  N     17.864555   19.537052   18.275413
  C     19.051684   19.055986   18.759315
  S     20.187757   20.049958   19.435502
  N     19.252452   17.703401   18.654402
  C     18.254750   16.729766   18.174075
  C     17.830941   15.812920   19.318010
  C     18.119027   14.435840   19.274080
  C     17.725202   13.588919   20.323706
  C     17.040620   14.123420   21.428497
  C     16.755540   15.494906   21.477419
  O     16.094906   16.013973   22.542885
  C     17.148118   16.335116   20.430938
  H     16.895730   12.633121   16.604875
  H     15.348244   12.223825   15.830153
  H     15.362583   12.999039   17.430523
  H     16.329007   14.326339   14.806809
  H     14.778584   14.633967   15.631871
  H     15.860667   20.673280   17.314576
  H     14.796803   19.271732   17.499310
  H     15.692195   19.507926   15.992865
  H     17.734644   20.532425   18.361309
  H     20.120015   17.372876   19.056815
  H     18.745056   16.119413   17.402798
  H     18.641620   14.018954   18.417461
  H     17.949122   12.524660   20.278375
  H     16.734126   13.473538   22.241454
  H     15.929929   15.289242   23.164416
  H     16.923256   17.394560   20.490855

 Total Charge           Charge          ....    0
 Multiplicity           Mult            ....    1
 Number of Electrons    NEL             ....  154
 Basis Dimension        Dim             ....  828

ORBITAL ENERGIES
----------------

  NO   OCC          E(Eh)            E(eV)
   0   2.0000     -91.888403     -2500.4106
   1   2.0000     -20.602399      -560.6198
   2   2.0000     -20.595212      -560.4242
   3   2.0000     -20.541703      -558.9682
   4   2.0000     -15.628486      -425.2727
   5   2.0000     -15.607753      -424.7085
   6   2.0000     -11.395371      -310.0838
   7   2.0000     -11.383493      -309.7606
   8   2.0000     -11.335456      -308.4534
   9   2.0000     -11.312215      -307.8210
  10   2.0000     -11.308042      -307.7075
  11   2.0000     -11.296415      -307.3911
  12   2.0000     -11.258827      -306.3682
  13   2.0000     -11.258196      -306.3511
  14   2.0000     -11.253565      -306.2251
  15   2.0000     -11.251546      -306.1701
  16   2.0000     -11.241975      -305.9097
  17   2.0000     -11.237485      -305.7875
  18   2.0000     -11.237022      -305.7749
  19   2.0000     -11.229836      -305.5794
  20   2.0000      -8.893471      -242.0036
  21   2.0000      -6.575047      -178.9161
  22   2.0000      -6.573041      -178.8615
  23   2.0000      -6.572455      -178.8456
  24   2.0000      -1.451844       -39.5067
  25   2.0000      -1.414887       -38.5010
  26   2.0000      -1.355116       -36.8746
  27   2.0000      -1.339484       -36.4492
  28   2.0000      -1.237918       -33.6855
  29   2.0000      -1.156524       -31.4706
  30   2.0000      -1.119795       -30.4712
  31   2.0000      -1.043262       -28.3886
  32   2.0000      -1.039580       -28.2884
  33   2.0000      -1.013805       -27.5870
  34   2.0000      -0.995108       -27.0783
  35   2.0000      -0.983905       -26.7734
  36   2.0000      -0.921724       -25.0814
  37   2.0000      -0.889464       -24.2035
  38   2.0000      -0.846194       -23.0261
  39   2.0000      -0.836428       -22.7604
  40   2.0000      -0.832795       -22.6615
  41   2.0000      -0.817311       -22.2402
  42   2.0000      -0.765155       -20.8209
  43   2.0000      -0.731071       -19.8935
  44   2.0000      -0.721392       -19.6301
  45   2.0000      -0.694933       -18.9101
  46   2.0000      -0.688432       -18.7332
  47   2.0000      -0.679827       -18.4990
  48   2.0000      -0.671298       -18.2669
  49   2.0000      -0.664257       -18.0753
  50   2.0000      -0.645853       -17.5746
  51   2.0000      -0.643603       -17.5133
  52   2.0000      -0.634197       -17.2574
  53   2.0000      -0.605487       -16.4761
  54   2.0000      -0.601525       -16.3683
  55   2.0000      -0.597821       -16.2675
  56   2.0000      -0.595786       -16.2122
  57   2.0000      -0.577672       -15.7192
  58   2.0000      -0.570145       -15.5144
  59   2.0000      -0.566987       -15.4285
  60   2.0000      -0.562828       -15.3153
  61   2.0000      -0.548191       -14.9170
  62   2.0000      -0.537574       -14.6281
  63   2.0000      -0.527480       -14.3535
  64   2.0000      -0.523929       -14.2568
  65   2.0000      -0.512772       -13.9532
  66   2.0000      -0.500985       -13.6325
  67   2.0000      -0.497133       -13.5277
  68   2.0000      -0.484595       -13.1865
  69   2.0000      -0.462963       -12.5979
  70   2.0000      -0.459145       -12.4940
  71   2.0000      -0.448072       -12.1927
  72   2.0000      -0.353759        -9.6263
  73   2.0000      -0.348423        -9.4811
  74   2.0000      -0.327725        -8.9178
  75   2.0000      -0.319850        -8.7036
  76   2.0000      -0.315387        -8.5821
  77   0.0000       0.076492         2.0814
  78   0.0000       0.107736         2.9316
  79   0.0000       0.124499         3.3878
  80   0.0000       0.132988         3.6188
  81   0.0000       0.136946         3.7265

MULLIKEN ATOMIC CHARGES
-----------------------
   0 C :   -0.279083
   1 C :    0.028819
   2 O :   -0.344887
   3 C :    0.471954
   4 O :   -0.433324
   5 C :   -0.222409
   6 C :    0.148258
   7 C :   -0.273579
   8 N :   -0.120207
   9 C :    0.209837
  10 S :   -0.440484
  11 N :   -0.203569
  12 C :    0.045708
  13 C :    0.063647
  14 C :   -0.179317
  15 C :   -0.131523
  16 C :   -0.278189
  17 C :    0.315913
  18 O :   -0.356899
  19 C :   -0.268182
  20 H :    0.088066
  21 H :    0.102752
  22 H :    0.106481
  23 H :    0.090813
  24 H :    0.115778
  25 H :    0.094612
  26 H :    0.131394
  27 H :    0.131460
  28 H :    0.197337
  29 H :    0.194555
  30 H :    0.149487
  31 H :    0.150364
  32 H :    0.159586
  33 H :    0.129589
  34 H :    0.240425
  35 H :    0.164817
Sum of atomic charges:    0.0000000

LOEWDIN ATOMIC CHARGES
----------------------
   0 C :    0.104791
   1 C :   -0.012542
   2 O :    0.309846
   3 C :   -0.411716
   4 O :    0.095882
   5 C :   -0.094325
   6 C :   -0.059248
   7 C :    0.131329
   8 N :    0.406398
   9 C :   -0.456965
  10 S :   -0.036068
  11 N :    0.396663
  12 C :   -0.053272
  13 C :   -0.040021
  14 C :    0.016612
  15 C :    0.039888
  16 C :   -0.001064
  17 C :   -0.189822
  18 O :    0.394888
  19 C :    0.031662
  20 H :   -0.031575
  21 H :   -0.025370
  22 H :   -0.023567
  23 H :   -0.031627
  24 H :   -0.027505
  25 H :   -0.023533
  26 H :   -0.004580
  27 H :   -0.004071
  28 H :   -0.057658
  29 H :   -0.064464
  30 H :   -0.012483
  31 H :   -0.031427
  32 H :   -0.021712
  33 H :   -0.035599
  34 H :   -0.154132
  35 H :   -0.023612

  Mayer bond orders larger than 0.100000
B(  0-C ,  1-C ) :   0.9732 B(  0-C , 20-H ) :   0.9791 B(  0-C , 21-H ) :   0.9778
B(  0-C , 22-H ) :   0.9745 B(  1-C ,  2-O ) :   0.8973 B(  1-C , 23-H ) :   0.9807
B(  1-C , 24-H ) :   0.9764 B(  2-O ,  3-C ) :   1.1748 B(  3-C ,  4-O ) :   1.9747
B(  3-C ,  5-C ) :   1.0570 B(  5-C ,  6-C ) :   1.6545 B(  5-C , 12-C ) :   0.9714
B(  6-C ,  7-C ) :   0.9678 B(  6-C ,  8-N ) :   1.1628 B(  7-C , 25-H ) :   0.9902
B(  7-C , 26-H ) :   0.9616 B(  7-C , 27-H ) :   0.9595 B(  8-N ,  9-C ) :   1.1834
B(  8-N , 28-H ) :   0.9479 B(  9-C , 10-S ) :   1.6076 B(  9-C , 11-N ) :   1.3048
B( 11-N , 12-C ) :   0.9893 B( 11-N , 29-H ) :   0.9514 B( 12-C , 13-C ) :   0.9373
B( 12-C , 30-H ) :   1.0040 B( 13-C , 14-C ) :   1.3589 B( 13-C , 19-C ) :   1.3801
B( 14-C , 15-C ) :   1.3911 B( 14-C , 31-H ) :   0.9701 B( 15-C , 16-C ) :   1.3641
B( 15-C , 32-H ) :   0.9704 B( 16-C , 17-C ) :   1.3312 B( 16-C , 33-H ) :   0.9853
B( 17-C , 18-O ) :   1.1094 B( 17-C , 19-C ) :   1.3739 B( 18-O , 34-H ) :   0.9801
B( 19-C , 35-H ) :   0.9583

MP2 TOTAL ENERGY:    -1274.349131659 Eh
FINAL SINGLE POINT ENERGY     -1274.349131658628

DIPOLE MOMENT
-------------
                                X             Y             Z
Electronic contribution:      8.45797      12.37697       6.88707
Nuclear contribution   :     -9.38792     -14.15538      -7.25976
                        -----------------------------------------
Total Dipole Moment    :     -0.92995      -1.77842      -0.37268
                        -----------------------------------------
Magnitude (a.u.)       :      2.04119
Magnitude (Debye)      :      5.18830

Rotational constants in cm-1:     0.011498     0.008559     0.006093
Rotational constants in MHz :   344.693307   256.597184   182.676492

                             ****ORCA TERMINATED NORMALLY****
TOTAL RUN TIME: 0 days 1 hours 59 minutes 52 seconds 893 msec
