                         Program Version 5.0.0 -  RELEASE  -
|  1> ! ri-mp2 cc-pvtz cc-pvtz/c TightSCF NoKeepInts
|  2>
|  3> %scf
|  4>   MaxCore 4096
|  5> end
|  6> *xyz  0  1
|  7>     C       15.2297900   14.1337730   15.1198881
|  8>     C       16.0952689   13.8869608   16.3746579
|  9>     O       16.8732696   15.0251593   16.8262656
| 10>     C       16.5501688   16.3550622   16.7078629
| 11>     O       15.6147190   16.7794200   16.0538804
| 12>     C       17.4261960   17.2227028   17.5723215
| 13>     C       17.3350315   18.5777161   17.5763239
| 14>     C       16.3910192   19.4386396   16.7639398
| 15>     N       18.2013983   19.3372633   18.3685150
| 16>     C       19.2477312   18.8324205   19.0929017
| 17>     S       20.2889546   19.8112714   19.9258239
| 18>     N       19.3917217   17.4688146   19.0898829
| 19>     C       18.4426256   16.5160153   18.4859496
| 20>     C       17.7569443   15.7086069   19.5847755
| 21>     C       18.0206982   14.3334765   19.7296720
| 22>     C       17.3901472   13.5869283   20.7393012
| 23>     C       16.4906621   14.2207332   21.6134826
| 24>     C       16.2294024   15.5908816   21.4751432
| 25>     O       15.3628977   16.2059930   22.3188700
| 26>     C       16.8583038   16.3310995   20.4693611
| 27>     H       14.3480334   14.7420104   15.3566938
| 28>     H       14.8693218   13.1804376   14.7154260
| 29>     H       15.8083044   14.6375533   14.3354432
| 30>     H       15.4297350   13.5709025   17.1886253
| 31>     H       16.7815343   13.0535179   16.1777616
| 32>     H       15.3481350   19.2151987   17.0231738
| 33>     H       16.5113304   19.2383692   15.6917078
| 34>     H       16.5478684   20.5125191   16.9185617
| 35>     H       18.1111275   20.3405805   18.3817210
| 36>     H       20.1492243   17.1236022   19.6649913
| 37>     H       19.0285393   15.8265971   17.8620889
| 38>     H       18.7129097   13.8404936   19.0525151
| 39>     H       17.5994689   12.5236791   20.8425804
| 40>     H       16.0016422   13.6488525   22.3951933
| 41>     H       15.0548367   15.5430041   22.9546727
| 42>     H       16.6480387   17.3917445   20.3840251
| 43> *
| 44>
| 45>                          ****END OF INPUT****

CARTESIAN COORDINATES (ANGSTROEM)
---------------------------------
  C     15.229790   14.133773   15.119888
  C     16.095269   13.886961   16.374658
  O     16.873270   15.025159   16.826266
  C     16.550169   16.355062   16.707863
  O     15.614719   16.779420   16.053880
  C     17.426196   17.222703   17.572322
  C     17.335031   18.577716   17.576324
  C     16.391019   19.438640   16.763940
  N     18.201398   19.337263   18.368515
  C     19.247731   18.832420   19.092902
  S     20.288955   19.811271   19.925824
  N     19.391722   17.468815   19.089883
  C     18.442626   16.516015   18.485950
  C     17.756944   15.708607   19.584775
  C     18.020698   14.333476   19.729672
  C     17.390147   13.586928   20.739301
  C     16.490662   14.220733   21.613483
  C     16.229402   15.590882   21.475143
  O     15.362898   16.205993   22.318870
  C     16.858304   16.331100   20.469361
  H     14.348033   14.742010   15.356694
  H     14.869322   13.180438   14.715426
  H     15.808304   14.637553   14.335443
  H     15.429735   13.570903   17.188625
  H     16.781534   13.053518   16.177762
  H     15.348135   19.215199   17.023174
  H     16.511330   19.238369   15.691708
  H     16.547868   20.512519   16.918562
  H     18.111127   20.340581   18.381721
  H     20.149224   17.123602   19.664991
  H     19.028539   15.826597   17.862089
  H     18.712910   13.840494   19.052515
  H     17.599469   12.523679   20.842580
  H     16.001642   13.648852   22.395193
  H     15.054837   15.543004   22.954673
  H     16.648039   17.391745   20.384025

 Total Charge           Charge          ....    0
 Multiplicity           Mult            ....    1
 Number of Electrons    NEL             ....  154
 Basis Dimension        Dim             ....  828

ORBITAL ENERGIES
----------------

  NO   OCC          E(Eh)            E(eV)
   0   2.0000     -91.887720     -2500.3920
   1   2.0000     -20.598908      -560.5248
   2   2.0000     -20.595375      -560.4286
   3   2.0000     -20.540307      -558.9302
   4   2.0000     -15.627763      -425.2531
   5   2.0000     -15.606885      -424.6849
   6   2.0000     -11.397891      -310.1524
   7   2.0000     -11.382685      -309.7386
   8   2.0000     -11.334522      -308.4280
   9   2.0000     -11.312375      -307.8254
  10   2.0000     -11.307279      -307.6867
  11   2.0000     -11.303129      -307.5738
  12   2.0000     -11.258233      -306.3521
  13   2.0000     -11.257927      -306.3438
  14   2.0000     -11.253945      -306.2354
  15   2.0000     -11.251012      -306.1556
  16   2.0000     -11.241634      -305.9004
  17   2.0000     -11.236926      -305.7723
  18   2.0000     -11.236844      -305.7701
  19   2.0000     -11.222205      -305.3717
  20   2.0000      -8.892793      -241.9852
  21   2.0000      -6.574371      -178.8977
  22   2.0000      -6.572364      -178.8431
  23   2.0000      -6.571780      -178.8272
  24   2.0000      -1.443355       -39.2757
  25   2.0000      -1.415012       -38.5044
  26   2.0000      -1.354641       -36.8617
  27   2.0000      -1.338849       -36.4319
  28   2.0000      -1.237252       -33.6673
  29   2.0000      -1.156059       -31.4580
  30   2.0000      -1.118583       -30.4382
  31   2.0000      -1.041340       -28.3363
  32   2.0000      -1.036272       -28.1984
  33   2.0000      -1.013655       -27.5829
  34   2.0000      -0.994204       -27.0537
  35   2.0000      -0.982517       -26.7357
  36   2.0000      -0.921144       -25.0656
  37   2.0000      -0.897436       -24.4205
  38   2.0000      -0.846187       -23.0259
  39   2.0000      -0.836789       -22.7702
  40   2.0000      -0.832679       -22.6583
  41   2.0000      -0.818120       -22.2622
  42   2.0000      -0.745880       -20.2964
  43   2.0000      -0.729349       -19.8466
  44   2.0000      -0.718281       -19.5454
  45   2.0000      -0.694487       -18.8980
  46   2.0000      -0.687145       -18.6982
  47   2.0000      -0.677416       -18.4334
  48   2.0000      -0.667737       -18.1701
  49   2.0000      -0.658979       -17.9317
  50   2.0000      -0.650480       -17.7005
  51   2.0000      -0.643779       -17.5181
  52   2.0000      -0.634188       -17.2571
  53   2.0000      -0.605676       -16.4813
  54   2.0000      -0.601131       -16.3576
  55   2.0000      -0.597675       -16.2636
  56   2.0000      -0.597050       -16.2466
  57   2.0000      -0.582437       -15.8489
  58   2.0000      -0.574464       -15.6320
  59   2.0000      -0.569858       -15.5066
  60   2.0000      -0.561186       -15.2706
  61   2.0000      -0.538299       -14.6479
  62   2.0000      -0.535503       -14.5718
  63   2.0000      -0.523704       -14.2507
  64   2.0000      -0.522470       -14.2171
  65   2.0000      -0.511859       -13.9284
  66   2.0000      -0.502424       -13.6716
  67   2.0000      -0.498432       -13.5630
  68   2.0000      -0.483072       -13.1451
  69   2.0000      -0.462816       -12.5939
  70   2.0000      -0.452450       -12.3118
  71   2.0000      -0.439344       -11.9552
  72   2.0000      -0.352900        -9.6029
  73   2.0000      -0.348021        -9.4701
  74   2.0000      -0.327135        -8.9018
  75   2.0000      -0.320011        -8.7079
  76   2.0000      -0.314824        -8.5668
  77   0.0000       0.077664         2.1133
  78   0.0000       0.108504         2.9525
  79   0.0000       0.124916         3.3991
  80   0.0000       0.133575         3.6347
  81   0.0000       0.137570         3.7435

MULLIKEN ATOMIC CHARGES
-----------------------
   0 C :   -0.286349
   1 C :    0.050076
   2 O :   -0.364227
   3 C :    0.462641
   4 O :   -0.433123
   5 C :   -0.201769
   6 C :    0.145723
   7 C :   -0.273737
   8 N :   -0.120017
   9 C :    0.212247
  10 S :   -0.441836
  11 N :   -0.203728
  12 C :    0.050452
  13 C :    0.073550
  14 C :   -0.188200
  15 C :   -0.131659
  16 C :   -0.279578
  17 C :    0.316193
  18 O :   -0.356802
  19 C :   -0.269816
  20 H :    0.118282
  21 H :    0.094977
  22 H :    0.100356
  23 H :    0.090382
  24 H :    0.096206
  25 H :    0.132110
  26 H :    0.129612
  27 H :    0.094904
  28 H :    0.197097
  29 H :    0.194089
  30 H :    0.148760
  31 H :    0.149264
  32 H :    0.159559
  33 H :    0.129327
  34 H :    0.240479
  35 H :    0.164553
Sum of atomic charges:    0.0000000

LOEWDIN ATOMIC CHARGES
----------------------
   0 C :    0.102387
   1 C :   -0.008828
   2 O :    0.295911
   3 C :   -0.412041
   4 O :    0.106807
   5 C :   -0.093140
   6 C :   -0.059507
   7 C :    0.130503
   8 N :    0.406308
   9 C :   -0.456803
  10 S :   -0.036912
  11 N :    0.396423
  12 C :   -0.052904
  13 C :   -0.037775
  14 C :    0.013816
  15 C :    0.038710
  16 C :   -0.002338
  17 C :   -0.189485
  18 O :    0.395053
  19 C :    0.031396
  20 H :   -0.025315
  21 H :   -0.028875
  22 H :   -0.025697
  23 H :   -0.028270
  24 H :   -0.025858
  25 H :   -0.004870
  26 H :   -0.004565
  27 H :   -0.023694
  28 H :   -0.057815
  29 H :   -0.064798
  30 H :   -0.011557
  31 H :   -0.030683
  32 H :   -0.021670
  33 H :   -0.035887
  34 H :   -0.154141
  35 H :   -0.023887

  Mayer bond orders larger than 0.100000
B(  0-C ,  1-C ) :   0.9803 B(  0-C , 20-H ) :   0.9723 B(  0-C , 21-H ) :   0.9754
B(  0-C , 22-H ) :   0.9755 B(  1-C ,  2-O ) :   0.8970 B(  1-C , 23-H ) :   0.9739
B(  1-C , 24-H ) :   0.9818 B(  2-O ,  3-C ) :   1.1483 B(  3-C ,  4-O ) :   1.9694
B(  3-C ,  5-C ) :   1.0653 B(  5-C ,  6-C ) :   1.6567 B(  5-C , 12-C ) :   0.9758
B(  6-C ,  7-C ) :   0.9677 B(  6-C ,  8-N ) :   1.1622 B(  7-C , 25-H ) :   0.9602
B(  7-C , 26-H ) :   0.9606 B(  7-C , 27-H ) :   0.9910 B(  8-N ,  9-C ) :   1.1832
B(  8-N , 28-H ) :   0.9481 B(  9-C , 10-S ) :   1.6054 B(  9-C , 11-N ) :   1.3059
B( 11-N , 12-C ) :   0.9857 B( 11-N , 29-H ) :   0.9517 B( 12-C , 13-C ) :   0.9369
B( 12-C , 30-H ) :   1.0027 B( 13-C , 14-C ) :   1.3525 B( 13-C , 19-C ) :   1.3836
B( 14-C , 15-C ) :   1.3923 B( 14-C , 31-H ) :   0.9723 B( 15-C , 16-C ) :   1.3634
B( 15-C , 32-H ) :   0.9709 B( 16-C , 17-C ) :   1.3317 B( 16-C , 33-H ) :   0.9854
B( 17-C , 18-O ) :   1.1099 B( 17-C , 19-C ) :   1.3727 B( 18-O , 34-H ) :   0.9801
B( 19-C , 35-H ) :   0.9583

MP2 TOTAL ENERGY:    -1274.339685918 Eh
FINAL SINGLE POINT ENERGY     -1274.339685918391

DIPOLE MOMENT
-------------
                                X             Y             Z
Electronic contribution:      9.89015       9.93058       9.76332
Nuclear contribution   :    -10.92312     -11.72172     -10.15424
                        -----------------------------------------
Total Dipole Moment    :     -1.03297      -1.79114      -0.39091
                        -----------------------------------------
Magnitude (a.u.)       :      2.10429
Magnitude (Debye)      :      5.34868

Rotational constants in cm-1:     0.011109     0.008775     0.006017
Rotational constants in MHz :   333.032384   263.059138   180.371804

                             ****ORCA TERMINATED NORMALLY****
TOTAL RUN TIME: 0 days 2 hours 3 minutes 34 seconds 930 msec
