                         Program Version 5.0.0 -  RELEASE  -
|  1> ! ri-mp2 cc-pvtz cc-pvtz/c TightSCF NoKeepInts
|  2>
|  3> %scf
|  4>   MaxCore 4096
|  5> end
|  6> *xyz  0  1
|  7>     C       16.0981200   13.0783766   16.0877455
|  8>     C       15.5782942   14.5015916   16.3501513
|  9>     O       16.7215875   15.3433810   16.5693976
| 10>     C       16.5594769   16.6991873   16.5306857
| 11>     O       15.6432264   17.2241635   15.9209427
| 12>     C       17.4672982   17.4187486   17.4898588
| 13>     C       17.4828740   18.7714137   17.6001817
| 14>     C       16.6417986   19.7635469   16.8257480
| 15>     N       18.3737742   19.3930388   18.4802437
| 16>     C       19.3449384   18.7476647   19.1981469
| 17>     S       20.4234677   19.5687818   20.1460059
| 18>     N       19.3811330   17.3810379   19.0882700
| 19>     C       18.3886617   16.5593839   18.3717398
| 20>     C       17.6001448   15.7177691   19.3714571
| 21>     C       17.7653628   14.3205516   19.4130219
| 22>     C       17.0353268   13.5408489   20.3257596
| 23>     C       16.1355934   14.1634936   21.2076145
| 24>     C       15.9731803   15.5553048   21.1732604
| 25>     O       15.1062359   16.1594634   22.0243322
| 26>     C       16.7001473   16.3284080   20.2628109
| 27>     H       16.6574056   12.7057006   16.9545725
| 28>     H       16.7603804   13.0637076   15.2131812
| 29>     H       15.2627671   12.3935743   15.8978553
| 30>     H       15.0083088   14.8397632   15.4737608
| 31>     H       14.9177021   14.5177729   17.2272785
| 32>     H       15.5765228   19.6200303   17.0478562
| 33>     H       16.7723400   19.6213433   15.7454486
| 34>     H       16.8906841   20.8067210   17.0530642
| 35>     H       18.3627027   20.3962419   18.5726788
| 36>     H       20.0844101   16.9305712   19.6595077
| 37>     H       18.9437849   15.8806927   17.7089129
| 38>     H       18.4566721   13.8365547   18.7283557
| 39>     H       17.1683682   12.4606493   20.3484209
| 40>     H       15.5701299   13.5659799   21.9151078
| 41>     H       14.7296002   15.4719898   22.5938446
| 42>     H       16.5645791   17.4045518   20.2567798
| 43> *
| 44>
| 45>                          ****END OF INPUT****

CARTESIAN COORDINATES (ANGSTROEM)
---------------------------------
  C     16.098120   13.078377   16.087746
  C     15.578294   14.501592   16.350151
  O     16.721587   15.343381   16.569398
  C     16.559477   16.699187   16.530686
  O     15.643226   17.224163   15.920943
  C     17.467298   17.418749   17.489859
  C     17.482874   18.771414   17.600182
  C     16.641799   19.763547   16.825748
  N     18.373774   19.393039   18.480244
  C     19.344938   18.747665   19.198147
  S     20.423468   19.568782   20.146006
  N     19.381133   17.381038   19.088270
  C     18.388662   16.559384   18.371740
  C     17.600145   15.717769   19.371457
  C     17.765363   14.320552   19.413022
  C     17.035327   13.540849   20.325760
  C     16.135593   14.163494   21.207614
  C     15.973180   15.555305   21.173260
  O     15.106236   16.159463   22.024332
  C     16.700147   16.328408   20.262811
  H     16.657406   12.705701   16.954573
  H     16.760380   13.063708   15.213181
  H     15.262767   12.393574   15.897855
  H     15.008309   14.839763   15.473761
  H     14.917702   14.517773   17.227279
  H     15.576523   19.620030   17.047856
  H     16.772340   19.621343   15.745449
  H     16.890684   20.806721   17.053064
  H     18.362703   20.396242   18.572679
  H     20.084410   16.930571   19.659508
  H     18.943785   15.880693   17.708913
  H     18.456672   13.836555   18.728356
  H     17.168368   12.460649   20.348421
  H     15.570130   13.565980   21.915108
  H     14.729600   15.471990   22.593845
  H     16.564579   17.404552   20.256780

 Total Charge           Charge          ....    0
 Multiplicity           Mult            ....    1
 Number of Electrons    NEL             ....  154
 Basis Dimension        Dim             ....  828

ORBITAL ENERGIES
----------------

  NO   OCC          E(Eh)            E(eV)
   0   2.0000     -91.889135     -2500.4305
   1   2.0000     -20.598267      -560.5073
   2   2.0000     -20.597339      -560.4821
   3   2.0000     -20.542480      -558.9893
   4   2.0000     -15.629287      -425.2945
   5   2.0000     -15.608598      -424.7315
   6   2.0000     -11.393939      -310.0448
   7   2.0000     -11.384278      -309.7819
   8   2.0000     -11.335954      -308.4670
   9   2.0000     -11.314692      -307.8884
  10   2.0000     -11.309592      -307.7496
  11   2.0000     -11.294720      -307.3450
  12   2.0000     -11.260521      -306.4143
  13   2.0000     -11.258818      -306.3680
  14   2.0000     -11.256237      -306.2978
  15   2.0000     -11.252174      -306.1872
  16   2.0000     -11.243928      -305.9628
  17   2.0000     -11.239247      -305.8355
  18   2.0000     -11.238977      -305.8281
  19   2.0000     -11.229649      -305.5743
  20   2.0000      -8.894194      -242.0233
  21   2.0000      -6.575768      -178.9357
  22   2.0000      -6.573764      -178.8812
  23   2.0000      -6.573177      -178.8652
  24   2.0000      -1.451643       -39.5012
  25   2.0000      -1.416996       -38.5584
  26   2.0000      -1.354440       -36.8562
  27   2.0000      -1.340274       -36.4707
  28   2.0000      -1.238831       -33.7103
  29   2.0000      -1.158415       -31.5221
  30   2.0000      -1.120647       -30.4944
  31   2.0000      -1.043541       -28.3962
  32   2.0000      -1.039267       -28.2799
  33   2.0000      -1.016101       -27.6495
  34   2.0000      -0.995993       -27.1023
  35   2.0000      -0.984652       -26.7937
  36   2.0000      -0.922986       -25.1157
  37   2.0000      -0.886790       -24.1308
  38   2.0000      -0.847062       -23.0497
  39   2.0000      -0.838116       -22.8063
  40   2.0000      -0.834787       -22.7157
  41   2.0000      -0.819038       -22.2872
  42   2.0000      -0.764519       -20.8036
  43   2.0000      -0.733148       -19.9500
  44   2.0000      -0.722237       -19.6531
  45   2.0000      -0.696449       -18.9513
  46   2.0000      -0.686863       -18.6905
  47   2.0000      -0.678808       -18.4713
  48   2.0000      -0.676633       -18.4121
  49   2.0000      -0.660984       -17.9863
  50   2.0000      -0.646588       -17.5946
  51   2.0000      -0.644999       -17.5513
  52   2.0000      -0.636120       -17.3097
  53   2.0000      -0.607905       -16.5419
  54   2.0000      -0.603183       -16.4134
  55   2.0000      -0.600355       -16.3365
  56   2.0000      -0.597942       -16.2708
  57   2.0000      -0.578348       -15.7376
  58   2.0000      -0.571034       -15.5386
  59   2.0000      -0.565976       -15.4010
  60   2.0000      -0.560558       -15.2535
  61   2.0000      -0.545000       -14.8302
  62   2.0000      -0.539983       -14.6937
  63   2.0000      -0.525883       -14.3100
  64   2.0000      -0.521584       -14.1930
  65   2.0000      -0.513766       -13.9803
  66   2.0000      -0.504290       -13.7224
  67   2.0000      -0.499312       -13.5870
  68   2.0000      -0.486073       -13.2267
  69   2.0000      -0.466042       -12.6816
  70   2.0000      -0.458145       -12.4668
  71   2.0000      -0.446055       -12.1378
  72   2.0000      -0.354418        -9.6442
  73   2.0000      -0.350256        -9.5309
  74   2.0000      -0.328542        -8.9401
  75   2.0000      -0.322167        -8.7666
  76   2.0000      -0.316382        -8.6092
  77   0.0000       0.074935         2.0391
  78   0.0000       0.104772         2.8510
  79   0.0000       0.124932         3.3996
  80   0.0000       0.131741         3.5849
  81   0.0000       0.136944         3.7264

MULLIKEN ATOMIC CHARGES
-----------------------
   0 C :   -0.267681
   1 C :    0.025568
   2 O :   -0.355024
   3 C :    0.458834
   4 O :   -0.426303
   5 C :   -0.231310
   6 C :    0.154816
   7 C :   -0.271930
   8 N :   -0.122449
   9 C :    0.211978
  10 S :   -0.439653
  11 N :   -0.205111
  12 C :    0.060514
  13 C :    0.059752
  14 C :   -0.193572
  15 C :   -0.127407
  16 C :   -0.279880
  17 C :    0.315667
  18 O :   -0.356110
  19 C :   -0.268213
  20 H :    0.090339
  21 H :    0.097746
  22 H :    0.093709
  23 H :    0.122953
  24 H :    0.098757
  25 H :    0.132766
  26 H :    0.130187
  27 H :    0.095150
  28 H :    0.197561
  29 H :    0.194841
  30 H :    0.149839
  31 H :    0.154964
  32 H :    0.161462
  33 H :    0.130808
  34 H :    0.240836
  35 H :    0.165596
Sum of atomic charges:   -0.0000000

LOEWDIN ATOMIC CHARGES
----------------------
   0 C :    0.107231
   1 C :   -0.016328
   2 O :    0.306435
   3 C :   -0.414628
   4 O :    0.099910
   5 C :   -0.095687
   6 C :   -0.059077
   7 C :    0.131628
   8 N :    0.406614
   9 C :   -0.456225
  10 S :   -0.035200
  11 N :    0.396315
  12 C :   -0.052266
  13 C :   -0.038273
  14 C :    0.014350
  15 C :    0.038663
  16 C :   -0.002079
  17 C :   -0.189617
  18 O :    0.395505
  19 C :    0.031404
  20 H :   -0.031358
  21 H :   -0.026379
  22 H :   -0.024634
  23 H :   -0.027343
  24 H :   -0.029397
  25 H :   -0.004405
  26 H :   -0.004019
  27 H :   -0.023338
  28 H :   -0.057511
  29 H :   -0.064640
  30 H :   -0.010479
  31 H :   -0.030950
  32 H :   -0.021426
  33 H :   -0.035445
  34 H :   -0.153777
  35 H :   -0.023575

  Mayer bond orders larger than 0.100000
B(  0-C ,  1-C ) :   0.9726 B(  0-C , 20-H ) :   0.9781 B(  0-C , 21-H ) :   0.9771
B(  0-C , 22-H ) :   0.9779 B(  1-C ,  2-O ) :   0.8863 B(  1-C , 23-H ) :   0.9802
B(  1-C , 24-H ) :   0.9714 B(  2-O ,  3-C ) :   1.1604 B(  3-C ,  4-O ) :   1.9892
B(  3-C ,  5-C ) :   1.0551 B(  5-C ,  6-C ) :   1.6550 B(  5-C , 12-C ) :   0.9731
B(  6-C ,  7-C ) :   0.9670 B(  6-C ,  8-N ) :   1.1623 B(  7-C , 25-H ) :   0.9594
B(  7-C , 26-H ) :   0.9612 B(  7-C , 27-H ) :   0.9905 B(  8-N ,  9-C ) :   1.1832
B(  8-N , 28-H ) :   0.9478 B(  9-C , 10-S ) :   1.6074 B(  9-C , 11-N ) :   1.3053
B( 11-N , 12-C ) :   0.9853 B( 11-N , 29-H ) :   0.9517 B( 12-C , 13-C ) :   0.9348
B( 12-C , 30-H ) :   1.0028 B( 13-C , 14-C ) :   1.3602 B( 13-C , 19-C ) :   1.3822
B( 14-C , 15-C ) :   1.3864 B( 14-C , 31-H ) :   0.9698 B( 15-C , 16-C ) :   1.3651
B( 15-C , 32-H ) :   0.9700 B( 16-C , 17-C ) :   1.3312 B( 16-C , 33-H ) :   0.9846
B( 17-C , 18-O ) :   1.1109 B( 17-C , 19-C ) :   1.3719 B( 18-O , 34-H ) :   0.9797
B( 19-C , 35-H ) :   0.9581

MP2 TOTAL ENERGY:    -1274.347763367 Eh
FINAL SINGLE POINT ENERGY     -1274.347763367305

DIPOLE MOMENT
-------------
                                X             Y             Z
Electronic contribution:      8.70641      11.32125       7.75790
Nuclear contribution   :     -9.84149     -12.91131      -8.08497
                        -----------------------------------------
Total Dipole Moment    :     -1.13508      -1.59007      -0.32707
                        -----------------------------------------
Magnitude (a.u.)       :      1.98083
Magnitude (Debye)      :      5.03488

Rotational constants in cm-1:     0.012078     0.008439     0.006236
Rotational constants in MHz :   362.079425   253.007557   186.951280

                             ****ORCA TERMINATED NORMALLY****
TOTAL RUN TIME: 0 days 2 hours 2 minutes 16 seconds 603 msec
