                         Program Version 5.0.0 -  RELEASE  -
|  1> ! ri-mp2 cc-pvtz cc-pvtz/c TightSCF NoKeepInts
|  2>
|  3> %scf
|  4>   MaxCore 4096
|  5> end
|  6> *xyz  0  1
|  7>     C       15.2474841   15.2676056   17.3419403
|  8>     C       15.6019507   15.2235834   15.8400051
|  9>     O       16.9781877   15.5496903   15.5169937
| 10>     C       17.9947845   15.6864530   16.4238664
| 11>     O       18.7927255   14.7793772   16.5765828
| 12>     C       17.9169124   16.8451880   17.3788078
| 13>     C       17.3241221   18.0323859   17.0900584
| 14>     C       16.6475119   18.4457390   15.7993310
| 15>     N       17.3866406   19.0824962   18.0111318
| 16>     C       18.1757442   19.0930394   19.1308352
| 17>     S       18.3028420   20.4311965   20.0939297
| 18>     N       18.8543313   17.9339948   19.4107675
| 19>     C       18.6540278   16.6506243   18.7104348
| 20>     C       17.9304022   15.6511474   19.6099009
| 21>     C       18.3890453   14.3243367   19.7064941
| 22>     C       17.7227050   13.3917780   20.5187052
| 23>     C       16.5859432   13.7875630   21.2433813
| 24>     C       16.1243261   15.1072293   21.1504840
| 25>     O       15.0205952   15.4903175   21.8401976
| 26>     C       16.7897526   16.0335085   20.3413674
| 27>     H       15.9097494   14.6125353   17.9214007
| 28>     H       14.2228859   14.9066394   17.4928015
| 29>     H       15.2939974   16.2838275   17.7473063
| 30>     H       15.4074483   14.2036302   15.4829755
| 31>     H       14.9283320   15.8876016   15.2838880
| 32>     H       15.5991517   18.1277486   15.7846559
| 33>     H       17.1514902   18.0120561   14.9266515
| 34>     H       16.6658419   19.5333475   15.6558968
| 35>     H       16.9029187   19.9451923   17.8181882
| 36>     H       19.4130333   17.9594778   20.2543136
| 37>     H       19.6496994   16.2415377   18.4841409
| 38>     H       19.2589904   14.0100275   19.1338406
| 39>     H       18.0858602   12.3672019   20.5783579
| 40>     H       16.0667949   13.0694710   21.8694479
| 41>     H       14.7391252   14.7359113   22.3794637
| 42>     H       16.4116465   17.0485403   20.2854560
| 43> *
| 44>
| 45>                          ****END OF INPUT****

CARTESIAN COORDINATES (ANGSTROEM)
---------------------------------
  C     15.247484   15.267606   17.341940
  C     15.601951   15.223583   15.840005
  O     16.978188   15.549690   15.516994
  C     17.994785   15.686453   16.423866
  O     18.792725   14.779377   16.576583
  C     17.916912   16.845188   17.378808
  C     17.324122   18.032386   17.090058
  C     16.647512   18.445739   15.799331
  N     17.386641   19.082496   18.011132
  C     18.175744   19.093039   19.130835
  S     18.302842   20.431196   20.093930
  N     18.854331   17.933995   19.410767
  C     18.654028   16.650624   18.710435
  C     17.930402   15.651147   19.609901
  C     18.389045   14.324337   19.706494
  C     17.722705   13.391778   20.518705
  C     16.585943   13.787563   21.243381
  C     16.124326   15.107229   21.150484
  O     15.020595   15.490317   21.840198
  C     16.789753   16.033508   20.341367
  H     15.909749   14.612535   17.921401
  H     14.222886   14.906639   17.492801
  H     15.293997   16.283828   17.747306
  H     15.407448   14.203630   15.482975
  H     14.928332   15.887602   15.283888
  H     15.599152   18.127749   15.784656
  H     17.151490   18.012056   14.926652
  H     16.665842   19.533348   15.655897
  H     16.902919   19.945192   17.818188
  H     19.413033   17.959478   20.254314
  H     19.649699   16.241538   18.484141
  H     19.258990   14.010027   19.133841
  H     18.085860   12.367202   20.578358
  H     16.066795   13.069471   21.869448
  H     14.739125   14.735911   22.379464
  H     16.411646   17.048540   20.285456

 Total Charge           Charge          ....    0
 Multiplicity           Mult            ....    1
 Number of Electrons    NEL             ....  154
 Basis Dimension        Dim             ....  828

ORBITAL ENERGIES
----------------

  NO   OCC          E(Eh)            E(eV)
   0   2.0000     -91.891162     -2500.4856
   1   2.0000     -20.596313      -560.4542
   2   2.0000     -20.585079      -560.1485
   3   2.0000     -20.550947      -559.2197
   4   2.0000     -15.631401      -425.3521
   5   2.0000     -15.609734      -424.7624
   6   2.0000     -11.396611      -310.1176
   7   2.0000     -11.386299      -309.8370
   8   2.0000     -11.338029      -308.5235
   9   2.0000     -11.312456      -307.8276
  10   2.0000     -11.310028      -307.7615
  11   2.0000     -11.309400      -307.7444
  12   2.0000     -11.264984      -306.5358
  13   2.0000     -11.263656      -306.4997
  14   2.0000     -11.258347      -306.3552
  15   2.0000     -11.252704      -306.2016
  16   2.0000     -11.242442      -305.9224
  17   2.0000     -11.237816      -305.7965
  18   2.0000     -11.234474      -305.7056
  19   2.0000     -11.233480      -305.6785
  20   2.0000      -8.896221      -242.0785
  21   2.0000      -6.577796      -178.9909
  22   2.0000      -6.575788      -178.9363
  23   2.0000      -6.575199      -178.9203
  24   2.0000      -1.443705       -39.2852
  25   2.0000      -1.416133       -38.5349
  26   2.0000      -1.354057       -36.8458
  27   2.0000      -1.342758       -36.5383
  28   2.0000      -1.240290       -33.7500
  29   2.0000      -1.156861       -31.4798
  30   2.0000      -1.122660       -30.5491
  31   2.0000      -1.045116       -28.4390
  32   2.0000      -1.037073       -28.2202
  33   2.0000      -1.014820       -27.6146
  34   2.0000      -1.003694       -27.3119
  35   2.0000      -0.988853       -26.9081
  36   2.0000      -0.926351       -25.2073
  37   2.0000      -0.898966       -24.4621
  38   2.0000      -0.852691       -23.2029
  39   2.0000      -0.840392       -22.8682
  40   2.0000      -0.832851       -22.6630
  41   2.0000      -0.822537       -22.3824
  42   2.0000      -0.745184       -20.2775
  43   2.0000      -0.731254       -19.8984
  44   2.0000      -0.728741       -19.8301
  45   2.0000      -0.694058       -18.8863
  46   2.0000      -0.687643       -18.7117
  47   2.0000      -0.677889       -18.4463
  48   2.0000      -0.674212       -18.3462
  49   2.0000      -0.662932       -18.0393
  50   2.0000      -0.652348       -17.7513
  51   2.0000      -0.651220       -17.7206
  52   2.0000      -0.641767       -17.4634
  53   2.0000      -0.622597       -16.9417
  54   2.0000      -0.605631       -16.4801
  55   2.0000      -0.604203       -16.4412
  56   2.0000      -0.600571       -16.3424
  57   2.0000      -0.584007       -15.8916
  58   2.0000      -0.575713       -15.6659
  59   2.0000      -0.564233       -15.3536
  60   2.0000      -0.558700       -15.2030
  61   2.0000      -0.549480       -14.9521
  62   2.0000      -0.544189       -14.8081
  63   2.0000      -0.534163       -14.5353
  64   2.0000      -0.521488       -14.1904
  65   2.0000      -0.513057       -13.9610
  66   2.0000      -0.500142       -13.6096
  67   2.0000      -0.489039       -13.3074
  68   2.0000      -0.484451       -13.1826
  69   2.0000      -0.470710       -12.8087
  70   2.0000      -0.456038       -12.4094
  71   2.0000      -0.447846       -12.1865
  72   2.0000      -0.357032        -9.7153
  73   2.0000      -0.347514        -9.4563
  74   2.0000      -0.330329        -8.9887
  75   2.0000      -0.321093        -8.7374
  76   2.0000      -0.318352        -8.6628
  77   0.0000       0.070911         1.9296
  78   0.0000       0.107828         2.9341
  79   0.0000       0.117166         3.1882
  80   0.0000       0.131830         3.5873
  81   0.0000       0.135061         3.6752

MULLIKEN ATOMIC CHARGES
-----------------------
   0 C :   -0.349710
   1 C :    0.038595
   2 O :   -0.373549
   3 C :    0.470893
   4 O :   -0.388249
   5 C :   -0.220138
   6 C :    0.146649
   7 C :   -0.316407
   8 N :   -0.126939
   9 C :    0.189748
  10 S :   -0.435456
  11 N :   -0.203189
  12 C :    0.052399
  13 C :    0.032038
  14 C :   -0.182176
  15 C :   -0.134949
  16 C :   -0.279498
  17 C :    0.314910
  18 O :   -0.359555
  19 C :   -0.270523
  20 H :    0.132124
  21 H :    0.124787
  22 H :    0.107984
  23 H :    0.122769
  24 H :    0.098619
  25 H :    0.116212
  26 H :    0.144933
  27 H :    0.118792
  28 H :    0.197823
  29 H :    0.195440
  30 H :    0.160695
  31 H :    0.167192
  32 H :    0.162435
  33 H :    0.131243
  34 H :    0.240892
  35 H :    0.173164
Sum of atomic charges:   -0.0000000

LOEWDIN ATOMIC CHARGES
----------------------
   0 C :    0.104667
   1 C :   -0.015116
   2 O :    0.280753
   3 C :   -0.420440
   4 O :    0.125867
   5 C :   -0.090958
   6 C :   -0.074774
   7 C :    0.128305
   8 N :    0.405032
   9 C :   -0.460315
  10 S :   -0.033752
  11 N :    0.397877
  12 C :   -0.045129
  13 C :   -0.042466
  14 C :    0.020211
  15 C :    0.041371
  16 C :   -0.002217
  17 C :   -0.194167
  18 O :    0.394310
  19 C :    0.029942
  20 H :   -0.018974
  21 H :   -0.020617
  22 H :   -0.034829
  23 H :   -0.022717
  24 H :   -0.032146
  25 H :   -0.016040
  26 H :   -0.005564
  27 H :   -0.016012
  28 H :   -0.058259
  29 H :   -0.063316
  30 H :   -0.002780
  31 H :   -0.023041
  32 H :   -0.019621
  33 H :   -0.035399
  34 H :   -0.153948
  35 H :   -0.025741

  Mayer bond orders larger than 0.100000
B(  0-C ,  1-C ) :   0.9636 B(  0-C , 20-H ) :   0.9654 B(  0-C , 21-H ) :   0.9752
B(  0-C , 22-H ) :   0.9696 B(  1-C ,  2-O ) :   0.8921 B(  1-C , 23-H ) :   0.9830
B(  1-C , 24-H ) :   0.9792 B(  2-O ,  3-C ) :   1.1201 B(  3-C ,  4-O ) :   2.0593
B(  3-C ,  5-C ) :   0.9812 B(  5-C ,  6-C ) :   1.6658 B(  5-C , 12-C ) :   0.9622
B(  6-C ,  7-C ) :   0.9491 B(  6-C ,  8-N ) :   1.1295 B(  7-C , 25-H ) :   0.9650
B(  7-C , 26-H ) :   0.9661 B(  7-C , 27-H ) :   0.9875 B(  8-N ,  9-C ) :   1.1804
B(  8-N , 28-H ) :   0.9494 B(  9-C , 10-S ) :   1.6159 B(  9-C , 11-N ) :   1.2980
B( 11-N , 12-C ) :   0.9871 B( 11-N , 29-H ) :   0.9518 B( 12-C , 13-C ) :   0.9467
B( 12-C , 30-H ) :   0.9984 B( 13-C , 14-C ) :   1.3882 B( 13-C , 19-C ) :   1.3481
B( 14-C , 15-C ) :   1.3961 B( 14-C , 31-H ) :   0.9595 B( 15-C , 16-C ) :   1.3616
B( 15-C , 32-H ) :   0.9708 B( 16-C , 17-C ) :   1.3299 B( 16-C , 33-H ) :   0.9849
B( 17-C , 18-O ) :   1.1103 B( 17-C , 19-C ) :   1.3751 B( 18-O , 34-H ) :   0.9800
B( 19-C , 35-H ) :   0.9581

MP2 TOTAL ENERGY:    -1274.327490456 Eh
FINAL SINGLE POINT ENERGY     -1274.327490456414

DIPOLE MOMENT
-------------
                                X             Y             Z
Electronic contribution:      9.58481       7.08800       6.26812
Nuclear contribution   :    -11.11557      -8.13828      -6.84882
                        -----------------------------------------
Total Dipole Moment    :     -1.53076      -1.05029      -0.58070
                        -----------------------------------------
Magnitude (a.u.)       :      1.94513
Magnitude (Debye)      :      4.94413

Rotational constants in cm-1:     0.011361     0.009912     0.006827
Rotational constants in MHz :   340.584837   297.167696   204.655921

                             ****ORCA TERMINATED NORMALLY****
TOTAL RUN TIME: 0 days 2 hours 10 minutes 58 seconds 88 msec
