                         Program Version 5.0.0 -  RELEASE  -
|  1> ! ri-mp2 cc-pvtz cc-pvtz/c TightSCF NoKeepInts
|  2>
|  3> %scf
|  4>   MaxCore 4096
|  5> end
|  6> *xyz  0  1
|  7>     C       14.7266042   14.5363788   16.7436887
|  8>     C       15.6768437   14.7922539   15.5593329
|  9>     O       16.4386211   15.9761860   15.8568063
| 10>     C       17.6121881   15.8644919   16.5463077
| 11>     O       18.2174296   14.8085711   16.6365941
| 12>     C       17.8740091   17.0151549   17.4728938
| 13>     C       17.3925355   18.2730716   17.2989242
| 14>     C       16.5469040   18.7939696   16.1551549
| 15>     N       17.7332929   19.2789264   18.2090381
| 16>     C       18.6423460   19.1421174   19.2248576
| 17>     S       19.0724357   20.4170107   20.1868208
| 18>     N       19.1778313   17.8915792   19.4027045
| 19>     C       18.7422230   16.6765464   18.6888625
| 20>     C       18.0002346   15.7364393   19.6352917
| 21>     C       18.4276273   14.4059287   19.7993966
| 22>     C       17.7385976   13.5328214   20.6577715
| 23>     C       16.6107939   13.9928139   21.3585587
| 24>     C       16.1793840   15.3161138   21.1949117
| 25>     O       15.0858508   15.7610365   21.8638582
| 26>     C       16.8673192   16.1827781   20.3400137
| 27>     H       15.2965752   14.3283848   17.6588513
| 28>     H       14.0825420   13.6724315   16.5401483
| 29>     H       14.0864627   15.4085479   16.9251813
| 30>     H       16.3208663   13.9215430   15.3741598
| 31>     H       15.0765995   14.9665517   14.6572342
| 32>     H       16.9464576   18.4594167   15.1897030
| 33>     H       16.5084856   19.8895836   16.1234578
| 34>     H       15.5161981   18.4271299   16.2387227
| 35>     H       17.3505041   20.2039518   18.0959127
| 36>     H       19.8212442   17.8102281   20.1794258
| 37>     H       19.6432826   16.1616810   18.3252937
| 38>     H       19.2876875   14.0421467   19.2425057
| 39>     H       18.0759390   12.5040999   20.7707640
| 40>     H       16.0743099   13.3210948   22.0202970
| 41>     H       14.7792497   15.0376669   22.4309088
| 42>     H       16.5175242   17.2033519   20.2296457
| 43> *
| 44>
| 45>                          ****END OF INPUT****

CARTESIAN COORDINATES (ANGSTROEM)
---------------------------------
  C     14.726604   14.536379   16.743689
  C     15.676844   14.792254   15.559333
  O     16.438621   15.976186   15.856806
  C     17.612188   15.864492   16.546308
  O     18.217430   14.808571   16.636594
  C     17.874009   17.015155   17.472894
  C     17.392536   18.273072   17.298924
  C     16.546904   18.793970   16.155155
  N     17.733293   19.278926   18.209038
  C     18.642346   19.142117   19.224858
  S     19.072436   20.417011   20.186821
  N     19.177831   17.891579   19.402704
  C     18.742223   16.676546   18.688862
  C     18.000235   15.736439   19.635292
  C     18.427627   14.405929   19.799397
  C     17.738598   13.532821   20.657771
  C     16.610794   13.992814   21.358559
  C     16.179384   15.316114   21.194912
  O     15.085851   15.761036   21.863858
  C     16.867319   16.182778   20.340014
  H     15.296575   14.328385   17.658851
  H     14.082542   13.672432   16.540148
  H     14.086463   15.408548   16.925181
  H     16.320866   13.921543   15.374160
  H     15.076599   14.966552   14.657234
  H     16.946458   18.459417   15.189703
  H     16.508486   19.889584   16.123458
  H     15.516198   18.427130   16.238723
  H     17.350504   20.203952   18.095913
  H     19.821244   17.810228   20.179426
  H     19.643283   16.161681   18.325294
  H     19.287688   14.042147   19.242506
  H     18.075939   12.504100   20.770764
  H     16.074310   13.321095   22.020297
  H     14.779250   15.037667   22.430909
  H     16.517524   17.203352   20.229646

 Total Charge           Charge          ....    0
 Multiplicity           Mult            ....    1
 Number of Electrons    NEL             ....  154
 Basis Dimension        Dim             ....  828

ORBITAL ENERGIES
----------------

  NO   OCC          E(Eh)            E(eV)
   0   2.0000     -91.888043     -2500.4008
   1   2.0000     -20.600033      -560.5554
   2   2.0000     -20.593236      -560.3704
   3   2.0000     -20.547764      -559.1331
   4   2.0000     -15.627931      -425.2576
   5   2.0000     -15.607155      -424.6923
   6   2.0000     -11.396077      -310.1030
   7   2.0000     -11.383230      -309.7534
   8   2.0000     -11.334648      -308.4314
   9   2.0000     -11.309269      -307.7408
  10   2.0000     -11.306600      -307.6682
  11   2.0000     -11.297815      -307.4292
  12   2.0000     -11.259917      -306.3979
  13   2.0000     -11.258881      -306.3697
  14   2.0000     -11.254918      -306.2619
  15   2.0000     -11.249486      -306.1141
  16   2.0000     -11.239153      -305.8329
  17   2.0000     -11.235025      -305.7206
  18   2.0000     -11.232258      -305.6453
  19   2.0000     -11.227211      -305.5079
  20   2.0000      -8.893111      -241.9939
  21   2.0000      -6.574690      -178.9064
  22   2.0000      -6.572681      -178.8518
  23   2.0000      -6.572097      -178.8359
  24   2.0000      -1.453710       -39.5574
  25   2.0000      -1.413001       -38.4497
  26   2.0000      -1.357419       -36.9372
  27   2.0000      -1.339031       -36.4369
  28   2.0000      -1.237021       -33.6610
  29   2.0000      -1.153816       -31.3969
  30   2.0000      -1.120217       -30.4826
  31   2.0000      -1.043069       -28.3833
  32   2.0000      -1.034257       -28.1436
  33   2.0000      -1.011042       -27.5119
  34   2.0000      -0.998057       -27.1585
  35   2.0000      -0.983559       -26.7640
  36   2.0000      -0.921985       -25.0885
  37   2.0000      -0.892274       -24.2800
  38   2.0000      -0.847295       -23.0561
  39   2.0000      -0.835859       -22.7449
  40   2.0000      -0.829540       -22.5729
  41   2.0000      -0.814796       -22.1717
  42   2.0000      -0.756210       -20.5775
  43   2.0000      -0.736428       -20.0392
  44   2.0000      -0.725982       -19.7550
  45   2.0000      -0.691974       -18.8296
  46   2.0000      -0.685465       -18.6525
  47   2.0000      -0.679123       -18.4799
  48   2.0000      -0.672417       -18.2974
  49   2.0000      -0.658858       -17.9284
  50   2.0000      -0.650170       -17.6920
  51   2.0000      -0.644825       -17.5466
  52   2.0000      -0.633297       -17.2329
  53   2.0000      -0.606296       -16.4982
  54   2.0000      -0.601120       -16.3573
  55   2.0000      -0.599582       -16.3155
  56   2.0000      -0.596644       -16.2355
  57   2.0000      -0.580782       -15.8039
  58   2.0000      -0.574903       -15.6439
  59   2.0000      -0.562544       -15.3076
  60   2.0000      -0.557053       -15.1582
  61   2.0000      -0.553158       -15.0522
  62   2.0000      -0.535659       -14.5760
  63   2.0000      -0.529791       -14.4164
  64   2.0000      -0.518534       -14.1100
  65   2.0000      -0.509917       -13.8756
  66   2.0000      -0.497665       -13.5422
  67   2.0000      -0.494939       -13.4680
  68   2.0000      -0.482146       -13.1198
  69   2.0000      -0.463727       -12.6187
  70   2.0000      -0.459769       -12.5109
  71   2.0000      -0.451552       -12.2874
  72   2.0000      -0.353871        -9.6293
  73   2.0000      -0.345549        -9.4029
  74   2.0000      -0.327268        -8.9054
  75   2.0000      -0.316568        -8.6143
  76   2.0000      -0.314835        -8.5671
  77   0.0000       0.075926         2.0660
  78   0.0000       0.110578         3.0090
  79   0.0000       0.119597         3.2544
  80   0.0000       0.134309         3.6547
  81   0.0000       0.142764         3.8848

MULLIKEN ATOMIC CHARGES
-----------------------
   0 C :   -0.283821
   1 C :    0.021605
   2 O :   -0.354192
   3 C :    0.434632
   4 O :   -0.421316
   5 C :   -0.165050
   6 C :    0.140019
   7 C :   -0.284707
   8 N :   -0.123933
   9 C :    0.204203
  10 S :   -0.440130
  11 N :   -0.199822
  12 C :    0.048313
  13 C :    0.046273
  14 C :   -0.159098
  15 C :   -0.134364
  16 C :   -0.280827
  17 C :    0.312802
  18 O :   -0.359247
  19 C :   -0.274180
  20 H :    0.116835
  21 H :    0.095500
  22 H :    0.091280
  23 H :    0.117143
  24 H :    0.103841
  25 H :    0.125389
  26 H :    0.101963
  27 H :    0.127055
  28 H :    0.196921
  29 H :    0.194097
  30 H :    0.153845
  31 H :    0.154327
  32 H :    0.159747
  33 H :    0.129297
  34 H :    0.240283
  35 H :    0.165317
Sum of atomic charges:   -0.0000000

LOEWDIN ATOMIC CHARGES
----------------------
   0 C :    0.105321
   1 C :   -0.017436
   2 O :    0.304744
   3 C :   -0.414179
   4 O :    0.107382
   5 C :   -0.091311
   6 C :   -0.069384
   7 C :    0.125456
   8 N :    0.404421
   9 C :   -0.457890
  10 S :   -0.036559
  11 N :    0.397603
  12 C :   -0.045859
  13 C :   -0.039989
  14 C :    0.021740
  15 C :    0.040693
  16 C :   -0.002590
  17 C :   -0.193196
  18 O :    0.393452
  19 C :    0.028938
  20 H :   -0.022322
  21 H :   -0.026345
  22 H :   -0.029106
  23 H :   -0.027534
  24 H :   -0.027612
  25 H :   -0.008326
  26 H :   -0.020553
  27 H :   -0.010213
  28 H :   -0.059026
  29 H :   -0.063847
  30 H :   -0.005032
  31 H :   -0.025080
  32 H :   -0.020920
  33 H :   -0.036093
  34 H :   -0.154667
  35 H :   -0.024676

  Mayer bond orders larger than 0.100000
B(  0-C ,  1-C ) :   0.9657 B(  0-C , 20-H ) :   0.9729 B(  0-C , 21-H ) :   0.9761
B(  0-C , 22-H ) :   0.9785 B(  1-C ,  2-O ) :   0.8896 B(  1-C , 23-H ) :   0.9750
B(  1-C , 24-H ) :   0.9843 B(  2-O ,  3-C ) :   1.1426 B(  3-C ,  4-O ) :   1.9948
B(  3-C ,  5-C ) :   1.0351 B(  5-C ,  6-C ) :   1.6560 B(  5-C , 12-C ) :   0.9656
B(  6-C ,  7-C ) :   0.9543 B(  6-C ,  8-N ) :   1.1432 B(  7-C , 25-H ) :   0.9680
B(  7-C , 26-H ) :   0.9899 B(  7-C , 27-H ) :   0.9630 B(  8-N ,  9-C ) :   1.1818
B(  8-N , 28-H ) :   0.9492 B(  9-C , 10-S ) :   1.6098 B(  9-C , 11-N ) :   1.3025
B( 11-N , 12-C ) :   0.9930 B( 11-N , 29-H ) :   0.9518 B( 12-C , 13-C ) :   0.9437
B( 12-C , 30-H ) :   0.9993 B( 13-C , 14-C ) :   1.3767 B( 13-C , 19-C ) :   1.3708
B( 14-C , 15-C ) :   1.3945 B( 14-C , 31-H ) :   0.9644 B( 15-C , 16-C ) :   1.3626
B( 15-C , 32-H ) :   0.9714 B( 16-C , 17-C ) :   1.3308 B( 16-C , 33-H ) :   0.9855
B( 17-C , 18-O ) :   1.1085 B( 17-C , 19-C ) :   1.3772 B( 18-O , 34-H ) :   0.9804
B( 19-C , 35-H ) :   0.9585

MP2 TOTAL ENERGY:    -1274.344479742 Eh
FINAL SINGLE POINT ENERGY     -1274.344479742122

DIPOLE MOMENT
-------------
                                X             Y             Z
Electronic contribution:     10.85579       9.36330       7.72508
Nuclear contribution   :    -12.28270     -10.66340      -8.69572
                        -----------------------------------------
Total Dipole Moment    :     -1.42690      -1.30011      -0.97064
                        -----------------------------------------
Magnitude (a.u.)       :      2.16067
Magnitude (Debye)      :      5.49198

Rotational constants in cm-1:     0.011350     0.009211     0.006393
Rotational constants in MHz :   340.254753   276.143684   191.651557

                             ****ORCA TERMINATED NORMALLY****
TOTAL RUN TIME: 0 days 2 hours 6 minutes 54 seconds 12 msec
