                         Program Version 5.0.0 -  RELEASE  -
|  1> ! ri-mp2 cc-pvtz cc-pvtz/c TightSCF NoKeepInts
|  2>
|  3> %scf
|  4>   MaxCore 4096
|  5> end
|  6> *xyz  0  1
|  7>     C       14.6464203   16.0393981   16.5493930
|  8>     C       15.5711419   14.9916163   17.1957455
|  9>     O       16.8110735   14.8592156   16.4675638
| 10>     C       17.8461006   15.7608020   16.4233256
| 11>     O       18.8992194   15.4430321   15.9046915
| 12>     C       17.8133079   16.8798669   17.4059508
| 13>     C       17.3727882   18.1064591   17.0473632
| 14>     C       16.8208909   18.5120158   15.6971827
| 15>     N       17.4889549   19.1778648   17.9347476
| 16>     C       18.1313762   19.1212749   19.1439467
| 17>     S       18.2521002   20.4450102   20.1274228
| 18>     N       18.6728264   17.9102555   19.4996208
| 19>     C       18.5564323   16.6567490   18.7267808
| 20>     C       17.9550847   15.5303219   19.5619854
| 21>     C       18.3959138   14.2079871   19.3685135
| 22>     C       17.8451163   13.1521366   20.1132149
| 23>     C       16.8446517   13.4188632   21.0628890
| 24>     C       16.4013677   14.7334101   21.2595042
| 25>     O       15.4272267   14.9927628   22.1670979
| 26>     C       16.9489470   15.7831798   20.5147984
| 27>     H       14.8629550   17.0445797   16.9219504
| 28>     H       13.6017753   15.8217176   16.8038267
| 29>     H       14.7362806   16.0262677   15.4559333
| 30>     H       15.7360625   15.2308432   18.2502666
| 31>     H       15.0605531   14.0204152   17.1626175
| 32>     H       16.6596988   17.6541440   15.0335057
| 33>     H       17.5212741   19.1834463   15.1840437
| 34>     H       15.8625498   19.0361457   15.7975030
| 35>     H       17.1252987   20.0823801   17.6785143
| 36>     H       19.1327376   17.8974785   20.4013987
| 37>     H       19.5785676   16.3472279   18.4618614
| 38>     H       19.1619858   13.9960637   18.6250358
| 39>     H       18.1929813   12.1332645   19.9499398
| 40>     H       16.4162411   12.6055297   21.6395673
| 41>     H       15.2172143   14.1599327   22.6164630
| 42>     H       16.5798837   16.7903418   20.6798344
| 43> *
| 44>
| 45>                          ****END OF INPUT****

CARTESIAN COORDINATES (ANGSTROEM)
---------------------------------
  C     14.646420   16.039398   16.549393
  C     15.571142   14.991616   17.195745
  O     16.811073   14.859216   16.467564
  C     17.846101   15.760802   16.423326
  O     18.899219   15.443032   15.904691
  C     17.813308   16.879867   17.405951
  C     17.372788   18.106459   17.047363
  C     16.820891   18.512016   15.697183
  N     17.488955   19.177865   17.934748
  C     18.131376   19.121275   19.143947
  S     18.252100   20.445010   20.127423
  N     18.672826   17.910256   19.499621
  C     18.556432   16.656749   18.726781
  C     17.955085   15.530322   19.561985
  C     18.395914   14.207987   19.368513
  C     17.845116   13.152137   20.113215
  C     16.844652   13.418863   21.062889
  C     16.401368   14.733410   21.259504
  O     15.427227   14.992763   22.167098
  C     16.948947   15.783180   20.514798
  H     14.862955   17.044580   16.921950
  H     13.601775   15.821718   16.803827
  H     14.736281   16.026268   15.455933
  H     15.736062   15.230843   18.250267
  H     15.060553   14.020415   17.162617
  H     16.659699   17.654144   15.033506
  H     17.521274   19.183446   15.184044
  H     15.862550   19.036146   15.797503
  H     17.125299   20.082380   17.678514
  H     19.132738   17.897478   20.401399
  H     19.578568   16.347228   18.461861
  H     19.161986   13.996064   18.625036
  H     18.192981   12.133264   19.949940
  H     16.416241   12.605530   21.639567
  H     15.217214   14.159933   22.616463
  H     16.579884   16.790342   20.679834

 Total Charge           Charge          ....    0
 Multiplicity           Mult            ....    1
 Number of Electrons    NEL             ....  154
 Basis Dimension        Dim             ....  828

ORBITAL ENERGIES
----------------

  NO   OCC          E(Eh)            E(eV)
   0   2.0000     -91.889197     -2500.4322
   1   2.0000     -20.602559      -560.6241
   2   2.0000     -20.599755      -560.5478
   3   2.0000     -20.552428      -559.2600
   4   2.0000     -15.624100      -425.1534
   5   2.0000     -15.612321      -424.8329
   6   2.0000     -11.398836      -310.1781
   7   2.0000     -11.386214      -309.8346
   8   2.0000     -11.324759      -308.1623
   9   2.0000     -11.320354      -308.0425
  10   2.0000     -11.319162      -308.0101
  11   2.0000     -11.302420      -307.5545
  12   2.0000     -11.268129      -306.6214
  13   2.0000     -11.265855      -306.5595
  14   2.0000     -11.264250      -306.5158
  15   2.0000     -11.260996      -306.4273
  16   2.0000     -11.249395      -306.1116
  17   2.0000     -11.245059      -305.9936
  18   2.0000     -11.243117      -305.9408
  19   2.0000     -11.235882      -305.7439
  20   2.0000      -8.894325      -242.0269
  21   2.0000      -6.575920      -178.9399
  22   2.0000      -6.573886      -178.8845
  23   2.0000      -6.573318      -178.8691
  24   2.0000      -1.447209       -39.3806
  25   2.0000      -1.422376       -38.7048
  26   2.0000      -1.359731       -37.0002
  27   2.0000      -1.338910       -36.4336
  28   2.0000      -1.239852       -33.7381
  29   2.0000      -1.164210       -31.6798
  30   2.0000      -1.125774       -30.6339
  31   2.0000      -1.050640       -28.5894
  32   2.0000      -1.039982       -28.2993
  33   2.0000      -1.022372       -27.8202
  34   2.0000      -1.005200       -27.3529
  35   2.0000      -0.989945       -26.9378
  36   2.0000      -0.928743       -25.2724
  37   2.0000      -0.897358       -24.4183
  38   2.0000      -0.852604       -23.2005
  39   2.0000      -0.842730       -22.9318
  40   2.0000      -0.839332       -22.8394
  41   2.0000      -0.834759       -22.7149
  42   2.0000      -0.753713       -20.5096
  43   2.0000      -0.735825       -20.0228
  44   2.0000      -0.728348       -19.8194
  45   2.0000      -0.700044       -19.0492
  46   2.0000      -0.691573       -18.8186
  47   2.0000      -0.680080       -18.5059
  48   2.0000      -0.677520       -18.4363
  49   2.0000      -0.666105       -18.1256
  50   2.0000      -0.654991       -17.8232
  51   2.0000      -0.641142       -17.4464
  52   2.0000      -0.638993       -17.3879
  53   2.0000      -0.622953       -16.9514
  54   2.0000      -0.611676       -16.6445
  55   2.0000      -0.608884       -16.5686
  56   2.0000      -0.605671       -16.4811
  57   2.0000      -0.587095       -15.9757
  58   2.0000      -0.579761       -15.7761
  59   2.0000      -0.574015       -15.6197
  60   2.0000      -0.567594       -15.4450
  61   2.0000      -0.556674       -15.1479
  62   2.0000      -0.540670       -14.7124
  63   2.0000      -0.537352       -14.6221
  64   2.0000      -0.524540       -14.2735
  65   2.0000      -0.515792       -14.0354
  66   2.0000      -0.504510       -13.7284
  67   2.0000      -0.501866       -13.6565
  68   2.0000      -0.488777       -13.3003
  69   2.0000      -0.468296       -12.7430
  70   2.0000      -0.452445       -12.3116
  71   2.0000      -0.451159       -12.2767
  72   2.0000      -0.356435        -9.6991
  73   2.0000      -0.353565        -9.6210
  74   2.0000      -0.329284        -8.9603
  75   2.0000      -0.327842        -8.9210
  76   2.0000      -0.318490        -8.6666
  77   0.0000       0.094070         2.5598
  78   0.0000       0.103308         2.8112
  79   0.0000       0.117064         3.1855
  80   0.0000       0.127553         3.4709
  81   0.0000       0.127723         3.4755

MULLIKEN ATOMIC CHARGES
-----------------------
   0 C :   -0.329708
   1 C :    0.041912
   2 O :   -0.319659
   3 C :    0.387214
   4 O :   -0.375647
   5 C :   -0.161571
   6 C :    0.114987
   7 C :   -0.322518
   8 N :   -0.139732
   9 C :    0.213661
  10 S :   -0.444760
  11 N :   -0.232736
  12 C :    0.086853
  13 C :    0.000054
  14 C :   -0.198430
  15 C :   -0.137089
  16 C :   -0.271232
  17 C :    0.311769
  18 O :   -0.355540
  19 C :   -0.258563
  20 H :    0.099642
  21 H :    0.117770
  22 H :    0.109386
  23 H :    0.104332
  24 H :    0.122854
  25 H :    0.117848
  26 H :    0.148884
  27 H :    0.116102
  28 H :    0.195836
  29 H :    0.204680
  30 H :    0.165289
  31 H :    0.165469
  32 H :    0.165479
  33 H :    0.134220
  34 H :    0.241664
  35 H :    0.181278
Sum of atomic charges:    0.0000000

LOEWDIN ATOMIC CHARGES
----------------------
   0 C :    0.103079
   1 C :   -0.017105
   2 O :    0.305663
   3 C :   -0.419595
   4 O :    0.126708
   5 C :   -0.078913
   6 C :   -0.108646
   7 C :    0.124486
   8 N :    0.401302
   9 C :   -0.454868
  10 S :   -0.039988
  11 N :    0.397563
  12 C :   -0.043698
  13 C :   -0.044407
  14 C :    0.021999
  15 C :    0.046712
  16 C :    0.000096
  17 C :   -0.193528
  18 O :    0.396447
  19 C :    0.024729
  20 H :   -0.033475
  21 H :   -0.022386
  22 H :   -0.026551
  23 H :   -0.035115
  24 H :   -0.019327
  25 H :   -0.010546
  26 H :   -0.008251
  27 H :   -0.017492
  28 H :   -0.058056
  29 H :   -0.064196
  30 H :   -0.003030
  31 H :   -0.021600
  32 H :   -0.017470
  33 H :   -0.034000
  34 H :   -0.152403
  35 H :   -0.024140

  Mayer bond orders larger than 0.100000
B(  0-C ,  1-C ) :   0.9541 B(  0-C , 20-H ) :   0.9772 B(  0-C , 21-H ) :   0.9795
B(  0-C , 22-H ) :   0.9748 B(  1-C ,  2-O ) :   0.8990 B(  1-C , 23-H ) :   0.9607
B(  1-C , 24-H ) :   0.9856 B(  2-O ,  3-C ) :   1.1747 B(  3-C ,  4-O ) :   2.1056
B(  3-C ,  5-C ) :   0.8906 B(  5-C ,  6-C ) :   1.7270 B(  5-C , 12-C ) :   0.9510
B(  6-C ,  7-C ) :   0.9525 B(  6-C ,  8-N ) :   1.1005 B(  7-C , 25-H ) :   0.9808
B(  7-C , 26-H ) :   0.9652 B(  7-C , 27-H ) :   0.9689 B(  8-N ,  9-C ) :   1.2068
B(  8-N , 28-H ) :   0.9523 B(  9-C , 10-S ) :   1.6041 B(  9-C , 11-N ) :   1.2844
B( 11-N , 12-C ) :   0.9875 B( 11-N , 29-H ) :   0.9446 B( 12-C , 13-C ) :   0.9564
B( 12-C , 30-H ) :   0.9962 B( 13-C , 14-C ) :   1.3894 B( 13-C , 19-C ) :   1.3374
B( 14-C , 15-C ) :   1.3992 B( 14-C , 31-H ) :   0.9649 B( 15-C , 16-C ) :   1.3600
B( 15-C , 32-H ) :   0.9690 B( 16-C , 17-C ) :   1.3308 B( 16-C , 33-H ) :   0.9839
B( 17-C , 18-O ) :   1.1103 B( 17-C , 19-C ) :   1.3651 B( 18-O , 34-H ) :   0.9788
B( 19-C , 35-H ) :   0.9580

MP2 TOTAL ENERGY:    -1274.327169521 Eh
FINAL SINGLE POINT ENERGY     -1274.327169520896

DIPOLE MOMENT
-------------
                                X             Y             Z
Electronic contribution:      9.96814       5.08218       7.45304
Nuclear contribution   :    -11.51237      -6.42806      -7.65738
                        -----------------------------------------
Total Dipole Moment    :     -1.54424      -1.34588      -0.20434
                        -----------------------------------------
Magnitude (a.u.)       :      2.05860
Magnitude (Debye)      :      5.23254

Rotational constants in cm-1:     0.011979     0.009235     0.006663
Rotational constants in MHz :   359.109163   276.870844   199.741846

                             ****ORCA TERMINATED NORMALLY****
TOTAL RUN TIME: 0 days 1 hours 36 minutes 18 seconds 518 msec
