                         Program Version 5.0.0 -  RELEASE  -
|  1> ! ri-mp2 cc-pvtz cc-pvtz/c TightSCF NoKeepInts
|  2>
|  3> %scf
|  4>   MaxCore 4096
|  5> end
|  6> *xyz  0  1
|  7>     C       14.7926916   14.4787526   17.3113934
|  8>     C       15.5559507   15.6288778   16.6347614
|  9>     O       16.8446924   15.1029864   16.2569324
| 10>     C       18.0661969   15.6788126   16.5116120
| 11>     O       19.0696700   14.9959591   16.4230069
| 12>     C       18.0637030   16.8960263   17.3761440
| 13>     C       17.5693882   18.0839691   16.9586502
| 14>     C       16.9691636   18.3910904   15.6035707
| 15>     N       17.6428441   19.1999239   17.7947810
| 16>     C       18.2806680   19.2224605   19.0083555
| 17>     S       18.3708051   20.6024200   19.9146546
| 18>     N       18.8351588   18.0407845   19.4374383
| 19>     C       18.7153286   16.7402888   18.7476290
| 20>     C       17.9369973   15.7314980   19.5863586
| 21>     C       18.3885039   14.4033237   19.6912320
| 22>     C       17.6649362   13.4576153   20.4365549
| 23>     C       16.4760169   13.8410621   21.0799879
| 24>     C       16.0176319   15.1606650   20.9702037
| 25>     O       14.8605302   15.5300521   21.5744020
| 26>     C       16.7395554   16.1002125   20.2274257
| 27>     H       15.3442828   14.1124409   18.1864239
| 28>     H       14.6587209   13.6413921   16.6152439
| 29>     H       13.8028373   14.8131307   17.6446438
| 30>     H       15.0112369   15.9800359   15.7489726
| 31>     H       15.6212417   16.4481439   17.3588439
| 32>     H       17.1353803   17.5817300   14.8818172
| 33>     H       17.4202740   19.2936682   15.1715647
| 34>     H       15.8877752   18.5581555   15.6791887
| 35>     H       17.2550232   20.0802223   17.4931869
| 36>     H       19.2801086   18.0830312   20.3457245
| 37>     H       19.7312283   16.3475107   18.5925656
| 38>     H       19.2971172   14.0986393   19.1759978
| 39>     H       18.0232757   12.4318351   20.5053261
| 40>     H       15.9124105   13.1121232   21.6529167
| 41>     H       14.5424961   14.7682167   22.0823796
| 42>     H       16.3631585   17.1149438   20.1541101
| 43> *
| 44>
| 45>                          ****END OF INPUT****

CARTESIAN COORDINATES (ANGSTROEM)
---------------------------------
  C     14.792692   14.478753   17.311393
  C     15.555951   15.628878   16.634761
  O     16.844692   15.102986   16.256932
  C     18.066197   15.678813   16.511612
  O     19.069670   14.995959   16.423007
  C     18.063703   16.896026   17.376144
  C     17.569388   18.083969   16.958650
  C     16.969164   18.391090   15.603571
  N     17.642844   19.199924   17.794781
  C     18.280668   19.222460   19.008355
  S     18.370805   20.602420   19.914655
  N     18.835159   18.040785   19.437438
  C     18.715329   16.740289   18.747629
  C     17.936997   15.731498   19.586359
  C     18.388504   14.403324   19.691232
  C     17.664936   13.457615   20.436555
  C     16.476017   13.841062   21.079988
  C     16.017632   15.160665   20.970204
  O     14.860530   15.530052   21.574402
  C     16.739555   16.100213   20.227426
  H     15.344283   14.112441   18.186424
  H     14.658721   13.641392   16.615244
  H     13.802837   14.813131   17.644644
  H     15.011237   15.980036   15.748973
  H     15.621242   16.448144   17.358844
  H     17.135380   17.581730   14.881817
  H     17.420274   19.293668   15.171565
  H     15.887775   18.558156   15.679189
  H     17.255023   20.080222   17.493187
  H     19.280109   18.083031   20.345724
  H     19.731228   16.347511   18.592566
  H     19.297117   14.098639   19.175998
  H     18.023276   12.431835   20.505326
  H     15.912411   13.112123   21.652917
  H     14.542496   14.768217   22.082380
  H     16.363159   17.114944   20.154110

 Total Charge           Charge          ....    0
 Multiplicity           Mult            ....    1
 Number of Electrons    NEL             ....  154
 Basis Dimension        Dim             ....  828

ORBITAL ENERGIES
----------------

  NO   OCC          E(Eh)            E(eV)
   0   2.0000     -91.890427     -2500.4657
   1   2.0000     -20.602235      -560.6153
   2   2.0000     -20.600433      -560.5663
   3   2.0000     -20.548654      -559.1573
   4   2.0000     -15.627600      -425.2486
   5   2.0000     -15.612101      -424.8269
   6   2.0000     -11.397885      -310.1522
   7   2.0000     -11.387293      -309.8640
   8   2.0000     -11.329337      -308.2869
   9   2.0000     -11.317223      -307.9573
  10   2.0000     -11.315223      -307.9029
  11   2.0000     -11.303815      -307.5924
  12   2.0000     -11.270405      -306.6833
  13   2.0000     -11.264786      -306.5304
  14   2.0000     -11.264126      -306.5124
  15   2.0000     -11.257320      -306.3273
  16   2.0000     -11.246422      -306.0307
  17   2.0000     -11.242848      -305.9334
  18   2.0000     -11.239803      -305.8506
  19   2.0000     -11.227456      -305.5146
  20   2.0000      -8.895539      -242.0599
  21   2.0000      -6.577125      -178.9727
  22   2.0000      -6.575100      -178.9176
  23   2.0000      -6.574525      -178.9019
  24   2.0000      -1.447671       -39.3931
  25   2.0000      -1.420209       -38.6458
  26   2.0000      -1.358670       -36.9713
  27   2.0000      -1.340740       -36.4834
  28   2.0000      -1.240415       -33.7534
  29   2.0000      -1.162040       -31.6207
  30   2.0000      -1.126424       -30.6516
  31   2.0000      -1.049749       -28.5651
  32   2.0000      -1.038571       -28.2610
  33   2.0000      -1.019353       -27.7380
  34   2.0000      -1.005832       -27.3701
  35   2.0000      -0.989969       -26.9384
  36   2.0000      -0.928503       -25.2659
  37   2.0000      -0.882516       -24.0145
  38   2.0000      -0.855456       -23.2781
  39   2.0000      -0.842262       -22.9191
  40   2.0000      -0.837531       -22.7904
  41   2.0000      -0.836299       -22.7568
  42   2.0000      -0.756065       -20.5736
  43   2.0000      -0.740679       -20.1549
  44   2.0000      -0.731758       -19.9121
  45   2.0000      -0.698638       -19.0109
  46   2.0000      -0.689240       -18.7552
  47   2.0000      -0.681711       -18.5503
  48   2.0000      -0.677279       -18.4297
  49   2.0000      -0.660755       -17.9801
  50   2.0000      -0.656587       -17.8666
  51   2.0000      -0.647161       -17.6101
  52   2.0000      -0.640426       -17.4269
  53   2.0000      -0.612691       -16.6722
  54   2.0000      -0.608772       -16.5655
  55   2.0000      -0.606364       -16.5000
  56   2.0000      -0.600605       -16.3433
  57   2.0000      -0.584850       -15.9146
  58   2.0000      -0.579036       -15.7564
  59   2.0000      -0.569525       -15.4976
  60   2.0000      -0.560035       -15.2393
  61   2.0000      -0.557838       -15.1795
  62   2.0000      -0.547938       -14.9101
  63   2.0000      -0.529832       -14.4175
  64   2.0000      -0.519518       -14.1368
  65   2.0000      -0.514673       -14.0050
  66   2.0000      -0.502907       -13.6848
  67   2.0000      -0.502075       -13.6621
  68   2.0000      -0.488558       -13.2943
  69   2.0000      -0.471537       -12.8312
  70   2.0000      -0.451136       -12.2760
  71   2.0000      -0.450906       -12.2698
  72   2.0000      -0.357176        -9.7193
  73   2.0000      -0.352874        -9.6022
  74   2.0000      -0.330088        -8.9821
  75   2.0000      -0.325061        -8.8454
  76   2.0000      -0.318676        -8.6716
  77   0.0000       0.084759         2.3064
  78   0.0000       0.103722         2.8224
  79   0.0000       0.111840         3.0433
  80   0.0000       0.127247         3.4626
  81   0.0000       0.133705         3.6383

MULLIKEN ATOMIC CHARGES
-----------------------
   0 C :   -0.262624
   1 C :    0.007591
   2 O :   -0.310186
   3 C :    0.393611
   4 O :   -0.384095
   5 C :   -0.174565
   6 C :    0.124479
   7 C :   -0.322200
   8 N :   -0.136335
   9 C :    0.203200
  10 S :   -0.440276
  11 N :   -0.212321
  12 C :    0.067549
  13 C :    0.030832
  14 C :   -0.194108
  15 C :   -0.126422
  16 C :   -0.280776
  17 C :    0.309839
  18 O :   -0.360904
  19 C :   -0.273933
  20 H :    0.110117
  21 H :    0.106644
  22 H :    0.089518
  23 H :    0.108832
  24 H :    0.097460
  25 H :    0.126569
  26 H :    0.137069
  27 H :    0.123039
  28 H :    0.196582
  29 H :    0.197987
  30 H :    0.164637
  31 H :    0.167453
  32 H :    0.163930
  33 H :    0.132682
  34 H :    0.241984
  35 H :    0.177141
Sum of atomic charges:    0.0000000

LOEWDIN ATOMIC CHARGES
----------------------
   0 C :    0.110351
   1 C :   -0.022826
   2 O :    0.312615
   3 C :   -0.418360
   4 O :    0.122412
   5 C :   -0.083392
   6 C :   -0.103976
   7 C :    0.125793
   8 N :    0.401095
   9 C :   -0.455932
  10 S :   -0.037298
  11 N :    0.397362
  12 C :   -0.044147
  13 C :   -0.042742
  14 C :    0.023396
  15 C :    0.045662
  16 C :   -0.000702
  17 C :   -0.193690
  18 O :    0.395200
  19 C :    0.027082
  20 H :   -0.022191
  21 H :   -0.026211
  22 H :   -0.025993
  23 H :   -0.034242
  24 H :   -0.039497
  25 H :   -0.007663
  26 H :   -0.009936
  27 H :   -0.016217
  28 H :   -0.057962
  29 H :   -0.063573
  30 H :   -0.002150
  31 H :   -0.021630
  32 H :   -0.018312
  33 H :   -0.034717
  34 H :   -0.152755
  35 H :   -0.024856

  Mayer bond orders larger than 0.100000
B(  0-C ,  1-C ) :   0.9803 B(  0-C , 20-H ) :   0.9711 B(  0-C , 21-H ) :   0.9813
B(  0-C , 22-H ) :   0.9757 B(  1-C ,  2-O ) :   0.9097 B(  1-C , 23-H ) :   0.9764
B(  1-C , 24-H ) :   0.9607 B(  2-O ,  3-C ) :   1.1854 B(  3-C ,  4-O ) :   2.0897
B(  3-C ,  5-C ) :   0.9260 B(  5-C ,  6-C ) :   1.6870 B(  5-C , 12-C ) :   0.9612
B(  6-C ,  7-C ) :   0.9454 B(  6-C ,  8-N ) :   1.1146 B(  7-C , 25-H ) :   0.9804
B(  7-C , 26-H ) :   0.9724 B(  7-C , 27-H ) :   0.9649 B(  8-N ,  9-C ) :   1.1943
B(  8-N , 28-H ) :   0.9521 B(  9-C , 10-S ) :   1.6121 B(  9-C , 11-N ) :   1.2876
B( 11-N , 12-C ) :   0.9989 B( 11-N , 29-H ) :   0.9493 B( 12-C , 13-C ) :   0.9439
B( 12-C , 30-H ) :   0.9966 B( 13-C , 14-C ) :   1.3877 B( 13-C , 19-C ) :   1.3458
B( 14-C , 15-C ) :   1.3954 B( 14-C , 31-H ) :   0.9612 B( 15-C , 16-C ) :   1.3607
B( 15-C , 32-H ) :   0.9704 B( 16-C , 17-C ) :   1.3300 B( 16-C , 33-H ) :   0.9852
B( 17-C , 18-O ) :   1.1060 B( 17-C , 19-C ) :   1.3722 B( 18-O , 34-H ) :   0.9790
B( 19-C , 35-H ) :   0.9561

MP2 TOTAL ENERGY:    -1274.333390509 Eh
FINAL SINGLE POINT ENERGY     -1274.333390508803

DIPOLE MOMENT
-------------
                                X             Y             Z
Electronic contribution:     10.30292       8.08188       5.96709
Nuclear contribution   :    -11.83982      -9.02662      -6.41538
                        -----------------------------------------
Total Dipole Moment    :     -1.53690      -0.94474      -0.44829
                        -----------------------------------------
Magnitude (a.u.)       :      1.85891
Magnitude (Debye)      :      4.72497

Rotational constants in cm-1:     0.012482     0.009105     0.006915
Rotational constants in MHz :   374.204330   272.958071   207.293755

                             ****ORCA TERMINATED NORMALLY****
TOTAL RUN TIME: 0 days 1 hours 41 minutes 49 seconds 147 msec
