                         Program Version 5.0.0 -  RELEASE  -
|  1> ! ri-mp2 cc-pvtz cc-pvtz/c TightSCF NoKeepInts
|  2>
|  3> %scf
|  4>   MaxCore 4096
|  5> end
|  6> *xyz  0  1
|  7>     C       15.2305880   13.9145490   16.1641018
|  8>     C       15.5475829   15.0740391   15.1913948
|  9>     O       16.4146591   16.0873325   15.7562990
| 10>     C       17.4005143   15.8395640   16.6709759
| 11>     O       17.9641698   14.7618396   16.7619852
| 12>     C       17.7486476   17.0012717   17.5602536
| 13>     C       17.3181474   18.2810174   17.3969352
| 14>     C       16.4179728   18.8395314   16.3134701
| 15>     N       17.7637158   19.2795658   18.2700361
| 16>     C       18.7326616   19.1146917   19.2238989
| 17>     S       19.2907934   20.3821554   20.1281814
| 18>     N       19.2142549   17.8417004   19.3903639
| 19>     C       18.6603900   16.6401631   18.7392294
| 20>     C       17.9209615   15.7733351   19.7555345
| 21>     C       18.2555398   14.4153845   19.9108844
| 22>     C       17.5738795   13.6107747   20.8391961
| 23>     C       16.5474130   14.1678306   21.6205958
| 24>     C       16.2082543   15.5188581   21.4666033
| 25>     O       15.2129209   16.0581257   22.2148371
| 26>     C       16.8880561   16.3169954   20.5412158
| 27>     H       16.0770370   13.2236270   16.2594850
| 28>     H       14.3784312   13.3331170   15.7922954
| 29>     H       14.9719039   14.2948066   17.1603898
| 30>     H       16.0231249   14.6517030   14.2964496
| 31>     H       14.6106711   15.5488337   14.8731601
| 32>     H       15.4120944   18.4075474   16.3848988
| 33>     H       16.8178543   18.6077946   15.3183707
| 34>     H       16.3100539   19.9294153   16.3707809
| 35>     H       17.4228140   20.2215568   18.1639832
| 36>     H       19.9055674   17.7393226   20.1221246
| 37>     H       19.5064156   16.0599906   18.3429958
| 38>     H       19.0368981   13.9776257   19.2942340
| 39>     H       17.8385909   12.5602403   20.9445939
| 40>     H       16.0171337   13.5495663   22.3371488
| 41>     H       14.8961124   15.3674029   22.8159281
| 42>     H       16.6111745   17.3607252   20.4411691
| 43> *
| 44>
| 45>                          ****END OF INPUT****

CARTESIAN COORDINATES (ANGSTROEM)
---------------------------------
  C     15.230588   13.914549   16.164102
  C     15.547583   15.074039   15.191395
  O     16.414659   16.087332   15.756299
  C     17.400514   15.839564   16.670976
  O     17.964170   14.761840   16.761985
  C     17.748648   17.001272   17.560254
  C     17.318147   18.281017   17.396935
  C     16.417973   18.839531   16.313470
  N     17.763716   19.279566   18.270036
  C     18.732662   19.114692   19.223899
  S     19.290793   20.382155   20.128181
  N     19.214255   17.841700   19.390364
  C     18.660390   16.640163   18.739229
  C     17.920961   15.773335   19.755534
  C     18.255540   14.415385   19.910884
  C     17.573879   13.610775   20.839196
  C     16.547413   14.167831   21.620596
  C     16.208254   15.518858   21.466603
  O     15.212921   16.058126   22.214837
  C     16.888056   16.316995   20.541216
  H     16.077037   13.223627   16.259485
  H     14.378431   13.333117   15.792295
  H     14.971904   14.294807   17.160390
  H     16.023125   14.651703   14.296450
  H     14.610671   15.548834   14.873160
  H     15.412094   18.407547   16.384899
  H     16.817854   18.607795   15.318371
  H     16.310054   19.929415   16.370781
  H     17.422814   20.221557   18.163983
  H     19.905567   17.739323   20.122125
  H     19.506416   16.059991   18.342996
  H     19.036898   13.977626   19.294234
  H     17.838591   12.560240   20.944594
  H     16.017134   13.549566   22.337149
  H     14.896112   15.367403   22.815928
  H     16.611175   17.360725   20.441169

 Total Charge           Charge          ....    0
 Multiplicity           Mult            ....    1
 Number of Electrons    NEL             ....  154
 Basis Dimension        Dim             ....  828

ORBITAL ENERGIES
----------------

  NO   OCC          E(Eh)            E(eV)
   0   2.0000     -91.887868     -2500.3960
   1   2.0000     -20.599141      -560.5311
   2   2.0000     -20.591892      -560.3339
   3   2.0000     -20.544477      -559.0436
   4   2.0000     -15.628220      -425.2655
   5   2.0000     -15.606445      -424.6730
   6   2.0000     -11.397026      -310.1288
   7   2.0000     -11.382605      -309.7364
   8   2.0000     -11.336546      -308.4831
   9   2.0000     -11.307705      -307.6983
  10   2.0000     -11.305655      -307.6425
  11   2.0000     -11.304813      -307.6196
  12   2.0000     -11.260271      -306.4075
  13   2.0000     -11.258339      -306.3550
  14   2.0000     -11.253433      -306.2215
  15   2.0000     -11.247747      -306.0668
  16   2.0000     -11.237465      -305.7870
  17   2.0000     -11.233599      -305.6818
  18   2.0000     -11.230345      -305.5932
  19   2.0000     -11.226274      -305.4824
  20   2.0000      -8.892932      -241.9890
  21   2.0000      -6.574510      -178.9015
  22   2.0000      -6.572503      -178.8469
  23   2.0000      -6.571918      -178.8310
  24   2.0000      -1.448221       -39.4081
  25   2.0000      -1.411642       -38.4127
  26   2.0000      -1.355802       -36.8932
  27   2.0000      -1.339171       -36.4407
  28   2.0000      -1.236745       -33.6536
  29   2.0000      -1.152117       -31.3507
  30   2.0000      -1.118753       -30.4428
  31   2.0000      -1.041658       -28.3449
  32   2.0000      -1.033941       -28.1350
  33   2.0000      -1.009566       -27.4717
  34   2.0000      -0.997256       -27.1367
  35   2.0000      -0.982601       -26.7379
  36   2.0000      -0.921386       -25.0722
  37   2.0000      -0.897593       -24.4247
  38   2.0000      -0.847839       -23.0709
  39   2.0000      -0.835604       -22.7379
  40   2.0000      -0.827969       -22.5302
  41   2.0000      -0.816550       -22.2194
  42   2.0000      -0.744670       -20.2635
  43   2.0000      -0.731067       -19.8933
  44   2.0000      -0.724613       -19.7177
  45   2.0000      -0.690201       -18.7813
  46   2.0000      -0.684844       -18.6356
  47   2.0000      -0.677609       -18.4387
  48   2.0000      -0.671690       -18.2776
  49   2.0000      -0.660298       -17.9676
  50   2.0000      -0.649947       -17.6860
  51   2.0000      -0.643953       -17.5228
  52   2.0000      -0.632535       -17.2121
  53   2.0000      -0.616404       -16.7732
  54   2.0000      -0.600529       -16.3412
  55   2.0000      -0.599529       -16.3140
  56   2.0000      -0.595358       -16.2005
  57   2.0000      -0.578568       -15.7436
  58   2.0000      -0.573467       -15.6048
  59   2.0000      -0.564878       -15.3711
  60   2.0000      -0.556576       -15.1452
  61   2.0000      -0.542665       -14.7667
  62   2.0000      -0.538238       -14.6462
  63   2.0000      -0.524447       -14.2709
  64   2.0000      -0.516395       -14.0518
  65   2.0000      -0.510607       -13.8943
  66   2.0000      -0.501827       -13.6554
  67   2.0000      -0.495289       -13.4775
  68   2.0000      -0.478720       -13.0266
  69   2.0000      -0.463117       -12.6021
  70   2.0000      -0.456223       -12.4145
  71   2.0000      -0.449135       -12.2216
  72   2.0000      -0.353780        -9.6268
  73   2.0000      -0.344119        -9.3639
  74   2.0000      -0.327016        -8.8986
  75   2.0000      -0.315594        -8.5877
  76   2.0000      -0.313676        -8.5356
  77   0.0000       0.075566         2.0563
  78   0.0000       0.112702         3.0668
  79   0.0000       0.121691         3.3114
  80   0.0000       0.135755         3.6941
  81   0.0000       0.140542         3.8243

MULLIKEN ATOMIC CHARGES
-----------------------
   0 C :   -0.310578
   1 C :    0.049203
   2 O :   -0.354838
   3 C :    0.453855
   4 O :   -0.429220
   5 C :   -0.180835
   6 C :    0.143376
   7 C :   -0.281644
   8 N :   -0.121112
   9 C :    0.201365
  10 S :   -0.439451
  11 N :   -0.198071
  12 C :    0.039776
  13 C :    0.057315
  14 C :   -0.164310
  15 C :   -0.133486
  16 C :   -0.279729
  17 C :    0.312126
  18 O :   -0.359066
  19 C :   -0.276181
  20 H :    0.128484
  21 H :    0.097650
  22 H :    0.101251
  23 H :    0.097238
  24 H :    0.099968
  25 H :    0.124109
  26 H :    0.128979
  27 H :    0.101843
  28 H :    0.196655
  29 H :    0.193835
  30 H :    0.154373
  31 H :    0.154464
  32 H :    0.159189
  33 H :    0.128258
  34 H :    0.240096
  35 H :    0.165115
Sum of atomic charges:   -0.0000000

LOEWDIN ATOMIC CHARGES
----------------------
   0 C :    0.105075
   1 C :   -0.010370
   2 O :    0.295875
   3 C :   -0.415566
   4 O :    0.109116
   5 C :   -0.091398
   6 C :   -0.064413
   7 C :    0.124808
   8 N :    0.404911
   9 C :   -0.459205
  10 S :   -0.036174
  11 N :    0.398089
  12 C :   -0.046697
  13 C :   -0.039139
  14 C :    0.022208
  15 C :    0.040550
  16 C :   -0.002602
  17 C :   -0.193129
  18 O :    0.392943
  19 C :    0.027804
  20 H :   -0.024018
  21 H :   -0.027031
  22 H :   -0.026321
  23 H :   -0.028587
  24 H :   -0.026259
  25 H :   -0.010228
  26 H :   -0.007747
  27 H :   -0.021498
  28 H :   -0.059332
  29 H :   -0.063620
  30 H :   -0.005337
  31 H :   -0.025141
  32 H :   -0.021242
  33 H :   -0.036401
  34 H :   -0.154876
  35 H :   -0.025050

  Mayer bond orders larger than 0.100000
B(  0-C ,  1-C ) :   0.9616 B(  0-C , 20-H ) :   0.9719 B(  0-C , 21-H ) :   0.9755
B(  0-C , 22-H ) :   0.9740 B(  1-C ,  2-O ) :   0.9014 B(  1-C , 23-H ) :   0.9828
B(  1-C , 24-H ) :   0.9830 B(  2-O ,  3-C ) :   1.1534 B(  3-C ,  4-O ) :   1.9789
B(  3-C ,  5-C ) :   1.0481 B(  5-C ,  6-C ) :   1.6461 B(  5-C , 12-C ) :   0.9647
B(  6-C ,  7-C ) :   0.9559 B(  6-C ,  8-N ) :   1.1510 B(  7-C , 25-H ) :   0.9650
B(  7-C , 26-H ) :   0.9639 B(  7-C , 27-H ) :   0.9919 B(  8-N ,  9-C ) :   1.1780
B(  8-N , 28-H ) :   0.9486 B(  9-C , 10-S ) :   1.6104 B(  9-C , 11-N ) :   1.3051
B( 11-N , 12-C ) :   0.9917 B( 11-N , 29-H ) :   0.9519 B( 12-C , 13-C ) :   0.9460
B( 12-C , 30-H ) :   1.0006 B( 13-C , 14-C ) :   1.3759 B( 13-C , 19-C ) :   1.3681
B( 14-C , 15-C ) :   1.3945 B( 14-C , 31-H ) :   0.9644 B( 15-C , 16-C ) :   1.3621
B( 15-C , 32-H ) :   0.9714 B( 16-C , 17-C ) :   1.3318 B( 16-C , 33-H ) :   0.9859
B( 17-C , 18-O ) :   1.1082 B( 17-C , 19-C ) :   1.3781 B( 18-O , 34-H ) :   0.9805
B( 19-C , 35-H ) :   0.9583

MP2 TOTAL ENERGY:    -1274.341231864 Eh
FINAL SINGLE POINT ENERGY     -1274.341231863527

DIPOLE MOMENT
-------------
                                X             Y             Z
Electronic contribution:     10.21100      10.23806       9.30212
Nuclear contribution   :    -11.81232     -11.47944     -10.34059
                        -----------------------------------------
Total Dipole Moment    :     -1.60132      -1.24138      -1.03847
                        -----------------------------------------
Magnitude (a.u.)       :      2.27677
Magnitude (Debye)      :      5.78709

Rotational constants in cm-1:     0.010826     0.009190     0.006041
Rotational constants in MHz :   324.546412   275.508663   181.113597

                             ****ORCA TERMINATED NORMALLY****
TOTAL RUN TIME: 0 days 2 hours 3 minutes 52 seconds 787 msec
