                         Program Version 5.0.0 -  RELEASE  -
|  1> ! ri-mp2 cc-pvtz cc-pvtz/c TightSCF NoKeepInts
|  2>
|  3> %scf
|  4>   MaxCore 4096
|  5> end
|  6> *xyz  0  1
|  7>     C       15.0512164   15.7144442   17.4498348
|  8>     C       15.5632754   15.2605715   16.0660730
|  9>     O       16.9762914   14.9415253   16.0207791
| 10>     C       18.0950143   15.6067212   16.4740447
| 11>     O       19.1577194   15.0136567   16.4473870
| 12>     C       17.9346836   16.7725093   17.3931828
| 13>     C       17.4149292   17.9494684   16.9716220
| 14>     C       16.8904471   18.2735900   15.5892162
| 15>     N       17.4103930   19.0556208   17.8242220
| 16>     C       18.0531144   19.1084620   19.0332552
| 17>     S       18.0773892   20.4882570   19.9441134
| 18>     N       18.6797852   17.9592912   19.4479902
| 19>     C       18.5964987   16.6499581   18.7692046
| 20>     C       17.8946120   15.6085795   19.6378884
| 21>     C       18.3156109   14.2664137   19.5978486
| 22>     C       17.6764327   13.2894170   20.3787938
| 23>     C       16.6047321   13.6554026   21.2101962
| 24>     C       16.1796219   14.9897665   21.2531925
| 25>     O       15.1374479   15.3443923   22.0460903
| 26>     C       16.8170355   15.9607655   20.4740959
| 27>     H       15.4625699   15.0721187   18.2369930
| 28>     H       13.9598363   15.6127072   17.4881339
| 29>     H       15.2742799   16.7582788   17.6801846
| 30>     H       15.0097179   14.3584197   15.7744596
| 31>     H       15.3254550   16.0289012   15.3212012
| 32>     H       17.1778027   17.5181116   14.8478842
| 33>     H       17.2959290   19.2286413   15.2310333
| 34>     H       15.7967724   18.3540192   15.5906708
| 35>     H       16.9748804   19.9151455   17.5285251
| 36>     H       19.1368291   18.0232334   20.3488881
| 37>     H       19.6273294   16.3007284   18.6082083
| 38>     H       19.1382514   13.9768214   18.9469498
| 39>     H       18.0111579   12.2544196   20.3334414
| 40>     H       16.1070658   12.9031931   21.8132572
| 41>     H       14.8619378   14.5539656   22.5344507
| 42>     H       16.4609350   16.9844825   20.5206882
| 43> *
| 44>
| 45>                          ****END OF INPUT****

CARTESIAN COORDINATES (ANGSTROEM)
---------------------------------
  C     15.051216   15.714444   17.449835
  C     15.563275   15.260571   16.066073
  O     16.976291   14.941525   16.020779
  C     18.095014   15.606721   16.474045
  O     19.157719   15.013657   16.447387
  C     17.934684   16.772509   17.393183
  C     17.414929   17.949468   16.971622
  C     16.890447   18.273590   15.589216
  N     17.410393   19.055621   17.824222
  C     18.053114   19.108462   19.033255
  S     18.077389   20.488257   19.944113
  N     18.679785   17.959291   19.447990
  C     18.596499   16.649958   18.769205
  C     17.894612   15.608579   19.637888
  C     18.315611   14.266414   19.597849
  C     17.676433   13.289417   20.378794
  C     16.604732   13.655403   21.210196
  C     16.179622   14.989766   21.253193
  O     15.137448   15.344392   22.046090
  C     16.817035   15.960765   20.474096
  H     15.462570   15.072119   18.236993
  H     13.959836   15.612707   17.488134
  H     15.274280   16.758279   17.680185
  H     15.009718   14.358420   15.774460
  H     15.325455   16.028901   15.321201
  H     17.177803   17.518112   14.847884
  H     17.295929   19.228641   15.231033
  H     15.796772   18.354019   15.590671
  H     16.974880   19.915146   17.528525
  H     19.136829   18.023233   20.348888
  H     19.627329   16.300728   18.608208
  H     19.138251   13.976821   18.946950
  H     18.011158   12.254420   20.333441
  H     16.107066   12.903193   21.813257
  H     14.861938   14.553966   22.534451
  H     16.460935   16.984482   20.520688

 Total Charge           Charge          ....    0
 Multiplicity           Mult            ....    1
 Number of Electrons    NEL             ....  154
 Basis Dimension        Dim             ....  828

ORBITAL ENERGIES
----------------

  NO   OCC          E(Eh)            E(eV)
   0   2.0000     -91.890442     -2500.4660
   1   2.0000     -20.598414      -560.5113
   2   2.0000     -20.597547      -560.4877
   3   2.0000     -20.547444      -559.1244
   4   2.0000     -15.628213      -425.2653
   5   2.0000     -15.611212      -424.8027
   6   2.0000     -11.400416      -310.2211
   7   2.0000     -11.386900      -309.8533
   8   2.0000     -11.330229      -308.3112
   9   2.0000     -11.314213      -307.8754
  10   2.0000     -11.313946      -307.8681
  11   2.0000     -11.311865      -307.8115
  12   2.0000     -11.271632      -306.7167
  13   2.0000     -11.265757      -306.5568
  14   2.0000     -11.261781      -306.4486
  15   2.0000     -11.254756      -306.2575
  16   2.0000     -11.243801      -305.9594
  17   2.0000     -11.239302      -305.8370
  18   2.0000     -11.236252      -305.7540
  19   2.0000     -11.231924      -305.6362
  20   2.0000      -8.895541      -242.0600
  21   2.0000      -6.577129      -178.9728
  22   2.0000      -6.575104      -178.9177
  23   2.0000      -6.574527      -178.9020
  24   2.0000      -1.443471       -39.2788
  25   2.0000      -1.417366       -38.5685
  26   2.0000      -1.354937       -36.8697
  27   2.0000      -1.341164       -36.4949
  28   2.0000      -1.240248       -33.7489
  29   2.0000      -1.159043       -31.5392
  30   2.0000      -1.125431       -30.6245
  31   2.0000      -1.047987       -28.5172
  32   2.0000      -1.040099       -28.3025
  33   2.0000      -1.017250       -27.6808
  34   2.0000      -1.005637       -27.3648
  35   2.0000      -0.990405       -26.9503
  36   2.0000      -0.928083       -25.2544
  37   2.0000      -0.899521       -24.4772
  38   2.0000      -0.854754       -23.2590
  39   2.0000      -0.840748       -22.8779
  40   2.0000      -0.834364       -22.7042
  41   2.0000      -0.828830       -22.5536
  42   2.0000      -0.746157       -20.3040
  43   2.0000      -0.737887       -20.0789
  44   2.0000      -0.730557       -19.8795
  45   2.0000      -0.694956       -18.9107
  46   2.0000      -0.687120       -18.6975
  47   2.0000      -0.678409       -18.4604
  48   2.0000      -0.674436       -18.3523
  49   2.0000      -0.662825       -18.0364
  50   2.0000      -0.653370       -17.7791
  51   2.0000      -0.652076       -17.7439
  52   2.0000      -0.641229       -17.4487
  53   2.0000      -0.614973       -16.7343
  54   2.0000      -0.608908       -16.5692
  55   2.0000      -0.605209       -16.4686
  56   2.0000      -0.602093       -16.3838
  57   2.0000      -0.591688       -16.1007
  58   2.0000      -0.579311       -15.7638
  59   2.0000      -0.573676       -15.6105
  60   2.0000      -0.565609       -15.3910
  61   2.0000      -0.557401       -15.1677
  62   2.0000      -0.542431       -14.7603
  63   2.0000      -0.529170       -14.3994
  64   2.0000      -0.519215       -14.1286
  65   2.0000      -0.513535       -13.9740
  66   2.0000      -0.501361       -13.6427
  67   2.0000      -0.501191       -13.6381
  68   2.0000      -0.483589       -13.1591
  69   2.0000      -0.465050       -12.6547
  70   2.0000      -0.453787       -12.3482
  71   2.0000      -0.450257       -12.2521
  72   2.0000      -0.356427        -9.6989
  73   2.0000      -0.348638        -9.4869
  74   2.0000      -0.330019        -8.9803
  75   2.0000      -0.322964        -8.7883
  76   2.0000      -0.318581        -8.6690
  77   0.0000       0.084368         2.2958
  78   0.0000       0.107250         2.9184
  79   0.0000       0.113227         3.0811
  80   0.0000       0.129795         3.5319
  81   0.0000       0.131144         3.5686

MULLIKEN ATOMIC CHARGES
-----------------------
   0 C :   -0.335984
   1 C :    0.032411
   2 O :   -0.326252
   3 C :    0.412880
   4 O :   -0.383624
   5 C :   -0.186139
   6 C :    0.133570
   7 C :   -0.334829
   8 N :   -0.137588
   9 C :    0.202876
  10 S :   -0.440231
  11 N :   -0.225092
  12 C :    0.081509
  13 C :    0.020169
  14 C :   -0.211294
  15 C :   -0.135938
  16 C :   -0.276233
  17 C :    0.316710
  18 O :   -0.358210
  19 C :   -0.269661
  20 H :    0.130549
  21 H :    0.117061
  22 H :    0.107903
  23 H :    0.133753
  24 H :    0.084820
  25 H :    0.128274
  26 H :    0.138958
  27 H :    0.123195
  28 H :    0.196832
  29 H :    0.202030
  30 H :    0.168654
  31 H :    0.175543
  32 H :    0.163781
  33 H :    0.132027
  34 H :    0.241060
  35 H :    0.176511
Sum of atomic charges:    0.0000000

LOEWDIN ATOMIC CHARGES
----------------------
   0 C :    0.104593
   1 C :   -0.017180
   2 O :    0.297288
   3 C :   -0.416434
   4 O :    0.122372
   5 C :   -0.078947
   6 C :   -0.100258
   7 C :    0.124813
   8 N :    0.402353
   9 C :   -0.457394
  10 S :   -0.037252
  11 N :    0.398465
  12 C :   -0.042157
  13 C :   -0.042726
  14 C :    0.020469
  15 C :    0.044066
  16 C :   -0.001921
  17 C :   -0.194166
  18 O :    0.395355
  19 C :    0.028042
  20 H :   -0.020420
  21 H :   -0.023469
  22 H :   -0.037459
  23 H :   -0.016384
  24 H :   -0.039312
  25 H :   -0.008316
  26 H :   -0.009289
  27 H :   -0.017527
  28 H :   -0.057977
  29 H :   -0.063477
  30 H :   -0.001535
  31 H :   -0.021617
  32 H :   -0.018555
  33 H :   -0.035051
  34 H :   -0.153600
  35 H :   -0.025395

  Mayer bond orders larger than 0.100000
B(  0-C ,  1-C ) :   0.9533 B(  0-C , 20-H ) :   0.9668 B(  0-C , 21-H ) :   0.9778
B(  0-C , 22-H ) :   0.9743 B(  1-C ,  2-O ) :   0.9110 B(  1-C , 23-H ) :   0.9801
B(  1-C , 24-H ) :   0.9748 B(  2-O ,  3-C ) :   1.1697 B(  3-C ,  4-O ) :   2.0753
B(  3-C ,  5-C ) :   0.9240 B(  5-C ,  6-C ) :   1.7001 B(  5-C , 12-C ) :   0.9563
B(  6-C ,  7-C ) :   0.9434 B(  6-C ,  8-N ) :   1.0985 B(  7-C , 25-H ) :   0.9800
B(  7-C , 26-H ) :   0.9733 B(  7-C , 27-H ) :   0.9643 B(  8-N ,  9-C ) :   1.1950
B(  8-N , 28-H ) :   0.9522 B(  9-C , 10-S ) :   1.6096 B(  9-C , 11-N ) :   1.2884
B( 11-N , 12-C ) :   0.9862 B( 11-N , 29-H ) :   0.9479 B( 12-C , 13-C ) :   0.9481
B( 12-C , 30-H ) :   0.9944 B( 13-C , 14-C ) :   1.3904 B( 13-C , 19-C ) :   1.3436
B( 14-C , 15-C ) :   1.4007 B( 14-C , 31-H ) :   0.9582 B( 15-C , 16-C ) :   1.3592
B( 15-C , 32-H ) :   0.9702 B( 16-C , 17-C ) :   1.3302 B( 16-C , 33-H ) :   0.9848
B( 17-C , 18-O ) :   1.1105 B( 17-C , 19-C ) :   1.3692 B( 18-O , 34-H ) :   0.9796
B( 19-C , 35-H ) :   0.9576

MP2 TOTAL ENERGY:    -1274.324088669 Eh
FINAL SINGLE POINT ENERGY     -1274.324088669241

DIPOLE MOMENT
-------------
                                X             Y             Z
Electronic contribution:      9.46692       5.72293       6.53588
Nuclear contribution   :    -11.08293      -6.74832      -7.22786
                        -----------------------------------------
Total Dipole Moment    :     -1.61601      -1.02539      -0.69198
                        -----------------------------------------
Magnitude (a.u.)       :      2.03513
Magnitude (Debye)      :      5.17288

Rotational constants in cm-1:     0.011690     0.009624     0.006822
Rotational constants in MHz :   350.442417   288.515699   204.517735

                             ****ORCA TERMINATED NORMALLY****
TOTAL RUN TIME: 0 days 2 hours 30 minutes 1 seconds 10 msec
