                         Program Version 5.0.0 -  RELEASE  -
|  1> ! ri-mp2 cc-pvtz cc-pvtz/c TightSCF NoKeepInts
|  2>
|  3> %scf
|  4>   MaxCore 4096
|  5> end
|  6> *xyz  0  1
|  7>     C       15.3936907   14.3833548   17.1083991
|  8>     C       15.5224983   15.0803229   15.7334858
|  9>     O       16.6795378   15.9437818   15.6198453
| 10>     C       17.7532189   15.8529380   16.4574522
| 11>     O       18.3707010   14.8098155   16.5901754
| 12>     C       17.8944143   17.0007335   17.4151204
| 13>     C       17.3845503   18.2439450   17.2162901
| 14>     C       16.6065921   18.7506712   16.0193336
| 15>     N       17.6286832   19.2520676   18.1547751
| 16>     C       18.4868782   19.1420838   19.2170952
| 17>     S       18.8187207   20.4256629   20.2057892
| 18>     N       19.0549472   17.9097063   19.4188272
| 19>     C       18.6860260   16.6824601   18.6882354
| 20>     C       17.9019625   15.7335523   19.5916545
| 21>     C       18.2941757   14.3885444   19.7223182
| 22>     C       17.5666089   13.5051882   20.5370897
| 23>     C       16.4354597   13.9695360   21.2292800
| 24>     C       16.0397027   15.3076246   21.1008143
| 25>     O       14.9419908   15.7568548   21.7596834
| 26>     C       16.7654712   16.1843971   20.2884444
| 27>     H       16.2018399   13.6602847   17.2750729
| 28>     H       14.4471862   13.8325734   17.1641522
| 29>     H       15.4018531   15.1157774   17.9245451
| 30>     H       15.5866531   14.3024735   14.9613297
| 31>     H       14.6163992   15.6664820   15.5339150
| 32>     H       15.5899801   18.3390635   16.0150388
| 33>     H       17.0953944   18.4552586   15.0823482
| 34>     H       16.5217839   19.8440854   16.0033810
| 35>     H       17.2226239   20.1646802   18.0231012
| 36>     H       19.6619335   17.8467837   20.2260798
| 37>     H       19.6178176   16.1812177   18.3882421
| 38>     H       19.1572473   14.0216545   19.1716515
| 39>     H       17.8775307   12.4655372   20.6232151
| 40>     H       15.8691824   13.2899168   21.8573394
| 41>     H       14.6131383   15.0272703   22.3061149
| 42>     H       16.4406061   17.2157003   20.2043647
| 43> *
| 44>
| 45>                          ****END OF INPUT****

CARTESIAN COORDINATES (ANGSTROEM)
---------------------------------
  C     15.393691   14.383355   17.108399
  C     15.522498   15.080323   15.733486
  O     16.679538   15.943782   15.619845
  C     17.753219   15.852938   16.457452
  O     18.370701   14.809815   16.590175
  C     17.894414   17.000733   17.415120
  C     17.384550   18.243945   17.216290
  C     16.606592   18.750671   16.019334
  N     17.628683   19.252068   18.154775
  C     18.486878   19.142084   19.217095
  S     18.818721   20.425663   20.205789
  N     19.054947   17.909706   19.418827
  C     18.686026   16.682460   18.688235
  C     17.901962   15.733552   19.591655
  C     18.294176   14.388544   19.722318
  C     17.566609   13.505188   20.537090
  C     16.435460   13.969536   21.229280
  C     16.039703   15.307625   21.100814
  O     14.941991   15.756855   21.759683
  C     16.765471   16.184397   20.288444
  H     16.201840   13.660285   17.275073
  H     14.447186   13.832573   17.164152
  H     15.401853   15.115777   17.924545
  H     15.586653   14.302473   14.961330
  H     14.616399   15.666482   15.533915
  H     15.589980   18.339063   16.015039
  H     17.095394   18.455259   15.082348
  H     16.521784   19.844085   16.003381
  H     17.222624   20.164680   18.023101
  H     19.661933   17.846784   20.226080
  H     19.617818   16.181218   18.388242
  H     19.157247   14.021654   19.171651
  H     17.877531   12.465537   20.623215
  H     15.869182   13.289917   21.857339
  H     14.613138   15.027270   22.306115
  H     16.440606   17.215700   20.204365

 Total Charge           Charge          ....    0
 Multiplicity           Mult            ....    1
 Number of Electrons    NEL             ....  154
 Basis Dimension        Dim             ....  828

ORBITAL ENERGIES
----------------

  NO   OCC          E(Eh)            E(eV)
   0   2.0000     -91.889540     -2500.4415
   1   2.0000     -20.595076      -560.4205
   2   2.0000     -20.585594      -560.1625
   3   2.0000     -20.550367      -559.2039
   4   2.0000     -15.629884      -425.3108
   5   2.0000     -15.608236      -424.7217
   6   2.0000     -11.395588      -310.0897
   7   2.0000     -11.384536      -309.7890
   8   2.0000     -11.337072      -308.4974
   9   2.0000     -11.311141      -307.7918
  10   2.0000     -11.307388      -307.6897
  11   2.0000     -11.305167      -307.6292
  12   2.0000     -11.260662      -306.4182
  13   2.0000     -11.260307      -306.4085
  14   2.0000     -11.256643      -306.3088
  15   2.0000     -11.251228      -306.1615
  16   2.0000     -11.240909      -305.8807
  17   2.0000     -11.236634      -305.7644
  18   2.0000     -11.233341      -305.6747
  19   2.0000     -11.225370      -305.4578
  20   2.0000      -8.894597      -242.0343
  21   2.0000      -6.576172      -178.9467
  22   2.0000      -6.574167      -178.8922
  23   2.0000      -6.573578      -178.8762
  24   2.0000      -1.446669       -39.3659
  25   2.0000      -1.414889       -38.5011
  26   2.0000      -1.354304       -36.8525
  27   2.0000      -1.340734       -36.4832
  28   2.0000      -1.238411       -33.6989
  29   2.0000      -1.155308       -31.4375
  30   2.0000      -1.120822       -30.4991
  31   2.0000      -1.043413       -28.3927
  32   2.0000      -1.031633       -28.0721
  33   2.0000      -1.012981       -27.5646
  34   2.0000      -0.999824       -27.2066
  35   2.0000      -0.985488       -26.8165
  36   2.0000      -0.923766       -25.1369
  37   2.0000      -0.896385       -24.3919
  38   2.0000      -0.849470       -23.1153
  39   2.0000      -0.838366       -22.8131
  40   2.0000      -0.831319       -22.6213
  41   2.0000      -0.818366       -22.2689
  42   2.0000      -0.744156       -20.2495
  43   2.0000      -0.729951       -19.8630
  44   2.0000      -0.727098       -19.7853
  45   2.0000      -0.692968       -18.8566
  46   2.0000      -0.686481       -18.6801
  47   2.0000      -0.676205       -18.4005
  48   2.0000      -0.673084       -18.3155
  49   2.0000      -0.661395       -17.9975
  50   2.0000      -0.651983       -17.7414
  51   2.0000      -0.646223       -17.5846
  52   2.0000      -0.634684       -17.2706
  53   2.0000      -0.624316       -16.9885
  54   2.0000      -0.603509       -16.4223
  55   2.0000      -0.602144       -16.3852
  56   2.0000      -0.598959       -16.2985
  57   2.0000      -0.578535       -15.7427
  58   2.0000      -0.575266       -15.6538
  59   2.0000      -0.563948       -15.3458
  60   2.0000      -0.551193       -14.9987
  61   2.0000      -0.546286       -14.8652
  62   2.0000      -0.536371       -14.5954
  63   2.0000      -0.527982       -14.3671
  64   2.0000      -0.519354       -14.1323
  65   2.0000      -0.511001       -13.9050
  66   2.0000      -0.500168       -13.6103
  67   2.0000      -0.495835       -13.4924
  68   2.0000      -0.479924       -13.0594
  69   2.0000      -0.464925       -12.6512
  70   2.0000      -0.455450       -12.3934
  71   2.0000      -0.449432       -12.2297
  72   2.0000      -0.355228        -9.6663
  73   2.0000      -0.346929        -9.4404
  74   2.0000      -0.328685        -8.9440
  75   2.0000      -0.318663        -8.6713
  76   2.0000      -0.316255        -8.6057
  77   0.0000       0.071143         1.9359
  78   0.0000       0.107492         2.9250
  79   0.0000       0.119782         3.2594
  80   0.0000       0.132707         3.6111
  81   0.0000       0.139044         3.7836

MULLIKEN ATOMIC CHARGES
-----------------------
   0 C :   -0.334744
   1 C :    0.058127
   2 O :   -0.387140
   3 C :    0.487926
   4 O :   -0.411697
   5 C :   -0.207052
   6 C :    0.141638
   7 C :   -0.284812
   8 N :   -0.122028
   9 C :    0.197059
  10 S :   -0.437170
  11 N :   -0.200596
  12 C :    0.046563
  13 C :    0.051660
  14 C :   -0.172206
  15 C :   -0.135941
  16 C :   -0.275627
  17 C :    0.317867
  18 O :   -0.360510
  19 C :   -0.286189
  20 H :    0.128238
  21 H :    0.110861
  22 H :    0.103646
  23 H :    0.106762
  24 H :    0.096437
  25 H :    0.120505
  26 H :    0.131824
  27 H :    0.105434
  28 H :    0.197250
  29 H :    0.194066
  30 H :    0.155733
  31 H :    0.161032
  32 H :    0.162031
  33 H :    0.130589
  34 H :    0.240499
  35 H :    0.169963
Sum of atomic charges:   -0.0000000

LOEWDIN ATOMIC CHARGES
----------------------
   0 C :    0.106628
   1 C :   -0.011419
   2 O :    0.285253
   3 C :   -0.419172
   4 O :    0.120113
   5 C :   -0.094826
   6 C :   -0.067658
   7 C :    0.125997
   8 N :    0.405045
   9 C :   -0.459100
  10 S :   -0.034707
  11 N :    0.397671
  12 C :   -0.045890
  13 C :   -0.040266
  14 C :    0.022752
  15 C :    0.041749
  16 C :   -0.002181
  17 C :   -0.193988
  18 O :    0.393897
  19 C :    0.027650
  20 H :   -0.023293
  21 H :   -0.024451
  22 H :   -0.028902
  23 H :   -0.027197
  24 H :   -0.029239
  25 H :   -0.010831
  26 H :   -0.006298
  27 H :   -0.020292
  28 H :   -0.058809
  29 H :   -0.063816
  30 H :   -0.004202
  31 H :   -0.024486
  32 H :   -0.020514
  33 H :   -0.035798
  34 H :   -0.154219
  35 H :   -0.025202

  Mayer bond orders larger than 0.100000
B(  0-C ,  1-C ) :   0.9624 B(  0-C , 20-H ) :   0.9682 B(  0-C , 21-H ) :   0.9751
B(  0-C , 22-H ) :   0.9687 B(  1-C ,  2-O ) :   0.8964 B(  1-C , 23-H ) :   0.9850
B(  1-C , 24-H ) :   0.9799 B(  2-O ,  3-C ) :   1.0901 B(  3-C ,  4-O ) :   2.0172
B(  3-C ,  5-C ) :   1.0383 B(  5-C ,  6-C ) :   1.6568 B(  5-C , 12-C ) :   0.9612
B(  6-C ,  7-C ) :   0.9537 B(  6-C ,  8-N ) :   1.1452 B(  7-C , 25-H ) :   0.9661
B(  7-C , 26-H ) :   0.9654 B(  7-C , 27-H ) :   0.9901 B(  8-N ,  9-C ) :   1.1796
B(  8-N , 28-H ) :   0.9489 B(  9-C , 10-S ) :   1.6137 B(  9-C , 11-N ) :   1.3022
B( 11-N , 12-C ) :   0.9896 B( 11-N , 29-H ) :   0.9519 B( 12-C , 13-C ) :   0.9457
B( 12-C , 30-H ) :   0.9995 B( 13-C , 14-C ) :   1.3786 B( 13-C , 19-C ) :   1.3574
B( 14-C , 15-C ) :   1.3934 B( 14-C , 31-H ) :   0.9618 B( 15-C , 16-C ) :   1.3625
B( 15-C , 32-H ) :   0.9705 B( 16-C , 17-C ) :   1.3318 B( 16-C , 33-H ) :   0.9848
B( 17-C , 18-O ) :   1.1093 B( 17-C , 19-C ) :   1.3694 B( 18-O , 34-H ) :   0.9802
B( 19-C , 35-H ) :   0.9594

MP2 TOTAL ENERGY:    -1274.332112701 Eh
FINAL SINGLE POINT ENERGY     -1274.332112700567

DIPOLE MOMENT
-------------
                                X             Y             Z
Electronic contribution:      9.74054       9.35245       6.76705
Nuclear contribution   :    -11.23118     -10.55829      -7.49872
                        -----------------------------------------
Total Dipole Moment    :     -1.49064      -1.20584      -0.73167
                        -----------------------------------------
Magnitude (a.u.)       :      2.05217
Magnitude (Debye)      :      5.21621

Rotational constants in cm-1:     0.011669     0.009534     0.006585
Rotational constants in MHz :   349.815233   285.813477   197.418450

                             ****ORCA TERMINATED NORMALLY****
TOTAL RUN TIME: 0 days 2 hours 8 minutes 2 seconds 357 msec
