                         Program Version 5.0.0 -  RELEASE  -
|  1> ! ri-mp2 cc-pvtz cc-pvtz/c TightSCF NoKeepInts
|  2>
|  3> %scf
|  4>   MaxCore 4096
|  5> end
|  6> *xyz  0  1
|  7>     C       14.3994541   15.8008955   16.3547445
|  8>     C       15.5198705   15.2461080   17.2525641
|  9>     O       16.6999273   15.0126241   16.4534867
| 10>     C       17.8544201   15.7583272   16.4734935
| 11>     O       18.8930714   15.2578479   16.0850409
| 12>     C       17.8892451   16.9043272   17.4261656
| 13>     C       17.3596629   18.1096525   17.1223054
| 14>     C       16.7064579   18.5116460   15.8194479
| 15>     N       17.4838310   19.1702151   18.0218982
| 16>     C       18.1949560   19.1199128   19.1929154
| 17>     S       18.3216427   20.4335667   20.1889426
| 18>     N       18.7956900   17.9234468   19.5010095
| 19>     C       18.6731202   16.6763673   18.7190978
| 20>     C       18.0676763   15.5445691   19.5453396
| 21>     C       18.5292510   14.2269077   19.3706686
| 22>     C       17.9660622   13.1669502   20.1001611
| 23>     C       16.9299557   13.4245308   21.0134493
| 24>     C       16.4638378   14.7341453   21.1885109
| 25>     O       15.4538502   14.9847534   22.0586486
| 26>     C       17.0249853   15.7878418   20.4598427
| 27>     H       14.6176229   16.8125461   16.0070251
| 28>     H       13.4530774   15.8343980   16.9083589
| 29>     H       14.2557259   15.1565108   15.4781500
| 30>     H       15.6979583   15.9218176   18.0963579
| 31>     H       15.1886693   14.2860206   17.6696690
| 32>     H       16.6220837   17.6740286   15.1164256
| 33>     H       17.2998437   19.2861667   15.3167777
| 34>     H       15.7006394   18.9158858   15.9864685
| 35>     H       17.0701544   20.0632883   17.8039635
| 36>     H       19.3017469   17.9133792   20.3777754
| 37>     H       19.6895995   16.3692468   18.4308085
| 38>     H       19.3198106   14.0213422   18.6514003
| 39>     H       18.3302376   12.1516954   19.9508704
| 40>     H       16.4908235   12.6077442   21.5769435
| 41>     H       15.2414662   14.1516388   22.5064666
| 42>     H       16.6405730   16.7916555   20.6088064
| 43> *
| 44>
| 45>                          ****END OF INPUT****

CARTESIAN COORDINATES (ANGSTROEM)
---------------------------------
  C     14.399454   15.800895   16.354744
  C     15.519870   15.246108   17.252564
  O     16.699927   15.012624   16.453487
  C     17.854420   15.758327   16.473494
  O     18.893071   15.257848   16.085041
  C     17.889245   16.904327   17.426166
  C     17.359663   18.109652   17.122305
  C     16.706458   18.511646   15.819448
  N     17.483831   19.170215   18.021898
  C     18.194956   19.119913   19.192915
  S     18.321643   20.433567   20.188943
  N     18.795690   17.923447   19.501009
  C     18.673120   16.676367   18.719098
  C     18.067676   15.544569   19.545340
  C     18.529251   14.226908   19.370669
  C     17.966062   13.166950   20.100161
  C     16.929956   13.424531   21.013449
  C     16.463838   14.734145   21.188511
  O     15.453850   14.984753   22.058649
  C     17.024985   15.787842   20.459843
  H     14.617623   16.812546   16.007025
  H     13.453077   15.834398   16.908359
  H     14.255726   15.156511   15.478150
  H     15.697958   15.921818   18.096358
  H     15.188669   14.286021   17.669669
  H     16.622084   17.674029   15.116426
  H     17.299844   19.286167   15.316778
  H     15.700639   18.915886   15.986469
  H     17.070154   20.063288   17.803963
  H     19.301747   17.913379   20.377775
  H     19.689599   16.369247   18.430809
  H     19.319811   14.021342   18.651400
  H     18.330238   12.151695   19.950870
  H     16.490824   12.607744   21.576943
  H     15.241466   14.151639   22.506467
  H     16.640573   16.791656   20.608806

 Total Charge           Charge          ....    0
 Multiplicity           Mult            ....    1
 Number of Electrons    NEL             ....  154
 Basis Dimension        Dim             ....  828

ORBITAL ENERGIES
----------------

  NO   OCC          E(Eh)            E(eV)
   0   2.0000     -91.889884     -2500.4509
   1   2.0000     -20.601347      -560.5911
   2   2.0000     -20.600204      -560.5601
   3   2.0000     -20.551749      -559.2415
   4   2.0000     -15.625471      -425.1907
   5   2.0000     -15.612506      -424.8379
   6   2.0000     -11.399002      -310.1826
   7   2.0000     -11.386949      -309.8546
   8   2.0000     -11.326601      -308.2125
   9   2.0000     -11.318522      -307.9926
  10   2.0000     -11.317766      -307.9721
  11   2.0000     -11.302401      -307.5540
  12   2.0000     -11.268378      -306.6282
  13   2.0000     -11.266033      -306.5644
  14   2.0000     -11.265553      -306.5513
  15   2.0000     -11.258730      -306.3656
  16   2.0000     -11.247696      -306.0654
  17   2.0000     -11.243709      -305.9569
  18   2.0000     -11.240962      -305.8821
  19   2.0000     -11.234445      -305.7048
  20   2.0000      -8.895008      -242.0455
  21   2.0000      -6.576600      -178.9584
  22   2.0000      -6.574569      -178.9031
  23   2.0000      -6.573998      -178.8876
  24   2.0000      -1.447359       -39.3846
  25   2.0000      -1.421160       -38.6717
  26   2.0000      -1.359234       -36.9866
  27   2.0000      -1.339793       -36.4576
  28   2.0000      -1.240288       -33.7500
  29   2.0000      -1.162938       -31.6452
  30   2.0000      -1.126410       -30.6512
  31   2.0000      -1.050213       -28.5778
  32   2.0000      -1.039947       -28.2984
  33   2.0000      -1.020743       -27.7758
  34   2.0000      -1.005859       -27.3708
  35   2.0000      -0.990142       -26.9431
  36   2.0000      -0.928772       -25.2732
  37   2.0000      -0.890809       -24.2401
  38   2.0000      -0.853647       -23.2289
  39   2.0000      -0.842273       -22.9194
  40   2.0000      -0.838301       -22.8113
  41   2.0000      -0.836955       -22.7747
  42   2.0000      -0.756071       -20.5737
  43   2.0000      -0.735438       -20.0123
  44   2.0000      -0.733043       -19.9471
  45   2.0000      -0.698866       -19.0171
  46   2.0000      -0.690101       -18.7786
  47   2.0000      -0.680014       -18.5041
  48   2.0000      -0.677536       -18.4367
  49   2.0000      -0.667224       -18.1561
  50   2.0000      -0.654447       -17.8084
  51   2.0000      -0.640189       -17.4204
  52   2.0000      -0.635137       -17.2830
  53   2.0000      -0.620248       -16.8778
  54   2.0000      -0.610952       -16.6248
  55   2.0000      -0.608316       -16.5531
  56   2.0000      -0.604738       -16.4558
  57   2.0000      -0.588852       -16.0235
  58   2.0000      -0.578978       -15.7548
  59   2.0000      -0.570890       -15.5347
  60   2.0000      -0.567539       -15.4435
  61   2.0000      -0.559571       -15.2267
  62   2.0000      -0.540554       -14.7092
  63   2.0000      -0.537517       -14.6266
  64   2.0000      -0.523654       -14.2494
  65   2.0000      -0.516410       -14.0522
  66   2.0000      -0.503620       -13.7042
  67   2.0000      -0.500083       -13.6080
  68   2.0000      -0.488644       -13.2967
  69   2.0000      -0.471598       -12.8328
  70   2.0000      -0.452731       -12.3194
  71   2.0000      -0.449244       -12.2246
  72   2.0000      -0.357228        -9.7207
  73   2.0000      -0.352518        -9.5925
  74   2.0000      -0.329687        -8.9712
  75   2.0000      -0.326292        -8.8789
  76   2.0000      -0.319047        -8.6817
  77   0.0000       0.090559         2.4642
  78   0.0000       0.103802         2.8246
  79   0.0000       0.114684         3.1207
  80   0.0000       0.126641         3.4461
  81   0.0000       0.128405         3.4941

MULLIKEN ATOMIC CHARGES
-----------------------
   0 C :   -0.279909
   1 C :    0.024082
   2 O :   -0.318024
   3 C :    0.390305
   4 O :   -0.377961
   5 C :   -0.185085
   6 C :    0.146777
   7 C :   -0.343582
   8 N :   -0.138771
   9 C :    0.209660
  10 S :   -0.442477
  11 N :   -0.226332
  12 C :    0.089240
  13 C :    0.002081
  14 C :   -0.194039
  15 C :   -0.133416
  16 C :   -0.275115
  17 C :    0.318356
  18 O :   -0.355739
  19 C :   -0.276453
  20 H :    0.086937
  21 H :    0.099459
  22 H :    0.110431
  23 H :    0.098960
  24 H :    0.124782
  25 H :    0.122377
  26 H :    0.151387
  27 H :    0.117873
  28 H :    0.195816
  29 H :    0.202351
  30 H :    0.165183
  31 H :    0.168172
  32 H :    0.164783
  33 H :    0.133337
  34 H :    0.241868
  35 H :    0.182687
Sum of atomic charges:   -0.0000000

LOEWDIN ATOMIC CHARGES
----------------------
   0 C :    0.105399
   1 C :   -0.016557
   2 O :    0.307027
   3 C :   -0.417824
   4 O :    0.125673
   5 C :   -0.079184
   6 C :   -0.107225
   7 C :    0.122955
   8 N :    0.401038
   9 C :   -0.455264
  10 S :   -0.038902
  11 N :    0.397414
  12 C :   -0.043379
  13 C :   -0.043470
  14 C :    0.023200
  15 C :    0.046345
  16 C :   -0.000154
  17 C :   -0.193708
  18 O :    0.395402
  19 C :    0.026134
  20 H :   -0.036185
  21 H :   -0.023714
  22 H :   -0.023296
  23 H :   -0.039577
  24 H :   -0.020737
  25 H :   -0.010149
  26 H :   -0.008265
  27 H :   -0.017942
  28 H :   -0.058040
  29 H :   -0.063859
  30 H :   -0.002145
  31 H :   -0.021358
  32 H :   -0.017837
  33 H :   -0.034336
  34 H :   -0.152615
  35 H :   -0.024862

  Mayer bond orders larger than 0.100000
B(  0-C ,  1-C ) :   0.9755 B(  0-C , 20-H ) :   0.9783 B(  0-C , 21-H ) :   0.9769
B(  0-C , 22-H ) :   0.9777 B(  1-C ,  2-O ) :   0.8941 B(  1-C , 23-H ) :   0.9572
B(  1-C , 24-H ) :   0.9803 B(  2-O ,  3-C ) :   1.1828 B(  3-C ,  4-O ) :   2.0963
B(  3-C ,  5-C ) :   0.9089 B(  5-C ,  6-C ) :   1.7002 B(  5-C , 12-C ) :   0.9551
B(  6-C ,  7-C ) :   0.9472 B(  6-C ,  8-N ) :   1.1093 B(  7-C , 25-H ) :   0.9822
B(  7-C , 26-H ) :   0.9644 B(  7-C , 27-H ) :   0.9695 B(  8-N ,  9-C ) :   1.2018
B(  8-N , 28-H ) :   0.9528 B(  9-C , 10-S ) :   1.6080 B(  9-C , 11-N ) :   1.2840
B( 11-N , 12-C ) :   0.9928 B( 11-N , 29-H ) :   0.9467 B( 12-C , 13-C ) :   0.9452
B( 12-C , 30-H ) :   0.9976 B( 13-C , 14-C ) :   1.3893 B( 13-C , 19-C ) :   1.3373
B( 14-C , 15-C ) :   1.4000 B( 14-C , 31-H ) :   0.9619 B( 15-C , 16-C ) :   1.3611
B( 15-C , 32-H ) :   0.9694 B( 16-C , 17-C ) :   1.3299 B( 16-C , 33-H ) :   0.9841
B( 17-C , 18-O ) :   1.1111 B( 17-C , 19-C ) :   1.3668 B( 18-O , 34-H ) :   0.9789
B( 19-C , 35-H ) :   0.9564

MP2 TOTAL ENERGY:    -1274.329149239 Eh
FINAL SINGLE POINT ENERGY     -1274.329149238886

DIPOLE MOMENT
-------------
                                X             Y             Z
Electronic contribution:     10.86132       5.36160       7.73248
Nuclear contribution   :    -12.37149      -6.51781      -8.00693
                        -----------------------------------------
Total Dipole Moment    :     -1.51017      -1.15622      -0.27445
                        -----------------------------------------
Magnitude (a.u.)       :      1.92166
Magnitude (Debye)      :      4.88446

Rotational constants in cm-1:     0.011749     0.009219     0.006782
Rotational constants in MHz :   352.215872   276.366462   203.322761

                             ****ORCA TERMINATED NORMALLY****
TOTAL RUN TIME: 0 days 2 hours 15 minutes 10 seconds 292 msec
