                         Program Version 5.0.0 -  RELEASE  -
|  1> ! ri-mp2 cc-pvtz cc-pvtz/c TightSCF NoKeepInts
|  2>
|  3> %scf
|  4>   MaxCore 4096
|  5> end
|  6> *xyz  0  1
|  7>     C       14.9939981   13.9641855   15.8508537
|  8>     C       15.6755301   15.0427311   14.9784898
|  9>     O       16.3131323   16.0579816   15.7844789
| 10>     C       17.2234352   15.7619142   16.7604154
| 11>     O       17.7402751   14.6615582   16.8631463
| 12>     C       17.6674349   16.9322478   17.5956621
| 13>     C       17.2697513   18.2229337   17.4312768
| 14>     C       16.3007074   18.7888074   16.4128483
| 15>     N       17.8142005   19.2252073   18.2420807
| 16>     C       18.8475383   19.0485343   19.1234361
| 17>     S       19.5208323   20.3170125   19.9440332
| 18>     N       19.2927475   17.7625620   19.2903773
| 19>     C       18.6421811   16.5673607   18.7225446
| 20>     C       17.9409081   15.7688019   19.8187448
| 21>     C       18.2290982   14.4034433   20.0002178
| 22>     C       17.5847008   13.6620333   21.0046800
| 23>     C       16.6427857   14.2904341   21.8368063
| 24>     C       16.3499425   15.6491410   21.6574324
| 25>     O       15.4362938   16.2574327   22.4553257
| 26>     C       16.9925560   16.3843154   20.6563905
| 27>     H       15.7254279   13.2974504   16.3228176
| 28>     H       14.3352374   13.3410259   15.2342045
| 29>     H       14.3850974   14.4268080   16.6374010
| 30>     H       16.4185398   14.5630615   14.3273489
| 31>     H       14.9228022   15.5181078   14.3366946
| 32>     H       16.6559264   18.5996621   15.3921964
| 33>     H       16.1633635   19.8722616   16.5127580
| 34>     H       15.3116439   18.3262870   16.5202894
| 35>     H       17.5012115   20.1766337   18.1344070
| 36>     H       20.0339264   17.6524140   19.9703471
| 37>     H       19.4326438   15.9367070   18.2904037
| 38>     H       18.9443509   13.9107334   19.3460033
| 39>     H       17.8122532   12.6049972   21.1298272
| 40>     H       16.1413218   13.7211380   22.6122456
| 41>     H       15.1319934   15.6006954   23.0993995
| 42>     H       16.7532117   17.4353792   20.5384153
| 43> *
| 44>
| 45>                          ****END OF INPUT****

CARTESIAN COORDINATES (ANGSTROEM)
---------------------------------
  C     14.993998   13.964185   15.850854
  C     15.675530   15.042731   14.978490
  O     16.313132   16.057982   15.784479
  C     17.223435   15.761914   16.760415
  O     17.740275   14.661558   16.863146
  C     17.667435   16.932248   17.595662
  C     17.269751   18.222934   17.431277
  C     16.300707   18.788807   16.412848
  N     17.814200   19.225207   18.242081
  C     18.847538   19.048534   19.123436
  S     19.520832   20.317012   19.944033
  N     19.292748   17.762562   19.290377
  C     18.642181   16.567361   18.722545
  C     17.940908   15.768802   19.818745
  C     18.229098   14.403443   20.000218
  C     17.584701   13.662033   21.004680
  C     16.642786   14.290434   21.836806
  C     16.349943   15.649141   21.657432
  O     15.436294   16.257433   22.455326
  C     16.992556   16.384315   20.656390
  H     15.725428   13.297450   16.322818
  H     14.335237   13.341026   15.234204
  H     14.385097   14.426808   16.637401
  H     16.418540   14.563061   14.327349
  H     14.922802   15.518108   14.336695
  H     16.655926   18.599662   15.392196
  H     16.163363   19.872262   16.512758
  H     15.311644   18.326287   16.520289
  H     17.501212   20.176634   18.134407
  H     20.033926   17.652414   19.970347
  H     19.432644   15.936707   18.290404
  H     18.944351   13.910733   19.346003
  H     17.812253   12.604997   21.129827
  H     16.141322   13.721138   22.612246
  H     15.131993   15.600695   23.099399
  H     16.753212   17.435379   20.538415

 Total Charge           Charge          ....    0
 Multiplicity           Mult            ....    1
 Number of Electrons    NEL             ....  154
 Basis Dimension        Dim             ....  828

ORBITAL ENERGIES
----------------

  NO   OCC          E(Eh)            E(eV)
   0   2.0000     -91.887905     -2500.3970
   1   2.0000     -20.602935      -560.6344
   2   2.0000     -20.590970      -560.3088
   3   2.0000     -20.544022      -559.0313
   4   2.0000     -15.628433      -425.2713
   5   2.0000     -15.606345      -424.6702
   6   2.0000     -11.397186      -310.1332
   7   2.0000     -11.382519      -309.7341
   8   2.0000     -11.337204      -308.5010
   9   2.0000     -11.306713      -307.6713
  10   2.0000     -11.304534      -307.6120
  11   2.0000     -11.304059      -307.5991
  12   2.0000     -11.260876      -306.4240
  13   2.0000     -11.258425      -306.3573
  14   2.0000     -11.252630      -306.1996
  15   2.0000     -11.246805      -306.0411
  16   2.0000     -11.236489      -305.7604
  17   2.0000     -11.232694      -305.6571
  18   2.0000     -11.229473      -305.5695
  19   2.0000     -11.225533      -305.4623
  20   2.0000      -8.892964      -241.9899
  21   2.0000      -6.574541      -178.9024
  22   2.0000      -6.572536      -178.8478
  23   2.0000      -6.571949      -178.8318
  24   2.0000      -1.451310       -39.4922
  25   2.0000      -1.410708       -38.3873
  26   2.0000      -1.356460       -36.9112
  27   2.0000      -1.339323       -36.4448
  28   2.0000      -1.236749       -33.6536
  29   2.0000      -1.151328       -31.3292
  30   2.0000      -1.118631       -30.4395
  31   2.0000      -1.041393       -28.3377
  32   2.0000      -1.033923       -28.1345
  33   2.0000      -1.008725       -27.4488
  34   2.0000      -0.996864       -27.1260
  35   2.0000      -0.982286       -26.7293
  36   2.0000      -0.920954       -25.0604
  37   2.0000      -0.896480       -24.3945
  38   2.0000      -0.847705       -23.0672
  39   2.0000      -0.835062       -22.7232
  40   2.0000      -0.827067       -22.5056
  41   2.0000      -0.816084       -22.2068
  42   2.0000      -0.748402       -20.3650
  43   2.0000      -0.733629       -19.9631
  44   2.0000      -0.724103       -19.7038
  45   2.0000      -0.689930       -18.7739
  46   2.0000      -0.685089       -18.6422
  47   2.0000      -0.678686       -18.4680
  48   2.0000      -0.670929       -18.2569
  49   2.0000      -0.656695       -17.8696
  50   2.0000      -0.650100       -17.6901
  51   2.0000      -0.643766       -17.5178
  52   2.0000      -0.631124       -17.1738
  53   2.0000      -0.613707       -16.6998
  54   2.0000      -0.599839       -16.3224
  55   2.0000      -0.598834       -16.2951
  56   2.0000      -0.594445       -16.1757
  57   2.0000      -0.581887       -15.8340
  58   2.0000      -0.572789       -15.5864
  59   2.0000      -0.565330       -15.3834
  60   2.0000      -0.558225       -15.1901
  61   2.0000      -0.542155       -14.7528
  62   2.0000      -0.538594       -14.6559
  63   2.0000      -0.524414       -14.2700
  64   2.0000      -0.515933       -14.0393
  65   2.0000      -0.509993       -13.8776
  66   2.0000      -0.501207       -13.6385
  67   2.0000      -0.494908       -13.4671
  68   2.0000      -0.479611       -13.0509
  69   2.0000      -0.463617       -12.6156
  70   2.0000      -0.456591       -12.4245
  71   2.0000      -0.450446       -12.2573
  72   2.0000      -0.354018        -9.6333
  73   2.0000      -0.343367        -9.3435
  74   2.0000      -0.326987        -8.8978
  75   2.0000      -0.315341        -8.5809
  76   2.0000      -0.312832        -8.5126
  77   0.0000       0.075517         2.0549
  78   0.0000       0.114245         3.1088
  79   0.0000       0.121925         3.3178
  80   0.0000       0.136649         3.7184
  81   0.0000       0.140946         3.8353

MULLIKEN ATOMIC CHARGES
-----------------------
   0 C :   -0.308343
   1 C :    0.040470
   2 O :   -0.347801
   3 C :    0.459821
   4 O :   -0.439569
   5 C :   -0.177634
   6 C :    0.143359
   7 C :   -0.281160
   8 N :   -0.119800
   9 C :    0.201056
  10 S :   -0.439003
  11 N :   -0.196765
  12 C :    0.033981
  13 C :    0.060146
  14 C :   -0.162014
  15 C :   -0.134007
  16 C :   -0.278727
  17 C :    0.311631
  18 O :   -0.359319
  19 C :   -0.274633
  20 H :    0.130395
  21 H :    0.096327
  22 H :    0.094716
  23 H :    0.097961
  24 H :    0.105922
  25 H :    0.128453
  26 H :    0.101016
  27 H :    0.124970
  28 H :    0.196616
  29 H :    0.193503
  30 H :    0.153969
  31 H :    0.153453
  32 H :    0.158768
  33 H :    0.127746
  34 H :    0.240005
  35 H :    0.164491
Sum of atomic charges:   -0.0000000

LOEWDIN ATOMIC CHARGES
----------------------
   0 C :    0.105389
   1 C :   -0.013365
   2 O :    0.300700
   3 C :   -0.413575
   4 O :    0.104720
   5 C :   -0.090595
   6 C :   -0.063183
   7 C :    0.124750
   8 N :    0.405049
   9 C :   -0.459406
  10 S :   -0.035839
  11 N :    0.398274
  12 C :   -0.046900
  13 C :   -0.038709
  14 C :    0.022318
  15 C :    0.040610
  16 C :   -0.002372
  17 C :   -0.192730
  18 O :    0.392864
  19 C :    0.028039
  20 H :   -0.024636
  21 H :   -0.027254
  22 H :   -0.028935
  23 H :   -0.028364
  24 H :   -0.025087
  25 H :   -0.008175
  26 H :   -0.021626
  27 H :   -0.010029
  28 H :   -0.059353
  29 H :   -0.063512
  30 H :   -0.005555
  31 H :   -0.025354
  32 H :   -0.021376
  33 H :   -0.036496
  34 H :   -0.154968
  35 H :   -0.025320

  Mayer bond orders larger than 0.100000
B(  0-C ,  1-C ) :   0.9629 B(  0-C , 20-H ) :   0.9712 B(  0-C , 21-H ) :   0.9768
B(  0-C , 22-H ) :   0.9756 B(  1-C ,  2-O ) :   0.9019 B(  1-C , 23-H ) :   0.9802
B(  1-C , 24-H ) :   0.9843 B(  2-O ,  3-C ) :   1.1624 B(  3-C ,  4-O ) :   1.9535
B(  3-C ,  5-C ) :   1.0692 B(  5-C ,  6-C ) :   1.6380 B(  5-C , 12-C ) :   0.9675
B(  6-C ,  7-C ) :   0.9580 B(  6-C ,  8-N ) :   1.1545 B(  7-C , 25-H ) :   0.9630
B(  7-C , 26-H ) :   0.9917 B(  7-C , 27-H ) :   0.9652 B(  8-N ,  9-C ) :   1.1761
B(  8-N , 28-H ) :   0.9486 B(  9-C , 10-S ) :   1.6111 B(  9-C , 11-N ) :   1.3057
B( 11-N , 12-C ) :   0.9925 B( 11-N , 29-H ) :   0.9520 B( 12-C , 13-C ) :   0.9456
B( 12-C , 30-H ) :   1.0016 B( 13-C , 14-C ) :   1.3750 B( 13-C , 19-C ) :   1.3688
B( 14-C , 15-C ) :   1.3946 B( 14-C , 31-H ) :   0.9649 B( 15-C , 16-C ) :   1.3621
B( 15-C , 32-H ) :   0.9715 B( 16-C , 17-C ) :   1.3319 B( 16-C , 33-H ) :   0.9861
B( 17-C , 18-O ) :   1.1078 B( 17-C , 19-C ) :   1.3793 B( 18-O , 34-H ) :   0.9806
B( 19-C , 35-H ) :   0.9583

MP2 TOTAL ENERGY:    -1274.345788243 Eh
FINAL SINGLE POINT ENERGY     -1274.345788243179

DIPOLE MOMENT
-------------
                                X             Y             Z
Electronic contribution:     10.70321      10.00270       9.90530
Nuclear contribution   :    -12.30039     -11.18492     -10.97531
                        -----------------------------------------
Total Dipole Moment    :     -1.59718      -1.18221      -1.07001
                        -----------------------------------------
Magnitude (a.u.)       :      2.25689
Magnitude (Debye)      :      5.73656

Rotational constants in cm-1:     0.010569     0.009070     0.005877
Rotational constants in MHz :   316.863468   271.897356   176.186617

                             ****ORCA TERMINATED NORMALLY****
TOTAL RUN TIME: 0 days 1 hours 45 minutes 31 seconds 937 msec
