                         Program Version 5.0.0 -  RELEASE  -
|  1> ! ri-mp2 cc-pvtz cc-pvtz/c TightSCF NoKeepInts
|  2>
|  3> %scf
|  4>   MaxCore 4096
|  5> end
|  6> *xyz  0  1
|  7>     C       15.4119175   14.2103515   14.8983836
|  8>     C       15.7972874   14.0210525   16.3825626
|  9>     O       16.6911706   15.0514555   16.8603156
| 10>     C       16.4349040   16.3949459   16.7645601
| 11>     O       15.4677877   16.8538253   16.1828851
| 12>     C       17.3761715   17.2140937   17.6061024
| 13>     C       17.3312437   18.5707294   17.6391825
| 14>     C       16.3807557   19.4770202   16.8860486
| 15>     N       18.2598595   19.2849798   18.4024459
| 16>     C       19.3257500   18.7311373   19.0596862
| 17>     S       20.4418631   19.6579425   19.8542546
| 18>     N       19.4241062   17.3638281   19.0216661
| 19>     C       18.4098621   16.4556038   18.4559107
| 20>     C       17.7507937   15.6589398   19.5786019
| 21>     C       17.9616212   14.2714217   19.6874953
| 22>     C       17.3562339   13.5349465   20.7196785
| 23>     C       16.5354913   14.1912053   21.6527738
| 24>     C       16.3269780   15.5734563   21.5500109
| 25>     O       15.5364056   16.2101460   22.4504129
| 26>     C       16.9307017   16.3036373   20.5217154
| 27>     H       14.6501478   14.9889504   14.7728161
| 28>     H       14.9941670   13.2799382   14.4955243
| 29>     H       16.2898375   14.4771398   14.2972456
| 30>     H       14.8844462   14.0104802   16.9928450
| 31>     H       16.2893006   13.0475744   16.5035380
| 32>     H       15.3445212   19.2881261   17.1947746
| 33>     H       16.4397869   19.2879614   15.8066999
| 34>     H       16.5852821   20.5420701   17.0460208
| 35>     H       18.2036689   20.2901688   18.4403287
| 36>     H       20.1993116   16.9820728   19.5480459
| 37>     H       18.9354990   15.7534058   17.7937533
| 38>     H       18.5923241   13.7610490   18.9646719
| 39>     H       17.5239031   12.4619868   20.7944853
| 40>     H       16.0660978   13.6270685   22.4519281
| 41>     H       15.2353028   15.5496860   23.0921452
| 42>     H       16.7624991   17.3736032   20.4644847
| 43> *
| 44>
| 45>                          ****END OF INPUT****

CARTESIAN COORDINATES (ANGSTROEM)
---------------------------------
  C     15.411917   14.210351   14.898384
  C     15.797287   14.021052   16.382563
  O     16.691171   15.051455   16.860316
  C     16.434904   16.394946   16.764560
  O     15.467788   16.853825   16.182885
  C     17.376172   17.214094   17.606102
  C     17.331244   18.570729   17.639183
  C     16.380756   19.477020   16.886049
  N     18.259860   19.284980   18.402446
  C     19.325750   18.731137   19.059686
  S     20.441863   19.657942   19.854255
  N     19.424106   17.363828   19.021666
  C     18.409862   16.455604   18.455911
  C     17.750794   15.658940   19.578602
  C     17.961621   14.271422   19.687495
  C     17.356234   13.534946   20.719679
  C     16.535491   14.191205   21.652774
  C     16.326978   15.573456   21.550011
  O     15.536406   16.210146   22.450413
  C     16.930702   16.303637   20.521715
  H     14.650148   14.988950   14.772816
  H     14.994167   13.279938   14.495524
  H     16.289838   14.477140   14.297246
  H     14.884446   14.010480   16.992845
  H     16.289301   13.047574   16.503538
  H     15.344521   19.288126   17.194775
  H     16.439787   19.287961   15.806700
  H     16.585282   20.542070   17.046021
  H     18.203669   20.290169   18.440329
  H     20.199312   16.982073   19.548046
  H     18.935499   15.753406   17.793753
  H     18.592324   13.761049   18.964672
  H     17.523903   12.461987   20.794485
  H     16.066098   13.627069   22.451928
  H     15.235303   15.549686   23.092145
  H     16.762499   17.373603   20.464485

 Total Charge           Charge          ....    0
 Multiplicity           Mult            ....    1
 Number of Electrons    NEL             ....  154
 Basis Dimension        Dim             ....  828

ORBITAL ENERGIES
----------------

  NO   OCC          E(Eh)            E(eV)
   0   2.0000     -91.888055     -2500.4011
   1   2.0000     -20.600177      -560.5593
   2   2.0000     -20.595066      -560.4202
   3   2.0000     -20.541646      -558.9666
   4   2.0000     -15.628204      -425.2651
   5   2.0000     -15.607228      -424.6943
   6   2.0000     -11.396838      -310.1237
   7   2.0000     -11.383054      -309.7487
   8   2.0000     -11.334968      -308.4402
   9   2.0000     -11.312035      -307.8161
  10   2.0000     -11.307790      -307.7006
  11   2.0000     -11.301593      -307.5320
  12   2.0000     -11.258453      -306.3581
  13   2.0000     -11.257997      -306.3457
  14   2.0000     -11.253564      -306.2250
  15   2.0000     -11.251464      -306.1679
  16   2.0000     -11.241290      -305.8910
  17   2.0000     -11.236681      -305.7656
  18   2.0000     -11.236548      -305.7620
  19   2.0000     -11.222062      -305.3678
  20   2.0000      -8.893122      -241.9942
  21   2.0000      -6.574699      -178.9066
  22   2.0000      -6.572693      -178.8521
  23   2.0000      -6.572108      -178.8361
  24   2.0000      -1.447284       -39.3826
  25   2.0000      -1.414703       -38.4960
  26   2.0000      -1.355176       -36.8762
  27   2.0000      -1.339215       -36.4419
  28   2.0000      -1.237568       -33.6759
  29   2.0000      -1.155904       -31.4538
  30   2.0000      -1.119095       -30.4521
  31   2.0000      -1.041407       -28.3381
  32   2.0000      -1.035818       -28.1860
  33   2.0000      -1.013353       -27.5747
  34   2.0000      -0.994378       -27.0584
  35   2.0000      -0.982858       -26.7449
  36   2.0000      -0.921380       -25.0720
  37   2.0000      -0.896332       -24.3904
  38   2.0000      -0.846392       -23.0315
  39   2.0000      -0.836645       -22.7663
  40   2.0000      -0.832403       -22.6508
  41   2.0000      -0.818082       -22.2611
  42   2.0000      -0.750193       -20.4138
  43   2.0000      -0.729909       -19.8618
  44   2.0000      -0.720648       -19.6098
  45   2.0000      -0.694342       -18.8940
  46   2.0000      -0.687543       -18.7090
  47   2.0000      -0.679881       -18.5005
  48   2.0000      -0.668888       -18.2014
  49   2.0000      -0.652307       -17.7502
  50   2.0000      -0.651604       -17.7311
  51   2.0000      -0.644335       -17.5332
  52   2.0000      -0.632854       -17.2208
  53   2.0000      -0.607863       -16.5408
  54   2.0000      -0.605025       -16.4636
  55   2.0000      -0.598169       -16.2770
  56   2.0000      -0.597405       -16.2562
  57   2.0000      -0.579991       -15.7823
  58   2.0000      -0.572788       -15.5864
  59   2.0000      -0.570138       -15.5143
  60   2.0000      -0.561667       -15.2837
  61   2.0000      -0.538237       -14.6462
  62   2.0000      -0.536220       -14.5913
  63   2.0000      -0.523797       -14.2532
  64   2.0000      -0.521418       -14.1885
  65   2.0000      -0.512330       -13.9412
  66   2.0000      -0.502476       -13.6731
  67   2.0000      -0.498666       -13.5694
  68   2.0000      -0.483398       -13.1539
  69   2.0000      -0.463278       -12.6064
  70   2.0000      -0.455680       -12.3997
  71   2.0000      -0.441470       -12.0130
  72   2.0000      -0.353409        -9.6167
  73   2.0000      -0.347796        -9.4640
  74   2.0000      -0.327390        -8.9087
  75   2.0000      -0.319678        -8.6989
  76   2.0000      -0.315036        -8.5726
  77   0.0000       0.077070         2.0972
  78   0.0000       0.108964         2.9651
  79   0.0000       0.125021         3.4020
  80   0.0000       0.133464         3.6317
  81   0.0000       0.137478         3.7410

MULLIKEN ATOMIC CHARGES
-----------------------
   0 C :   -0.297788
   1 C :    0.049180
   2 O :   -0.356773
   3 C :    0.469982
   4 O :   -0.435991
   5 C :   -0.210270
   6 C :    0.146695
   7 C :   -0.274620
   8 N :   -0.119895
   9 C :    0.211641
  10 S :   -0.441074
  11 N :   -0.203170
  12 C :    0.047997
  13 C :    0.074772
  14 C :   -0.185007
  15 C :   -0.131056
  16 C :   -0.278739
  17 C :    0.315638
  18 O :   -0.356924
  19 C :   -0.269882
  20 H :    0.127699
  21 H :    0.094832
  22 H :    0.092458
  23 H :    0.090329
  24 H :    0.102568
  25 H :    0.132691
  26 H :    0.129124
  27 H :    0.095165
  28 H :    0.197087
  29 H :    0.194088
  30 H :    0.148899
  31 H :    0.147505
  32 H :    0.159071
  33 H :    0.129074
  34 H :    0.240467
  35 H :    0.164227
Sum of atomic charges:    0.0000000

LOEWDIN ATOMIC CHARGES
----------------------
   0 C :    0.103855
   1 C :   -0.010685
   2 O :    0.300045
   3 C :   -0.412264
   4 O :    0.103429
   5 C :   -0.093146
   6 C :   -0.059456
   7 C :    0.130814
   8 N :    0.406381
   9 C :   -0.456740
  10 S :   -0.036326
  11 N :    0.396440
  12 C :   -0.052816
  13 C :   -0.037816
  14 C :    0.013717
  15 C :    0.038915
  16 C :   -0.002032
  17 C :   -0.189427
  18 O :    0.394988
  19 C :    0.031456
  20 H :   -0.026009
  21 H :   -0.028979
  22 H :   -0.028328
  23 H :   -0.028067
  24 H :   -0.024818
  25 H :   -0.004663
  26 H :   -0.004566
  27 H :   -0.023534
  28 H :   -0.057743
  29 H :   -0.064750
  30 H :   -0.011279
  31 H :   -0.030790
  32 H :   -0.021725
  33 H :   -0.035900
  34 H :   -0.154174
  35 H :   -0.024007

  Mayer bond orders larger than 0.100000
B(  0-C ,  1-C ) :   0.9714 B(  0-C , 20-H ) :   0.9713 B(  0-C , 21-H ) :   0.9782
B(  0-C , 22-H ) :   0.9756 B(  1-C ,  2-O ) :   0.9006 B(  1-C , 23-H ) :   0.9765
B(  1-C , 24-H ) :   0.9838 B(  2-O ,  3-C ) :   1.1606 B(  3-C ,  4-O ) :   1.9589
B(  3-C ,  5-C ) :   1.0604 B(  5-C ,  6-C ) :   1.6572 B(  5-C , 12-C ) :   0.9740
B(  6-C ,  7-C ) :   0.9677 B(  6-C ,  8-N ) :   1.1641 B(  7-C , 25-H ) :   0.9601
B(  7-C , 26-H ) :   0.9607 B(  7-C , 27-H ) :   0.9909 B(  8-N ,  9-C ) :   1.1826
B(  8-N , 28-H ) :   0.9481 B(  9-C , 10-S ) :   1.6063 B(  9-C , 11-N ) :   1.3055
B( 11-N , 12-C ) :   0.9865 B( 11-N , 29-H ) :   0.9519 B( 12-C , 13-C ) :   0.9375
B( 12-C , 30-H ) :   1.0026 B( 13-C , 14-C ) :   1.3541 B( 13-C , 19-C ) :   1.3832
B( 14-C , 15-C ) :   1.3926 B( 14-C , 31-H ) :   0.9721 B( 15-C , 16-C ) :   1.3643
B( 15-C , 32-H ) :   0.9710 B( 16-C , 17-C ) :   1.3318 B( 16-C , 33-H ) :   0.9853
B( 17-C , 18-O ) :   1.1098 B( 17-C , 19-C ) :   1.3735 B( 18-O , 34-H ) :   0.9801
B( 19-C , 35-H ) :   0.9583

MP2 TOTAL ENERGY:    -1274.344287714 Eh
FINAL SINGLE POINT ENERGY     -1274.344287713991

DIPOLE MOMENT
-------------
                                X             Y             Z
Electronic contribution:      9.89971       9.35858      10.16837
Nuclear contribution   :    -10.99520     -11.06414     -10.56109
                        -----------------------------------------
Total Dipole Moment    :     -1.09549      -1.70557      -0.39272
                        -----------------------------------------
Magnitude (a.u.)       :      2.06477
Magnitude (Debye)      :      5.24823

Rotational constants in cm-1:     0.010920     0.008851     0.006008
Rotational constants in MHz :   327.376478   265.355421   180.105632

                             ****ORCA TERMINATED NORMALLY****
TOTAL RUN TIME: 0 days 2 hours 37 minutes 32 seconds 576 msec
