                         Program Version 5.0.0 -  RELEASE  -
|  1> ! ri-mp2 cc-pvtz cc-pvtz/c TightSCF NoKeepInts
|  2>
|  3> %scf
|  4>   MaxCore 4096
|  5> end
|  6> *xyz  0  1
|  7>     C       15.1551101   13.8254187   16.0151966
|  8>     C       16.1790181   14.5501971   16.9039262
|  9>     O       17.0515383   15.2851440   16.0302231
| 10>     C       17.0605076   16.6503877   16.0640769
| 11>     O       16.6108604   17.2694572   15.1181735
| 12>     C       17.5406373   17.2957566   17.3407558
| 13>     C       17.3133891   18.6099860   17.6021571
| 14>     C       16.4497215   19.5710584   16.8138018
| 15>     N       17.9654454   19.2314615   18.6725989
| 16>     C       19.0473423   18.6996321   19.3245003
| 17>     S       19.9406771   19.5747871   20.4068223
| 18>     N       19.3652945   17.4025542   19.0084311
| 19>     C       18.4676492   16.4930936   18.2742640
| 20>     C       17.7404675   15.6281580   19.3000424
| 21>     C       18.2263267   14.3409993   19.5995858
| 22>     C       17.5753848   13.5318963   20.5458022
| 23>     C       16.4355218   14.0171627   21.2085802
| 24>     C       15.9603538   15.3053598   20.9292792
| 25>     O       14.8636416   15.7803207   21.5708036
| 26>     C       16.6079142   16.1073385   19.9845090
| 27>     H       14.5692406   14.5484327   15.4332996
| 28>     H       14.4629981   13.2340270   16.6267383
| 29>     H       15.6608676   13.1490055   15.3148246
| 30>     H       15.6508850   15.2116463   17.6028583
| 31>     H       16.7483469   13.8035702   17.4700610
| 32>     H       15.4731936   19.1236437   16.5892534
| 33>     H       16.9246386   19.8152833   15.8546254
| 34>     H       16.2633317   20.5116790   17.3451631
| 35>     H       17.7577965   20.1928944   18.8916876
| 36>     H       20.1599701   17.0300343   19.5119411
| 37>     H       19.0889911   15.8383969   17.6463377
| 38>     H       19.1115529   13.9638173   19.0936866
| 39>     H       17.9574943   12.5365223   20.7675622
| 40>     H       15.9309493   13.3968172   21.9424184
| 41>     H       14.6020600   15.1206605   22.2313038
| 42>     H       16.2278825   17.1054002   19.7987087
| 43> *
| 44>
| 45>                          ****END OF INPUT****

CARTESIAN COORDINATES (ANGSTROEM)
---------------------------------
  C     15.155110   13.825419   16.015197
  C     16.179018   14.550197   16.903926
  O     17.051538   15.285144   16.030223
  C     17.060508   16.650388   16.064077
  O     16.610860   17.269457   15.118173
  C     17.540637   17.295757   17.340756
  C     17.313389   18.609986   17.602157
  C     16.449721   19.571058   16.813802
  N     17.965445   19.231462   18.672599
  C     19.047342   18.699632   19.324500
  S     19.940677   19.574787   20.406822
  N     19.365295   17.402554   19.008431
  C     18.467649   16.493094   18.274264
  C     17.740468   15.628158   19.300042
  C     18.226327   14.340999   19.599586
  C     17.575385   13.531896   20.545802
  C     16.435522   14.017163   21.208580
  C     15.960354   15.305360   20.929279
  O     14.863642   15.780321   21.570804
  C     16.607914   16.107339   19.984509
  H     14.569241   14.548433   15.433300
  H     14.462998   13.234027   16.626738
  H     15.660868   13.149005   15.314825
  H     15.650885   15.211646   17.602858
  H     16.748347   13.803570   17.470061
  H     15.473194   19.123644   16.589253
  H     16.924639   19.815283   15.854625
  H     16.263332   20.511679   17.345163
  H     17.757797   20.192894   18.891688
  H     20.159970   17.030034   19.511941
  H     19.088991   15.838397   17.646338
  H     19.111553   13.963817   19.093687
  H     17.957494   12.536522   20.767562
  H     15.930949   13.396817   21.942418
  H     14.602060   15.120660   22.231304
  H     16.227882   17.105400   19.798709

 Total Charge           Charge          ....    0
 Multiplicity           Mult            ....    1
 Number of Electrons    NEL             ....  154
 Basis Dimension        Dim             ....  828

ORBITAL ENERGIES
----------------

  NO   OCC          E(Eh)            E(eV)
   0   2.0000     -91.892333     -2500.5175
   1   2.0000     -20.604541      -560.6781
   2   2.0000     -20.585332      -560.1554
   3   2.0000     -20.545146      -559.0618
   4   2.0000     -15.632810      -425.3904
   5   2.0000     -15.611358      -424.8067
   6   2.0000     -11.392537      -310.0067
   7   2.0000     -11.386656      -309.8467
   8   2.0000     -11.338880      -308.5466
   9   2.0000     -11.322450      -308.0995
  10   2.0000     -11.316049      -307.9253
  11   2.0000     -11.295637      -307.3699
  12   2.0000     -11.267777      -306.6118
  13   2.0000     -11.264084      -306.5113
  14   2.0000     -11.260918      -306.4252
  15   2.0000     -11.254392      -306.2476
  16   2.0000     -11.251031      -306.1561
  17   2.0000     -11.246193      -306.0245
  18   2.0000     -11.245302      -306.0002
  19   2.0000     -11.222352      -305.3757
  20   2.0000      -8.897321      -242.1084
  21   2.0000      -6.578877      -179.0204
  22   2.0000      -6.576893      -178.9664
  23   2.0000      -6.576290      -178.9500
  24   2.0000      -1.445862       -39.3439
  25   2.0000      -1.424163       -38.7535
  26   2.0000      -1.353864       -36.8405
  27   2.0000      -1.344302       -36.5803
  28   2.0000      -1.242730       -33.8164
  29   2.0000      -1.165006       -31.7014
  30   2.0000      -1.122595       -30.5474
  31   2.0000      -1.048711       -28.5369
  32   2.0000      -1.032403       -28.0931
  33   2.0000      -1.023804       -27.8591
  34   2.0000      -1.000534       -27.2259
  35   2.0000      -0.987456       -26.8701
  36   2.0000      -0.927794       -25.2465
  37   2.0000      -0.878938       -23.9171
  38   2.0000      -0.852146       -23.1881
  39   2.0000      -0.847925       -23.0732
  40   2.0000      -0.841535       -22.8993
  41   2.0000      -0.833523       -22.6813
  42   2.0000      -0.760172       -20.6853
  43   2.0000      -0.738024       -20.0827
  44   2.0000      -0.719331       -19.5740
  45   2.0000      -0.704216       -19.1627
  46   2.0000      -0.695083       -18.9142
  47   2.0000      -0.677924       -18.4472
  48   2.0000      -0.669828       -18.2269
  49   2.0000      -0.668032       -18.1781
  50   2.0000      -0.652427       -17.7534
  51   2.0000      -0.648379       -17.6433
  52   2.0000      -0.641724       -17.4622
  53   2.0000      -0.615966       -16.7613
  54   2.0000      -0.607952       -16.5432
  55   2.0000      -0.603195       -16.4138
  56   2.0000      -0.587549       -15.9880
  57   2.0000      -0.583464       -15.8769
  58   2.0000      -0.576633       -15.6910
  59   2.0000      -0.573922       -15.6172
  60   2.0000      -0.565134       -15.3781
  61   2.0000      -0.543437       -14.7877
  62   2.0000      -0.540632       -14.7113
  63   2.0000      -0.533289       -14.5115
  64   2.0000      -0.519979       -14.1494
  65   2.0000      -0.512755       -13.9528
  66   2.0000      -0.508939       -13.8489
  67   2.0000      -0.501759       -13.6536
  68   2.0000      -0.485087       -13.1999
  69   2.0000      -0.466091       -12.6830
  70   2.0000      -0.450682       -12.2637
  71   2.0000      -0.444779       -12.1030
  72   2.0000      -0.361430        -9.8350
  73   2.0000      -0.356540        -9.7020
  74   2.0000      -0.333177        -9.0662
  75   2.0000      -0.328401        -8.9362
  76   2.0000      -0.319054        -8.6819
  77   0.0000       0.070219         1.9108
  78   0.0000       0.098339         2.6759
  79   0.0000       0.118696         3.2299
  80   0.0000       0.125141         3.4052
  81   0.0000       0.129053         3.5117

MULLIKEN ATOMIC CHARGES
-----------------------
   0 C :   -0.255889
   1 C :    0.018807
   2 O :   -0.356577
   3 C :    0.473359
   4 O :   -0.388861
   5 C :   -0.275172
   6 C :    0.139048
   7 C :   -0.270043
   8 N :   -0.123838
   9 C :    0.215609
  10 S :   -0.434448
  11 N :   -0.202376
  12 C :    0.053157
  13 C :    0.060639
  14 C :   -0.224596
  15 C :   -0.122060
  16 C :   -0.274914
  17 C :    0.314517
  18 O :   -0.355767
  19 C :   -0.257302
  20 H :    0.101864
  21 H :    0.085879
  22 H :    0.097987
  23 H :    0.097868
  24 H :    0.108537
  25 H :    0.125259
  26 H :    0.140460
  27 H :    0.093931
  28 H :    0.199443
  29 H :    0.191181
  30 H :    0.153555
  31 H :    0.155735
  32 H :    0.164908
  33 H :    0.133728
  34 H :    0.242816
  35 H :    0.173554
Sum of atomic charges:    0.0000000

LOEWDIN ATOMIC CHARGES
----------------------
   0 C :    0.107383
   1 C :   -0.026501
   2 O :    0.296107
   3 C :   -0.426640
   4 O :    0.120892
   5 C :   -0.100322
   6 C :   -0.058973
   7 C :    0.130353
   8 N :    0.408025
   9 C :   -0.454637
  10 S :   -0.030092
  11 N :    0.395976
  12 C :   -0.051574
  13 C :   -0.037106
  14 C :    0.009851
  15 C :    0.042982
  16 C :    0.000166
  17 C :   -0.189797
  18 O :    0.396652
  19 C :    0.030556
  20 H :   -0.024344
  21 H :   -0.028923
  22 H :   -0.025929
  23 H :   -0.032525
  24 H :   -0.029809
  25 H :   -0.006163
  26 H :   -0.001859
  27 H :   -0.022976
  28 H :   -0.056975
  29 H :   -0.066551
  30 H :   -0.005035
  31 H :   -0.030708
  32 H :   -0.019039
  33 H :   -0.033758
  34 H :   -0.151680
  35 H :   -0.027028

  Mayer bond orders larger than 0.100000
B(  0-C ,  1-C ) :   0.9815 B(  0-C , 20-H ) :   0.9773 B(  0-C , 21-H ) :   0.9778
B(  0-C , 22-H ) :   0.9807 B(  1-C ,  2-O ) :   0.8764 B(  1-C , 23-H ) :   0.9658
B(  1-C , 24-H ) :   0.9747 B(  2-O ,  3-C ) :   1.1341 B(  3-C ,  4-O ) :   2.0562
B(  3-C ,  5-C ) :   1.0206 B(  5-C ,  6-C ) :   1.6537 B(  5-C , 12-C ) :   0.9654
B(  6-C ,  7-C ) :   0.9754 B(  6-C ,  8-N ) :   1.1529 B(  7-C , 25-H ) :   0.9661
B(  7-C , 26-H ) :   0.9538 B(  7-C , 27-H ) :   0.9868 B(  8-N ,  9-C ) :   1.1797
B(  8-N , 28-H ) :   0.9486 B(  9-C , 10-S ) :   1.6153 B(  9-C , 11-N ) :   1.2992
B( 11-N , 12-C ) :   0.9571 B( 11-N , 29-H ) :   0.9539 B( 12-C , 13-C ) :   0.9567
B( 12-C , 30-H ) :   0.9988 B( 13-C , 14-C ) :   1.3476 B( 13-C , 19-C ) :   1.3597
B( 14-C , 15-C ) :   1.3866 B( 14-C , 31-H ) :   0.9746 B( 15-C , 16-C ) :   1.3689
B( 15-C , 32-H ) :   0.9689 B( 16-C , 17-C ) :   1.3283 B( 16-C , 33-H ) :   0.9835
B( 17-C , 18-O ) :   1.1168 B( 17-C , 19-C ) :   1.3727 B( 18-O , 34-H ) :   0.9784
B( 19-C , 35-H ) :   0.9545

MP2 TOTAL ENERGY:    -1274.331118464 Eh
FINAL SINGLE POINT ENERGY     -1274.331118463987

DIPOLE MOMENT
-------------
                                X             Y             Z
Electronic contribution:     10.07936       9.67647       6.10327
Nuclear contribution   :    -11.19816     -11.22607      -5.43780
                        -----------------------------------------
Total Dipole Moment    :     -1.11879      -1.54961       0.66547
                        -----------------------------------------
Magnitude (a.u.)       :      2.02382
Magnitude (Debye)      :      5.14413

Rotational constants in cm-1:     0.011413     0.009398     0.006420
Rotational constants in MHz :   342.155002   281.748123   192.463329

                             ****ORCA TERMINATED NORMALLY****
TOTAL RUN TIME: 0 days 1 hours 59 minutes 28 seconds 752 msec
