                         Program Version 5.0.0 -  RELEASE  -
|  1> ! ri-mp2 cc-pvtz cc-pvtz/c TightSCF NoKeepInts
|  2>
|  3> %scf
|  4>   MaxCore 4096
|  5> end
|  6> *xyz  0  1
|  7>     C       14.4768138   14.9607830   14.7374328
|  8>     C       15.4889366   14.4750905   15.7885087
|  9>     O       16.3457882   15.5836785   16.1054246
| 10>     C       17.3957591   15.3790175   16.9518832
| 11>     O       17.7722984   14.2586913   17.2563681
| 12>     C       17.8839311   16.6134563   17.6561101
| 13>     C       17.6184871   17.8903932   17.2723871
| 14>     C       16.8061581   18.3610252   16.0829728
| 15>     N       18.1854251   18.9582863   17.9763374
| 16>     C       19.1340587   18.8359141   18.9569281
| 17>     S       19.8521978   20.1572391   19.6454198
| 18>     N       19.4573841   17.5584388   19.3372291
| 19>     C       18.7502174   16.3432203   18.8920008
| 20>     C       17.9163945   15.7636262   20.0319509
| 21>     C       18.0865863   14.4245376   20.4295193
| 22>     C       17.3208273   13.8848273   21.4765515
| 23>     C       16.3753816   14.6905298   22.1334820
| 24>     C       16.1999211   16.0236531   21.7384443
| 25>     O       15.2835371   16.8025885   22.3668589
| 26>     C       16.9632402   16.5578577   20.6956318
| 27>     H       13.8761670   15.7893845   15.1325960
| 28>     H       13.7968493   14.1478984   14.4547427
| 29>     H       14.9936998   15.3061513   13.8334443
| 30>     H       14.9664759   14.1253931   16.6891591
| 31>     H       16.0752706   13.6416510   15.3776059
| 32>     H       17.1430466   17.8693782   15.1618056
| 33>     H       16.8842530   19.4422531   15.9168675
| 34>     H       15.7436733   18.1254509   16.2226395
| 35>     H       17.9610612   19.9040818   17.7116784
| 36>     H       20.1361015   17.4953320   20.0850778
| 37>     H       19.5115847   15.6010346   18.6114817
| 38>     H       18.8050415   13.7941704   19.9111644
| 39>     H       17.4581180   12.8456502   21.7698965
| 40>     H       15.7806045   14.2772125   22.9411295
| 41>     H       14.8880727   16.2710031   23.0737916
| 42>     H       16.8136369   17.5931007   20.4094781
| 43> *
| 44>
| 45>                          ****END OF INPUT****

CARTESIAN COORDINATES (ANGSTROEM)
---------------------------------
  C     14.476814   14.960783   14.737433
  C     15.488937   14.475091   15.788509
  O     16.345788   15.583678   16.105425
  C     17.395759   15.379017   16.951883
  O     17.772298   14.258691   17.256368
  C     17.883931   16.613456   17.656110
  C     17.618487   17.890393   17.272387
  C     16.806158   18.361025   16.082973
  N     18.185425   18.958286   17.976337
  C     19.134059   18.835914   18.956928
  S     19.852198   20.157239   19.645420
  N     19.457384   17.558439   19.337229
  C     18.750217   16.343220   18.892001
  C     17.916394   15.763626   20.031951
  C     18.086586   14.424538   20.429519
  C     17.320827   13.884827   21.476551
  C     16.375382   14.690530   22.133482
  C     16.199921   16.023653   21.738444
  O     15.283537   16.802588   22.366859
  C     16.963240   16.557858   20.695632
  H     13.876167   15.789385   15.132596
  H     13.796849   14.147898   14.454743
  H     14.993700   15.306151   13.833444
  H     14.966476   14.125393   16.689159
  H     16.075271   13.641651   15.377606
  H     17.143047   17.869378   15.161806
  H     16.884253   19.442253   15.916868
  H     15.743673   18.125451   16.222639
  H     17.961061   19.904082   17.711678
  H     20.136101   17.495332   20.085078
  H     19.511585   15.601035   18.611482
  H     18.805042   13.794170   19.911164
  H     17.458118   12.845650   21.769897
  H     15.780605   14.277212   22.941129
  H     14.888073   16.271003   23.073792
  H     16.813637   17.593101   20.409478

 Total Charge           Charge          ....    0
 Multiplicity           Mult            ....    1
 Number of Electrons    NEL             ....  154
 Basis Dimension        Dim             ....  828

ORBITAL ENERGIES
----------------

  NO   OCC          E(Eh)            E(eV)
   0   2.0000     -91.888029     -2500.4004
   1   2.0000     -20.603566      -560.6515
   2   2.0000     -20.591280      -560.3172
   3   2.0000     -20.545885      -559.0820
   4   2.0000     -15.628463      -425.2721
   5   2.0000     -15.606579      -424.6766
   6   2.0000     -11.395025      -310.0744
   7   2.0000     -11.382886      -309.7441
   8   2.0000     -11.336524      -308.4825
   9   2.0000     -11.307038      -307.6801
  10   2.0000     -11.305350      -307.6342
  11   2.0000     -11.299222      -307.4675
  12   2.0000     -11.260577      -306.4159
  13   2.0000     -11.259061      -306.3746
  14   2.0000     -11.252986      -306.2093
  15   2.0000     -11.247127      -306.0499
  16   2.0000     -11.236811      -305.7692
  17   2.0000     -11.235424      -305.7314
  18   2.0000     -11.232970      -305.6646
  19   2.0000     -11.229882      -305.5806
  20   2.0000      -8.893092      -241.9933
  21   2.0000      -6.574669      -178.9058
  22   2.0000      -6.572663      -178.8513
  23   2.0000      -6.572077      -178.8353
  24   2.0000      -1.455622       -39.6095
  25   2.0000      -1.411014       -38.3956
  26   2.0000      -1.357292       -36.9338
  27   2.0000      -1.339340       -36.4453
  28   2.0000      -1.236888       -33.6574
  29   2.0000      -1.151714       -31.3397
  30   2.0000      -1.119441       -30.4615
  31   2.0000      -1.044902       -28.4332
  32   2.0000      -1.036959       -28.2171
  33   2.0000      -1.009066       -27.4581
  34   2.0000      -0.997547       -27.1446
  35   2.0000      -0.983223       -26.7549
  36   2.0000      -0.920856       -25.0578
  37   2.0000      -0.888437       -24.1756
  38   2.0000      -0.846927       -23.0461
  39   2.0000      -0.834622       -22.7112
  40   2.0000      -0.827354       -22.5135
  41   2.0000      -0.817953       -22.2576
  42   2.0000      -0.762066       -20.7369
  43   2.0000      -0.735884       -20.0244
  44   2.0000      -0.724515       -19.7151
  45   2.0000      -0.690179       -18.7807
  46   2.0000      -0.683333       -18.5944
  47   2.0000      -0.682225       -18.5643
  48   2.0000      -0.676131       -18.3985
  49   2.0000      -0.658164       -17.9095
  50   2.0000      -0.650192       -17.6926
  51   2.0000      -0.643244       -17.5035
  52   2.0000      -0.634639       -17.2694
  53   2.0000      -0.600653       -16.3446
  54   2.0000      -0.600548       -16.3417
  55   2.0000      -0.598035       -16.2734
  56   2.0000      -0.594627       -16.1806
  57   2.0000      -0.580074       -15.7846
  58   2.0000      -0.572730       -15.5848
  59   2.0000      -0.564119       -15.3505
  60   2.0000      -0.562223       -15.2989
  61   2.0000      -0.551374       -15.0037
  62   2.0000      -0.541490       -14.7347
  63   2.0000      -0.521556       -14.1923
  64   2.0000      -0.516604       -14.0575
  65   2.0000      -0.509858       -13.8739
  66   2.0000      -0.505463       -13.7543
  67   2.0000      -0.495316       -13.4782
  68   2.0000      -0.481132       -13.0923
  69   2.0000      -0.462982       -12.5984
  70   2.0000      -0.461558       -12.5596
  71   2.0000      -0.454312       -12.3624
  72   2.0000      -0.354202        -9.6383
  73   2.0000      -0.343600        -9.3498
  74   2.0000      -0.327133        -8.9018
  75   2.0000      -0.315460        -8.5841
  76   2.0000      -0.313376        -8.5274
  77   0.0000       0.075889         2.0651
  78   0.0000       0.113437         3.0868
  79   0.0000       0.120364         3.2753
  80   0.0000       0.135916         3.6985
  81   0.0000       0.138574         3.7708

MULLIKEN ATOMIC CHARGES
-----------------------
   0 C :   -0.273297
   1 C :    0.045584
   2 O :   -0.336630
   3 C :    0.434144
   4 O :   -0.426165
   5 C :   -0.170899
   6 C :    0.143693
   7 C :   -0.288887
   8 N :   -0.122120
   9 C :    0.201461
  10 S :   -0.439183
  11 N :   -0.196908
  12 C :    0.035367
  13 C :    0.057636
  14 C :   -0.159751
  15 C :   -0.134031
  16 C :   -0.279077
  17 C :    0.311338
  18 O :   -0.359256
  19 C :   -0.272928
  20 H :    0.093166
  21 H :    0.100390
  22 H :    0.096509
  23 H :    0.091257
  24 H :    0.101882
  25 H :    0.126868
  26 H :    0.104220
  27 H :    0.127626
  28 H :    0.196724
  29 H :    0.193538
  30 H :    0.153450
  31 H :    0.153063
  32 H :    0.158922
  33 H :    0.127889
  34 H :    0.240011
  35 H :    0.164396
Sum of atomic charges:    0.0000000

LOEWDIN ATOMIC CHARGES
----------------------
   0 C :    0.107137
   1 C :   -0.017642
   2 O :    0.306113
   3 C :   -0.414449
   4 O :    0.104543
   5 C :   -0.091353
   6 C :   -0.065820
   7 C :    0.125031
   8 N :    0.404829
   9 C :   -0.458900
  10 S :   -0.035924
  11 N :    0.397869
  12 C :   -0.046443
  13 C :   -0.038793
  14 C :    0.022393
  15 C :    0.040947
  16 C :   -0.002406
  17 C :   -0.192702
  18 O :    0.392898
  19 C :    0.028292
  20 H :   -0.029033
  21 H :   -0.022876
  22 H :   -0.026973
  23 H :   -0.028208
  24 H :   -0.027653
  25 H :   -0.008694
  26 H :   -0.020961
  27 H :   -0.010206
  28 H :   -0.059189
  29 H :   -0.063660
  30 H :   -0.004953
  31 H :   -0.025302
  32 H :   -0.021256
  33 H :   -0.036468
  34 H :   -0.154967
  35 H :   -0.025220

  Mayer bond orders larger than 0.100000
B(  0-C ,  1-C ) :   0.9704 B(  0-C , 20-H ) :   0.9784 B(  0-C , 21-H ) :   0.9785
B(  0-C , 22-H ) :   0.9771 B(  1-C ,  2-O ) :   0.9038 B(  1-C , 23-H ) :   0.9753
B(  1-C , 24-H ) :   0.9785 B(  2-O ,  3-C ) :   1.1653 B(  3-C ,  4-O ) :   1.9864
B(  3-C ,  5-C ) :   1.0532 B(  5-C ,  6-C ) :   1.6458 B(  5-C , 12-C ) :   0.9668
B(  6-C ,  7-C ) :   0.9543 B(  6-C ,  8-N ) :   1.1462 B(  7-C , 25-H ) :   0.9657
B(  7-C , 26-H ) :   0.9924 B(  7-C , 27-H ) :   0.9629 B(  8-N ,  9-C ) :   1.1782
B(  8-N , 28-H ) :   0.9488 B(  9-C , 10-S ) :   1.6109 B(  9-C , 11-N ) :   1.3044
B( 11-N , 12-C ) :   0.9921 B( 11-N , 29-H ) :   0.9520 B( 12-C , 13-C ) :   0.9478
B( 12-C , 30-H ) :   1.0000 B( 13-C , 14-C ) :   1.3760 B( 13-C , 19-C ) :   1.3692
B( 14-C , 15-C ) :   1.3947 B( 14-C , 31-H ) :   0.9649 B( 15-C , 16-C ) :   1.3625
B( 15-C , 32-H ) :   0.9715 B( 16-C , 17-C ) :   1.3315 B( 16-C , 33-H ) :   0.9861
B( 17-C , 18-O ) :   1.1079 B( 17-C , 19-C ) :   1.3793 B( 18-O , 34-H ) :   0.9806
B( 19-C , 35-H ) :   0.9585

MP2 TOTAL ENERGY:    -1274.348088894 Eh
FINAL SINGLE POINT ENERGY     -1274.348088894493

DIPOLE MOMENT
-------------
                                X             Y             Z
Electronic contribution:     12.28048       7.89069      11.48241
Nuclear contribution   :    -13.94338      -9.03276     -12.41440
                        -----------------------------------------
Total Dipole Moment    :     -1.66290      -1.14207      -0.93198
                        -----------------------------------------
Magnitude (a.u.)       :      2.22220
Magnitude (Debye)      :      5.64837

Rotational constants in cm-1:     0.010341     0.008818     0.005826
Rotational constants in MHz :   310.023368   264.351451   174.665775

                             ****ORCA TERMINATED NORMALLY****
TOTAL RUN TIME: 0 days 2 hours 0 minutes 52 seconds 161 msec
