                         Program Version 5.0.0 -  RELEASE  -
|  1> ! ri-mp2 cc-pvtz cc-pvtz/c TightSCF NoKeepInts
|  2>
|  3> %scf
|  4>   MaxCore 4096
|  5> end
|  6> *xyz  0  1
|  7>     C       14.8062214   15.8956925   17.2483948
|  8>     C       15.7945747   14.8467903   16.7025626
|  9>     O       16.7858926   15.4403042   15.8356530
| 10>     C       17.9994243   15.8147695   16.3451319
| 11>     O       18.8892316   14.9851781   16.4025741
| 12>     C       17.9346014   16.9280319   17.3410945
| 13>     C       17.3191426   18.1048986   17.0751932
| 14>     C       16.6367148   18.5141656   15.7867908
| 15>     N       17.3505258   19.1343975   18.0188399
| 16>     C       18.0907065   19.1122947   19.1722348
| 17>     S       18.1491444   20.4120810   20.1927160
| 18>     N       18.7805291   17.9552107   19.4392188
| 19>     C       18.6750573   16.7038621   18.6626619
| 20>     C       18.0048153   15.6033720   19.4821153
| 21>     C       18.5361608   14.3004472   19.4869937
| 22>     C       17.9116444   13.2732608   20.2137478
| 23>     C       16.7433266   13.5491403   20.9437973
| 24>     C       16.2099153   14.8447394   20.9425190
| 25>     O       15.0753917   15.1128484   21.6362787
| 26>     C       16.8343588   15.8651661   20.2186634
| 27>     H       15.2827825   16.5819673   17.9541845
| 28>     H       13.9908392   15.3948903   17.7846762
| 29>     H       14.3624210   16.4734885   16.4293213
| 30>     H       16.2749040   14.3057412   17.5297261
| 31>     H       15.2240287   14.1117544   16.1203577
| 32>     H       15.5462185   18.4862969   15.8925197
| 33>     H       16.9077445   17.8629648   14.9472796
| 34>     H       16.9200324   19.5331603   15.4946853
| 35>     H       16.8593920   19.9953147   17.8357290
| 36>     H       19.3011065   17.9600914   20.3072381
| 37>     H       19.6967707   16.3750908   18.4220071
| 38>     H       19.4301188   14.0791091   18.9077001
| 39>     H       18.3315602   12.2687644   20.2034790
| 40>     H       16.2562455   12.7577996   21.5040672
| 41>     H       14.8337408   14.3090089   22.1209308
| 42>     H       16.4017153   16.8599065   20.2329166
| 43> *
| 44>
| 45>                          ****END OF INPUT****

CARTESIAN COORDINATES (ANGSTROEM)
---------------------------------
  C     14.806221   15.895692   17.248395
  C     15.794575   14.846790   16.702563
  O     16.785893   15.440304   15.835653
  C     17.999424   15.814769   16.345132
  O     18.889232   14.985178   16.402574
  C     17.934601   16.928032   17.341095
  C     17.319143   18.104899   17.075193
  C     16.636715   18.514166   15.786791
  N     17.350526   19.134397   18.018840
  C     18.090706   19.112295   19.172235
  S     18.149144   20.412081   20.192716
  N     18.780529   17.955211   19.439219
  C     18.675057   16.703862   18.662662
  C     18.004815   15.603372   19.482115
  C     18.536161   14.300447   19.486994
  C     17.911644   13.273261   20.213748
  C     16.743327   13.549140   20.943797
  C     16.209915   14.844739   20.942519
  O     15.075392   15.112848   21.636279
  C     16.834359   15.865166   20.218663
  H     15.282782   16.581967   17.954185
  H     13.990839   15.394890   17.784676
  H     14.362421   16.473488   16.429321
  H     16.274904   14.305741   17.529726
  H     15.224029   14.111754   16.120358
  H     15.546218   18.486297   15.892520
  H     16.907744   17.862965   14.947280
  H     16.920032   19.533160   15.494685
  H     16.859392   19.995315   17.835729
  H     19.301106   17.960091   20.307238
  H     19.696771   16.375091   18.422007
  H     19.430119   14.079109   18.907700
  H     18.331560   12.268764   20.203479
  H     16.256245   12.757800   21.504067
  H     14.833741   14.309009   22.120931
  H     16.401715   16.859907   20.232917

 Total Charge           Charge          ....    0
 Multiplicity           Mult            ....    1
 Number of Electrons    NEL             ....  154
 Basis Dimension        Dim             ....  828

ORBITAL ENERGIES
----------------

  NO   OCC          E(Eh)            E(eV)
   0   2.0000     -91.891008     -2500.4814
   1   2.0000     -20.599605      -560.5438
   2   2.0000     -20.579181      -559.9880
   3   2.0000     -20.557179      -559.3893
   4   2.0000     -15.629459      -425.2992
   5   2.0000     -15.611252      -424.8038
   6   2.0000     -11.394676      -310.0649
   7   2.0000     -11.387136      -309.8597
   8   2.0000     -11.332891      -308.3836
   9   2.0000     -11.316315      -307.9326
  10   2.0000     -11.313146      -307.8463
  11   2.0000     -11.301589      -307.5319
  12   2.0000     -11.263035      -306.4828
  13   2.0000     -11.262516      -306.4686
  14   2.0000     -11.262202      -306.4601
  15   2.0000     -11.256255      -306.2983
  16   2.0000     -11.246129      -306.0227
  17   2.0000     -11.241951      -305.9090
  18   2.0000     -11.238413      -305.8128
  19   2.0000     -11.229240      -305.5632
  20   2.0000      -8.896085      -242.0748
  21   2.0000      -6.577664      -178.9873
  22   2.0000      -6.575650      -178.9325
  23   2.0000      -6.575065      -178.9166
  24   2.0000      -1.447875       -39.3987
  25   2.0000      -1.419401       -38.6239
  26   2.0000      -1.354186       -36.8493
  27   2.0000      -1.341618       -36.5073
  28   2.0000      -1.240434       -33.7539
  29   2.0000      -1.160501       -31.5788
  30   2.0000      -1.124242       -30.5922
  31   2.0000      -1.047614       -28.5070
  32   2.0000      -1.033367       -28.1193
  33   2.0000      -1.018132       -27.7048
  34   2.0000      -1.003251       -27.2999
  35   2.0000      -0.989533       -26.9266
  36   2.0000      -0.927128       -25.2284
  37   2.0000      -0.887434       -24.1483
  38   2.0000      -0.851278       -23.1645
  39   2.0000      -0.841708       -22.9040
  40   2.0000      -0.836644       -22.7663
  41   2.0000      -0.828386       -22.5415
  42   2.0000      -0.754007       -20.5176
  43   2.0000      -0.735597       -20.0166
  44   2.0000      -0.730590       -19.8804
  45   2.0000      -0.698028       -18.9943
  46   2.0000      -0.688110       -18.7244
  47   2.0000      -0.678665       -18.4674
  48   2.0000      -0.674837       -18.3633
  49   2.0000      -0.660934       -17.9849
  50   2.0000      -0.654981       -17.8229
  51   2.0000      -0.645204       -17.5569
  52   2.0000      -0.639076       -17.3901
  53   2.0000      -0.610849       -16.6221
  54   2.0000      -0.607503       -16.5310
  55   2.0000      -0.603655       -16.4263
  56   2.0000      -0.597258       -16.2522
  57   2.0000      -0.588074       -16.0023
  58   2.0000      -0.578119       -15.7314
  59   2.0000      -0.574912       -15.6441
  60   2.0000      -0.564689       -15.3660
  61   2.0000      -0.554241       -15.0817
  62   2.0000      -0.542101       -14.7513
  63   2.0000      -0.525912       -14.3108
  64   2.0000      -0.519495       -14.1362
  65   2.0000      -0.512337       -13.9414
  66   2.0000      -0.502732       -13.6800
  67   2.0000      -0.495138       -13.4734
  68   2.0000      -0.485085       -13.1998
  69   2.0000      -0.466785       -12.7019
  70   2.0000      -0.455194       -12.3864
  71   2.0000      -0.451142       -12.2762
  72   2.0000      -0.356377        -9.6975
  73   2.0000      -0.351799        -9.5729
  74   2.0000      -0.330373        -8.9899
  75   2.0000      -0.324027        -8.8172
  76   2.0000      -0.319146        -8.6844
  77   0.0000       0.073283         1.9941
  78   0.0000       0.102004         2.7757
  79   0.0000       0.118676         3.2293
  80   0.0000       0.128034         3.4840
  81   0.0000       0.131293         3.5727

MULLIKEN ATOMIC CHARGES
-----------------------
   0 C :   -0.336552
   1 C :    0.039683
   2 O :   -0.374734
   3 C :    0.440446
   4 O :   -0.378413
   5 C :   -0.191803
   6 C :    0.123751
   7 C :   -0.302860
   8 N :   -0.127590
   9 C :    0.194862
  10 S :   -0.437062
  11 N :   -0.210499
  12 C :    0.067286
  13 C :    0.023786
  14 C :   -0.187042
  15 C :   -0.133899
  16 C :   -0.278994
  17 C :    0.320310
  18 O :   -0.358549
  19 C :   -0.285499
  20 H :    0.107021
  21 H :    0.125094
  22 H :    0.107720
  23 H :    0.104690
  24 H :    0.123561
  25 H :    0.122347
  26 H :    0.129988
  27 H :    0.126543
  28 H :    0.198344
  29 H :    0.196708
  30 H :    0.162725
  31 H :    0.167987
  32 H :    0.163856
  33 H :    0.132987
  34 H :    0.241444
  35 H :    0.182357
Sum of atomic charges:    0.0000000

LOEWDIN ATOMIC CHARGES
----------------------
   0 C :    0.103630
   1 C :   -0.009921
   2 O :    0.274116
   3 C :   -0.419013
   4 O :    0.138249
   5 C :   -0.089915
   6 C :   -0.083494
   7 C :    0.128067
   8 N :    0.404344
   9 C :   -0.457700
  10 S :   -0.034995
  11 N :    0.397140
  12 C :   -0.044230
  13 C :   -0.044026
  14 C :    0.020275
  15 C :    0.041809
  16 C :   -0.001573
  17 C :   -0.194186
  18 O :    0.395074
  19 C :    0.029605
  20 H :   -0.037225
  21 H :   -0.021249
  22 H :   -0.031839
  23 H :   -0.026279
  24 H :   -0.021239
  25 H :   -0.015185
  26 H :   -0.008396
  27 H :   -0.013965
  28 H :   -0.056653
  29 H :   -0.063734
  30 H :   -0.003234
  31 H :   -0.022683
  32 H :   -0.019030
  33 H :   -0.034648
  34 H :   -0.153125
  35 H :   -0.024771

  Mayer bond orders larger than 0.100000
B(  0-C ,  1-C ) :   0.9627 B(  0-C , 20-H ) :   0.9715 B(  0-C , 21-H ) :   0.9774
B(  0-C , 22-H ) :   0.9761 B(  1-C ,  2-O ) :   0.8893 B(  1-C , 23-H ) :   0.9699
B(  1-C , 24-H ) :   0.9843 B(  2-O ,  3-C ) :   1.1068 B(  3-C ,  4-O ) :   2.0723
B(  3-C ,  5-C ) :   0.9662 B(  5-C ,  6-C ) :   1.6741 B(  5-C , 12-C ) :   0.9560
B(  6-C ,  7-C ) :   0.9575 B(  6-C ,  8-N ) :   1.1236 B(  7-C , 25-H ) :   0.9623
B(  7-C , 26-H ) :   0.9729 B(  7-C , 27-H ) :   0.9771 B(  8-N ,  9-C ) :   1.1879
B(  8-N , 28-H ) :   0.9513 B(  9-C , 10-S ) :   1.6161 B(  9-C , 11-N ) :   1.2899
B( 11-N , 12-C ) :   0.9910 B( 11-N , 29-H ) :   0.9508 B( 12-C , 13-C ) :   0.9438
B( 12-C , 30-H ) :   0.9979 B( 13-C , 14-C ) :   1.3859 B( 13-C , 19-C ) :   1.3435
B( 14-C , 15-C ) :   1.3991 B( 14-C , 31-H ) :   0.9603 B( 15-C , 16-C ) :   1.3606
B( 15-C , 32-H ) :   0.9703 B( 16-C , 17-C ) :   1.3314 B( 16-C , 33-H ) :   0.9841
B( 17-C , 18-O ) :   1.1099 B( 17-C , 19-C ) :   1.3687 B( 18-O , 34-H ) :   0.9795
B( 19-C , 35-H ) :   0.9519

MP2 TOTAL ENERGY:    -1274.320764866 Eh
FINAL SINGLE POINT ENERGY     -1274.320764865900

DIPOLE MOMENT
-------------
                                X             Y             Z
Electronic contribution:      9.83865       6.24913       5.64678
Nuclear contribution   :    -11.06552      -7.45403      -6.06131
                        -----------------------------------------
Total Dipole Moment    :     -1.22687      -1.20490      -0.41453
                        -----------------------------------------
Magnitude (a.u.)       :      1.76885
Magnitude (Debye)      :      4.49606

Rotational constants in cm-1:     0.012236     0.009516     0.007101
Rotational constants in MHz :   366.824978   285.294062   212.880888

                             ****ORCA TERMINATED NORMALLY****
TOTAL RUN TIME: 0 days 2 hours 55 minutes 12 seconds 803 msec
