                         Program Version 5.0.0 -  RELEASE  -
|  1> ! ri-mp2 cc-pvtz cc-pvtz/c TightSCF NoKeepInts
|  2>
|  3> %scf
|  4>   MaxCore 4096
|  5> end
|  6> *xyz  0  1
|  7>     C       15.2546100   14.7205333   16.9415601
|  8>     C       16.6495032   14.1624545   16.5819182
|  9>     O       17.3639993   15.0671833   15.7181530
| 10>     C       17.4253687   16.4336444   15.8249605
| 11>     O       17.3568803   17.0910893   14.8033449
| 12>     C       17.6058047   17.0723589   17.1835035
| 13>     C       17.2787684   18.3776307   17.3778296
| 14>     C       16.4943075   19.2788605   16.4488149
| 15>     N       17.7591592   19.0563512   18.5035563
| 16>     C       18.8213099   18.6182030   19.2527705
| 17>     S       19.5680260   19.5790303   20.3730383
| 18>     N       19.2492041   17.3386621   18.9959497
| 19>     C       18.4353351   16.3504028   18.2656077
| 20>     C       17.6309572   15.5799154   19.3140281
| 21>     C       18.1329694   14.3636558   19.8179935
| 22>     C       17.4263585   13.6442688   20.7961203
| 23>     C       16.2135002   14.1515794   21.2908107
| 24>     C       15.7236976   15.3749855   20.8156515
| 25>     O       14.5577135   15.8743030   21.2965802
| 26>     C       16.4286758   16.0878085   19.8412734
| 27>     H       15.3027318   15.6902033   17.4445176
| 28>     H       14.7295020   14.0248907   17.6075890
| 29>     H       14.6489140   14.8409237   16.0345223
| 30>     H       17.2244272   13.9455168   17.4820515
| 31>     H       16.5233835   13.2056508   16.0587971
| 32>     H       15.6575488   18.7371919   15.9900899
| 33>     H       17.1352626   19.6387827   15.6332999
| 34>     H       16.0750291   20.1523316   16.9616759
| 35>     H       17.4738309   20.0081966   18.6710243
| 36>     H       20.0285750   17.0335148   19.5642453
| 37>     H       19.1170635   15.6516962   17.7600163
| 38>     H       19.0764406   13.9714720   19.4470215
| 39>     H       17.8219248   12.7023692   21.1732958
| 40>     H       15.6647633   13.6010046   22.0481535
| 41>     H       14.2590904   15.2863775   22.0071445
| 42>     H       16.0323638   17.0389569   19.5070904
| 43> *
| 44>
| 45>                          ****END OF INPUT****

CARTESIAN COORDINATES (ANGSTROEM)
---------------------------------
  C     15.254610   14.720533   16.941560
  C     16.649503   14.162455   16.581918
  O     17.363999   15.067183   15.718153
  C     17.425369   16.433644   15.824960
  O     17.356880   17.091089   14.803345
  C     17.605805   17.072359   17.183503
  C     17.278768   18.377631   17.377830
  C     16.494308   19.278860   16.448815
  N     17.759159   19.056351   18.503556
  C     18.821310   18.618203   19.252770
  S     19.568026   19.579030   20.373038
  N     19.249204   17.338662   18.995950
  C     18.435335   16.350403   18.265608
  C     17.630957   15.579915   19.314028
  C     18.132969   14.363656   19.817993
  C     17.426358   13.644269   20.796120
  C     16.213500   14.151579   21.290811
  C     15.723698   15.374985   20.815651
  O     14.557714   15.874303   21.296580
  C     16.428676   16.087809   19.841273
  H     15.302732   15.690203   17.444518
  H     14.729502   14.024891   17.607589
  H     14.648914   14.840924   16.034522
  H     17.224427   13.945517   17.482051
  H     16.523384   13.205651   16.058797
  H     15.657549   18.737192   15.990090
  H     17.135263   19.638783   15.633300
  H     16.075029   20.152332   16.961676
  H     17.473831   20.008197   18.671024
  H     20.028575   17.033515   19.564245
  H     19.117064   15.651696   17.760016
  H     19.076441   13.971472   19.447021
  H     17.821925   12.702369   21.173296
  H     15.664763   13.601005   22.048153
  H     14.259090   15.286378   22.007144
  H     16.032364   17.038957   19.507090

 Total Charge           Charge          ....    0
 Multiplicity           Mult            ....    1
 Number of Electrons    NEL             ....  154
 Basis Dimension        Dim             ....  828

ORBITAL ENERGIES
----------------

  NO   OCC          E(Eh)            E(eV)
   0   2.0000     -91.892489     -2500.5217
   1   2.0000     -20.604831      -560.6860
   2   2.0000     -20.589552      -560.2702
   3   2.0000     -20.541153      -558.9532
   4   2.0000     -15.632127      -425.3718
   5   2.0000     -15.611456      -424.8093
   6   2.0000     -11.394355      -310.0562
   7   2.0000     -11.386495      -309.8423
   8   2.0000     -11.336631      -308.4854
   9   2.0000     -11.322435      -308.0991
  10   2.0000     -11.319632      -308.0228
  11   2.0000     -11.300458      -307.5011
  12   2.0000     -11.270072      -306.6743
  13   2.0000     -11.264527      -306.5234
  14   2.0000     -11.261754      -306.4479
  15   2.0000     -11.253817      -306.2319
  16   2.0000     -11.250778      -306.1492
  17   2.0000     -11.247441      -306.0584
  18   2.0000     -11.246121      -306.0225
  19   2.0000     -11.229626      -305.5737
  20   2.0000      -8.897436      -242.1115
  21   2.0000      -6.578986      -179.0233
  22   2.0000      -6.577011      -178.9696
  23   2.0000      -6.576403      -178.9530
  24   2.0000      -1.441126       -39.2150
  25   2.0000      -1.424402       -38.7600
  26   2.0000      -1.351286       -36.7704
  27   2.0000      -1.344189       -36.5772
  28   2.0000      -1.242872       -33.8203
  29   2.0000      -1.165276       -31.7088
  30   2.0000      -1.122096       -30.5338
  31   2.0000      -1.049144       -28.5487
  32   2.0000      -1.032555       -28.0972
  33   2.0000      -1.024516       -27.8785
  34   2.0000      -1.002253       -27.2727
  35   2.0000      -0.987704       -26.8768
  36   2.0000      -0.928268       -25.2595
  37   2.0000      -0.897953       -24.4345
  38   2.0000      -0.851048       -23.1582
  39   2.0000      -0.850156       -23.1339
  40   2.0000      -0.842113       -22.9151
  41   2.0000      -0.826511       -22.4905
  42   2.0000      -0.752038       -20.4640
  43   2.0000      -0.738583       -20.0979
  44   2.0000      -0.714979       -19.4556
  45   2.0000      -0.704536       -19.1714
  46   2.0000      -0.695529       -18.9263
  47   2.0000      -0.677777       -18.4433
  48   2.0000      -0.672608       -18.3026
  49   2.0000      -0.661344       -17.9961
  50   2.0000      -0.653860       -17.7924
  51   2.0000      -0.653181       -17.7739
  52   2.0000      -0.637641       -17.3511
  53   2.0000      -0.624186       -16.9850
  54   2.0000      -0.616128       -16.7657
  55   2.0000      -0.606714       -16.5095
  56   2.0000      -0.602201       -16.3867
  57   2.0000      -0.585199       -15.9241
  58   2.0000      -0.575376       -15.6568
  59   2.0000      -0.566395       -15.4124
  60   2.0000      -0.552782       -15.0420
  61   2.0000      -0.544945       -14.8287
  62   2.0000      -0.539495       -14.6804
  63   2.0000      -0.537380       -14.6228
  64   2.0000      -0.533370       -14.5137
  65   2.0000      -0.517943       -14.0940
  66   2.0000      -0.510361       -13.8876
  67   2.0000      -0.496595       -13.5130
  68   2.0000      -0.483029       -13.1439
  69   2.0000      -0.466146       -12.6845
  70   2.0000      -0.448664       -12.2088
  71   2.0000      -0.443406       -12.0657
  72   2.0000      -0.363004        -9.8778
  73   2.0000      -0.356822        -9.7096
  74   2.0000      -0.333372        -9.0715
  75   2.0000      -0.328296        -8.9334
  76   2.0000      -0.318438        -8.6651
  77   0.0000       0.071102         1.9348
  78   0.0000       0.103824         2.8252
  79   0.0000       0.117941         3.2093
  80   0.0000       0.122836         3.3425
  81   0.0000       0.128987         3.5099

MULLIKEN ATOMIC CHARGES
-----------------------
   0 C :   -0.319604
   1 C :    0.027849
   2 O :   -0.333749
   3 C :    0.448639
   4 O :   -0.383345
   5 C :   -0.243364
   6 C :    0.124395
   7 C :   -0.274314
   8 N :   -0.124136
   9 C :    0.213741
  10 S :   -0.432540
  11 N :   -0.197502
  12 C :    0.038124
  13 C :    0.074953
  14 C :   -0.223224
  15 C :   -0.127183
  16 C :   -0.276361
  17 C :    0.324557
  18 O :   -0.357082
  19 C :   -0.284437
  20 H :    0.100308
  21 H :    0.108271
  22 H :    0.121945
  23 H :    0.088477
  24 H :    0.125824
  25 H :    0.122823
  26 H :    0.144636
  27 H :    0.093589
  28 H :    0.199396
  29 H :    0.188829
  30 H :    0.159087
  31 H :    0.155462
  32 H :    0.163267
  33 H :    0.133678
  34 H :    0.243064
  35 H :    0.175926
Sum of atomic charges:    0.0000000

LOEWDIN ATOMIC CHARGES
----------------------
   0 C :    0.107148
   1 C :   -0.019714
   2 O :    0.295774
   3 C :   -0.423233
   4 O :    0.120735
   5 C :   -0.096196
   6 C :   -0.064402
   7 C :    0.128785
   8 N :    0.408564
   9 C :   -0.453234
  10 S :   -0.028690
  11 N :    0.395812
  12 C :   -0.052353
  13 C :   -0.038046
  14 C :    0.006289
  15 C :    0.042717
  16 C :   -0.000128
  17 C :   -0.187865
  18 O :    0.396869
  19 C :    0.033983
  20 H :   -0.037091
  21 H :   -0.021885
  22 H :   -0.025077
  23 H :   -0.044941
  24 H :   -0.019739
  25 H :   -0.007184
  26 H :   -0.001643
  27 H :   -0.022755
  28 H :   -0.057078
  29 H :   -0.067760
  30 H :   -0.003688
  31 H :   -0.031287
  32 H :   -0.018833
  33 H :   -0.033903
  34 H :   -0.151549
  35 H :   -0.028405

  Mayer bond orders larger than 0.100000
B(  0-C ,  1-C ) :   0.9609 B(  0-C , 20-H ) :   0.9688 B(  0-C , 21-H ) :   0.9745
B(  0-C , 22-H ) :   0.9762 B(  1-C ,  2-O ) :   0.9063 B(  1-C , 23-H ) :   0.9692
B(  1-C , 24-H ) :   0.9809 B(  2-O ,  3-C ) :   1.1710 B(  3-C ,  4-O ) :   2.0729
B(  3-C ,  5-C ) :   0.9720 B(  5-C ,  6-C ) :   1.6577 B(  5-C , 12-C ) :   0.9718
B(  6-C ,  7-C ) :   0.9777 B(  6-C ,  8-N ) :   1.1392 B(  7-C , 25-H ) :   0.9699
B(  7-C , 26-H ) :   0.9528 B(  7-C , 27-H ) :   0.9833 B(  8-N ,  9-C ) :   1.1804
B(  8-N , 28-H ) :   0.9500 B(  9-C , 10-S ) :   1.6212 B(  9-C , 11-N ) :   1.2919
B( 11-N , 12-C ) :   0.9574 B( 11-N , 29-H ) :   0.9548 B( 12-C , 13-C ) :   0.9584
B( 12-C , 30-H ) :   0.9963 B( 13-C , 14-C ) :   1.3324 B( 13-C , 19-C ) :   1.3645
B( 14-C , 15-C ) :   1.3995 B( 14-C , 31-H ) :   0.9760 B( 15-C , 16-C ) :   1.3673
B( 15-C , 32-H ) :   0.9696 B( 16-C , 17-C ) :   1.3306 B( 16-C , 33-H ) :   0.9833
B( 17-C , 18-O ) :   1.1178 B( 17-C , 19-C ) :   1.3688 B( 18-O , 34-H ) :   0.9785
B( 19-C , 35-H ) :   0.9508

MP2 TOTAL ENERGY:    -1274.329844057 Eh
FINAL SINGLE POINT ENERGY     -1274.329844056700

DIPOLE MOMENT
-------------
                                X             Y             Z
Electronic contribution:      9.32815       8.01437       4.13636
Nuclear contribution   :    -10.64328      -9.72503      -3.30251
                        -----------------------------------------
Total Dipole Moment    :     -1.31512      -1.71066       0.83385
                        -----------------------------------------
Magnitude (a.u.)       :      2.31327
Magnitude (Debye)      :      5.87987

Rotational constants in cm-1:     0.011176     0.010130     0.006794
Rotational constants in MHz :   335.054598   303.682174   203.693119

                             ****ORCA TERMINATED NORMALLY****
TOTAL RUN TIME: 0 days 2 hours 5 minutes 51 seconds 480 msec
