                         Program Version 5.0.0 -  RELEASE  -
|  1> ! ri-mp2 cc-pvtz cc-pvtz/c TightSCF NoKeepInts
|  2>
|  3> %scf
|  4>   MaxCore 4096
|  5> end
|  6> *xyz  0  1
|  7>     C       15.0308689   14.1228194   15.5888339
|  8>     C       16.3186835   13.8874506   16.4063123
|  9>     O       17.1126705   15.0657605   16.7076798
| 10>     C       16.7430325   16.3845508   16.5997291
| 11>     O       15.8708542   16.7958701   15.8558825
| 12>     C       17.5365227   17.2653385   17.5281659
| 13>     C       17.4121471   18.6176556   17.5361123
| 14>     C       16.5080460   19.4634327   16.6645938
| 15>     N       18.1959672   19.3899585   18.3986669
| 16>     C       19.1852919   18.9020397   19.2094022
| 17>     S       20.1259309   19.8963652   20.1381462
| 18>     N       19.3593677   17.5420359   19.2113103
| 19>     C       18.4981350   16.5729585   18.5097469
| 20>     C       17.7539788   15.7152050   19.5294772
| 21>     C       18.0723007   14.3525469   19.6823885
| 22>     C       17.3857714   13.5583641   20.6162736
| 23>     C       16.3748356   14.1318096   21.4063036
| 24>     C       16.0593122   15.4897581   21.2607277
| 25>     O       15.0852656   16.0467246   22.0235963
| 26>     C       16.7439919   16.2774101   20.3302097
| 27>     H       14.3240850   14.7587593   16.1365830
| 28>     H       14.5305015   13.1681975   15.3872061
| 29>     H       15.2575111   14.5921604   14.6231824
| 30>     H       16.0308505   13.4184461   17.3563820
| 31>     H       16.9507273   13.1659240   15.8730655
| 32>     H       15.4554320   19.2056352   16.8383792
| 33>     H       16.7173518   19.2836893   15.6023933
| 34>     H       16.6196623   20.5388588   16.8454804
| 35>     H       18.0828625   20.3909854   18.4099189
| 36>     H       20.0705529   17.2089613   19.8492923
| 37>     H       19.1581744   15.9196715   17.9219637
| 38>     H       18.8513709   13.9063783   19.0701014
| 39>     H       17.6385175   12.5052836   20.7269560
| 40>     H       15.8424016   13.5231561   22.1297719
| 41>     H       14.7543830   15.3599965   22.6216760
| 42>     H       16.4896410   17.3278424   20.2380891
| 43> *
| 44>
| 45>                          ****END OF INPUT****

CARTESIAN COORDINATES (ANGSTROEM)
---------------------------------
  C     15.030869   14.122819   15.588834
  C     16.318683   13.887451   16.406312
  O     17.112671   15.065760   16.707680
  C     16.743033   16.384551   16.599729
  O     15.870854   16.795870   15.855882
  C     17.536523   17.265338   17.528166
  C     17.412147   18.617656   17.536112
  C     16.508046   19.463433   16.664594
  N     18.195967   19.389958   18.398667
  C     19.185292   18.902040   19.209402
  S     20.125931   19.896365   20.138146
  N     19.359368   17.542036   19.211310
  C     18.498135   16.572958   18.509747
  C     17.753979   15.715205   19.529477
  C     18.072301   14.352547   19.682388
  C     17.385771   13.558364   20.616274
  C     16.374836   14.131810   21.406304
  C     16.059312   15.489758   21.260728
  O     15.085266   16.046725   22.023596
  C     16.743992   16.277410   20.330210
  H     14.324085   14.758759   16.136583
  H     14.530501   13.168197   15.387206
  H     15.257511   14.592160   14.623182
  H     16.030850   13.418446   17.356382
  H     16.950727   13.165924   15.873065
  H     15.455432   19.205635   16.838379
  H     16.717352   19.283689   15.602393
  H     16.619662   20.538859   16.845480
  H     18.082863   20.390985   18.409919
  H     20.070553   17.208961   19.849292
  H     19.158174   15.919671   17.921964
  H     18.851371   13.906378   19.070101
  H     17.638517   12.505284   20.726956
  H     15.842402   13.523156   22.129772
  H     14.754383   15.359996   22.621676
  H     16.489641   17.327842   20.238089

 Total Charge           Charge          ....    0
 Multiplicity           Mult            ....    1
 Number of Electrons    NEL             ....  154
 Basis Dimension        Dim             ....  828

ORBITAL ENERGIES
----------------

  NO   OCC          E(Eh)            E(eV)
   0   2.0000     -91.887917     -2500.3973
   1   2.0000     -20.596854      -560.4689
   2   2.0000     -20.596579      -560.4614
   3   2.0000     -20.540188      -558.9269
   4   2.0000     -15.627902      -425.2568
   5   2.0000     -15.607202      -424.6936
   6   2.0000     -11.397650      -310.1458
   7   2.0000     -11.382936      -309.7454
   8   2.0000     -11.334685      -308.4325
   9   2.0000     -11.314064      -307.8713
  10   2.0000     -11.307588      -307.6951
  11   2.0000     -11.302400      -307.5540
  12   2.0000     -11.259760      -306.3937
  13   2.0000     -11.257670      -306.3368
  14   2.0000     -11.255652      -306.2819
  15   2.0000     -11.251091      -306.1578
  16   2.0000     -11.243276      -305.9451
  17   2.0000     -11.238430      -305.8132
  18   2.0000     -11.238350      -305.8111
  19   2.0000     -11.222135      -305.3698
  20   2.0000      -8.892992      -241.9906
  21   2.0000      -6.574570      -178.9031
  22   2.0000      -6.572563      -178.8485
  23   2.0000      -6.571979      -178.8326
  24   2.0000      -1.441622       -39.2285
  25   2.0000      -1.416496       -38.5448
  26   2.0000      -1.353761       -36.8377
  27   2.0000      -1.339032       -36.4369
  28   2.0000      -1.237567       -33.6759
  29   2.0000      -1.157487       -31.4968
  30   2.0000      -1.118933       -30.4477
  31   2.0000      -1.042171       -28.3589
  32   2.0000      -1.035841       -28.1867
  33   2.0000      -1.015274       -27.6270
  34   2.0000      -0.994653       -27.0659
  35   2.0000      -0.982879       -26.7455
  36   2.0000      -0.921744       -25.0819
  37   2.0000      -0.897209       -24.4143
  38   2.0000      -0.846560       -23.0361
  39   2.0000      -0.837857       -22.7993
  40   2.0000      -0.834170       -22.6989
  41   2.0000      -0.818338       -22.2681
  42   2.0000      -0.744289       -20.2531
  43   2.0000      -0.730294       -19.8723
  44   2.0000      -0.717378       -19.5208
  45   2.0000      -0.695688       -18.9306
  46   2.0000      -0.687188       -18.6993
  47   2.0000      -0.674709       -18.3598
  48   2.0000      -0.668519       -18.1913
  49   2.0000      -0.662788       -18.0354
  50   2.0000      -0.650517       -17.7015
  51   2.0000      -0.643921       -17.5220
  52   2.0000      -0.635231       -17.2855
  53   2.0000      -0.607084       -16.5196
  54   2.0000      -0.601222       -16.3601
  55   2.0000      -0.599961       -16.3258
  56   2.0000      -0.597957       -16.2712
  57   2.0000      -0.578893       -15.7525
  58   2.0000      -0.575112       -15.6496
  59   2.0000      -0.570019       -15.5110
  60   2.0000      -0.561117       -15.2688
  61   2.0000      -0.538791       -14.6613
  62   2.0000      -0.534850       -14.5540
  63   2.0000      -0.525161       -14.2904
  64   2.0000      -0.523469       -14.2443
  65   2.0000      -0.512496       -13.9457
  66   2.0000      -0.501038       -13.6339
  67   2.0000      -0.497869       -13.5477
  68   2.0000      -0.484926       -13.1955
  69   2.0000      -0.462770       -12.5926
  70   2.0000      -0.450389       -12.2557
  71   2.0000      -0.439974       -11.9723
  72   2.0000      -0.352925        -9.6036
  73   2.0000      -0.349421        -9.5082
  74   2.0000      -0.327485        -8.9113
  75   2.0000      -0.321674        -8.7532
  76   2.0000      -0.315279        -8.5792
  77   0.0000       0.077253         2.1022
  78   0.0000       0.106171         2.8891
  79   0.0000       0.125183         3.4064
  80   0.0000       0.133007         3.6193
  81   0.0000       0.138662         3.7732

MULLIKEN ATOMIC CHARGES
-----------------------
   0 C :   -0.285931
   1 C :    0.048909
   2 O :   -0.369764
   3 C :    0.455147
   4 O :   -0.427479
   5 C :   -0.208419
   6 C :    0.151605
   7 C :   -0.271694
   8 N :   -0.121271
   9 C :    0.212855
  10 S :   -0.441990
  11 N :   -0.205769
  12 C :    0.061414
  13 C :    0.069023
  14 C :   -0.197467
  15 C :   -0.128716
  16 C :   -0.281208
  17 C :    0.316798
  18 O :   -0.356369
  19 C :   -0.270022
  20 H :    0.107074
  21 H :    0.096392
  22 H :    0.111775
  23 H :    0.094283
  24 H :    0.093611
  25 H :    0.130954
  26 H :    0.130960
  27 H :    0.094847
  28 H :    0.197136
  29 H :    0.194742
  30 H :    0.149052
  31 H :    0.151400
  32 H :    0.161623
  33 H :    0.130331
  34 H :    0.240703
  35 H :    0.165464
Sum of atomic charges:    0.0000000

LOEWDIN ATOMIC CHARGES
----------------------
   0 C :    0.102486
   1 C :   -0.009446
   2 O :    0.294170
   3 C :   -0.412207
   4 O :    0.108266
   5 C :   -0.094096
   6 C :   -0.059395
   7 C :    0.130642
   8 N :    0.406364
   9 C :   -0.456532
  10 S :   -0.036969
  11 N :    0.396368
  12 C :   -0.052736
  13 C :   -0.037896
  14 C :    0.014473
  15 C :    0.038321
  16 C :   -0.002626
  17 C :   -0.189505
  18 O :    0.395320
  19 C :    0.031164
  20 H :   -0.025841
  21 H :   -0.027920
  22 H :   -0.024623
  23 H :   -0.028836
  24 H :   -0.027140
  25 H :   -0.005098
  26 H :   -0.004207
  27 H :   -0.023714
  28 H :   -0.057787
  29 H :   -0.064784
  30 H :   -0.011492
  31 H :   -0.030117
  32 H :   -0.021423
  33 H :   -0.035655
  34 H :   -0.153892
  35 H :   -0.023641

  Mayer bond orders larger than 0.100000
B(  0-C ,  1-C ) :   0.9842 B(  0-C , 20-H ) :   0.9740 B(  0-C , 21-H ) :   0.9730
B(  0-C , 22-H ) :   0.9738 B(  1-C ,  2-O ) :   0.8968 B(  1-C , 23-H ) :   0.9718
B(  1-C , 24-H ) :   0.9797 B(  2-O ,  3-C ) :   1.1374 B(  3-C ,  4-O ) :   1.9838
B(  3-C ,  5-C ) :   1.0623 B(  5-C ,  6-C ) :   1.6546 B(  5-C , 12-C ) :   0.9757
B(  6-C ,  7-C ) :   0.9668 B(  6-C ,  8-N ) :   1.1604 B(  7-C , 25-H ) :   0.9603
B(  7-C , 26-H ) :   0.9604 B(  7-C , 27-H ) :   0.9910 B(  8-N ,  9-C ) :   1.1844
B(  8-N , 28-H ) :   0.9478 B(  9-C , 10-S ) :   1.6048 B(  9-C , 11-N ) :   1.3065
B( 11-N , 12-C ) :   0.9842 B( 11-N , 29-H ) :   0.9515 B( 12-C , 13-C ) :   0.9358
B( 12-C , 30-H ) :   1.0024 B( 13-C , 14-C ) :   1.3498 B( 13-C , 19-C ) :   1.3839
B( 14-C , 15-C ) :   1.3893 B( 14-C , 31-H ) :   0.9725 B( 15-C , 16-C ) :   1.3627
B( 15-C , 32-H ) :   0.9704 B( 16-C , 17-C ) :   1.3311 B( 16-C , 33-H ) :   0.9851
B( 17-C , 18-O ) :   1.1103 B( 17-C , 19-C ) :   1.3707 B( 18-O , 34-H ) :   0.9798
B( 19-C , 35-H ) :   0.9583

MP2 TOTAL ENERGY:    -1274.338186971 Eh
FINAL SINGLE POINT ENERGY     -1274.338186971167

DIPOLE MOMENT
-------------
                                X             Y             Z
Electronic contribution:     10.04376      10.16303       8.90886
Nuclear contribution   :    -11.05285     -11.97786      -9.24689
                        -----------------------------------------
Total Dipole Moment    :     -1.00910      -1.81483      -0.33803
                        -----------------------------------------
Magnitude (a.u.)       :      2.10384
Magnitude (Debye)      :      5.34754

Rotational constants in cm-1:     0.011634     0.008677     0.006110
Rotational constants in MHz :   348.770402   260.144722   183.186049

                             ****ORCA TERMINATED NORMALLY****
TOTAL RUN TIME: 0 days 2 hours 19 minutes 43 seconds 350 msec
