                         Program Version 5.0.0 -  RELEASE  -
|  1> ! ri-mp2 cc-pvtz cc-pvtz/c TightSCF NoKeepInts
|  2>
|  3> %scf
|  4>   MaxCore 4096
|  5> end
|  6> *xyz  0  1
|  7>     C       14.7298150   14.3921652   17.2604924
|  8>     C       15.6493064   15.3958904   16.5464137
|  9>     O       16.9973496   14.9448161   16.7432564
| 10>     C       18.0620276   15.7589837   16.4825750
| 11>     O       19.1279241   15.2333922   16.2232740
| 12>     C       18.0644849   16.9448669   17.3834946
| 13>     C       17.5815108   18.1392646   16.9782939
| 14>     C       16.9769725   18.4530036   15.6266814
| 15>     N       17.6522961   19.2431698   17.8305736
| 16>     C       18.2852177   19.2458000   19.0471064
| 17>     S       18.3801111   20.6138465   19.9712094
| 18>     N       18.8305345   18.0550295   19.4635534
| 19>     C       18.6984215   16.7619548   18.7614222
| 20>     C       17.9161139   15.7561011   19.5994470
| 21>     C       18.3828431   14.4358769   19.7349801
| 22>     C       17.6612373   13.4954616   20.4889567
| 23>     C       16.4607283   13.8769236   21.1117792
| 24>     C       15.9887533   15.1890506   20.9727140
| 25>     O       14.8213991   15.5559176   21.5587750
| 26>     C       16.7079873   16.1231508   20.2206457
| 27>     H       14.8465687   13.3892221   16.8311975
| 28>     H       13.6790341   14.6899151   17.1618544
| 29>     H       14.9734191   14.3381275   18.3286890
| 30>     H       15.4106334   15.4457189   15.4759385
| 31>     H       15.4914626   16.3840233   16.9954201
| 32>     H       17.2629468   17.7169995   14.8650781
| 33>     H       17.3182814   19.4294839   15.2595149
| 34>     H       15.8818419   18.4790558   15.6809773
| 35>     H       17.2679139   20.1286732   17.5406060
| 36>     H       19.2699873   18.0826366   20.3748917
| 37>     H       19.7109975   16.3615349   18.6055028
| 38>     H       19.3010941   14.1332307   19.2367695
| 39>     H       18.0300509   12.4753568   20.5805524
| 40>     H       15.8988284   13.1521717   21.6914454
| 41>     H       14.5065971   14.7988886   22.0756156
| 42>     H       16.3223090   17.1322960   20.1243026
| 43> *
| 44>
| 45>                          ****END OF INPUT****

CARTESIAN COORDINATES (ANGSTROEM)
---------------------------------
  C     14.729815   14.392165   17.260492
  C     15.649306   15.395890   16.546414
  O     16.997350   14.944816   16.743256
  C     18.062028   15.758984   16.482575
  O     19.127924   15.233392   16.223274
  C     18.064485   16.944867   17.383495
  C     17.581511   18.139265   16.978294
  C     16.976972   18.453004   15.626681
  N     17.652296   19.243170   17.830574
  C     18.285218   19.245800   19.047106
  S     18.380111   20.613847   19.971209
  N     18.830534   18.055029   19.463553
  C     18.698421   16.761955   18.761422
  C     17.916114   15.756101   19.599447
  C     18.382843   14.435877   19.734980
  C     17.661237   13.495462   20.488957
  C     16.460728   13.876924   21.111779
  C     15.988753   15.189051   20.972714
  O     14.821399   15.555918   21.558775
  C     16.707987   16.123151   20.220646
  H     14.846569   13.389222   16.831197
  H     13.679034   14.689915   17.161854
  H     14.973419   14.338127   18.328689
  H     15.410633   15.445719   15.475938
  H     15.491463   16.384023   16.995420
  H     17.262947   17.717000   14.865078
  H     17.318281   19.429484   15.259515
  H     15.881842   18.479056   15.680977
  H     17.267914   20.128673   17.540606
  H     19.269987   18.082637   20.374892
  H     19.710998   16.361535   18.605503
  H     19.301094   14.133231   19.236770
  H     18.030051   12.475357   20.580552
  H     15.898828   13.152172   21.691445
  H     14.506597   14.798889   22.075616
  H     16.322309   17.132296   20.124303

 Total Charge           Charge          ....    0
 Multiplicity           Mult            ....    1
 Number of Electrons    NEL             ....  154
 Basis Dimension        Dim             ....  828

ORBITAL ENERGIES
----------------

  NO   OCC          E(Eh)            E(eV)
   0   2.0000     -91.886798     -2500.3669
   1   2.0000     -20.600785      -560.5759
   2   2.0000     -20.598670      -560.5183
   3   2.0000     -20.560961      -559.4922
   4   2.0000     -15.621812      -425.0911
   5   2.0000     -15.609833      -424.7652
   6   2.0000     -11.394683      -310.0651
   7   2.0000     -11.383795      -309.7688
   8   2.0000     -11.320301      -308.0410
   9   2.0000     -11.315808      -307.9188
  10   2.0000     -11.314954      -307.8955
  11   2.0000     -11.304784      -307.6188
  12   2.0000     -11.268970      -306.6443
  13   2.0000     -11.263241      -306.4884
  14   2.0000     -11.261776      -306.4485
  15   2.0000     -11.255329      -306.2731
  16   2.0000     -11.244256      -305.9718
  17   2.0000     -11.240008      -305.8562
  18   2.0000     -11.237998      -305.8015
  19   2.0000     -11.230477      -305.5968
  20   2.0000      -8.891947      -241.9622
  21   2.0000      -6.573546      -178.8753
  22   2.0000      -6.571510      -178.8199
  23   2.0000      -6.570947      -178.8045
  24   2.0000      -1.458054       -39.6757
  25   2.0000      -1.418450       -38.5980
  26   2.0000      -1.364942       -37.1419
  27   2.0000      -1.336325       -36.3632
  28   2.0000      -1.237003       -33.6606
  29   2.0000      -1.159158       -31.5423
  30   2.0000      -1.123676       -30.5768
  31   2.0000      -1.047493       -28.5037
  32   2.0000      -1.040519       -28.3140
  33   2.0000      -1.016902       -27.6713
  34   2.0000      -1.003171       -27.2977
  35   2.0000      -0.986634       -26.8477
  36   2.0000      -0.926203       -25.2033
  37   2.0000      -0.881963       -23.9994
  38   2.0000      -0.852308       -23.1925
  39   2.0000      -0.839539       -22.8450
  40   2.0000      -0.835629       -22.7386
  41   2.0000      -0.834991       -22.7212
  42   2.0000      -0.759868       -20.6770
  43   2.0000      -0.736347       -20.0370
  44   2.0000      -0.730132       -19.8679
  45   2.0000      -0.697344       -18.9757
  46   2.0000      -0.691011       -18.8034
  47   2.0000      -0.683855       -18.6087
  48   2.0000      -0.676562       -18.4102
  49   2.0000      -0.661832       -18.0094
  50   2.0000      -0.654179       -17.8011
  51   2.0000      -0.645011       -17.5516
  52   2.0000      -0.637675       -17.3520
  53   2.0000      -0.615407       -16.7461
  54   2.0000      -0.610471       -16.6118
  55   2.0000      -0.605861       -16.4863
  56   2.0000      -0.601846       -16.3771
  57   2.0000      -0.586831       -15.9685
  58   2.0000      -0.576979       -15.7004
  59   2.0000      -0.565493       -15.3879
  60   2.0000      -0.560595       -15.2546
  61   2.0000      -0.551467       -15.0062
  62   2.0000      -0.540901       -14.7187
  63   2.0000      -0.530516       -14.4361
  64   2.0000      -0.521259       -14.1842
  65   2.0000      -0.512829       -13.9548
  66   2.0000      -0.501760       -13.6536
  67   2.0000      -0.500314       -13.6142
  68   2.0000      -0.490433       -13.3454
  69   2.0000      -0.466347       -12.6900
  70   2.0000      -0.459271       -12.4974
  71   2.0000      -0.453563       -12.3421
  72   2.0000      -0.354350        -9.6424
  73   2.0000      -0.349592        -9.5129
  74   2.0000      -0.326824        -8.8933
  75   2.0000      -0.322474        -8.7750
  76   2.0000      -0.314843        -8.5673
  77   0.0000       0.091810         2.4983
  78   0.0000       0.097935         2.6649
  79   0.0000       0.107821         2.9340
  80   0.0000       0.126090         3.4311
  81   0.0000       0.128302         3.4913

MULLIKEN ATOMIC CHARGES
-----------------------
   0 C :   -0.266259
   1 C :    0.006402
   2 O :   -0.303155
   3 C :    0.380699
   4 O :   -0.357218
   5 C :   -0.139064
   6 C :    0.112480
   7 C :   -0.319717
   8 N :   -0.133578
   9 C :    0.208134
  10 S :   -0.446416
  11 N :   -0.209886
  12 C :    0.036594
  13 C :    0.041432
  14 C :   -0.179627
  15 C :   -0.132650
  16 C :   -0.270226
  17 C :    0.290892
  18 O :   -0.363492
  19 C :   -0.254127
  20 H :    0.102677
  21 H :    0.087074
  22 H :    0.117276
  23 H :    0.109314
  24 H :    0.085376
  25 H :    0.119713
  26 H :    0.128029
  27 H :    0.122717
  28 H :    0.194293
  29 H :    0.197011
  30 H :    0.166161
  31 H :    0.158238
  32 H :    0.161836
  33 H :    0.132390
  34 H :    0.241389
  35 H :    0.175290
Sum of atomic charges:   -0.0000000

LOEWDIN ATOMIC CHARGES
----------------------
   0 C :    0.113330
   1 C :   -0.032966
   2 O :    0.328242
   3 C :   -0.425580
   4 O :    0.146190
   5 C :   -0.079191
   6 C :   -0.117090
   7 C :    0.122984
   8 N :    0.398833
   9 C :   -0.454971
  10 S :   -0.042293
  11 N :    0.397529
  12 C :   -0.041078
  13 C :   -0.039439
  14 C :    0.023791
  15 C :    0.045813
  16 C :   -0.001550
  17 C :   -0.194494
  18 O :    0.394732
  19 C :    0.027866
  20 H :   -0.025103
  21 H :   -0.026218
  22 H :   -0.022418
  23 H :   -0.034828
  24 H :   -0.038874
  25 H :   -0.010756
  26 H :   -0.011548
  27 H :   -0.017607
  28 H :   -0.060326
  29 H :   -0.063846
  30 H :   -0.002791
  31 H :   -0.024128
  32 H :   -0.019154
  33 H :   -0.035322
  34 H :   -0.153361
  35 H :   -0.024380

  Mayer bond orders larger than 0.100000
B(  0-C ,  1-C ) :   0.9821 B(  0-C , 20-H ) :   0.9812 B(  0-C , 21-H ) :   0.9762
B(  0-C , 22-H ) :   0.9718 B(  1-C ,  2-O ) :   0.9258 B(  1-C , 23-H ) :   0.9775
B(  1-C , 24-H ) :   0.9636 B(  2-O ,  3-C ) :   1.1043 B(  3-C ,  4-O ) :   2.1077
B(  3-C ,  5-C ) :   0.9286 B(  5-C ,  6-C ) :   1.7197 B(  5-C , 12-C ) :   0.9693
B(  6-C ,  7-C ) :   0.9392 B(  6-C ,  8-N ) :   1.1023 B(  7-C , 25-H ) :   0.9815
B(  7-C , 26-H ) :   0.9766 B(  7-C , 27-H ) :   0.9659 B(  8-N ,  9-C ) :   1.2021
B(  8-N , 28-H ) :   0.9539 B(  9-C , 10-S ) :   1.6052 B(  9-C , 11-N ) :   1.2848
B( 11-N , 12-C ) :   0.9978 B( 11-N , 29-H ) :   0.9487 B( 12-C , 13-C ) :   0.9474
B( 12-C , 30-H ) :   0.9987 B( 13-C , 14-C ) :   1.3808 B( 13-C , 19-C ) :   1.3537
B( 14-C , 15-C ) :   1.3963 B( 14-C , 31-H ) :   0.9658 B( 15-C , 16-C ) :   1.3622
B( 15-C , 32-H ) :   0.9708 B( 16-C , 17-C ) :   1.3316 B( 16-C , 33-H ) :   0.9849
B( 17-C , 18-O ) :   1.1025 B( 17-C , 19-C ) :   1.3707 B( 18-O , 34-H ) :   0.9795
B( 19-C , 35-H ) :   0.9564

MP2 TOTAL ENERGY:    -1274.316214886 Eh
FINAL SINGLE POINT ENERGY     -1274.316214886199

DIPOLE MOMENT
-------------
                                X             Y             Z
Electronic contribution:     10.45036       8.31681       6.49743
Nuclear contribution   :    -12.05522      -9.55751      -7.22564
                        -----------------------------------------
Total Dipole Moment    :     -1.60487      -1.24069      -0.72821
                        -----------------------------------------
Magnitude (a.u.)       :      2.15528
Magnitude (Debye)      :      5.47828

Rotational constants in cm-1:     0.012530     0.009038     0.006852
Rotational constants in MHz :   375.630643   270.952774   205.427917

                             ****ORCA TERMINATED NORMALLY****
TOTAL RUN TIME: 0 days 2 hours 8 minutes 50 seconds 847 msec
