                         Program Version 5.0.0 -  RELEASE  -
|  1> ! ri-mp2 cc-pvtz cc-pvtz/c TightSCF NoKeepInts
|  2>
|  3> %scf
|  4>   MaxCore 4096
|  5> end
|  6> *xyz  0  1
|  7>     C       15.4921160   13.8932308   16.7029889
|  8>     C       15.2866284   15.2555878   16.0047933
|  9>     O       16.5061043   16.0038088   15.7709053
| 10>     C       17.6314077   15.8667116   16.5341786
| 11>     O       18.2383595   14.8135618   16.6316489
| 12>     C       17.8925896   17.0286616   17.4464961
| 13>     C       17.4601144   18.2976491   17.2300984
| 14>     C       16.6860205   18.8255103   16.0397874
| 15>     N       17.7885409   19.3076132   18.1400368
| 16>     C       18.6341329   19.1577948   19.2074186
| 17>     S       19.0467041   20.4326531   20.1768783
| 18>     N       19.1193328   17.8943775   19.4318753
| 19>     C       18.6962111   16.6833652   18.7039359
| 20>     C       17.8924970   15.7612839   19.6168720
| 21>     C       18.2793754   14.4203752   19.7957465
| 22>     C       17.5305656   13.5623717   20.6184296
| 23>     C       16.3833937   14.0482398   21.2684403
| 24>     C       15.9925720   15.3821710   21.0901291
| 25>     O       14.8800579   15.8520351   21.7086661
| 26>     C       16.7395507   16.2336517   20.2701718
| 27>     H       16.1673404   13.2528766   16.1212593
| 28>     H       14.5343703   13.3686396   16.8019269
| 29>     H       15.9079527   14.0192631   17.7110953
| 30>     H       14.7741841   15.0995895   15.0467626
| 31>     H       14.6215052   15.8594737   16.6356302
| 32>     H       15.6359433   18.5129174   16.0892658
| 33>     H       17.1076808   18.4465013   15.1002073
| 34>     H       16.7048526   19.9204287   15.9775728
| 35>     H       17.4447158   20.2430710   17.9922676
| 36>     H       19.7169191   17.8052038   20.2436583
| 37>     H       19.6041854   16.1506351   18.3857170
| 38>     H       19.1543417   14.0365569   19.2764917
| 39>     H       17.8372196   12.5252994   20.7427780
| 40>     H       15.8009138   13.3880982   21.9024606
| 41>     H       14.5379576   15.1397958   22.2697352
| 42>     H       16.4206433   17.2629959   20.1476740
| 43> *
| 44>
| 45>                          ****END OF INPUT****

CARTESIAN COORDINATES (ANGSTROEM)
---------------------------------
  C     15.492116   13.893231   16.702989
  C     15.286628   15.255588   16.004793
  O     16.506104   16.003809   15.770905
  C     17.631408   15.866712   16.534179
  O     18.238360   14.813562   16.631649
  C     17.892590   17.028662   17.446496
  C     17.460114   18.297649   17.230098
  C     16.686021   18.825510   16.039787
  N     17.788541   19.307613   18.140037
  C     18.634133   19.157795   19.207419
  S     19.046704   20.432653   20.176878
  N     19.119333   17.894378   19.431875
  C     18.696211   16.683365   18.703936
  C     17.892497   15.761284   19.616872
  C     18.279375   14.420375   19.795746
  C     17.530566   13.562372   20.618430
  C     16.383394   14.048240   21.268440
  C     15.992572   15.382171   21.090129
  O     14.880058   15.852035   21.708666
  C     16.739551   16.233652   20.270172
  H     16.167340   13.252877   16.121259
  H     14.534370   13.368640   16.801927
  H     15.907953   14.019263   17.711095
  H     14.774184   15.099590   15.046763
  H     14.621505   15.859474   16.635630
  H     15.635943   18.512917   16.089266
  H     17.107681   18.446501   15.100207
  H     16.704853   19.920429   15.977573
  H     17.444716   20.243071   17.992268
  H     19.716919   17.805204   20.243658
  H     19.604185   16.150635   18.385717
  H     19.154342   14.036557   19.276492
  H     17.837220   12.525299   20.742778
  H     15.800914   13.388098   21.902461
  H     14.537958   15.139796   22.269735
  H     16.420643   17.262996   20.147674

 Total Charge           Charge          ....    0
 Multiplicity           Mult            ....    1
 Number of Electrons    NEL             ....  154
 Basis Dimension        Dim             ....  828

ORBITAL ENERGIES
----------------

  NO   OCC          E(Eh)            E(eV)
   0   2.0000     -91.888923     -2500.4247
   1   2.0000     -20.595742      -560.4386
   2   2.0000     -20.586835      -560.1963
   3   2.0000     -20.550725      -559.2137
   4   2.0000     -15.628908      -425.2842
   5   2.0000     -15.608037      -424.7163
   6   2.0000     -11.395905      -310.0984
   7   2.0000     -11.384140      -309.7782
   8   2.0000     -11.335728      -308.4608
   9   2.0000     -11.312011      -307.8155
  10   2.0000     -11.307150      -307.6832
  11   2.0000     -11.306475      -307.6648
  12   2.0000     -11.259778      -306.3941
  13   2.0000     -11.259478      -306.3860
  14   2.0000     -11.257275      -306.3260
  15   2.0000     -11.251928      -306.1805
  16   2.0000     -11.241688      -305.9019
  17   2.0000     -11.237705      -305.7935
  18   2.0000     -11.234491      -305.7061
  19   2.0000     -11.223674      -305.4117
  20   2.0000      -8.893992      -242.0178
  21   2.0000      -6.575570      -178.9304
  22   2.0000      -6.573562      -178.8757
  23   2.0000      -6.572977      -178.8598
  24   2.0000      -1.445233       -39.3268
  25   2.0000      -1.415518       -38.5182
  26   2.0000      -1.355684       -36.8900
  27   2.0000      -1.339960       -36.4622
  28   2.0000      -1.238006       -33.6879
  29   2.0000      -1.156094       -31.4589
  30   2.0000      -1.120664       -30.4948
  31   2.0000      -1.043759       -28.4021
  32   2.0000      -1.032360       -28.0920
  33   2.0000      -1.013534       -27.5797
  34   2.0000      -0.999398       -27.1950
  35   2.0000      -0.984542       -26.7907
  36   2.0000      -0.923548       -25.1310
  37   2.0000      -0.893569       -24.3153
  38   2.0000      -0.849531       -23.1169
  39   2.0000      -0.838480       -22.8162
  40   2.0000      -0.832041       -22.6410
  41   2.0000      -0.821961       -22.3667
  42   2.0000      -0.743680       -20.2366
  43   2.0000      -0.728103       -19.8127
  44   2.0000      -0.725689       -19.7470
  45   2.0000      -0.693493       -18.8709
  46   2.0000      -0.685068       -18.6417
  47   2.0000      -0.678366       -18.4593
  48   2.0000      -0.674758       -18.3611
  49   2.0000      -0.665988       -18.1224
  50   2.0000      -0.648733       -17.6529
  51   2.0000      -0.645736       -17.5714
  52   2.0000      -0.636085       -17.3088
  53   2.0000      -0.616150       -16.7663
  54   2.0000      -0.604333       -16.4447
  55   2.0000      -0.602236       -16.3877
  56   2.0000      -0.599308       -16.3080
  57   2.0000      -0.576945       -15.6995
  58   2.0000      -0.574562       -15.6346
  59   2.0000      -0.566405       -15.4127
  60   2.0000      -0.554096       -15.0777
  61   2.0000      -0.547266       -14.8919
  62   2.0000      -0.536663       -14.6033
  63   2.0000      -0.526886       -14.3373
  64   2.0000      -0.519249       -14.1295
  65   2.0000      -0.511393       -13.9157
  66   2.0000      -0.499694       -13.5974
  67   2.0000      -0.493849       -13.4383
  68   2.0000      -0.481429       -13.1004
  69   2.0000      -0.464706       -12.6453
  70   2.0000      -0.454794       -12.3756
  71   2.0000      -0.448701       -12.2098
  72   2.0000      -0.354569        -9.6483
  73   2.0000      -0.347970        -9.4687
  74   2.0000      -0.328210        -8.9311
  75   2.0000      -0.319068        -8.6823
  76   2.0000      -0.316051        -8.6002
  77   0.0000       0.072774         1.9803
  78   0.0000       0.106233         2.8908
  79   0.0000       0.120563         3.2807
  80   0.0000       0.132618         3.6087
  81   0.0000       0.138851         3.7783

MULLIKEN ATOMIC CHARGES
-----------------------
   0 C :   -0.296559
   1 C :    0.048797
   2 O :   -0.380065
   3 C :    0.445680
   4 O :   -0.398405
   5 C :   -0.191972
   6 C :    0.145796
   7 C :   -0.283644
   8 N :   -0.124001
   9 C :    0.203324
  10 S :   -0.439428
  11 N :   -0.202363
  12 C :    0.058029
  13 C :    0.032207
  14 C :   -0.164163
  15 C :   -0.134748
  16 C :   -0.277152
  17 C :    0.307415
  18 O :   -0.358864
  19 C :   -0.266412
  20 H :    0.115885
  21 H :    0.099001
  22 H :    0.116452
  23 H :    0.104198
  24 H :    0.081433
  25 H :    0.121761
  26 H :    0.130542
  27 H :    0.104558
  28 H :    0.197128
  29 H :    0.194669
  30 H :    0.154437
  31 H :    0.156429
  32 H :    0.160756
  33 H :    0.130572
  34 H :    0.240829
  35 H :    0.167878
Sum of atomic charges:   -0.0000000

LOEWDIN ATOMIC CHARGES
----------------------
   0 C :    0.106521
   1 C :   -0.013221
   2 O :    0.284445
   3 C :   -0.416200
   4 O :    0.126311
   5 C :   -0.094486
   6 C :   -0.069600
   7 C :    0.125699
   8 N :    0.404564
   9 C :   -0.458072
  10 S :   -0.035996
  11 N :    0.397465
  12 C :   -0.046278
  13 C :   -0.041585
  14 C :    0.021603
  15 C :    0.041090
  16 C :   -0.002219
  17 C :   -0.193704
  18 O :    0.393507
  19 C :    0.027335
  20 H :   -0.022903
  21 H :   -0.026562
  22 H :   -0.023996
  23 H :   -0.024136
  24 H :   -0.034969
  25 H :   -0.011014
  26 H :   -0.006556
  27 H :   -0.020181
  28 H :   -0.058813
  29 H :   -0.063844
  30 H :   -0.005058
  31 H :   -0.024536
  32 H :   -0.020400
  33 H :   -0.035654
  34 H :   -0.154111
  35 H :   -0.024445

  Mayer bond orders larger than 0.100000
B(  0-C ,  1-C ) :   0.9801 B(  0-C , 20-H ) :   0.9720 B(  0-C , 21-H ) :   0.9735
B(  0-C , 22-H ) :   0.9669 B(  1-C ,  2-O ) :   0.9023 B(  1-C , 23-H ) :   0.9792
B(  1-C , 24-H ) :   0.9746 B(  2-O ,  3-C ) :   1.0924 B(  3-C ,  4-O ) :   2.0360
B(  3-C ,  5-C ) :   1.0220 B(  5-C ,  6-C ) :   1.6602 B(  5-C , 12-C ) :   0.9634
B(  6-C ,  7-C ) :   0.9522 B(  6-C ,  8-N ) :   1.1448 B(  7-C , 25-H ) :   0.9661
B(  7-C , 26-H ) :   0.9667 B(  7-C , 27-H ) :   0.9894 B(  8-N ,  9-C ) :   1.1823
B(  8-N , 28-H ) :   0.9490 B(  9-C , 10-S ) :   1.6103 B(  9-C , 11-N ) :   1.3025
B( 11-N , 12-C ) :   0.9912 B( 11-N , 29-H ) :   0.9516 B( 12-C , 13-C ) :   0.9424
B( 12-C , 30-H ) :   0.9991 B( 13-C , 14-C ) :   1.3805 B( 13-C , 19-C ) :   1.3691
B( 14-C , 15-C ) :   1.3938 B( 14-C , 31-H ) :   0.9642 B( 15-C , 16-C ) :   1.3618
B( 15-C , 32-H ) :   0.9714 B( 16-C , 17-C ) :   1.3318 B( 16-C , 33-H ) :   0.9851
B( 17-C , 18-O ) :   1.1100 B( 17-C , 19-C ) :   1.3742 B( 18-O , 34-H ) :   0.9799
B( 19-C , 35-H ) :   0.9576

MP2 TOTAL ENERGY:    -1274.330875704 Eh
FINAL SINGLE POINT ENERGY     -1274.330875703775

DIPOLE MOMENT
-------------
                                X             Y             Z
Electronic contribution:      9.81230      10.01648       7.28115
Nuclear contribution   :    -11.35015     -11.19762      -7.96922
                        -----------------------------------------
Total Dipole Moment    :     -1.53784      -1.18114      -0.68807
                        -----------------------------------------
Magnitude (a.u.)       :      2.05754
Magnitude (Debye)      :      5.22986

Rotational constants in cm-1:     0.011882     0.009178     0.006470
Rotational constants in MHz :   356.222622   275.137859   193.964776

                             ****ORCA TERMINATED NORMALLY****
TOTAL RUN TIME: 0 days 2 hours 2 minutes 54 seconds 940 msec
