                         Program Version 5.0.0 -  RELEASE  -
|  1> ! ri-mp2 cc-pvtz cc-pvtz/c TightSCF NoKeepInts
|  2>
|  3> %scf
|  4>   MaxCore 4096
|  5> end
|  6> *xyz  0  1
|  7>     C       15.5786373   13.6488804   15.5736315
|  8>     C       15.1269024   15.0975834   15.8577068
|  9>     O       16.2092607   16.0516268   16.0011239
| 10>     C       17.3802206   15.8350367   16.6798078
| 11>     O       17.8981085   14.7395552   16.8105825
| 12>     C       17.7741542   16.9900885   17.5562626
| 13>     C       17.4063371   18.2820472   17.3503397
| 14>     C       16.5717271   18.8451584   16.2180383
| 15>     N       17.8781964   19.2835361   18.2053756
| 16>     C       18.8244213   19.1018217   19.1790474
| 17>     S       19.4192819   20.3667392   20.0632380
| 18>     N       19.2528695   17.8147152   19.3818231
| 19>     C       18.6623777   16.6198766   18.7499829
| 20>     C       17.8833525   15.8023106   19.7773315
| 21>     C       18.1711426   14.4382890   19.9688734
| 22>     C       17.4539175   13.6794791   20.9089043
| 23>     C       16.4386133   14.2889424   21.6654103
| 24>     C       16.1458095   15.6461782   21.4750233
| 25>     O       15.1612122   16.2359281   22.1989986
| 26>     C       16.8610103   16.3986812   20.5381621
| 27>     H       16.3500265   13.6242656   14.7936828
| 28>     H       14.7288937   13.0468836   15.2302924
| 29>     H       15.9747623   13.1701760   16.4778512
| 30>     H       14.4734504   15.4333259   15.0423421
| 31>     H       14.5265185   15.0958190   16.7769209
| 32>     H       15.5150712   18.5800591   16.3470460
| 33>     H       16.9049557   18.4467095   15.2515694
| 34>     H       16.6338774   19.9381264   16.1508276
| 35>     H       17.5764830   20.2354261   18.0718596
| 36>     H       19.9283565   17.7026395   20.1268338
| 37>     H       19.4896948   16.0011144   18.3732225
| 38>     H       18.9438628   13.9603211   19.3715269
| 39>     H       17.6828133   12.6237663   21.0426596
| 40>     H       15.8810635   13.7061807   22.3909645
| 41>     H       14.8193664   15.5724378   22.8168400
| 42>     H       16.6202512   17.4482751   20.4098974
| 43> *
| 44>
| 45>                          ****END OF INPUT****

CARTESIAN COORDINATES (ANGSTROEM)
---------------------------------
  C     15.578637   13.648880   15.573631
  C     15.126902   15.097583   15.857707
  O     16.209261   16.051627   16.001124
  C     17.380221   15.835037   16.679808
  O     17.898108   14.739555   16.810582
  C     17.774154   16.990088   17.556263
  C     17.406337   18.282047   17.350340
  C     16.571727   18.845158   16.218038
  N     17.878196   19.283536   18.205376
  C     18.824421   19.101822   19.179047
  S     19.419282   20.366739   20.063238
  N     19.252869   17.814715   19.381823
  C     18.662378   16.619877   18.749983
  C     17.883352   15.802311   19.777331
  C     18.171143   14.438289   19.968873
  C     17.453917   13.679479   20.908904
  C     16.438613   14.288942   21.665410
  C     16.145809   15.646178   21.475023
  O     15.161212   16.235928   22.198999
  C     16.861010   16.398681   20.538162
  H     16.350026   13.624266   14.793683
  H     14.728894   13.046884   15.230292
  H     15.974762   13.170176   16.477851
  H     14.473450   15.433326   15.042342
  H     14.526518   15.095819   16.776921
  H     15.515071   18.580059   16.347046
  H     16.904956   18.446710   15.251569
  H     16.633877   19.938126   16.150828
  H     17.576483   20.235426   18.071860
  H     19.928356   17.702640   20.126834
  H     19.489695   16.001114   18.373223
  H     18.943863   13.960321   19.371527
  H     17.682813   12.623766   21.042660
  H     15.881063   13.706181   22.390964
  H     14.819366   15.572438   22.816840
  H     16.620251   17.448275   20.409897

 Total Charge           Charge          ....    0
 Multiplicity           Mult            ....    1
 Number of Electrons    NEL             ....  154
 Basis Dimension        Dim             ....  828

ORBITAL ENERGIES
----------------

  NO   OCC          E(Eh)            E(eV)
   0   2.0000     -91.887459     -2500.3849
   1   2.0000     -20.595319      -560.4271
   2   2.0000     -20.592659      -560.3547
   3   2.0000     -20.548040      -559.1406
   4   2.0000     -15.627184      -425.2373
   5   2.0000     -15.606371      -424.6709
   6   2.0000     -11.398340      -310.1646
   7   2.0000     -11.382421      -309.7314
   8   2.0000     -11.333859      -308.4100
   9   2.0000     -11.308586      -307.7223
  10   2.0000     -11.306010      -307.6522
  11   2.0000     -11.305592      -307.6408
  12   2.0000     -11.259121      -306.3762
  13   2.0000     -11.258081      -306.3480
  14   2.0000     -11.254323      -306.2457
  15   2.0000     -11.248823      -306.0960
  16   2.0000     -11.238376      -305.8117
  17   2.0000     -11.234328      -305.7016
  18   2.0000     -11.231471      -305.6239
  19   2.0000     -11.222468      -305.3789
  20   2.0000      -8.892534      -241.9781
  21   2.0000      -6.574114      -178.8907
  22   2.0000      -6.572105      -178.8361
  23   2.0000      -6.571522      -178.8202
  24   2.0000      -1.446293       -39.3556
  25   2.0000      -1.412402       -38.4334
  26   2.0000      -1.357470       -36.9386
  27   2.0000      -1.338417       -36.4202
  28   2.0000      -1.236324       -33.6421
  29   2.0000      -1.152761       -31.3682
  30   2.0000      -1.118709       -30.4416
  31   2.0000      -1.041971       -28.3535
  32   2.0000      -1.033484       -28.1225
  33   2.0000      -1.010319       -27.4922
  34   2.0000      -0.996809       -27.1246
  35   2.0000      -0.982085       -26.7239
  36   2.0000      -0.921350       -25.0712
  37   2.0000      -0.893787       -24.3212
  38   2.0000      -0.847550       -23.0630
  39   2.0000      -0.836229       -22.7549
  40   2.0000      -0.828888       -22.5552
  41   2.0000      -0.819364       -22.2960
  42   2.0000      -0.744263       -20.2524
  43   2.0000      -0.727097       -19.7853
  44   2.0000      -0.725176       -19.7331
  45   2.0000      -0.691185       -18.8081
  46   2.0000      -0.684161       -18.6170
  47   2.0000      -0.679131       -18.4801
  48   2.0000      -0.671523       -18.2731
  49   2.0000      -0.665705       -18.1148
  50   2.0000      -0.645575       -17.5670
  51   2.0000      -0.643321       -17.5057
  52   2.0000      -0.634522       -17.2662
  53   2.0000      -0.603325       -16.4173
  54   2.0000      -0.600180       -16.3317
  55   2.0000      -0.598696       -16.2913
  56   2.0000      -0.596169       -16.2226
  57   2.0000      -0.581855       -15.8331
  58   2.0000      -0.573080       -15.5943
  59   2.0000      -0.571104       -15.5405
  60   2.0000      -0.559295       -15.2192
  61   2.0000      -0.544640       -14.8204
  62   2.0000      -0.536586       -14.6013
  63   2.0000      -0.523255       -14.2385
  64   2.0000      -0.517788       -14.0897
  65   2.0000      -0.510374       -13.8880
  66   2.0000      -0.498935       -13.5767
  67   2.0000      -0.494784       -13.4638
  68   2.0000      -0.479396       -13.0450
  69   2.0000      -0.461817       -12.5667
  70   2.0000      -0.456438       -12.4203
  71   2.0000      -0.445505       -12.1228
  72   2.0000      -0.353037        -9.6066
  73   2.0000      -0.344704        -9.3799
  74   2.0000      -0.326708        -8.8902
  75   2.0000      -0.315898        -8.5960
  76   2.0000      -0.314147        -8.5484
  77   0.0000       0.075800         2.0626
  78   0.0000       0.110608         3.0098
  79   0.0000       0.121444         3.3047
  80   0.0000       0.135280         3.6811
  81   0.0000       0.139135         3.7861

MULLIKEN ATOMIC CHARGES
-----------------------
   0 C :   -0.282142
   1 C :    0.047977
   2 O :   -0.371263
   3 C :    0.441536
   4 O :   -0.417766
   5 C :   -0.153512
   6 C :    0.140963
   7 C :   -0.285383
   8 N :   -0.122901
   9 C :    0.201473
  10 S :   -0.440884
  11 N :   -0.198839
  12 C :    0.039890
  13 C :    0.053707
  14 C :   -0.166216
  15 C :   -0.133964
  16 C :   -0.279699
  17 C :    0.311373
  18 O :   -0.358779
  19 C :   -0.272864
  20 H :    0.103459
  21 H :    0.093301
  22 H :    0.115846
  23 H :    0.097727
  24 H :    0.088268
  25 H :    0.124932
  26 H :    0.125958
  27 H :    0.102692
  28 H :    0.196693
  29 H :    0.193789
  30 H :    0.155107
  31 H :    0.155357
  32 H :    0.159777
  33 H :    0.128546
  34 H :    0.240151
  35 H :    0.165692
Sum of atomic charges:    0.0000000

LOEWDIN ATOMIC CHARGES
----------------------
   0 C :    0.103130
   1 C :   -0.010701
   2 O :    0.289037
   3 C :   -0.411052
   4 O :    0.121172
   5 C :   -0.091305
   6 C :   -0.068713
   7 C :    0.124658
   8 N :    0.404303
   9 C :   -0.458772
  10 S :   -0.037253
  11 N :    0.397585
  12 C :   -0.046195
  13 C :   -0.039146
  14 C :    0.020950
  15 C :    0.040256
  16 C :   -0.002577
  17 C :   -0.192937
  18 O :    0.393091
  19 C :    0.028475
  20 H :   -0.024251
  21 H :   -0.029349
  22 H :   -0.025668
  23 H :   -0.024734
  24 H :   -0.030042
  25 H :   -0.010207
  26 H :   -0.008333
  27 H :   -0.020836
  28 H :   -0.059214
  29 H :   -0.063892
  30 H :   -0.005310
  31 H :   -0.025198
  32 H :   -0.021165
  33 H :   -0.036328
  34 H :   -0.154798
  35 H :   -0.024682

  Mayer bond orders larger than 0.100000
B(  0-C ,  1-C ) :   0.9784 B(  0-C , 20-H ) :   0.9747 B(  0-C , 21-H ) :   0.9739
B(  0-C , 22-H ) :   0.9724 B(  1-C ,  2-O ) :   0.9042 B(  1-C , 23-H ) :   0.9813
B(  1-C , 24-H ) :   0.9764 B(  2-O ,  3-C ) :   1.1009 B(  3-C ,  4-O ) :   1.9952
B(  3-C ,  5-C ) :   1.0475 B(  5-C ,  6-C ) :   1.6614 B(  5-C , 12-C ) :   0.9630
B(  6-C ,  7-C ) :   0.9537 B(  6-C ,  8-N ) :   1.1405 B(  7-C , 25-H ) :   0.9640
B(  7-C , 26-H ) :   0.9674 B(  7-C , 27-H ) :   0.9907 B(  8-N ,  9-C ) :   1.1822
B(  8-N , 28-H ) :   0.9492 B(  9-C , 10-S ) :   1.6093 B(  9-C , 11-N ) :   1.3029
B( 11-N , 12-C ) :   0.9910 B( 11-N , 29-H ) :   0.9519 B( 12-C , 13-C ) :   0.9466
B( 12-C , 30-H ) :   0.9993 B( 13-C , 14-C ) :   1.3759 B( 13-C , 19-C ) :   1.3691
B( 14-C , 15-C ) :   1.3939 B( 14-C , 31-H ) :   0.9644 B( 15-C , 16-C ) :   1.3628
B( 15-C , 32-H ) :   0.9711 B( 16-C , 17-C ) :   1.3314 B( 16-C , 33-H ) :   0.9858
B( 17-C , 18-O ) :   1.1084 B( 17-C , 19-C ) :   1.3777 B( 18-O , 34-H ) :   0.9805
B( 19-C , 35-H ) :   0.9583

MP2 TOTAL ENERGY:    -1274.332045240 Eh
FINAL SINGLE POINT ENERGY     -1274.332045239574

DIPOLE MOMENT
-------------
                                X             Y             Z
Electronic contribution:      9.94961      10.63978       9.78699
Nuclear contribution   :    -11.58067     -11.85631     -10.68397
                        -----------------------------------------
Total Dipole Moment    :     -1.63107      -1.21652      -0.89699
                        -----------------------------------------
Magnitude (a.u.)       :      2.22371
Magnitude (Debye)      :      5.65223

Rotational constants in cm-1:     0.011026     0.008993     0.006039
Rotational constants in MHz :   330.547552   269.611292   181.048934

                             ****ORCA TERMINATED NORMALLY****
TOTAL RUN TIME: 0 days 1 hours 58 minutes 23 seconds 103 msec
