                         Program Version 5.0.0 -  RELEASE  -
|  1> ! ri-mp2 cc-pvtz cc-pvtz/c TightSCF NoKeepInts
|  2>
|  3> %scf
|  4>   MaxCore 4096
|  5> end
|  6> *xyz  0  1
|  7>     C       14.2394293   15.3620069   16.4501990
|  8>     C       15.6684400   14.9431598   16.8343989
|  9>     O       16.5850544   15.5934743   15.9360715
| 10>     C       17.8547202   15.7969541   16.3894647
| 11>     O       18.6248500   14.8551610   16.4526893
| 12>     C       17.9394917   16.9287920   17.3671869
| 13>     C       17.3219117   18.1194113   17.1732975
| 14>     C       16.5019347   18.5407052   15.9722969
| 15>     N       17.4929337   19.1502410   18.1015729
| 16>     C       18.3785925   19.1181974   19.1472277
| 17>     S       18.6105630   20.4264421   20.1316960
| 18>     N       19.0622594   17.9425887   19.3368672
| 19>     C       18.7998590   16.6848701   18.6101328
| 20>     C       18.1422669   15.6558100   19.5264050
| 21>     C       18.6342251   14.3389761   19.5846330
| 22>     C       18.0206947   13.3797985   20.4074444
| 23>     C       16.9032134   13.7386442   21.1799313
| 24>     C       16.4071505   15.0478301   21.1228630
| 25>     O       15.3206908   15.3949379   21.8574184
| 26>     C       17.0191372   16.0001078   20.3017944
| 27>     H       13.5067171   14.8248281   17.0647580
| 28>     H       14.0385676   15.1295360   15.3968568
| 29>     H       14.0892922   16.4359929   16.6059901
| 30>     H       15.8551353   15.2383999   17.8748939
| 31>     H       15.7844810   13.8534718   16.7621697
| 32>     H       16.8519658   18.0510661   15.0549904
| 33>     H       16.5618821   19.6214438   15.7935502
| 34>     H       15.4464852   18.2809578   16.1086921
| 35>     H       17.0037319   20.0223523   17.9759207
| 36>     H       19.6910460   17.9385596   20.1299491
| 37>     H       19.7677867   16.2823469   18.2772370
| 38>     H       19.4871818   14.0532412   18.9729613
| 39>     H       18.4092258   12.3632320   20.4384600
| 40>     H       16.4251895   13.0000106   21.8149378
| 41>     H       15.0840585   14.6313222   22.4054225
| 42>     H       16.6168352   17.0071303   20.2736196
| 43> *
| 44>
| 45>                          ****END OF INPUT****

CARTESIAN COORDINATES (ANGSTROEM)
---------------------------------
  C     14.239429   15.362007   16.450199
  C     15.668440   14.943160   16.834399
  O     16.585054   15.593474   15.936072
  C     17.854720   15.796954   16.389465
  O     18.624850   14.855161   16.452689
  C     17.939492   16.928792   17.367187
  C     17.321912   18.119411   17.173297
  C     16.501935   18.540705   15.972297
  N     17.492934   19.150241   18.101573
  C     18.378592   19.118197   19.147228
  S     18.610563   20.426442   20.131696
  N     19.062259   17.942589   19.336867
  C     18.799859   16.684870   18.610133
  C     18.142267   15.655810   19.526405
  C     18.634225   14.338976   19.584633
  C     18.020695   13.379798   20.407444
  C     16.903213   13.738644   21.179931
  C     16.407151   15.047830   21.122863
  O     15.320691   15.394938   21.857418
  C     17.019137   16.000108   20.301794
  H     13.506717   14.824828   17.064758
  H     14.038568   15.129536   15.396857
  H     14.089292   16.435993   16.605990
  H     15.855135   15.238400   17.874894
  H     15.784481   13.853472   16.762170
  H     16.851966   18.051066   15.054990
  H     16.561882   19.621444   15.793550
  H     15.446485   18.280958   16.108692
  H     17.003732   20.022352   17.975921
  H     19.691046   17.938560   20.129949
  H     19.767787   16.282347   18.277237
  H     19.487182   14.053241   18.972961
  H     18.409226   12.363232   20.438460
  H     16.425189   13.000011   21.814938
  H     15.084058   14.631322   22.405422
  H     16.616835   17.007130   20.273620

 Total Charge           Charge          ....    0
 Multiplicity           Mult            ....    1
 Number of Electrons    NEL             ....  154
 Basis Dimension        Dim             ....  828

ORBITAL ENERGIES
----------------

  NO   OCC          E(Eh)            E(eV)
   0   2.0000     -91.890416     -2500.4653
   1   2.0000     -20.597936      -560.4983
   2   2.0000     -20.580366      -560.0202
   3   2.0000     -20.557957      -559.4105
   4   2.0000     -15.629627      -425.3038
   5   2.0000     -15.609968      -424.7688
   6   2.0000     -11.393878      -310.0432
   7   2.0000     -11.386077      -309.8309
   8   2.0000     -11.334242      -308.4204
   9   2.0000     -11.314541      -307.8843
  10   2.0000     -11.310955      -307.7867
  11   2.0000     -11.298411      -307.4454
  12   2.0000     -11.262478      -306.4676
  13   2.0000     -11.261490      -306.4407
  14   2.0000     -11.260177      -306.4050
  15   2.0000     -11.254501      -306.2505
  16   2.0000     -11.244093      -305.9673
  17   2.0000     -11.239893      -305.8530
  18   2.0000     -11.236726      -305.7668
  19   2.0000     -11.233525      -305.6797
  20   2.0000      -8.895485      -242.0585
  21   2.0000      -6.577062      -178.9710
  22   2.0000      -6.575052      -178.9163
  23   2.0000      -6.574466      -178.9003
  24   2.0000      -1.451871       -39.5074
  25   2.0000      -1.417777       -38.5797
  26   2.0000      -1.356657       -36.9165
  27   2.0000      -1.341146       -36.4944
  28   2.0000      -1.239463       -33.7275
  29   2.0000      -1.158494       -31.5242
  30   2.0000      -1.123050       -30.5597
  31   2.0000      -1.046424       -28.4746
  32   2.0000      -1.035535       -28.1783
  33   2.0000      -1.016182       -27.6517
  34   2.0000      -1.001639       -27.2560
  35   2.0000      -0.987504       -26.8713
  36   2.0000      -0.925393       -25.1812
  37   2.0000      -0.880397       -23.9568
  38   2.0000      -0.850507       -23.1435
  39   2.0000      -0.841296       -22.8928
  40   2.0000      -0.834515       -22.7083
  41   2.0000      -0.831256       -22.6196
  42   2.0000      -0.756892       -20.5961
  43   2.0000      -0.735844       -20.0233
  44   2.0000      -0.730143       -19.8682
  45   2.0000      -0.696101       -18.9419
  46   2.0000      -0.687158       -18.6985
  47   2.0000      -0.682056       -18.5597
  48   2.0000      -0.675604       -18.3841
  49   2.0000      -0.657737       -17.8979
  50   2.0000      -0.652781       -17.7631
  51   2.0000      -0.642855       -17.4930
  52   2.0000      -0.632327       -17.2065
  53   2.0000      -0.621260       -16.9053
  54   2.0000      -0.606684       -16.5087
  55   2.0000      -0.605518       -16.4770
  56   2.0000      -0.601614       -16.3707
  57   2.0000      -0.580281       -15.7902
  58   2.0000      -0.575640       -15.6639
  59   2.0000      -0.566528       -15.4160
  60   2.0000      -0.559605       -15.2276
  61   2.0000      -0.550705       -14.9854
  62   2.0000      -0.544392       -14.8136
  63   2.0000      -0.524019       -14.2593
  64   2.0000      -0.519679       -14.1412
  65   2.0000      -0.514305       -13.9949
  66   2.0000      -0.502564       -13.6755
  67   2.0000      -0.498434       -13.5631
  68   2.0000      -0.481669       -13.1069
  69   2.0000      -0.466964       -12.7067
  70   2.0000      -0.457257       -12.4426
  71   2.0000      -0.453134       -12.3304
  72   2.0000      -0.356907        -9.7119
  73   2.0000      -0.349757        -9.5174
  74   2.0000      -0.329715        -8.9720
  75   2.0000      -0.321913        -8.7597
  76   2.0000      -0.318002        -8.6533
  77   0.0000       0.070132         1.9084
  78   0.0000       0.102327         2.7845
  79   0.0000       0.118194         3.2162
  80   0.0000       0.130622         3.5544
  81   0.0000       0.133040         3.6202

MULLIKEN ATOMIC CHARGES
-----------------------
   0 C :   -0.277428
   1 C :    0.038160
   2 O :   -0.372965
   3 C :    0.466718
   4 O :   -0.384946
   5 C :   -0.220936
   6 C :    0.141096
   7 C :   -0.293577
   8 N :   -0.125621
   9 C :    0.195298
  10 S :   -0.437215
  11 N :   -0.203500
  12 C :    0.059845
  13 C :    0.025537
  14 C :   -0.168688
  15 C :   -0.136302
  16 C :   -0.275995
  17 C :    0.315798
  18 O :   -0.359037
  19 C :   -0.278037
  20 H :    0.102733
  21 H :    0.105359
  22 H :    0.086735
  23 H :    0.094852
  24 H :    0.113283
  25 H :    0.128088
  26 H :    0.114623
  27 H :    0.121534
  28 H :    0.197871
  29 H :    0.194825
  30 H :    0.159424
  31 H :    0.163777
  32 H :    0.162592
  33 H :    0.132102
  34 H :    0.241081
  35 H :    0.172915
Sum of atomic charges:    0.0000000

LOEWDIN ATOMIC CHARGES
----------------------
   0 C :    0.109784
   1 C :   -0.014794
   2 O :    0.282905
   3 C :   -0.419680
   4 O :    0.137304
   5 C :   -0.093945
   6 C :   -0.078288
   7 C :    0.127636
   8 N :    0.404089
   9 C :   -0.458218
  10 S :   -0.034893
  11 N :    0.396883
  12 C :   -0.044829
  13 C :   -0.042790
  14 C :    0.021595
  15 C :    0.043358
  16 C :   -0.001442
  17 C :   -0.195159
  18 O :    0.394291
  19 C :    0.026353
  20 H :   -0.022574
  21 H :   -0.024749
  22 H :   -0.033189
  23 H :   -0.032835
  24 H :   -0.026957
  25 H :   -0.007116
  26 H :   -0.016962
  27 H :   -0.014426
  28 H :   -0.057986
  29 H :   -0.063956
  30 H :   -0.003477
  31 H :   -0.023266
  32 H :   -0.019423
  33 H :   -0.035097
  34 H :   -0.153486
  35 H :   -0.024659

  Mayer bond orders larger than 0.100000
B(  0-C ,  1-C ) :   0.9780 B(  0-C , 20-H ) :   0.9768 B(  0-C , 21-H ) :   0.9774
B(  0-C , 22-H ) :   0.9784 B(  1-C ,  2-O ) :   0.8932 B(  1-C , 23-H ) :   0.9602
B(  1-C , 24-H ) :   0.9834 B(  2-O ,  3-C ) :   1.0958 B(  3-C ,  4-O ) :   2.0548
B(  3-C ,  5-C ) :   0.9947 B(  5-C ,  6-C ) :   1.6676 B(  5-C , 12-C ) :   0.9576
B(  6-C ,  7-C ) :   0.9540 B(  6-C ,  8-N ) :   1.1324 B(  7-C , 25-H ) :   0.9708
B(  7-C , 26-H ) :   0.9849 B(  7-C , 27-H ) :   0.9640 B(  8-N ,  9-C ) :   1.1853
B(  8-N , 28-H ) :   0.9506 B(  9-C , 10-S ) :   1.6147 B(  9-C , 11-N ) :   1.2959
B( 11-N , 12-C ) :   0.9929 B( 11-N , 29-H ) :   0.9516 B( 12-C , 13-C ) :   0.9476
B( 12-C , 30-H ) :   0.9981 B( 13-C , 14-C ) :   1.3851 B( 13-C , 19-C ) :   1.3502
B( 14-C , 15-C ) :   1.3963 B( 14-C , 31-H ) :   0.9604 B( 15-C , 16-C ) :   1.3644
B( 15-C , 32-H ) :   0.9704 B( 16-C , 17-C ) :   1.3301 B( 16-C , 33-H ) :   0.9843
B( 17-C , 18-O ) :   1.1114 B( 17-C , 19-C ) :   1.3707 B( 18-O , 34-H ) :   0.9796
B( 19-C , 35-H ) :   0.9598

MP2 TOTAL ENERGY:    -1274.321401766 Eh
FINAL SINGLE POINT ENERGY     -1274.321401766240

DIPOLE MOMENT
-------------
                                X             Y             Z
Electronic contribution:     11.75440       7.29292       6.77738
Nuclear contribution   :    -13.05823      -8.46241      -7.17310
                        -----------------------------------------
Total Dipole Moment    :     -1.30383      -1.16949      -0.39572
                        -----------------------------------------
Magnitude (a.u.)       :      1.79563
Magnitude (Debye)      :      4.56413

Rotational constants in cm-1:     0.011360     0.009420     0.006850
Rotational constants in MHz :   340.570526   282.394422   205.350283

                             ****ORCA TERMINATED NORMALLY****
TOTAL RUN TIME: 0 days 1 hours 43 minutes 20 seconds 433 msec
