                         Program Version 5.0.0 -  RELEASE  -
|  1> ! ri-mp2 cc-pvtz cc-pvtz/c TightSCF NoKeepInts
|  2>
|  3> %scf
|  4>   MaxCore 4096
|  5> end
|  6> *xyz  0  1
|  7>     C       15.1532336   14.6181608   17.1928764
|  8>     C       15.6336228   14.8730364   15.7479365
|  9>     O       16.5565340   15.9795689   15.7218416
| 10>     C       17.7176236   15.9052254   16.4355771
| 11>     O       18.3240405   14.8530105   16.5532469
| 12>     C       17.8885698   17.0335573   17.4099382
| 13>     C       17.3774265   18.2797786   17.2385430
| 14>     C       16.5815321   18.8011950   16.0599631
| 15>     N       17.6357146   19.2731470   18.1885056
| 16>     C       18.5000200   19.1420675   19.2434752
| 17>     S       18.8407860   20.4070364   20.2530455
| 18>     N       19.0689051   17.9058517   19.4185596
| 19>     C       18.7028871   16.6933467   18.6624902
| 20>     C       17.9403668   15.7180129   19.5549139
| 21>     C       18.3946566   14.3963976   19.7185063
| 22>     C       17.6853559   13.4896803   20.5238690
| 23>     C       16.5100117   13.9067249   21.1713941
| 24>     C       16.0526129   15.2213622   21.0088614
| 25>     O       14.9124917   15.6244078   21.6242135
| 26>     C       16.7611976   16.1218242   20.2075574
| 27>     H       15.9655276   14.2265512   17.8180398
| 28>     H       14.3435021   13.8788210   17.2005237
| 29>     H       14.7771094   15.5418959   17.6498559
| 30>     H       16.1122023   13.9677124   15.3500662
| 31>     H       14.7696830   15.1078347   15.1132115
| 32>     H       15.5548315   18.4152863   16.0857311
| 33>     H       17.0354222   18.4872900   15.1116501
| 34>     H       16.5256061   19.8963743   16.0404749
| 35>     H       17.2285419   20.1879200   18.0767327
| 36>     H       19.6787147   17.8276081   20.2222717
| 37>     H       19.6343200   16.2084271   18.3361639
| 38>     H       19.2918272   14.0654827   19.2009776
| 39>     H       18.0439708   12.4680974   20.6365434
| 40>     H       15.9574220   13.2086126   21.7912885
| 41>     H       14.6004656   14.8858722   22.1684363
| 42>     H       16.3902647   17.1348218   20.0967182
| 43> *
| 44>
| 45>                          ****END OF INPUT****

CARTESIAN COORDINATES (ANGSTROEM)
---------------------------------
  C     15.153234   14.618161   17.192876
  C     15.633623   14.873036   15.747936
  O     16.556534   15.979569   15.721842
  C     17.717624   15.905225   16.435577
  O     18.324040   14.853010   16.553247
  C     17.888570   17.033557   17.409938
  C     17.377426   18.279779   17.238543
  C     16.581532   18.801195   16.059963
  N     17.635715   19.273147   18.188506
  C     18.500020   19.142067   19.243475
  S     18.840786   20.407036   20.253045
  N     19.068905   17.905852   19.418560
  C     18.702887   16.693347   18.662490
  C     17.940367   15.718013   19.554914
  C     18.394657   14.396398   19.718506
  C     17.685356   13.489680   20.523869
  C     16.510012   13.906725   21.171394
  C     16.052613   15.221362   21.008861
  O     14.912492   15.624408   21.624213
  C     16.761198   16.121824   20.207557
  H     15.965528   14.226551   17.818040
  H     14.343502   13.878821   17.200524
  H     14.777109   15.541896   17.649856
  H     16.112202   13.967712   15.350066
  H     14.769683   15.107835   15.113212
  H     15.554832   18.415286   16.085731
  H     17.035422   18.487290   15.111650
  H     16.525606   19.896374   16.040475
  H     17.228542   20.187920   18.076733
  H     19.678715   17.827608   20.222272
  H     19.634320   16.208427   18.336164
  H     19.291827   14.065483   19.200978
  H     18.043971   12.468097   20.636543
  H     15.957422   13.208613   21.791289
  H     14.600466   14.885872   22.168436
  H     16.390265   17.134822   20.096718

 Total Charge           Charge          ....    0
 Multiplicity           Mult            ....    1
 Number of Electrons    NEL             ....  154
 Basis Dimension        Dim             ....  828

ORBITAL ENERGIES
----------------

  NO   OCC          E(Eh)            E(eV)
   0   2.0000     -91.888801     -2500.4214
   1   2.0000     -20.594913      -560.4161
   2   2.0000     -20.591137      -560.3133
   3   2.0000     -20.550051      -559.1953
   4   2.0000     -15.628813      -425.2816
   5   2.0000     -15.607904      -424.7127
   6   2.0000     -11.395322      -310.0825
   7   2.0000     -11.383987      -309.7740
   8   2.0000     -11.335168      -308.4456
   9   2.0000     -11.310820      -307.7830
  10   2.0000     -11.307655      -307.6969
  11   2.0000     -11.299580      -307.4772
  12   2.0000     -11.260418      -306.4116
  13   2.0000     -11.259380      -306.3833
  14   2.0000     -11.256261      -306.2984
  15   2.0000     -11.251291      -306.1632
  16   2.0000     -11.240910      -305.8807
  17   2.0000     -11.236305      -305.7554
  18   2.0000     -11.233932      -305.6908
  19   2.0000     -11.223618      -305.4102
  20   2.0000      -8.893864      -242.0144
  21   2.0000      -6.575441      -178.9269
  22   2.0000      -6.573434      -178.8722
  23   2.0000      -6.572848      -178.8563
  24   2.0000      -1.451348       -39.4932
  25   2.0000      -1.414672       -38.4952
  26   2.0000      -1.355409       -36.8826
  27   2.0000      -1.339877       -36.4599
  28   2.0000      -1.237855       -33.6837
  29   2.0000      -1.155336       -31.4383
  30   2.0000      -1.120825       -30.4992
  31   2.0000      -1.043453       -28.3938
  32   2.0000      -1.030816       -28.0499
  33   2.0000      -1.012666       -27.5560
  34   2.0000      -0.999073       -27.1861
  35   2.0000      -0.984723       -26.7957
  36   2.0000      -0.923237       -25.1226
  37   2.0000      -0.893566       -24.3152
  38   2.0000      -0.848159       -23.0796
  39   2.0000      -0.837474       -22.7888
  40   2.0000      -0.831224       -22.6188
  41   2.0000      -0.815198       -22.1827
  42   2.0000      -0.749457       -20.3938
  43   2.0000      -0.735060       -20.0020
  44   2.0000      -0.727292       -19.7906
  45   2.0000      -0.693240       -18.8640
  46   2.0000      -0.686263       -18.6742
  47   2.0000      -0.677533       -18.4366
  48   2.0000      -0.672143       -18.2899
  49   2.0000      -0.658317       -17.9137
  50   2.0000      -0.653837       -17.7918
  51   2.0000      -0.645457       -17.5638
  52   2.0000      -0.634420       -17.2635
  53   2.0000      -0.612742       -16.6736
  54   2.0000      -0.602514       -16.3952
  55   2.0000      -0.601996       -16.3812
  56   2.0000      -0.598668       -16.2906
  57   2.0000      -0.579519       -15.7695
  58   2.0000      -0.575705       -15.6657
  59   2.0000      -0.563175       -15.3248
  60   2.0000      -0.552956       -15.0467
  61   2.0000      -0.548008       -14.9121
  62   2.0000      -0.534490       -14.5442
  63   2.0000      -0.531819       -14.4715
  64   2.0000      -0.520292       -14.1579
  65   2.0000      -0.510805       -13.8997
  66   2.0000      -0.498836       -13.5740
  67   2.0000      -0.492015       -13.3884
  68   2.0000      -0.481714       -13.1081
  69   2.0000      -0.464124       -12.6295
  70   2.0000      -0.458890       -12.4870
  71   2.0000      -0.448978       -12.2173
  72   2.0000      -0.354454        -9.6452
  73   2.0000      -0.346959        -9.4412
  74   2.0000      -0.328014        -8.9257
  75   2.0000      -0.318437        -8.6651
  76   2.0000      -0.315761        -8.5923
  77   0.0000       0.072794         1.9808
  78   0.0000       0.107697         2.9306
  79   0.0000       0.119157         3.2424
  80   0.0000       0.132819         3.6142
  81   0.0000       0.141597         3.8531

MULLIKEN ATOMIC CHARGES
-----------------------
   0 C :   -0.326288
   1 C :    0.042924
   2 O :   -0.373524
   3 C :    0.441296
   4 O :   -0.414785
   5 C :   -0.174239
   6 C :    0.141849
   7 C :   -0.281797
   8 N :   -0.123966
   9 C :    0.202757
  10 S :   -0.439099
  11 N :   -0.199561
  12 C :    0.050904
  13 C :    0.035167
  14 C :   -0.157707
  15 C :   -0.134665
  16 C :   -0.278531
  17 C :    0.313637
  18 O :   -0.360909
  19 C :   -0.270017
  20 H :    0.127993
  21 H :    0.107357
  22 H :    0.101031
  23 H :    0.108668
  24 H :    0.107225
  25 H :    0.124237
  26 H :    0.126762
  27 H :    0.102759
  28 H :    0.197202
  29 H :    0.193838
  30 H :    0.153806
  31 H :    0.155478
  32 H :    0.160628
  33 H :    0.130259
  34 H :    0.240787
  35 H :    0.168522
Sum of atomic charges:   -0.0000000

LOEWDIN ATOMIC CHARGES
----------------------
   0 C :    0.105330
   1 C :   -0.017616
   2 O :    0.293252
   3 C :   -0.415503
   4 O :    0.114837
   5 C :   -0.092566
   6 C :   -0.069826
   7 C :    0.125837
   8 N :    0.404652
   9 C :   -0.458111
  10 S :   -0.035816
  11 N :    0.397622
  12 C :   -0.045565
  13 C :   -0.041182
  14 C :    0.020833
  15 C :    0.040650
  16 C :   -0.002154
  17 C :   -0.192908
  18 O :    0.393911
  19 C :    0.031038
  20 H :   -0.022326
  21 H :   -0.025870
  22 H :   -0.029426
  23 H :   -0.027731
  24 H :   -0.025249
  25 H :   -0.010425
  26 H :   -0.007549
  27 H :   -0.020356
  28 H :   -0.058825
  29 H :   -0.063872
  30 H :   -0.004604
  31 H :   -0.024866
  32 H :   -0.020571
  33 H :   -0.035767
  34 H :   -0.154226
  35 H :   -0.025050

  Mayer bond orders larger than 0.100000
B(  0-C ,  1-C ) :   0.9596 B(  0-C , 20-H ) :   0.9673 B(  0-C , 21-H ) :   0.9769
B(  0-C , 22-H ) :   0.9737 B(  1-C ,  2-O ) :   0.8941 B(  1-C , 23-H ) :   0.9820
B(  1-C , 24-H ) :   0.9842 B(  2-O ,  3-C ) :   1.1026 B(  3-C ,  4-O ) :   2.0066
B(  3-C ,  5-C ) :   1.0401 B(  5-C ,  6-C ) :   1.6576 B(  5-C , 12-C ) :   0.9658
B(  6-C ,  7-C ) :   0.9543 B(  6-C ,  8-N ) :   1.1421 B(  7-C , 25-H ) :   0.9633
B(  7-C , 26-H ) :   0.9678 B(  7-C , 27-H ) :   0.9898 B(  8-N ,  9-C ) :   1.1817
B(  8-N , 28-H ) :   0.9492 B(  9-C , 10-S ) :   1.6112 B(  9-C , 11-N ) :   1.3020
B( 11-N , 12-C ) :   0.9916 B( 11-N , 29-H ) :   0.9520 B( 12-C , 13-C ) :   0.9430
B( 12-C , 30-H ) :   0.9990 B( 13-C , 14-C ) :   1.3793 B( 13-C , 19-C ) :   1.3669
B( 14-C , 15-C ) :   1.3930 B( 14-C , 31-H ) :   0.9644 B( 15-C , 16-C ) :   1.3621
B( 15-C , 32-H ) :   0.9714 B( 16-C , 17-C ) :   1.3322 B( 16-C , 33-H ) :   0.9851
B( 17-C , 18-O ) :   1.1078 B( 17-C , 19-C ) :   1.3733 B( 18-O , 34-H ) :   0.9802
B( 19-C , 35-H ) :   0.9580

MP2 TOTAL ENERGY:    -1274.337719172 Eh
FINAL SINGLE POINT ENERGY     -1274.337719171750

DIPOLE MOMENT
-------------
                                X             Y             Z
Electronic contribution:      9.85293       9.14964       6.51430
Nuclear contribution   :    -11.23639     -10.40994      -7.32991
                        -----------------------------------------
Total Dipole Moment    :     -1.38346      -1.26030      -0.81561
                        -----------------------------------------
Magnitude (a.u.)       :      2.04146
Magnitude (Debye)      :      5.18897

Rotational constants in cm-1:     0.011872     0.009415     0.006648
Rotational constants in MHz :   355.903179   282.245271   199.298224

                             ****ORCA TERMINATED NORMALLY****
TOTAL RUN TIME: 0 days 1 hours 48 minutes 56 seconds 111 msec
