                         Program Version 5.0.0 -  RELEASE  -
|  1> ! ri-mp2 cc-pvtz cc-pvtz/c TightSCF NoKeepInts
|  2>
|  3> %scf
|  4>   MaxCore 4096
|  5> end
|  6> *xyz  0  1
|  7>     C       15.5511567   13.5810158   17.1508409
|  8>     C       16.3858362   14.1325836   15.9818248
|  9>     O       17.2590545   15.1501723   16.5068394
| 10>     C       16.9387648   16.4714873   16.3548884
| 11>     O       16.1224849   16.8559892   15.5346913
| 12>     C       17.5869173   17.3507433   17.3891026
| 13>     C       17.4135372   18.6971307   17.4108024
| 14>     C       16.5796988   19.5308166   16.4613086
| 15>     N       18.0709736   19.4739787   18.3692475
| 16>     C       18.9924864   19.0006406   19.2642554
| 17>     S       19.7982573   20.0036544   20.3039390
| 18>     N       19.2200273   17.6484919   19.2505525
| 19>     C       18.4647191   16.6669203   18.4514420
| 20>     C       17.6624388   15.7652120   19.3853659
| 21>     C       18.1321600   14.4758808   19.6987498
| 22>     C       17.4060633   13.6407024   20.5645838
| 23>     C       16.1997399   14.0980114   21.1216280
| 24>     C       15.7324150   15.3837819   20.8169418
| 25>     O       14.5697196   15.8293455   21.3558717
| 26>     C       16.4592477   16.2144889   19.9586896
| 27>     H       16.2004547   13.1461096   17.9197815
| 28>     H       14.8653773   12.8007342   16.7997367
| 29>     H       14.9557350   14.3791393   17.6120566
| 30>     H       16.9899869   13.3173969   15.5636663
| 31>     H       15.7332456   14.5109912   15.1834416
| 32>     H       15.5243400   19.2339513   16.5139870
| 33>     H       16.9096506   19.3825011   15.4252139
| 34>     H       16.6323219   20.6050520   16.6735963
| 35>     H       17.9182326   20.4695328   18.3922648
| 36>     H       19.8763339   17.3250415   19.9493210
| 37>     H       19.1978979   16.0441017   17.9197944
| 38>     H       19.0625125   14.1183231   19.2658672
| 39>     H       17.7774458   12.6448161   20.7999314
| 40>     H       15.6344963   13.4564329   21.7895674
| 41>     H       14.2382457   15.1367438   21.9469024
| 42>     H       16.0850249   17.2100849   19.7473059
| 43> *
| 44>
| 45>                          ****END OF INPUT****

CARTESIAN COORDINATES (ANGSTROEM)
---------------------------------
  C     15.551157   13.581016   17.150841
  C     16.385836   14.132584   15.981825
  O     17.259055   15.150172   16.506839
  C     16.938765   16.471487   16.354888
  O     16.122485   16.855989   15.534691
  C     17.586917   17.350743   17.389103
  C     17.413537   18.697131   17.410802
  C     16.579699   19.530817   16.461309
  N     18.070974   19.473979   18.369247
  C     18.992486   19.000641   19.264255
  S     19.798257   20.003654   20.303939
  N     19.220027   17.648492   19.250553
  C     18.464719   16.666920   18.451442
  C     17.662439   15.765212   19.385366
  C     18.132160   14.475881   19.698750
  C     17.406063   13.640702   20.564584
  C     16.199740   14.098011   21.121628
  C     15.732415   15.383782   20.816942
  O     14.569720   15.829345   21.355872
  C     16.459248   16.214489   19.958690
  H     16.200455   13.146110   17.919781
  H     14.865377   12.800734   16.799737
  H     14.955735   14.379139   17.612057
  H     16.989987   13.317397   15.563666
  H     15.733246   14.510991   15.183442
  H     15.524340   19.233951   16.513987
  H     16.909651   19.382501   15.425214
  H     16.632322   20.605052   16.673596
  H     17.918233   20.469533   18.392265
  H     19.876334   17.325042   19.949321
  H     19.197898   16.044102   17.919794
  H     19.062513   14.118323   19.265867
  H     17.777446   12.644816   20.799931
  H     15.634496   13.456433   21.789567
  H     14.238246   15.136744   21.946902
  H     16.085025   17.210085   19.747306

 Total Charge           Charge          ....    0
 Multiplicity           Mult            ....    1
 Number of Electrons    NEL             ....  154
 Basis Dimension        Dim             ....  828

ORBITAL ENERGIES
----------------

  NO   OCC          E(Eh)            E(eV)
   0   2.0000     -91.888817     -2500.4218
   1   2.0000     -20.599595      -560.5435
   2   2.0000     -20.598221      -560.5061
   3   2.0000     -20.541277      -558.9566
   4   2.0000     -15.629157      -425.2910
   5   2.0000     -15.608333      -424.7243
   6   2.0000     -11.394948      -310.0723
   7   2.0000     -11.383976      -309.7737
   8   2.0000     -11.336416      -308.4796
   9   2.0000     -11.315346      -307.9062
  10   2.0000     -11.309346      -307.7429
  11   2.0000     -11.293216      -307.3040
  12   2.0000     -11.261138      -306.4311
  13   2.0000     -11.259143      -306.3768
  14   2.0000     -11.256621      -306.3082
  15   2.0000     -11.252185      -306.1875
  16   2.0000     -11.244099      -305.9675
  17   2.0000     -11.239031      -305.8296
  18   2.0000     -11.238958      -305.8276
  19   2.0000     -11.221477      -305.3519
  20   2.0000      -8.893878      -242.0147
  21   2.0000      -6.575453      -178.9272
  22   2.0000      -6.573448      -178.8726
  23   2.0000      -6.572862      -178.8567
  24   2.0000      -1.449888       -39.4535
  25   2.0000      -1.417854       -38.5818
  26   2.0000      -1.353935       -36.8424
  27   2.0000      -1.340231       -36.4695
  28   2.0000      -1.238839       -33.7105
  29   2.0000      -1.158659       -31.5287
  30   2.0000      -1.120632       -30.4939
  31   2.0000      -1.043367       -28.3915
  32   2.0000      -1.035432       -28.1755
  33   2.0000      -1.016471       -27.6596
  34   2.0000      -0.995811       -27.0974
  35   2.0000      -0.984287       -26.7838
  36   2.0000      -0.923061       -25.1178
  37   2.0000      -0.890551       -24.2331
  38   2.0000      -0.847297       -23.0561
  39   2.0000      -0.838633       -22.8204
  40   2.0000      -0.834731       -22.7142
  41   2.0000      -0.814464       -22.1627
  42   2.0000      -0.760152       -20.6848
  43   2.0000      -0.733195       -19.9512
  44   2.0000      -0.722689       -19.6654
  45   2.0000      -0.697051       -18.9677
  46   2.0000      -0.688534       -18.7360
  47   2.0000      -0.678890       -18.4735
  48   2.0000      -0.669856       -18.2277
  49   2.0000      -0.664720       -18.0880
  50   2.0000      -0.648131       -17.6365
  51   2.0000      -0.642727       -17.4895
  52   2.0000      -0.633991       -17.2518
  53   2.0000      -0.608946       -16.5703
  54   2.0000      -0.601777       -16.3752
  55   2.0000      -0.599683       -16.3182
  56   2.0000      -0.597154       -16.2494
  57   2.0000      -0.578780       -15.7494
  58   2.0000      -0.570807       -15.5324
  59   2.0000      -0.566511       -15.4155
  60   2.0000      -0.561002       -15.2656
  61   2.0000      -0.546922       -14.8825
  62   2.0000      -0.535711       -14.5774
  63   2.0000      -0.527868       -14.3640
  64   2.0000      -0.526479       -14.3262
  65   2.0000      -0.512945       -13.9580
  66   2.0000      -0.502146       -13.6641
  67   2.0000      -0.497485       -13.5372
  68   2.0000      -0.481882       -13.1127
  69   2.0000      -0.463480       -12.6119
  70   2.0000      -0.451979       -12.2990
  71   2.0000      -0.447797       -12.1852
  72   2.0000      -0.354431        -9.6446
  73   2.0000      -0.350799        -9.5457
  74   2.0000      -0.328446        -8.9375
  75   2.0000      -0.322722        -8.7817
  76   2.0000      -0.316537        -8.6134
  77   0.0000       0.076715         2.0875
  78   0.0000       0.104486         2.8432
  79   0.0000       0.123943         3.3727
  80   0.0000       0.132100         3.5946
  81   0.0000       0.136412         3.7119

MULLIKEN ATOMIC CHARGES
-----------------------
   0 C :   -0.296376
   1 C :    0.020599
   2 O :   -0.356366
   3 C :    0.466113
   4 O :   -0.432368
   5 C :   -0.247452
   6 C :    0.158447
   7 C :   -0.270953
   8 N :   -0.122429
   9 C :    0.216723
  10 S :   -0.441798
  11 N :   -0.210342
  12 C :    0.070947
  13 C :    0.083806
  14 C :   -0.199873
  15 C :   -0.139637
  16 C :   -0.272259
  17 C :    0.316726
  18 O :   -0.358031
  19 C :   -0.269543
  20 H :    0.099445
  21 H :    0.106356
  22 H :    0.104641
  23 H :    0.101954
  24 H :    0.121501
  25 H :    0.131340
  26 H :    0.131479
  27 H :    0.095111
  28 H :    0.197030
  29 H :    0.195639
  30 H :    0.148306
  31 H :    0.147716
  32 H :    0.163991
  33 H :    0.131323
  34 H :    0.241269
  35 H :    0.166965
Sum of atomic charges:    0.0000000

LOEWDIN ATOMIC CHARGES
----------------------
   0 C :    0.103976
   1 C :   -0.013900
   2 O :    0.306284
   3 C :   -0.414956
   4 O :    0.096453
   5 C :   -0.095121
   6 C :   -0.058832
   7 C :    0.131425
   8 N :    0.407011
   9 C :   -0.454898
  10 S :   -0.036146
  11 N :    0.396219
  12 C :   -0.052083
  13 C :   -0.035637
  14 C :    0.012067
  15 C :    0.041541
  16 C :   -0.001712
  17 C :   -0.188629
  18 O :    0.395923
  19 C :    0.031321
  20 H :   -0.028132
  21 H :   -0.027608
  22 H :   -0.026221
  23 H :   -0.028335
  24 H :   -0.028935
  25 H :   -0.004788
  26 H :   -0.003773
  27 H :   -0.023408
  28 H :   -0.057514
  29 H :   -0.065100
  30 H :   -0.010614
  31 H :   -0.030795
  32 H :   -0.021109
  33 H :   -0.035463
  34 H :   -0.153454
  35 H :   -0.025057

  Mayer bond orders larger than 0.100000
B(  0-C ,  1-C ) :   0.9664 B(  0-C , 20-H ) :   0.9727 B(  0-C , 21-H ) :   0.9780
B(  0-C , 22-H ) :   0.9752 B(  1-C ,  2-O ) :   0.8875 B(  1-C , 23-H ) :   0.9855
B(  1-C , 24-H ) :   0.9753 B(  2-O ,  3-C ) :   1.1697 B(  3-C ,  4-O ) :   1.9778
B(  3-C ,  5-C ) :   1.0515 B(  5-C ,  6-C ) :   1.6521 B(  5-C , 12-C ) :   0.9747
B(  6-C ,  7-C ) :   0.9668 B(  6-C ,  8-N ) :   1.1659 B(  7-C , 25-H ) :   0.9601
B(  7-C , 26-H ) :   0.9602 B(  7-C , 27-H ) :   0.9904 B(  8-N ,  9-C ) :   1.1840
B(  8-N , 28-H ) :   0.9478 B(  9-C , 10-S ) :   1.6018 B(  9-C , 11-N ) :   1.3090
B( 11-N , 12-C ) :   0.9728 B( 11-N , 29-H ) :   0.9515 B( 12-C , 13-C ) :   0.9403
B( 12-C , 30-H ) :   1.0017 B( 13-C , 14-C ) :   1.3489 B( 13-C , 19-C ) :   1.3738
B( 14-C , 15-C ) :   1.3891 B( 14-C , 31-H ) :   0.9742 B( 15-C , 16-C ) :   1.3593
B( 15-C , 32-H ) :   0.9709 B( 16-C , 17-C ) :   1.3312 B( 16-C , 33-H ) :   0.9848
B( 17-C , 18-O ) :   1.1097 B( 17-C , 19-C ) :   1.3698 B( 18-O , 34-H ) :   0.9794
B( 19-C , 35-H ) :   0.9587

MP2 TOTAL ENERGY:    -1274.350434201 Eh
FINAL SINGLE POINT ENERGY     -1274.350434200705

DIPOLE MOMENT
-------------
                                X             Y             Z
Electronic contribution:      8.56003      11.10360       6.06278
Nuclear contribution   :     -9.41309     -12.83777      -6.38146
                        -----------------------------------------
Total Dipole Moment    :     -0.85306      -1.73416      -0.31868
                        -----------------------------------------
Magnitude (a.u.)       :      1.95872
Magnitude (Debye)      :      4.97868

Rotational constants in cm-1:     0.012593     0.008644     0.006357
Rotational constants in MHz :   377.529850   259.127457   190.571994

                             ****ORCA TERMINATED NORMALLY****
TOTAL RUN TIME: 0 days 2 hours 58 minutes 51 seconds 179 msec
