                         Program Version 5.0.0 -  RELEASE  -
|  1> ! ri-mp2 cc-pvtz cc-pvtz/c TightSCF NoKeepInts
|  2>
|  3> %scf
|  4>   MaxCore 4096
|  5> end
|  6> *xyz  0  1
|  7>     C       14.4884909   15.3725110   16.9902028
|  8>     C       15.8111643   14.7320471   16.5366934
|  9>     O       16.6108724   15.7667469   15.9372194
| 10>     C       17.8858647   15.9128614   16.3949041
| 11>     O       18.6280983   14.9482495   16.4727096
| 12>     C       17.9692861   17.0329253   17.3840785
| 13>     C       17.3512980   18.2264856   17.2094745
| 14>     C       16.5371027   18.6657844   16.0109024
| 15>     N       17.4935385   19.2303408   18.1716739
| 16>     C       18.3214233   19.1557017   19.2615085
| 17>     S       18.5057609   20.4272794   20.3028179
| 18>     N       18.9890689   17.9702650   19.4464330
| 19>     C       18.7805950   16.7461139   18.6492872
| 20>     C       18.0897800   15.6716676   19.4841321
| 21>     C       18.6717375   14.3997722   19.6351023
| 22>     C       18.0218201   13.3986054   20.3761775
| 23>     C       16.7769250   13.6694870   20.9692465
| 24>     C       16.1919094   14.9337624   20.8173515
| 25>     O       14.9834123   15.1948668   21.3760089
| 26>     C       16.8420750   15.9286721   20.0811292
| 27>     H       14.6736817   16.1532750   17.7384735
| 28>     H       13.8326928   14.6179540   17.4413408
| 29>     H       13.9622969   15.8213286   16.1387374
| 30>     H       16.3149558   14.2885992   17.4078601
| 31>     H       15.6199238   13.9349347   15.8066736
| 32>     H       15.5147374   18.2728346   16.0728665
| 33>     H       16.9795831   18.2972891   15.0769609
| 34>     H       16.4744102   19.7575583   15.9264062
| 35>     H       17.0124382   20.1078230   18.0535731
| 36>     H       19.5692424   17.9333629   20.2747423
| 37>     H       19.7670149   16.3704153   18.3409053
| 38>     H       19.6234349   14.1806606   19.1569264
| 39>     H       18.4801697   12.4166873   20.4806345
| 40>     H       16.2699432   12.8974682   21.5385861
| 41>     H       14.7300089   14.4171061   21.8958284
| 42>     H       16.3722428   16.9005576   19.9764317
| 43> *
| 44>
| 45>                          ****END OF INPUT****

CARTESIAN COORDINATES (ANGSTROEM)
---------------------------------
  C     14.488491   15.372511   16.990203
  C     15.811164   14.732047   16.536693
  O     16.610872   15.766747   15.937219
  C     17.885865   15.912861   16.394904
  O     18.628098   14.948249   16.472710
  C     17.969286   17.032925   17.384079
  C     17.351298   18.226486   17.209474
  C     16.537103   18.665784   16.010902
  N     17.493538   19.230341   18.171674
  C     18.321423   19.155702   19.261509
  S     18.505761   20.427279   20.302818
  N     18.989069   17.970265   19.446433
  C     18.780595   16.746114   18.649287
  C     18.089780   15.671668   19.484132
  C     18.671737   14.399772   19.635102
  C     18.021820   13.398605   20.376177
  C     16.776925   13.669487   20.969247
  C     16.191909   14.933762   20.817352
  O     14.983412   15.194867   21.376009
  C     16.842075   15.928672   20.081129
  H     14.673682   16.153275   17.738474
  H     13.832693   14.617954   17.441341
  H     13.962297   15.821329   16.138737
  H     16.314956   14.288599   17.407860
  H     15.619924   13.934935   15.806674
  H     15.514737   18.272835   16.072866
  H     16.979583   18.297289   15.076961
  H     16.474410   19.757558   15.926406
  H     17.012438   20.107823   18.053573
  H     19.569242   17.933363   20.274742
  H     19.767015   16.370415   18.340905
  H     19.623435   14.180661   19.156926
  H     18.480170   12.416687   20.480634
  H     16.269943   12.897468   21.538586
  H     14.730009   14.417106   21.895828
  H     16.372243   16.900558   19.976432

 Total Charge           Charge          ....    0
 Multiplicity           Mult            ....    1
 Number of Electrons    NEL             ....  154
 Basis Dimension        Dim             ....  828

ORBITAL ENERGIES
----------------

  NO   OCC          E(Eh)            E(eV)
   0   2.0000     -91.888995     -2500.4267
   1   2.0000     -20.598337      -560.5092
   2   2.0000     -20.583079      -560.0940
   3   2.0000     -20.555978      -559.3566
   4   2.0000     -15.628072      -425.2615
   5   2.0000     -15.609062      -424.7442
   6   2.0000     -11.393902      -310.0438
   7   2.0000     -11.384732      -309.7943
   8   2.0000     -11.331434      -308.3440
   9   2.0000     -11.314488      -307.8829
  10   2.0000     -11.310114      -307.7638
  11   2.0000     -11.297317      -307.4156
  12   2.0000     -11.260134      -306.4038
  13   2.0000     -11.259689      -306.3917
  14   2.0000     -11.259439      -306.3849
  15   2.0000     -11.254649      -306.2546
  16   2.0000     -11.244354      -305.9744
  17   2.0000     -11.239943      -305.8544
  18   2.0000     -11.237376      -305.7845
  19   2.0000     -11.229518      -305.5707
  20   2.0000      -8.894078      -242.0202
  21   2.0000      -6.575657      -178.9327
  22   2.0000      -6.573646      -178.8780
  23   2.0000      -6.573063      -178.8621
  24   2.0000      -1.452956       -39.5370
  25   2.0000      -1.418073       -38.5877
  26   2.0000      -1.356118       -36.9018
  27   2.0000      -1.339491       -36.4494
  28   2.0000      -1.238185       -33.6927
  29   2.0000      -1.158578       -31.5265
  30   2.0000      -1.122164       -30.5356
  31   2.0000      -1.046110       -28.4661
  32   2.0000      -1.034129       -28.1401
  33   2.0000      -1.015988       -27.6464
  34   2.0000      -1.000035       -27.2123
  35   2.0000      -0.985934       -26.8286
  36   2.0000      -0.924482       -25.1564
  37   2.0000      -0.883980       -24.0543
  38   2.0000      -0.848046       -23.0765
  39   2.0000      -0.839643       -22.8478
  40   2.0000      -0.834614       -22.7110
  41   2.0000      -0.823681       -22.4135
  42   2.0000      -0.757031       -20.5999
  43   2.0000      -0.736179       -20.0324
  44   2.0000      -0.729470       -19.8499
  45   2.0000      -0.696363       -18.9490
  46   2.0000      -0.686256       -18.6740
  47   2.0000      -0.680614       -18.5205
  48   2.0000      -0.676167       -18.3995
  49   2.0000      -0.658612       -17.9217
  50   2.0000      -0.654251       -17.8031
  51   2.0000      -0.644951       -17.5500
  52   2.0000      -0.637138       -17.3374
  53   2.0000      -0.607302       -16.5255
  54   2.0000      -0.604429       -16.4474
  55   2.0000      -0.602130       -16.3848
  56   2.0000      -0.597240       -16.2517
  57   2.0000      -0.578213       -15.7340
  58   2.0000      -0.575620       -15.6634
  59   2.0000      -0.570767       -15.5314
  60   2.0000      -0.561194       -15.2709
  61   2.0000      -0.550732       -14.9862
  62   2.0000      -0.544510       -14.8169
  63   2.0000      -0.523561       -14.2468
  64   2.0000      -0.514381       -13.9970
  65   2.0000      -0.508899       -13.8479
  66   2.0000      -0.505304       -13.7500
  67   2.0000      -0.499491       -13.5919
  68   2.0000      -0.483470       -13.1559
  69   2.0000      -0.465635       -12.6706
  70   2.0000      -0.456200       -12.4138
  71   2.0000      -0.453263       -12.3339
  72   2.0000      -0.354064        -9.6346
  73   2.0000      -0.350034        -9.5249
  74   2.0000      -0.328465        -8.9380
  75   2.0000      -0.321903        -8.7594
  76   2.0000      -0.315762        -8.5923
  77   0.0000       0.071043         1.9332
  78   0.0000       0.102245         2.7822
  79   0.0000       0.119054         3.2396
  80   0.0000       0.129332         3.5193
  81   0.0000       0.136025         3.7014

MULLIKEN ATOMIC CHARGES
-----------------------
   0 C :   -0.298116
   1 C :    0.040119
   2 O :   -0.376733
   3 C :    0.448076
   4 O :   -0.395210
   5 C :   -0.191125
   6 C :    0.131513
   7 C :   -0.282077
   8 N :   -0.125222
   9 C :    0.203528
  10 S :   -0.440176
  11 N :   -0.201923
  12 C :    0.058346
  13 C :    0.026482
  14 C :   -0.150700
  15 C :   -0.134331
  16 C :   -0.279278
  17 C :    0.317025
  18 O :   -0.361580
  19 C :   -0.287546
  20 H :    0.100111
  21 H :    0.109401
  22 H :    0.101682
  23 H :    0.104236
  24 H :    0.112474
  25 H :    0.126275
  26 H :    0.122786
  27 H :    0.106828
  28 H :    0.197219
  29 H :    0.194316
  30 H :    0.155572
  31 H :    0.156623
  32 H :    0.161751
  33 H :    0.132057
  34 H :    0.241638
  35 H :    0.175959
Sum of atomic charges:   -0.0000000

LOEWDIN ATOMIC CHARGES
----------------------
   0 C :    0.104284
   1 C :   -0.011987
   2 O :    0.290138
   3 C :   -0.419310
   4 O :    0.130200
   5 C :   -0.093861
   6 C :   -0.078543
   7 C :    0.126919
   8 N :    0.403824
   9 C :   -0.456795
  10 S :   -0.036700
  11 N :    0.396881
  12 C :   -0.045032
  13 C :   -0.042304
  14 C :    0.021442
  15 C :    0.042176
  16 C :   -0.001981
  17 C :   -0.194520
  18 O :    0.394058
  19 C :    0.029116
  20 H :   -0.029567
  21 H :   -0.022947
  22 H :   -0.029922
  23 H :   -0.024653
  24 H :   -0.028236
  25 H :   -0.010509
  26 H :   -0.008021
  27 H :   -0.019041
  28 H :   -0.058735
  29 H :   -0.064230
  30 H :   -0.004554
  31 H :   -0.024286
  32 H :   -0.019794
  33 H :   -0.035135
  34 H :   -0.153456
  35 H :   -0.024915

  Mayer bond orders larger than 0.100000
B(  0-C ,  1-C ) :   0.9693 B(  0-C , 20-H ) :   0.9743 B(  0-C , 21-H ) :   0.9784
B(  0-C , 22-H ) :   0.9770 B(  1-C ,  2-O ) :   0.8862 B(  1-C , 23-H ) :   0.9669
B(  1-C , 24-H ) :   0.9863 B(  2-O ,  3-C ) :   1.0919 B(  3-C ,  4-O ) :   2.0349
B(  3-C ,  5-C ) :   1.0163 B(  5-C ,  6-C ) :   1.6739 B(  5-C , 12-C ) :   0.9649
B(  6-C ,  7-C ) :   0.9531 B(  6-C ,  8-N ) :   1.1360 B(  7-C , 25-H ) :   0.9622
B(  7-C , 26-H ) :   0.9718 B(  7-C , 27-H ) :   0.9874 B(  8-N ,  9-C ) :   1.1866
B(  8-N , 28-H ) :   0.9500 B(  9-C , 10-S ) :   1.6107 B(  9-C , 11-N ) :   1.2979
B( 11-N , 12-C ) :   0.9940 B( 11-N , 29-H ) :   0.9517 B( 12-C , 13-C ) :   0.9437
B( 12-C , 30-H ) :   0.9978 B( 13-C , 14-C ) :   1.3799 B( 13-C , 19-C ) :   1.3651
B( 14-C , 15-C ) :   1.3936 B( 14-C , 31-H ) :   0.9641 B( 15-C , 16-C ) :   1.3641
B( 15-C , 32-H ) :   0.9710 B( 16-C , 17-C ) :   1.3304 B( 16-C , 33-H ) :   0.9844
B( 17-C , 18-O ) :   1.1051 B( 17-C , 19-C ) :   1.3715 B( 18-O , 34-H ) :   0.9799
B( 19-C , 35-H ) :   0.9555

MP2 TOTAL ENERGY:    -1274.323433204 Eh
FINAL SINGLE POINT ENERGY     -1274.323433203603

DIPOLE MOMENT
-------------
                                X             Y             Z
Electronic contribution:     10.81616       7.71123       6.14859
Nuclear contribution   :    -12.01324      -9.03695      -6.71802
                        -----------------------------------------
Total Dipole Moment    :     -1.19708      -1.32572      -0.56942
                        -----------------------------------------
Magnitude (a.u.)       :      1.87477
Magnitude (Debye)      :      4.76529

Rotational constants in cm-1:     0.012185     0.009226     0.007028
Rotational constants in MHz :   365.283567   276.595413   210.695113

                             ****ORCA TERMINATED NORMALLY****
TOTAL RUN TIME: 0 days 2 hours 21 minutes 41 seconds 346 msec
