                         Program Version 5.0.0 -  RELEASE  -
|  1> ! ri-mp2 cc-pvtz cc-pvtz/c TightSCF NoKeepInts
|  2>
|  3> %scf
|  4>   MaxCore 4096
|  5> end
|  6> *xyz  0  1
|  7>     C       15.1952994   15.4235672   17.3496373
|  8>     C       15.5986672   15.2292522   15.8723952
|  9>     O       17.0003529   15.4426386   15.5577632
| 10>     C       18.0280533   15.6645944   16.4389640
| 11>     O       18.9111597   14.8340083   16.5518467
| 12>     C       17.9142028   16.8235444   17.3877774
| 13>     C       17.3253543   18.0039053   17.0671073
| 14>     C       16.6887857   18.3955814   15.7493893
| 15>     N       17.3570385   19.0664439   17.9748133
| 16>     C       18.1143670   19.0954255   19.1159019
| 17>     S       18.2008395   20.4439078   20.0689878
| 18>     N       18.7979554   17.9467627   19.4256934
| 19>     C       18.6379759   16.6549044   18.7298856
| 20>     C       17.9310717   15.6386957   19.6236200
| 21>     C       18.3935256   14.3112018   19.6864450
| 22>     C       17.7435436   13.3619564   20.4925045
| 23>     C       16.6192415   13.7414137   21.2448083
| 24>     C       16.1533578   15.0615014   21.1851843
| 25>     O       15.0612475   15.4287451   21.9014599
| 26>     C       16.8022105   16.0044885   20.3818160
| 27>     H       15.8185834   14.8059732   18.0068797
| 28>     H       14.1576124   15.0990081   17.4940039
| 29>     H       15.2480807   16.4688606   17.6684731
| 30>     H       15.3517762   14.1956618   15.5961183
| 31>     H       14.9815353   15.8785500   15.2386833
| 32>     H       15.6226134   18.1434181   15.7342021
| 33>     H       17.1734900   17.8943142   14.9025132
| 34>     H       16.7778615   19.4725724   15.5592165
| 35>     H       16.8720567   19.9229238   17.7584848
| 36>     H       19.3348694   17.9874692   20.2827278
| 37>     H       19.6467222   16.2705324   18.5182496
| 38>     H       19.2549911   14.0100355   19.0940220
| 39>     H       18.1101113   12.3373966   20.5267855
| 40>     H       16.1129572   13.0104683   21.8665560
| 41>     H       14.7900864   14.6633328   22.4304135
| 42>     H       16.4194030   17.0189445   20.3506702
| 43> *
| 44>
| 45>                          ****END OF INPUT****

CARTESIAN COORDINATES (ANGSTROEM)
---------------------------------
  C     15.195299   15.423567   17.349637
  C     15.598667   15.229252   15.872395
  O     17.000353   15.442639   15.557763
  C     18.028053   15.664594   16.438964
  O     18.911160   14.834008   16.551847
  C     17.914203   16.823544   17.387777
  C     17.325354   18.003905   17.067107
  C     16.688786   18.395581   15.749389
  N     17.357039   19.066444   17.974813
  C     18.114367   19.095426   19.115902
  S     18.200840   20.443908   20.068988
  N     18.797955   17.946763   19.425693
  C     18.637976   16.654904   18.729886
  C     17.931072   15.638696   19.623620
  C     18.393526   14.311202   19.686445
  C     17.743544   13.361956   20.492504
  C     16.619242   13.741414   21.244808
  C     16.153358   15.061501   21.185184
  O     15.061248   15.428745   21.901460
  C     16.802211   16.004489   20.381816
  H     15.818583   14.805973   18.006880
  H     14.157612   15.099008   17.494004
  H     15.248081   16.468861   17.668473
  H     15.351776   14.195662   15.596118
  H     14.981535   15.878550   15.238683
  H     15.622613   18.143418   15.734202
  H     17.173490   17.894314   14.902513
  H     16.777862   19.472572   15.559216
  H     16.872057   19.922924   17.758485
  H     19.334869   17.987469   20.282728
  H     19.646722   16.270532   18.518250
  H     19.254991   14.010035   19.094022
  H     18.110111   12.337397   20.526785
  H     16.112957   13.010468   21.866556
  H     14.790086   14.663333   22.430414
  H     16.419403   17.018944   20.350670

 Total Charge           Charge          ....    0
 Multiplicity           Mult            ....    1
 Number of Electrons    NEL             ....  154
 Basis Dimension        Dim             ....  828

ORBITAL ENERGIES
----------------

  NO   OCC          E(Eh)            E(eV)
   0   2.0000     -91.891175     -2500.4860
   1   2.0000     -20.596833      -560.4683
   2   2.0000     -20.588414      -560.2392
   3   2.0000     -20.549503      -559.1804
   4   2.0000     -15.630997      -425.3411
   5   2.0000     -15.610060      -424.7713
   6   2.0000     -11.397469      -310.1409
   7   2.0000     -11.386540      -309.8435
   8   2.0000     -11.336874      -308.4920
   9   2.0000     -11.313163      -307.8468
  10   2.0000     -11.311419      -307.7994
  11   2.0000     -11.310083      -307.7630
  12   2.0000     -11.265822      -306.5586
  13   2.0000     -11.264039      -306.5101
  14   2.0000     -11.259314      -306.3815
  15   2.0000     -11.253507      -306.2235
  16   2.0000     -11.243080      -305.9398
  17   2.0000     -11.238410      -305.8127
  18   2.0000     -11.235121      -305.7232
  19   2.0000     -11.234992      -305.7197
  20   2.0000      -8.896242      -242.0791
  21   2.0000      -6.577820      -178.9916
  22   2.0000      -6.575808      -178.9368
  23   2.0000      -6.575221      -178.9209
  24   2.0000      -1.442534       -39.2534
  25   2.0000      -1.416653       -38.5491
  26   2.0000      -1.353997       -36.8441
  27   2.0000      -1.342633       -36.5349
  28   2.0000      -1.240409       -33.7532
  29   2.0000      -1.157587       -31.4996
  30   2.0000      -1.123232       -30.5647
  31   2.0000      -1.045730       -28.4558
  32   2.0000      -1.038947       -28.2712
  33   2.0000      -1.015597       -27.6358
  34   2.0000      -1.004199       -27.3257
  35   2.0000      -0.989376       -26.9223
  36   2.0000      -0.926898       -25.2222
  37   2.0000      -0.899952       -24.4889
  38   2.0000      -0.853199       -23.2167
  39   2.0000      -0.840718       -22.8771
  40   2.0000      -0.833481       -22.6802
  41   2.0000      -0.823934       -22.4204
  42   2.0000      -0.745277       -20.2800
  43   2.0000      -0.731714       -19.9110
  44   2.0000      -0.729304       -19.8454
  45   2.0000      -0.694408       -18.8958
  46   2.0000      -0.687364       -18.7041
  47   2.0000      -0.678358       -18.4591
  48   2.0000      -0.674223       -18.3465
  49   2.0000      -0.662873       -18.0377
  50   2.0000      -0.653864       -17.7925
  51   2.0000      -0.651676       -17.7330
  52   2.0000      -0.642570       -17.4852
  53   2.0000      -0.620714       -16.8905
  54   2.0000      -0.606055       -16.4916
  55   2.0000      -0.604473       -16.4485
  56   2.0000      -0.601232       -16.3603
  57   2.0000      -0.585844       -15.9416
  58   2.0000      -0.575801       -15.6683
  59   2.0000      -0.564618       -15.3640
  60   2.0000      -0.562416       -15.3041
  61   2.0000      -0.552257       -15.0277
  62   2.0000      -0.545076       -14.8323
  63   2.0000      -0.533260       -14.5107
  64   2.0000      -0.522034       -14.2053
  65   2.0000      -0.513383       -13.9699
  66   2.0000      -0.500472       -13.6185
  67   2.0000      -0.487551       -13.2669
  68   2.0000      -0.485682       -13.2161
  69   2.0000      -0.471444       -12.8286
  70   2.0000      -0.456966       -12.4347
  71   2.0000      -0.447425       -12.1751
  72   2.0000      -0.356859        -9.7106
  73   2.0000      -0.348032        -9.4704
  74   2.0000      -0.330431        -8.9915
  75   2.0000      -0.321816        -8.7571
  76   2.0000      -0.318695        -8.6721
  77   0.0000       0.073287         1.9942
  78   0.0000       0.107807         2.9336
  79   0.0000       0.116640         3.1739
  80   0.0000       0.131581         3.5805
  81   0.0000       0.133258         3.6261

MULLIKEN ATOMIC CHARGES
-----------------------
   0 C :   -0.348565
   1 C :    0.039632
   2 O :   -0.363098
   3 C :    0.456443
   4 O :   -0.385483
   5 C :   -0.213439
   6 C :    0.140685
   7 C :   -0.321436
   8 N :   -0.130117
   9 C :    0.191545
  10 S :   -0.436150
  11 N :   -0.207660
  12 C :    0.060485
  13 C :    0.024965
  14 C :   -0.189836
  15 C :   -0.135499
  16 C :   -0.278633
  17 C :    0.314343
  18 O :   -0.358760
  19 C :   -0.266500
  20 H :    0.130972
  21 H :    0.125768
  22 H :    0.107970
  23 H :    0.124180
  24 H :    0.096885
  25 H :    0.116617
  26 H :    0.145144
  27 H :    0.122384
  28 H :    0.197968
  29 H :    0.196823
  30 H :    0.162745
  31 H :    0.170714
  32 H :    0.162907
  33 H :    0.131542
  34 H :    0.240956
  35 H :    0.173502
Sum of atomic charges:   -0.0000000

LOEWDIN ATOMIC CHARGES
----------------------
   0 C :    0.104693
   1 C :   -0.015013
   2 O :    0.282533
   3 C :   -0.418882
   4 O :    0.124310
   5 C :   -0.089071
   6 C :   -0.078960
   7 C :    0.128251
   8 N :    0.404605
   9 C :   -0.459965
  10 S :   -0.034337
  11 N :    0.397925
  12 C :   -0.044645
  13 C :   -0.043366
  14 C :    0.019716
  15 C :    0.041934
  16 C :   -0.002104
  17 C :   -0.194354
  18 O :    0.394625
  19 C :    0.029415
  20 H :   -0.020275
  21 H :   -0.020165
  22 H :   -0.035251
  23 H :   -0.021621
  24 H :   -0.032205
  25 H :   -0.017032
  26 H :   -0.005795
  27 H :   -0.014674
  28 H :   -0.058042
  29 H :   -0.063296
  30 H :   -0.002580
  31 H :   -0.022528
  32 H :   -0.019313
  33 H :   -0.035265
  34 H :   -0.153849
  35 H :   -0.025419

  Mayer bond orders larger than 0.100000
B(  0-C ,  1-C ) :   0.9636 B(  0-C , 20-H ) :   0.9654 B(  0-C , 21-H ) :   0.9758
B(  0-C , 22-H ) :   0.9703 B(  1-C ,  2-O ) :   0.8944 B(  1-C , 23-H ) :   0.9816
B(  1-C , 24-H ) :   0.9788 B(  2-O ,  3-C ) :   1.1339 B(  3-C ,  4-O ) :   2.0656
B(  3-C ,  5-C ) :   0.9671 B(  5-C ,  6-C ) :   1.6751 B(  5-C , 12-C ) :   0.9592
B(  6-C ,  7-C ) :   0.9476 B(  6-C ,  8-N ) :   1.1214 B(  7-C , 25-H ) :   0.9642
B(  7-C , 26-H ) :   0.9681 B(  7-C , 27-H ) :   0.9856 B(  8-N ,  9-C ) :   1.1830
B(  8-N , 28-H ) :   0.9498 B(  9-C , 10-S ) :   1.6149 B(  9-C , 11-N ) :   1.2956
B( 11-N , 12-C ) :   0.9870 B( 11-N , 29-H ) :   0.9511 B( 12-C , 13-C ) :   0.9462
B( 12-C , 30-H ) :   0.9977 B( 13-C , 14-C ) :   1.3903 B( 13-C , 19-C ) :   1.3483
B( 14-C , 15-C ) :   1.3963 B( 14-C , 31-H ) :   0.9585 B( 15-C , 16-C ) :   1.3616
B( 15-C , 32-H ) :   0.9706 B( 16-C , 17-C ) :   1.3294 B( 16-C , 33-H ) :   0.9849
B( 17-C , 18-O ) :   1.1110 B( 17-C , 19-C ) :   1.3743 B( 18-O , 34-H ) :   0.9799
B( 19-C , 35-H ) :   0.9580

MP2 TOTAL ENERGY:    -1274.327756268 Eh
FINAL SINGLE POINT ENERGY     -1274.327756268049

DIPOLE MOMENT
-------------
                                X             Y             Z
Electronic contribution:      9.51846       6.71759       6.37702
Nuclear contribution   :    -11.08504      -7.77670      -6.94148
                        -----------------------------------------
Total Dipole Moment    :     -1.56658      -1.05911      -0.56446
                        -----------------------------------------
Magnitude (a.u.)       :      1.97345
Magnitude (Debye)      :      5.01611

Rotational constants in cm-1:     0.011339     0.009872     0.006821
Rotational constants in MHz :   339.937271   295.958058   204.487375

                             ****ORCA TERMINATED NORMALLY****
TOTAL RUN TIME: 0 days 2 hours 25 minutes 14 seconds 272 msec
