                         Program Version 5.0.0 -  RELEASE  -
|  1> ! ri-mp2 cc-pvtz cc-pvtz/c TightSCF NoKeepInts
|  2>
|  3> %scf
|  4>   MaxCore 4096
|  5> end
|  6> *xyz  0  1
|  7>     C       14.7749789   14.0937769   16.1601763
|  8>     C       15.5305656   15.2477526   16.8386511
|  9>     O       16.6232870   15.6114784   15.9766241
| 10>     C       17.8592895   15.6922984   16.5434339
| 11>     O       18.5068315   14.6790495   16.7378626
| 12>     C       18.0169852   16.9034896   17.4118580
| 13>     C       17.5282244   18.1252383   17.0851005
| 14>     C       16.7949375   18.5085090   15.8167578
| 15>     N       17.7574773   19.2141831   17.9311281
| 16>     C       18.5751418   19.1891923   19.0308908
| 17>     S       18.8835309   20.5510545   19.9167188
| 18>     N       19.1228263   17.9743391   19.3613052
| 19>     C       18.7811205   16.6895776   18.7205521
| 20>     C       17.9719285   15.8102211   19.6700514
| 21>     C       18.3596035   14.4798861   19.9132301
| 22>     C       17.6040283   13.6576157   20.7656044
| 23>     C       16.4483521   14.1684193   21.3803733
| 24>     C       16.0558320   15.4914093   21.1375592
| 25>     O       14.9332506   15.9843584   21.7183490
| 26>     C       16.8092178   16.3072095   20.2877031
| 27>     H       15.4407136   13.2334214   16.0143471
| 28>     H       14.3908766   14.4040294   15.1805700
| 29>     H       13.9278509   13.7714083   16.7775628
| 30>     H       14.8624025   16.1043990   16.9938006
| 31>     H       15.8944325   14.9069612   17.8185687
| 32>     H       17.2132680   17.9880507   14.9458503
| 33>     H       16.8626829   19.5829325   15.6059485
| 34>     H       15.7323776   18.2459132   15.8847381
| 35>     H       17.3683434   20.1154370   17.7031500
| 36>     H       19.7009275   17.9793813   20.1920590
| 37>     H       19.7215345   16.1711957   18.4826191
| 38>     H       19.2413216   14.0753208   19.4213617
| 39>     H       17.9122525   12.6281013   20.9398875
| 40>     H       15.8605621   13.5353110   22.0368508
| 41>     H       14.5928395   15.3025372   22.3173324
| 42>     H       16.4872050   17.3285411   20.1154236
| 43> *
| 44>
| 45>                          ****END OF INPUT****

CARTESIAN COORDINATES (ANGSTROEM)
---------------------------------
  C     14.774979   14.093777   16.160176
  C     15.530566   15.247753   16.838651
  O     16.623287   15.611478   15.976624
  C     17.859289   15.692298   16.543434
  O     18.506832   14.679049   16.737863
  C     18.016985   16.903490   17.411858
  C     17.528224   18.125238   17.085100
  C     16.794937   18.508509   15.816758
  N     17.757477   19.214183   17.931128
  C     18.575142   19.189192   19.030891
  S     18.883531   20.551054   19.916719
  N     19.122826   17.974339   19.361305
  C     18.781121   16.689578   18.720552
  C     17.971929   15.810221   19.670051
  C     18.359603   14.479886   19.913230
  C     17.604028   13.657616   20.765604
  C     16.448352   14.168419   21.380373
  C     16.055832   15.491409   21.137559
  O     14.933251   15.984358   21.718349
  C     16.809218   16.307209   20.287703
  H     15.440714   13.233421   16.014347
  H     14.390877   14.404029   15.180570
  H     13.927851   13.771408   16.777563
  H     14.862402   16.104399   16.993801
  H     15.894433   14.906961   17.818569
  H     17.213268   17.988051   14.945850
  H     16.862683   19.582932   15.605948
  H     15.732378   18.245913   15.884738
  H     17.368343   20.115437   17.703150
  H     19.700927   17.979381   20.192059
  H     19.721535   16.171196   18.482619
  H     19.241322   14.075321   19.421362
  H     17.912252   12.628101   20.939888
  H     15.860562   13.535311   22.036851
  H     14.592839   15.302537   22.317332
  H     16.487205   17.328541   20.115424

 Total Charge           Charge          ....    0
 Multiplicity           Mult            ....    1
 Number of Electrons    NEL             ....  154
 Basis Dimension        Dim             ....  828

ORBITAL ENERGIES
----------------

  NO   OCC          E(Eh)            E(eV)
   0   2.0000     -91.890509     -2500.4679
   1   2.0000     -20.597769      -560.4938
   2   2.0000     -20.580928      -560.0355
   3   2.0000     -20.557368      -559.3944
   4   2.0000     -15.630308      -425.3223
   5   2.0000     -15.609910      -424.7673
   6   2.0000     -11.394265      -310.0537
   7   2.0000     -11.386094      -309.8314
   8   2.0000     -11.335448      -308.4532
   9   2.0000     -11.314200      -307.8750
  10   2.0000     -11.310188      -307.7659
  11   2.0000     -11.300847      -307.5117
  12   2.0000     -11.263139      -306.4856
  13   2.0000     -11.260646      -306.4178
  14   2.0000     -11.259684      -306.3916
  15   2.0000     -11.254278      -306.2445
  16   2.0000     -11.244012      -305.9651
  17   2.0000     -11.239728      -305.8486
  18   2.0000     -11.236839      -305.7699
  19   2.0000     -11.226521      -305.4892
  20   2.0000      -8.895579      -242.0610
  21   2.0000      -6.577154      -178.9735
  22   2.0000      -6.575146      -178.9188
  23   2.0000      -6.574559      -178.9028
  24   2.0000      -1.451968       -39.5101
  25   2.0000      -1.417590       -38.5746
  26   2.0000      -1.357793       -36.9474
  27   2.0000      -1.341377       -36.5007
  28   2.0000      -1.239542       -33.7297
  29   2.0000      -1.158471       -31.5236
  30   2.0000      -1.123017       -30.5588
  31   2.0000      -1.046311       -28.4716
  32   2.0000      -1.033379       -28.1197
  33   2.0000      -1.015910       -27.6443
  34   2.0000      -1.001551       -27.2536
  35   2.0000      -0.986891       -26.8547
  36   2.0000      -0.925343       -25.1799
  37   2.0000      -0.877766       -23.8852
  38   2.0000      -0.852154       -23.1883
  39   2.0000      -0.841728       -22.9046
  40   2.0000      -0.834446       -22.7064
  41   2.0000      -0.832213       -22.6457
  42   2.0000      -0.755344       -20.5540
  43   2.0000      -0.735382       -20.0108
  44   2.0000      -0.730226       -19.8705
  45   2.0000      -0.695870       -18.9356
  46   2.0000      -0.688075       -18.7235
  47   2.0000      -0.680395       -18.5145
  48   2.0000      -0.675186       -18.3727
  49   2.0000      -0.662330       -18.0229
  50   2.0000      -0.649175       -17.6650
  51   2.0000      -0.646225       -17.5847
  52   2.0000      -0.639092       -17.3906
  53   2.0000      -0.608524       -16.5588
  54   2.0000      -0.605863       -16.4864
  55   2.0000      -0.601795       -16.3757
  56   2.0000      -0.600007       -16.3270
  57   2.0000      -0.582420       -15.8485
  58   2.0000      -0.577755       -15.7215
  59   2.0000      -0.565451       -15.3867
  60   2.0000      -0.563390       -15.3306
  61   2.0000      -0.553709       -15.0672
  62   2.0000      -0.538586       -14.6557
  63   2.0000      -0.523817       -14.2538
  64   2.0000      -0.514477       -13.9996
  65   2.0000      -0.510823       -13.9002
  66   2.0000      -0.503279       -13.6949
  67   2.0000      -0.498898       -13.5757
  68   2.0000      -0.483469       -13.1559
  69   2.0000      -0.467765       -12.7285
  70   2.0000      -0.454879       -12.3779
  71   2.0000      -0.454559       -12.3692
  72   2.0000      -0.356811        -9.7093
  73   2.0000      -0.349791        -9.5183
  74   2.0000      -0.329781        -8.9738
  75   2.0000      -0.321708        -8.7541
  76   2.0000      -0.317841        -8.6489
  77   0.0000       0.069693         1.8964
  78   0.0000       0.103582         2.8186
  79   0.0000       0.117837         3.2065
  80   0.0000       0.130725         3.5572
  81   0.0000       0.134386         3.6568

MULLIKEN ATOMIC CHARGES
-----------------------
   0 C :   -0.255662
   1 C :    0.036606
   2 O :   -0.372971
   3 C :    0.457010
   4 O :   -0.387339
   5 C :   -0.205861
   6 C :    0.131363
   7 C :   -0.285018
   8 N :   -0.125279
   9 C :    0.198697
  10 S :   -0.437002
  11 N :   -0.201203
  12 C :    0.056535
  13 C :    0.018329
  14 C :   -0.156637
  15 C :   -0.136617
  16 C :   -0.277792
  17 C :    0.312286
  18 O :   -0.358799
  19 C :   -0.271168
  20 H :    0.108163
  21 H :    0.094433
  22 H :    0.086627
  23 H :    0.089714
  24 H :    0.106408
  25 H :    0.128757
  26 H :    0.109480
  27 H :    0.121484
  28 H :    0.197309
  29 H :    0.194349
  30 H :    0.157312
  31 H :    0.160881
  32 H :    0.162023
  33 H :    0.132043
  34 H :    0.241343
  35 H :    0.170194
Sum of atomic charges:    0.0000000

LOEWDIN ATOMIC CHARGES
----------------------
   0 C :    0.109600
   1 C :   -0.017184
   2 O :    0.287370
   3 C :   -0.423656
   4 O :    0.134405
   5 C :   -0.094389
   6 C :   -0.075846
   7 C :    0.127521
   8 N :    0.404341
   9 C :   -0.457952
  10 S :   -0.034424
  11 N :    0.397030
  12 C :   -0.045562
  13 C :   -0.043292
  14 C :    0.020999
  15 C :    0.042455
  16 C :   -0.001706
  17 C :   -0.195282
  18 O :    0.393917
  19 C :    0.027857
  20 H :   -0.021008
  21 H :   -0.028114
  22 H :   -0.027401
  23 H :   -0.036157
  24 H :   -0.024499
  25 H :   -0.006582
  26 H :   -0.018010
  27 H :   -0.012024
  28 H :   -0.058344
  29 H :   -0.063921
  30 H :   -0.003860
  31 H :   -0.023580
  32 H :   -0.019553
  33 H :   -0.035059
  34 H :   -0.153476
  35 H :   -0.024616

  Mayer bond orders larger than 0.100000
B(  0-C ,  1-C ) :   0.9854 B(  0-C , 20-H ) :   0.9768 B(  0-C , 21-H ) :   0.9801
B(  0-C , 22-H ) :   0.9759 B(  1-C ,  2-O ) :   0.8814 B(  1-C , 23-H ) :   0.9751
B(  1-C , 24-H ) :   0.9679 B(  2-O ,  3-C ) :   1.1009 B(  3-C ,  4-O ) :   2.0500
B(  3-C ,  5-C ) :   1.0087 B(  5-C ,  6-C ) :   1.6636 B(  5-C , 12-C ) :   0.9617
B(  6-C ,  7-C ) :   0.9516 B(  6-C ,  8-N ) :   1.1377 B(  7-C , 25-H ) :   0.9700
B(  7-C , 26-H ) :   0.9865 B(  7-C , 27-H ) :   0.9645 B(  8-N ,  9-C ) :   1.1831
B(  8-N , 28-H ) :   0.9499 B(  9-C , 10-S ) :   1.6143 B(  9-C , 11-N ) :   1.2981
B( 11-N , 12-C ) :   0.9928 B( 11-N , 29-H ) :   0.9519 B( 12-C , 13-C ) :   0.9427
B( 12-C , 30-H ) :   0.9984 B( 13-C , 14-C ) :   1.3832 B( 13-C , 19-C ) :   1.3631
B( 14-C , 15-C ) :   1.3949 B( 14-C , 31-H ) :   0.9616 B( 15-C , 16-C ) :   1.3643
B( 15-C , 32-H ) :   0.9708 B( 16-C , 17-C ) :   1.3294 B( 16-C , 33-H ) :   0.9845
B( 17-C , 18-O ) :   1.1115 B( 17-C , 19-C ) :   1.3734 B( 18-O , 34-H ) :   0.9794
B( 19-C , 35-H ) :   0.9583

MP2 TOTAL ENERGY:    -1274.323197031 Eh
FINAL SINGLE POINT ENERGY     -1274.323197031034

DIPOLE MOMENT
-------------
                                X             Y             Z
Electronic contribution:     11.03695       9.67715       7.35590
Nuclear contribution   :    -12.40284     -10.73294      -7.74918
                        -----------------------------------------
Total Dipole Moment    :     -1.36589      -1.05579      -0.39328
                        -----------------------------------------
Magnitude (a.u.)       :      1.77060
Magnitude (Debye)      :      4.50051

Rotational constants in cm-1:     0.011758     0.009186     0.006589
Rotational constants in MHz :   352.483594   275.381274   197.545706

                             ****ORCA TERMINATED NORMALLY****
TOTAL RUN TIME: 0 days 1 hours 38 minutes 30 seconds 920 msec
