                         Program Version 5.0.0 -  RELEASE  -
|  1> ! ri-mp2 cc-pvtz cc-pvtz/c TightSCF NoKeepInts
|  2>
|  3> %scf
|  4>   MaxCore 4096
|  5> end
|  6> *xyz  0  1
|  7>     C       14.2420514   15.2215078   16.4912467
|  8>     C       15.7073893   14.7674408   16.5947163
|  9>     O       16.5211407   15.7818865   15.9837590
| 10>     C       17.8045529   15.8872145   16.4274329
| 11>     O       18.5124819   14.8968633   16.5000860
| 12>     C       17.9470182   17.0111798   17.4067410
| 13>     C       17.3490253   18.2178066   17.2493499
| 14>     C       16.4941564   18.6700350   16.0841352
| 15>     N       17.5599279   19.2266779   18.1937682
| 16>     C       18.4460482   19.1474494   19.2363516
| 17>     S       18.7153509   20.4270041   20.2489682
| 18>     N       19.0984494   17.9503770   19.3982095
| 19>     C       18.8130602   16.7201879   18.6348881
| 20>     C       18.1404240   15.6790618   19.5254160
| 21>     C       18.6833850   14.3869373   19.6478849
| 22>     C       18.0546071   13.4186879   20.4484624
| 23>     C       16.8707181   13.7436190   21.1322027
| 24>     C       16.3241058   15.0280932   21.0094652
| 25>     O       15.1748535   15.3419133   21.6587057
| 26>     C       16.9519576   15.9894979   20.2115794
| 27>     H       14.0911073   16.1667532   17.0269064
| 28>     H       13.5759719   14.4691520   16.9308959
| 29>     H       13.9543605   15.3644743   15.4422297
| 30>     H       15.9700308   14.6458745   17.6552309
| 31>     H       15.8557952   13.8043355   16.0884554
| 32>     H       16.8948449   18.2972131   15.1331781
| 33>     H       16.4426457   19.7626498   16.0028513
| 34>     H       15.4697440   18.2911173   16.1857068
| 35>     H       17.0913182   20.1128494   18.0914825
| 36>     H       19.7239384   17.9105958   20.1927367
| 37>     H       19.7715274   16.3115770   18.2831988
| 38>     H       19.5877051   14.1269328   19.1027970
| 39>     H       18.4823627   12.4209466   20.5302328
| 40>     H       16.3807673   12.9977925   21.7493543
| 41>     H       14.9316511   14.5784240   22.2038458
| 42>     H       16.5125258   16.9778711   20.1315286
| 43> *
| 44>
| 45>                          ****END OF INPUT****

CARTESIAN COORDINATES (ANGSTROEM)
---------------------------------
  C     14.242051   15.221508   16.491247
  C     15.707389   14.767441   16.594716
  O     16.521141   15.781887   15.983759
  C     17.804553   15.887214   16.427433
  O     18.512482   14.896863   16.500086
  C     17.947018   17.011180   17.406741
  C     17.349025   18.217807   17.249350
  C     16.494156   18.670035   16.084135
  N     17.559928   19.226678   18.193768
  C     18.446048   19.147449   19.236352
  S     18.715351   20.427004   20.248968
  N     19.098449   17.950377   19.398210
  C     18.813060   16.720188   18.634888
  C     18.140424   15.679062   19.525416
  C     18.683385   14.386937   19.647885
  C     18.054607   13.418688   20.448462
  C     16.870718   13.743619   21.132203
  C     16.324106   15.028093   21.009465
  O     15.174853   15.341913   21.658706
  C     16.951958   15.989498   20.211579
  H     14.091107   16.166753   17.026906
  H     13.575972   14.469152   16.930896
  H     13.954360   15.364474   15.442230
  H     15.970031   14.645874   17.655231
  H     15.855795   13.804335   16.088455
  H     16.894845   18.297213   15.133178
  H     16.442646   19.762650   16.002851
  H     15.469744   18.291117   16.185707
  H     17.091318   20.112849   18.091483
  H     19.723938   17.910596   20.192737
  H     19.771527   16.311577   18.283199
  H     19.587705   14.126933   19.102797
  H     18.482363   12.420947   20.530233
  H     16.380767   12.997792   21.749354
  H     14.931651   14.578424   22.203846
  H     16.512526   16.977871   20.131529

 Total Charge           Charge          ....    0
 Multiplicity           Mult            ....    1
 Number of Electrons    NEL             ....  154
 Basis Dimension        Dim             ....  828

ORBITAL ENERGIES
----------------

  NO   OCC          E(Eh)            E(eV)
   0   2.0000     -91.889055     -2500.4283
   1   2.0000     -20.597062      -560.4746
   2   2.0000     -20.583732      -560.1118
   3   2.0000     -20.555844      -559.3529
   4   2.0000     -15.628416      -425.2708
   5   2.0000     -15.608771      -424.7363
   6   2.0000     -11.393590      -310.0353
   7   2.0000     -11.384636      -309.7917
   8   2.0000     -11.332525      -308.3737
   9   2.0000     -11.313417      -307.8537
  10   2.0000     -11.309476      -307.7465
  11   2.0000     -11.297347      -307.4164
  12   2.0000     -11.260400      -306.4111
  13   2.0000     -11.259696      -306.3919
  14   2.0000     -11.258681      -306.3643
  15   2.0000     -11.253474      -306.2226
  16   2.0000     -11.243179      -305.9425
  17   2.0000     -11.238885      -305.8256
  18   2.0000     -11.236138      -305.7509
  19   2.0000     -11.232308      -305.6466
  20   2.0000      -8.894129      -242.0216
  21   2.0000      -6.575708      -178.9341
  22   2.0000      -6.573698      -178.8794
  23   2.0000      -6.573114      -178.8635
  24   2.0000      -1.453734       -39.5581
  25   2.0000      -1.416874       -38.5551
  26   2.0000      -1.356369       -36.9087
  27   2.0000      -1.339660       -36.4540
  28   2.0000      -1.238113       -33.6908
  29   2.0000      -1.157432       -31.4953
  30   2.0000      -1.121829       -30.5265
  31   2.0000      -1.045590       -28.4520
  32   2.0000      -1.035327       -28.1727
  33   2.0000      -1.014890       -27.6166
  34   2.0000      -0.999782       -27.2055
  35   2.0000      -0.985563       -26.8185
  36   2.0000      -0.923938       -25.1416
  37   2.0000      -0.882417       -24.0118
  38   2.0000      -0.848198       -23.0806
  39   2.0000      -0.839182       -22.8353
  40   2.0000      -0.833403       -22.6781
  41   2.0000      -0.825500       -22.4630
  42   2.0000      -0.757341       -20.6083
  43   2.0000      -0.735919       -20.0254
  44   2.0000      -0.728933       -19.8353
  45   2.0000      -0.695110       -18.9149
  46   2.0000      -0.685669       -18.6580
  47   2.0000      -0.681605       -18.5474
  48   2.0000      -0.676123       -18.3983
  49   2.0000      -0.655807       -17.8454
  50   2.0000      -0.653946       -17.7948
  51   2.0000      -0.643738       -17.5170
  52   2.0000      -0.636187       -17.3115
  53   2.0000      -0.609275       -16.5792
  54   2.0000      -0.605721       -16.4825
  55   2.0000      -0.603142       -16.4123
  56   2.0000      -0.600543       -16.3416
  57   2.0000      -0.578009       -15.7284
  58   2.0000      -0.575452       -15.6588
  59   2.0000      -0.566227       -15.4078
  60   2.0000      -0.558337       -15.1931
  61   2.0000      -0.548658       -14.9297
  62   2.0000      -0.545995       -14.8573
  63   2.0000      -0.522665       -14.2224
  64   2.0000      -0.514621       -14.0036
  65   2.0000      -0.510901       -13.9023
  66   2.0000      -0.506384       -13.7794
  67   2.0000      -0.498767       -13.5721
  68   2.0000      -0.482457       -13.1283
  69   2.0000      -0.466069       -12.6824
  70   2.0000      -0.456892       -12.4327
  71   2.0000      -0.452965       -12.3258
  72   2.0000      -0.354513        -9.6468
  73   2.0000      -0.348997        -9.4967
  74   2.0000      -0.328421        -8.9368
  75   2.0000      -0.320645        -8.7252
  76   2.0000      -0.315884        -8.5956
  77   0.0000       0.070690         1.9236
  78   0.0000       0.103364         2.8127
  79   0.0000       0.118461         3.2235
  80   0.0000       0.131052         3.5661
  81   0.0000       0.135548         3.6885

MULLIKEN ATOMIC CHARGES
-----------------------
   0 C :   -0.282594
   1 C :    0.049388
   2 O :   -0.370446
   3 C :    0.444162
   4 O :   -0.395589
   5 C :   -0.190900
   6 C :    0.131421
   7 C :   -0.282086
   8 N :   -0.125063
   9 C :    0.202872
  10 S :   -0.439669
  11 N :   -0.201340
  12 C :    0.060274
  13 C :    0.025568
  14 C :   -0.150590
  15 C :   -0.135772
  16 C :   -0.278569
  17 C :    0.313731
  18 O :   -0.359655
  19 C :   -0.277509
  20 H :    0.091316
  21 H :    0.103375
  22 H :    0.100283
  23 H :    0.095557
  24 H :    0.109349
  25 H :    0.123314
  26 H :    0.106395
  27 H :    0.124659
  28 H :    0.197301
  29 H :    0.194264
  30 H :    0.155654
  31 H :    0.157294
  32 H :    0.161365
  33 H :    0.131630
  34 H :    0.241112
  35 H :    0.169495
Sum of atomic charges:   -0.0000000

LOEWDIN ATOMIC CHARGES
----------------------
   0 C :    0.108018
   1 C :   -0.016000
   2 O :    0.289838
   3 C :   -0.418801
   4 O :    0.130413
   5 C :   -0.093975
   6 C :   -0.076273
   7 C :    0.126770
   8 N :    0.403928
   9 C :   -0.457251
  10 S :   -0.036336
  11 N :    0.396967
  12 C :   -0.045041
  13 C :   -0.042026
  14 C :    0.021725
  15 C :    0.042407
  16 C :   -0.002099
  17 C :   -0.195028
  18 O :    0.393856
  19 C :    0.027360
  20 H :   -0.029977
  21 H :   -0.022788
  22 H :   -0.026792
  23 H :   -0.027288
  24 H :   -0.028312
  25 H :   -0.007868
  26 H :   -0.019160
  27 H :   -0.011097
  28 H :   -0.058694
  29 H :   -0.064142
  30 H :   -0.004482
  31 H :   -0.024245
  32 H :   -0.019937
  33 H :   -0.035340
  34 H :   -0.153834
  35 H :   -0.024494

  Mayer bond orders larger than 0.100000
B(  0-C ,  1-C ) :   0.9728 B(  0-C , 20-H ) :   0.9777 B(  0-C , 21-H ) :   0.9780
B(  0-C , 22-H ) :   0.9769 B(  1-C ,  2-O ) :   0.8951 B(  1-C , 23-H ) :   0.9652
B(  1-C , 24-H ) :   0.9840 B(  2-O ,  3-C ) :   1.0905 B(  3-C ,  4-O ) :   2.0285
B(  3-C ,  5-C ) :   1.0242 B(  5-C ,  6-C ) :   1.6719 B(  5-C , 12-C ) :   0.9617
B(  6-C ,  7-C ) :   0.9521 B(  6-C ,  8-N ) :   1.1367 B(  7-C , 25-H ) :   0.9712
B(  7-C , 26-H ) :   0.9879 B(  7-C , 27-H ) :   0.9627 B(  8-N ,  9-C ) :   1.1854
B(  8-N , 28-H ) :   0.9501 B(  9-C , 10-S ) :   1.6111 B(  9-C , 11-N ) :   1.2987
B( 11-N , 12-C ) :   0.9934 B( 11-N , 29-H ) :   0.9517 B( 12-C , 13-C ) :   0.9439
B( 12-C , 30-H ) :   0.9981 B( 13-C , 14-C ) :   1.3798 B( 13-C , 19-C ) :   1.3676
B( 14-C , 15-C ) :   1.3945 B( 14-C , 31-H ) :   0.9633 B( 15-C , 16-C ) :   1.3640
B( 15-C , 32-H ) :   0.9709 B( 16-C , 17-C ) :   1.3295 B( 16-C , 33-H ) :   0.9846
B( 17-C , 18-O ) :   1.1104 B( 17-C , 19-C ) :   1.3725 B( 18-O , 34-H ) :   0.9797
B( 19-C , 35-H ) :   0.9583

MP2 TOTAL ENERGY:    -1274.324089403 Eh
FINAL SINGLE POINT ENERGY     -1274.324089403394

DIPOLE MOMENT
-------------
                                X             Y             Z
Electronic contribution:     11.66462       7.96320       7.02640
Nuclear contribution   :    -12.94249      -9.24993      -7.59311
                        -----------------------------------------
Total Dipole Moment    :     -1.27787      -1.28674      -0.56672
                        -----------------------------------------
Magnitude (a.u.)       :      1.89995
Magnitude (Debye)      :      4.82929

Rotational constants in cm-1:     0.011591     0.009214     0.006790
Rotational constants in MHz :   347.478082   276.242276   203.544690

                             ****ORCA TERMINATED NORMALLY****
TOTAL RUN TIME: 0 days 1 hours 43 minutes 22 seconds 226 msec
