                         Program Version 5.0.0 -  RELEASE  -
|  1> ! ri-mp2 cc-pvtz cc-pvtz/c TightSCF NoKeepInts
|  2>
|  3> %scf
|  4>   MaxCore 4096
|  5> end
|  6> *xyz  0  1
|  7>     C       14.9177438   14.0369420   15.8853957
|  8>     C       15.7207651   15.0086899   14.9929731
|  9>     O       16.3206718   16.0505904   15.7900725
| 10>     C       17.2530626   15.7677322   16.7482384
| 11>     O       17.7743929   14.6688410   16.8483508
| 12>     C       17.6805613   16.9375045   17.5921964
| 13>     C       17.2725376   18.2251117   17.4301933
| 14>     C       16.3087325   18.7862917   16.4043006
| 15>     N       17.8012715   19.2285822   18.2498088
| 16>     C       18.8294845   19.0572530   19.1382354
| 17>     S       19.4844073   20.3279103   19.9702363
| 18>     N       19.2858980   17.7747577   19.3021119
| 19>     C       18.6514138   16.5761260   18.7233530
| 20>     C       17.9508590   15.7644978   19.8103409
| 21>     C       18.2523198   14.4013758   19.9870185
| 22>     C       17.6084873   13.6479816   20.9828905
| 23>     C       16.6537596   14.2620092   21.8111381
| 24>     C       16.3477124   15.6184202   21.6364771
| 25>     O       15.4217282   16.2128150   22.4306139
| 26>     C       16.9898261   16.3655515   20.6440082
| 27>     H       15.5741574   13.4421034   16.5320002
| 28>     H       14.3444265   13.3381002   15.2645006
| 29>     H       14.2116755   14.5866272   16.5199291
| 30>     H       16.4963762   14.4550066   14.4466116
| 31>     H       15.0458158   15.4629439   14.2563853
| 32>     H       16.6677347   18.5903529   15.3862685
| 33>     H       16.1730024   19.8706078   16.4967565
| 34>     H       15.3185636   18.3257536   16.5103741
| 35>     H       17.4797572   20.1774503   18.1446187
| 36>     H       20.0227829   17.6683873   19.9873417
| 37>     H       19.4509208   15.9557622   18.2929770
| 38>     H       18.9775956   13.9196689   19.3356676
| 39>     H       17.8463999   12.5928024   21.1043941
| 40>     H       16.1526886   13.6834188   22.5799242
| 41>     H       15.1194006   15.5494526   23.0687969
| 42>     H       16.7400673   17.4145783   20.5295004
| 43> *
| 44>
| 45>                          ****END OF INPUT****

CARTESIAN COORDINATES (ANGSTROEM)
---------------------------------
  C     14.917744   14.036942   15.885396
  C     15.720765   15.008690   14.992973
  O     16.320672   16.050590   15.790072
  C     17.253063   15.767732   16.748238
  O     17.774393   14.668841   16.848351
  C     17.680561   16.937504   17.592196
  C     17.272538   18.225112   17.430193
  C     16.308733   18.786292   16.404301
  N     17.801271   19.228582   18.249809
  C     18.829484   19.057253   19.138235
  S     19.484407   20.327910   19.970236
  N     19.285898   17.774758   19.302112
  C     18.651414   16.576126   18.723353
  C     17.950859   15.764498   19.810341
  C     18.252320   14.401376   19.987019
  C     17.608487   13.647982   20.982890
  C     16.653760   14.262009   21.811138
  C     16.347712   15.618420   21.636477
  O     15.421728   16.212815   22.430614
  C     16.989826   16.365551   20.644008
  H     15.574157   13.442103   16.532000
  H     14.344426   13.338100   15.264501
  H     14.211676   14.586627   16.519929
  H     16.496376   14.455007   14.446612
  H     15.045816   15.462944   14.256385
  H     16.667735   18.590353   15.386268
  H     16.173002   19.870608   16.496757
  H     15.318564   18.325754   16.510374
  H     17.479757   20.177450   18.144619
  H     20.022783   17.668387   19.987342
  H     19.450921   15.955762   18.292977
  H     18.977596   13.919669   19.335668
  H     17.846400   12.592802   21.104394
  H     16.152689   13.683419   22.579924
  H     15.119401   15.549453   23.068797
  H     16.740067   17.414578   20.529500

 Total Charge           Charge          ....    0
 Multiplicity           Mult            ....    1
 Number of Electrons    NEL             ....  154
 Basis Dimension        Dim             ....  828

ORBITAL ENERGIES
----------------

  NO   OCC          E(Eh)            E(eV)
   0   2.0000     -91.888071     -2500.4015
   1   2.0000     -20.603687      -560.6548
   2   2.0000     -20.591043      -560.3108
   3   2.0000     -20.544276      -559.0382
   4   2.0000     -15.628647      -425.2771
   5   2.0000     -15.606514      -424.6748
   6   2.0000     -11.397014      -310.1285
   7   2.0000     -11.382717      -309.7395
   8   2.0000     -11.337472      -308.5083
   9   2.0000     -11.306815      -307.6741
  10   2.0000     -11.304758      -307.6181
  11   2.0000     -11.302776      -307.5642
  12   2.0000     -11.261032      -306.4283
  13   2.0000     -11.258589      -306.3618
  14   2.0000     -11.252760      -306.2032
  15   2.0000     -11.246929      -306.0445
  16   2.0000     -11.236599      -305.7634
  17   2.0000     -11.232807      -305.6602
  18   2.0000     -11.229619      -305.5735
  19   2.0000     -11.225693      -305.4666
  20   2.0000      -8.893128      -241.9943
  21   2.0000      -6.574704      -178.9068
  22   2.0000      -6.572699      -178.8522
  23   2.0000      -6.572112      -178.8363
  24   2.0000      -1.452640       -39.5283
  25   2.0000      -1.410781       -38.3893
  26   2.0000      -1.356657       -36.9165
  27   2.0000      -1.339507       -36.4498
  28   2.0000      -1.236929       -33.6586
  29   2.0000      -1.151496       -31.3338
  30   2.0000      -1.118935       -30.4478
  31   2.0000      -1.041528       -28.3414
  32   2.0000      -1.033959       -28.1354
  33   2.0000      -1.008853       -27.4523
  34   2.0000      -0.997045       -27.1310
  35   2.0000      -0.982491       -26.7349
  36   2.0000      -0.921059       -25.0633
  37   2.0000      -0.895697       -24.3732
  38   2.0000      -0.847773       -23.0691
  39   2.0000      -0.835072       -22.7235
  40   2.0000      -0.827182       -22.5088
  41   2.0000      -0.815919       -22.2023
  42   2.0000      -0.750693       -20.4274
  43   2.0000      -0.734725       -19.9929
  44   2.0000      -0.724258       -19.7080
  45   2.0000      -0.690227       -18.7820
  46   2.0000      -0.685387       -18.6503
  47   2.0000      -0.678876       -18.4731
  48   2.0000      -0.670887       -18.2558
  49   2.0000      -0.654839       -17.8191
  50   2.0000      -0.651109       -17.7176
  51   2.0000      -0.643989       -17.5238
  52   2.0000      -0.630722       -17.1628
  53   2.0000      -0.613701       -16.6997
  54   2.0000      -0.599897       -16.3240
  55   2.0000      -0.598942       -16.2980
  56   2.0000      -0.594488       -16.1769
  57   2.0000      -0.582270       -15.8444
  58   2.0000      -0.573010       -15.5924
  59   2.0000      -0.564968       -15.3736
  60   2.0000      -0.558420       -15.1954
  61   2.0000      -0.543274       -14.7832
  62   2.0000      -0.538458       -14.6522
  63   2.0000      -0.525594       -14.3021
  64   2.0000      -0.516121       -14.0444
  65   2.0000      -0.509430       -13.8623
  66   2.0000      -0.500272       -13.6131
  67   2.0000      -0.494977       -13.4690
  68   2.0000      -0.480387       -13.0720
  69   2.0000      -0.463595       -12.6151
  70   2.0000      -0.457526       -12.4499
  71   2.0000      -0.451432       -12.2841
  72   2.0000      -0.354247        -9.6395
  73   2.0000      -0.343493        -9.3469
  74   2.0000      -0.327142        -8.9020
  75   2.0000      -0.315495        -8.5851
  76   2.0000      -0.312991        -8.5169
  77   0.0000       0.075408         2.0520
  78   0.0000       0.114171         3.1068
  79   0.0000       0.121723         3.3123
  80   0.0000       0.136587         3.7167
  81   0.0000       0.141098         3.8395

MULLIKEN ATOMIC CHARGES
-----------------------
   0 C :   -0.304501
   1 C :    0.035800
   2 O :   -0.347510
   3 C :    0.459809
   4 O :   -0.440174
   5 C :   -0.178251
   6 C :    0.144116
   7 C :   -0.281423
   8 N :   -0.119696
   9 C :    0.201079
  10 S :   -0.438757
  11 N :   -0.196824
  12 C :    0.033349
  13 C :    0.060364
  14 C :   -0.162392
  15 C :   -0.134067
  16 C :   -0.278656
  17 C :    0.311720
  18 O :   -0.359284
  19 C :   -0.274267
  20 H :    0.127611
  21 H :    0.096015
  22 H :    0.093514
  23 H :    0.101493
  24 H :    0.107570
  25 H :    0.128169
  26 H :    0.100954
  27 H :    0.125592
  28 H :    0.196633
  29 H :    0.193520
  30 H :    0.153800
  31 H :    0.153580
  32 H :    0.158890
  33 H :    0.127792
  34 H :    0.240015
  35 H :    0.164417
Sum of atomic charges:    0.0000000

LOEWDIN ATOMIC CHARGES
----------------------
   0 C :    0.105746
   1 C :   -0.015248
   2 O :    0.302848
   3 C :   -0.413314
   4 O :    0.102864
   5 C :   -0.090649
   6 C :   -0.063134
   7 C :    0.124902
   8 N :    0.405097
   9 C :   -0.459333
  10 S :   -0.035629
  11 N :    0.398239
  12 C :   -0.046865
  13 C :   -0.038765
  14 C :    0.022229
  15 C :    0.040555
  16 C :   -0.002293
  17 C :   -0.192640
  18 O :    0.392905
  19 C :    0.028150
  20 H :   -0.024303
  21 H :   -0.026895
  22 H :   -0.029788
  23 H :   -0.028125
  24 H :   -0.025217
  25 H :   -0.008182
  26 H :   -0.021564
  27 H :   -0.009937
  28 H :   -0.059295
  29 H :   -0.063504
  30 H :   -0.005453
  31 H :   -0.025331
  32 H :   -0.021346
  33 H :   -0.036468
  34 H :   -0.154953
  35 H :   -0.025303

  Mayer bond orders larger than 0.100000
B(  0-C ,  1-C ) :   0.9627 B(  0-C , 20-H ) :   0.9718 B(  0-C , 21-H ) :   0.9765
B(  0-C , 22-H ) :   0.9761 B(  1-C ,  2-O ) :   0.8997 B(  1-C , 23-H ) :   0.9794
B(  1-C , 24-H ) :   0.9845 B(  2-O ,  3-C ) :   1.1611 B(  3-C ,  4-O ) :   1.9520
B(  3-C ,  5-C ) :   1.0727 B(  5-C ,  6-C ) :   1.6384 B(  5-C , 12-C ) :   0.9677
B(  6-C ,  7-C ) :   0.9576 B(  6-C ,  8-N ) :   1.1550 B(  7-C , 25-H ) :   0.9633
B(  7-C , 26-H ) :   0.9916 B(  7-C , 27-H ) :   0.9649 B(  8-N ,  9-C ) :   1.1760
B(  8-N , 28-H ) :   0.9485 B(  9-C , 10-S ) :   1.6113 B(  9-C , 11-N ) :   1.3057
B( 11-N , 12-C ) :   0.9924 B( 11-N , 29-H ) :   0.9519 B( 12-C , 13-C ) :   0.9458
B( 12-C , 30-H ) :   1.0014 B( 13-C , 14-C ) :   1.3747 B( 13-C , 19-C ) :   1.3689
B( 14-C , 15-C ) :   1.3945 B( 14-C , 31-H ) :   0.9649 B( 15-C , 16-C ) :   1.3621
B( 15-C , 32-H ) :   0.9715 B( 16-C , 17-C ) :   1.3319 B( 16-C , 33-H ) :   0.9861
B( 17-C , 18-O ) :   1.1078 B( 17-C , 19-C ) :   1.3793 B( 18-O , 34-H ) :   0.9806
B( 19-C , 35-H ) :   0.9584

MP2 TOTAL ENERGY:    -1274.347985536 Eh
FINAL SINGLE POINT ENERGY     -1274.347985535620

DIPOLE MOMENT
-------------
                                X             Y             Z
Electronic contribution:     10.77395       9.93273       9.84628
Nuclear contribution   :    -12.33658     -11.11479     -10.92139
                        -----------------------------------------
Total Dipole Moment    :     -1.56263      -1.18205      -1.07510
                        -----------------------------------------
Magnitude (a.u.)       :      2.23493
Magnitude (Debye)      :      5.68074

Rotational constants in cm-1:     0.010575     0.009086     0.005898
Rotational constants in MHz :   317.030171   272.388403   176.829907

                             ****ORCA TERMINATED NORMALLY****
TOTAL RUN TIME: 0 days 1 hours 38 minutes 36 seconds 744 msec
