                         Program Version 5.0.0 -  RELEASE  -
|  1> ! ri-mp2 cc-pvtz cc-pvtz/c TightSCF NoKeepInts
|  2>
|  3> %scf
|  4>   MaxCore 4096
|  5> end
|  6> *xyz  0  1
|  7>     C       15.0036018   14.6498288   17.3783171
|  8>     C       15.5113963   15.5910136   16.2730213
|  9>     O       16.8517677   15.1824489   15.9287182
| 10>     C       18.0253175   15.6748992   16.4511248
| 11>     O       19.0210048   14.9751857   16.4283594
| 12>     C       17.9504772   16.8546417   17.3696278
| 13>     C       17.4868765   18.0628386   16.9669973
| 14>     C       16.9848517   18.4406457   15.5879010
| 15>     N       17.5583424   19.1607813   17.8271080
| 16>     C       18.2226315   19.1695142   19.0253496
| 17>     S       18.3405072   20.5396652   19.9433224
| 18>     N       18.7899877   17.9841314   19.4220988
| 19>     C       18.6235836   16.6875051   18.7350572
| 20>     C       17.8719647   15.6886142   19.6095085
| 21>     C       18.2667650   14.3381769   19.6299367
| 22>     C       17.5807661   13.4023501   20.4216883
| 23>     C       16.4888202   13.8188199   21.2017512
| 24>     C       16.0891412   15.1617557   21.1824076
| 25>     O       15.0272026   15.5644158   21.9244068
| 26>     C       16.7721229   16.0914201   20.3913924
| 27>     H       15.6335278   14.7128890   18.2701294
| 28>     H       15.0117400   13.6090787   17.0309482
| 29>     H       13.9771961   14.9076980   17.6657681
| 30>     H       14.8642236   15.4781095   15.3935906
| 31>     H       15.4387638   16.6263718   16.6135398
| 32>     H       17.1222807   17.6358001   14.8556337
| 33>     H       17.5334465   19.3089876   15.2005535
| 34>     H       15.9194933   18.7007952   15.6086370
| 35>     H       17.1701779   20.0464737   17.5424947
| 36>     H       19.2626183   18.0153897   20.3167339
| 37>     H       19.6302364   16.2802473   18.5580400
| 38>     H       19.1039061   14.0099702   19.0168927
| 39>     H       17.8948560   12.3598783   20.4241628
| 40>     H       15.9553614   13.0983984   21.8130428
| 41>     H       14.7230595   14.7993319   22.4357447
| 42>     H       16.4389839   17.1239287   20.3899938
| 43> *
| 44>
| 45>                          ****END OF INPUT****

CARTESIAN COORDINATES (ANGSTROEM)
---------------------------------
  C     15.003602   14.649829   17.378317
  C     15.511396   15.591014   16.273021
  O     16.851768   15.182449   15.928718
  C     18.025317   15.674899   16.451125
  O     19.021005   14.975186   16.428359
  C     17.950477   16.854642   17.369628
  C     17.486877   18.062839   16.966997
  C     16.984852   18.440646   15.587901
  N     17.558342   19.160781   17.827108
  C     18.222631   19.169514   19.025350
  S     18.340507   20.539665   19.943322
  N     18.789988   17.984131   19.422099
  C     18.623584   16.687505   18.735057
  C     17.871965   15.688614   19.609509
  C     18.266765   14.338177   19.629937
  C     17.580766   13.402350   20.421688
  C     16.488820   13.818820   21.201751
  C     16.089141   15.161756   21.182408
  O     15.027203   15.564416   21.924407
  C     16.772123   16.091420   20.391392
  H     15.633528   14.712889   18.270129
  H     15.011740   13.609079   17.030948
  H     13.977196   14.907698   17.665768
  H     14.864224   15.478109   15.393591
  H     15.438764   16.626372   16.613540
  H     17.122281   17.635800   14.855634
  H     17.533447   19.308988   15.200553
  H     15.919493   18.700795   15.608637
  H     17.170178   20.046474   17.542495
  H     19.262618   18.015390   20.316734
  H     19.630236   16.280247   18.558040
  H     19.103906   14.009970   19.016893
  H     17.894856   12.359878   20.424163
  H     15.955361   13.098398   21.813043
  H     14.723059   14.799332   22.435745
  H     16.438984   17.123929   20.389994

 Total Charge           Charge          ....    0
 Multiplicity           Mult            ....    1
 Number of Electrons    NEL             ....  154
 Basis Dimension        Dim             ....  828

ORBITAL ENERGIES
----------------

  NO   OCC          E(Eh)            E(eV)
   0   2.0000     -91.890990     -2500.4810
   1   2.0000     -20.600853      -560.5777
   2   2.0000     -20.598862      -560.5235
   3   2.0000     -20.548785      -559.1609
   4   2.0000     -15.628878      -425.2834
   5   2.0000     -15.611726      -424.8167
   6   2.0000     -11.400081      -310.2120
   7   2.0000     -11.387371      -309.8661
   8   2.0000     -11.333837      -308.4094
   9   2.0000     -11.315990      -307.9237
  10   2.0000     -11.314314      -307.8781
  11   2.0000     -11.305681      -307.6432
  12   2.0000     -11.270620      -306.6892
  13   2.0000     -11.267787      -306.6121
  14   2.0000     -11.263055      -306.4833
  15   2.0000     -11.256325      -306.3002
  16   2.0000     -11.245354      -306.0016
  17   2.0000     -11.241206      -305.8888
  18   2.0000     -11.238022      -305.8021
  19   2.0000     -11.225052      -305.4492
  20   2.0000      -8.896088      -242.0749
  21   2.0000      -6.577674      -178.9876
  22   2.0000      -6.575650      -178.9325
  23   2.0000      -6.575072      -178.9168
  24   2.0000      -1.446797       -39.3694
  25   2.0000      -1.418655       -38.6036
  26   2.0000      -1.358689       -36.9718
  27   2.0000      -1.342139       -36.5214
  28   2.0000      -1.241114       -33.7724
  29   2.0000      -1.160616       -31.5820
  30   2.0000      -1.126130       -30.6436
  31   2.0000      -1.048832       -28.5402
  32   2.0000      -1.037423       -28.2297
  33   2.0000      -1.018510       -27.7151
  34   2.0000      -1.005988       -27.3743
  35   2.0000      -0.990237       -26.9457
  36   2.0000      -0.928317       -25.2608
  37   2.0000      -0.888539       -24.1784
  38   2.0000      -0.855814       -23.2879
  39   2.0000      -0.842107       -22.9149
  40   2.0000      -0.836026       -22.7494
  41   2.0000      -0.833549       -22.6820
  42   2.0000      -0.752330       -20.4719
  43   2.0000      -0.741213       -20.1694
  44   2.0000      -0.730935       -19.8897
  45   2.0000      -0.696868       -18.9627
  46   2.0000      -0.688730       -18.7413
  47   2.0000      -0.681306       -18.5393
  48   2.0000      -0.676535       -18.4094
  49   2.0000      -0.661909       -18.0115
  50   2.0000      -0.654678       -17.8147
  51   2.0000      -0.644154       -17.5283
  52   2.0000      -0.639281       -17.3957
  53   2.0000      -0.618662       -16.8347
  54   2.0000      -0.610051       -16.6003
  55   2.0000      -0.607208       -16.5230
  56   2.0000      -0.602245       -16.3879
  57   2.0000      -0.587425       -15.9846
  58   2.0000      -0.578029       -15.7290
  59   2.0000      -0.567787       -15.4503
  60   2.0000      -0.564027       -15.3480
  61   2.0000      -0.552990       -15.0476
  62   2.0000      -0.544601       -14.8194
  63   2.0000      -0.533134       -14.5073
  64   2.0000      -0.519616       -14.1395
  65   2.0000      -0.513327       -13.9683
  66   2.0000      -0.503621       -13.7042
  67   2.0000      -0.501597       -13.6492
  68   2.0000      -0.483668       -13.1613
  69   2.0000      -0.470489       -12.8026
  70   2.0000      -0.453965       -12.3530
  71   2.0000      -0.448248       -12.1975
  72   2.0000      -0.359168        -9.7735
  73   2.0000      -0.351340        -9.5605
  74   2.0000      -0.330542        -8.9945
  75   2.0000      -0.324233        -8.8228
  76   2.0000      -0.319762        -8.7012
  77   0.0000       0.082232         2.2376
  78   0.0000       0.105650         2.8749
  79   0.0000       0.112701         3.0667
  80   0.0000       0.129407         3.5213
  81   0.0000       0.131456         3.5771

MULLIKEN ATOMIC CHARGES
-----------------------
   0 C :   -0.269580
   1 C :    0.021230
   2 O :   -0.320983
   3 C :    0.410159
   4 O :   -0.384820
   5 C :   -0.199552
   6 C :    0.134571
   7 C :   -0.323379
   8 N :   -0.134829
   9 C :    0.201105
  10 S :   -0.439146
  11 N :   -0.218000
  12 C :    0.069683
  13 C :   -0.001217
  14 C :   -0.192514
  15 C :   -0.138418
  16 C :   -0.267336
  17 C :    0.303916
  18 O :   -0.358667
  19 C :   -0.240754
  20 H :    0.105286
  21 H :    0.107185
  22 H :    0.091751
  23 H :    0.116203
  24 H :    0.089076
  25 H :    0.129385
  26 H :    0.139605
  27 H :    0.121207
  28 H :    0.196546
  29 H :    0.200413
  30 H :    0.166809
  31 H :    0.173860
  32 H :    0.163311
  33 H :    0.132320
  34 H :    0.241170
  35 H :    0.174401
Sum of atomic charges:   -0.0000000

LOEWDIN ATOMIC CHARGES
----------------------
   0 C :    0.109859
   1 C :   -0.021924
   2 O :    0.305465
   3 C :   -0.414799
   4 O :    0.121141
   5 C :   -0.082340
   6 C :   -0.098993
   7 C :    0.123903
   8 N :    0.402309
   9 C :   -0.458075
  10 S :   -0.036378
  11 N :    0.397929
  12 C :   -0.043598
  13 C :   -0.045493
  14 C :    0.020188
  15 C :    0.044972
  16 C :   -0.000641
  17 C :   -0.192988
  18 O :    0.395819
  19 C :    0.025797
  20 H :   -0.027133
  21 H :   -0.024037
  22 H :   -0.026794
  23 H :   -0.024487
  24 H :   -0.040543
  25 H :   -0.007651
  26 H :   -0.009200
  27 H :   -0.017501
  28 H :   -0.057167
  29 H :   -0.063194
  30 H :   -0.002050
  31 H :   -0.021652
  32 H :   -0.018416
  33 H :   -0.034712
  34 H :   -0.153174
  35 H :   -0.024442

  Mayer bond orders larger than 0.100000
B(  0-C ,  1-C ) :   0.9780 B(  0-C , 20-H ) :   0.9685 B(  0-C , 21-H ) :   0.9802
B(  0-C , 22-H ) :   0.9759 B(  1-C ,  2-O ) :   0.9000 B(  1-C , 23-H ) :   0.9823
B(  1-C , 24-H ) :   0.9637 B(  2-O ,  3-C ) :   1.1827 B(  3-C ,  4-O ) :   2.0828
B(  3-C ,  5-C ) :   0.9260 B(  5-C ,  6-C ) :   1.6938 B(  5-C , 12-C ) :   0.9531
B(  6-C ,  7-C ) :   0.9431 B(  6-C ,  8-N ) :   1.1131 B(  7-C , 25-H ) :   0.9788
B(  7-C , 26-H ) :   0.9708 B(  7-C , 27-H ) :   0.9660 B(  8-N ,  9-C ) :   1.1924
B(  8-N , 28-H ) :   0.9516 B(  9-C , 10-S ) :   1.6120 B(  9-C , 11-N ) :   1.2904
B( 11-N , 12-C ) :   0.9912 B( 11-N , 29-H ) :   0.9485 B( 12-C , 13-C ) :   0.9475
B( 12-C , 30-H ) :   0.9955 B( 13-C , 14-C ) :   1.3941 B( 13-C , 19-C ) :   1.3537
B( 14-C , 15-C ) :   1.3949 B( 14-C , 31-H ) :   0.9581 B( 15-C , 16-C ) :   1.3603
B( 15-C , 32-H ) :   0.9708 B( 16-C , 17-C ) :   1.3319 B( 16-C , 33-H ) :   0.9847
B( 17-C , 18-O ) :   1.1110 B( 17-C , 19-C ) :   1.3687 B( 18-O , 34-H ) :   0.9794
B( 19-C , 35-H ) :   0.9573

MP2 TOTAL ENERGY:    -1274.334424293 Eh
FINAL SINGLE POINT ENERGY     -1274.334424292509

DIPOLE MOMENT
-------------
                                X             Y             Z
Electronic contribution:      9.67664       7.68986       6.16229
Nuclear contribution   :    -11.22733      -8.59528      -6.68272
                        -----------------------------------------
Total Dipole Moment    :     -1.55069      -0.90542      -0.52043
                        -----------------------------------------
Magnitude (a.u.)       :      1.86956
Magnitude (Debye)      :      4.75205

Rotational constants in cm-1:     0.011836     0.009435     0.006715
Rotational constants in MHz :   354.823456   282.849629   201.324202

                             ****ORCA TERMINATED NORMALLY****
TOTAL RUN TIME: 0 days 2 hours 8 minutes 36 seconds 786 msec
