                         Program Version 5.0.0 -  RELEASE  -
|  1> ! ri-mp2 cc-pvtz cc-pvtz/c TightSCF NoKeepInts
|  2>
|  3> %scf
|  4>   MaxCore 4096
|  5> end
|  6> *xyz  0  1
|  7>     C       14.6862347   15.1559571   16.2810396
|  8>     C       15.8523771   14.8033775   17.2215687
|  9>     O       17.0759254   14.8818646   16.4617737
| 10>     C       17.7220728   16.0653562   16.2278393
| 11>     O       18.0000275   16.3891966   15.0882537
| 12>     C       17.7898697   17.0315710   17.3721263
| 13>     C       17.3901365   18.3164736   17.2229643
| 14>     C       16.6912651   18.9089172   16.0191410
| 15>     N       17.6532947   19.2539305   18.2242437
| 16>     C       18.4693660   19.0300436   19.3012695
| 17>     S       18.8320966   20.2238250   20.3863197
| 18>     N       18.9765818   17.7612996   19.4346277
| 19>     C       18.5867322   16.5957022   18.6163250
| 20>     C       17.9045494   15.5499594   19.4927280
| 21>     C       18.2857386   14.1976058   19.4054848
| 22>     C       17.6606401   13.2247444   20.2031680
| 23>     C       16.6494759   13.6062350   21.1011032
| 24>     C       16.2722574   14.9522437   21.1981581
| 25>     O       15.2926443   15.3232175   22.0597661
| 26>     C       16.8942049   15.9187651   20.4013947
| 27>     H       14.7616391   16.1906222   15.9284703
| 28>     H       13.7267625   15.0411566   16.7998673
| 29>     H       14.6838022   14.4934707   15.4061267
| 30>     H       15.8342020   15.4863845   18.0744286
| 31>     H       15.7190619   13.7798307   17.5953404
| 32>     H       15.9807860   18.1991936   15.5802935
| 33>     H       17.4235091   19.1545614   15.2388395
| 34>     H       16.1342271   19.8212132   16.2631576
| 35>     H       17.3135653   20.1976366   18.1259066
| 36>     H       19.5616443   17.6252808   20.2495956
| 37>     H       19.5190186   16.1453762   18.2462152
| 38>     H       19.0623580   13.8959543   18.7067012
| 39>     H       17.9605987   12.1808752   20.1236441
| 40>     H       16.1642182   12.8575840   21.7191252
| 41>     H       15.0316413   14.5375087   22.5638969
| 42>     H       16.5844750   16.9550655   20.4930960
| 43> *
| 44>
| 45>                          ****END OF INPUT****

CARTESIAN COORDINATES (ANGSTROEM)
---------------------------------
  C     14.686235   15.155957   16.281040
  C     15.852377   14.803377   17.221569
  O     17.075925   14.881865   16.461774
  C     17.722073   16.065356   16.227839
  O     18.000028   16.389197   15.088254
  C     17.789870   17.031571   17.372126
  C     17.390137   18.316474   17.222964
  C     16.691265   18.908917   16.019141
  N     17.653295   19.253930   18.224244
  C     18.469366   19.030044   19.301270
  S     18.832097   20.223825   20.386320
  N     18.976582   17.761300   19.434628
  C     18.586732   16.595702   18.616325
  C     17.904549   15.549959   19.492728
  C     18.285739   14.197606   19.405485
  C     17.660640   13.224744   20.203168
  C     16.649476   13.606235   21.101103
  C     16.272257   14.952244   21.198158
  O     15.292644   15.323217   22.059766
  C     16.894205   15.918765   20.401395
  H     14.761639   16.190622   15.928470
  H     13.726762   15.041157   16.799867
  H     14.683802   14.493471   15.406127
  H     15.834202   15.486384   18.074429
  H     15.719062   13.779831   17.595340
  H     15.980786   18.199194   15.580293
  H     17.423509   19.154561   15.238839
  H     16.134227   19.821213   16.263158
  H     17.313565   20.197637   18.125907
  H     19.561644   17.625281   20.249596
  H     19.519019   16.145376   18.246215
  H     19.062358   13.895954   18.706701
  H     17.960599   12.180875   20.123644
  H     16.164218   12.857584   21.719125
  H     15.031641   14.537509   22.563897
  H     16.584475   16.955065   20.493096

 Total Charge           Charge          ....    0
 Multiplicity           Mult            ....    1
 Number of Electrons    NEL             ....  154
 Basis Dimension        Dim             ....  828

ORBITAL ENERGIES
----------------

  NO   OCC          E(Eh)            E(eV)
   0   2.0000     -91.891181     -2500.4862
   1   2.0000     -20.603549      -560.6511
   2   2.0000     -20.590987      -560.3092
   3   2.0000     -20.552379      -559.2587
   4   2.0000     -15.628362      -425.2694
   5   2.0000     -15.612278      -424.8317
   6   2.0000     -11.395294      -310.0817
   7   2.0000     -11.386774      -309.8499
   8   2.0000     -11.331953      -308.3581
   9   2.0000     -11.321780      -308.0813
  10   2.0000     -11.319248      -308.0124
  11   2.0000     -11.298144      -307.4381
  12   2.0000     -11.268067      -306.6197
  13   2.0000     -11.262903      -306.4792
  14   2.0000     -11.261144      -306.4313
  15   2.0000     -11.257015      -306.3190
  16   2.0000     -11.251306      -306.1636
  17   2.0000     -11.245941      -306.0176
  18   2.0000     -11.245876      -306.0158
  19   2.0000     -11.229052      -305.5580
  20   2.0000      -8.896252      -242.0793
  21   2.0000      -6.577830      -178.9918
  22   2.0000      -6.575818      -178.9371
  23   2.0000      -6.575232      -178.9212
  24   2.0000      -1.446493       -39.3611
  25   2.0000      -1.423347       -38.7312
  26   2.0000      -1.357431       -36.9376
  27   2.0000      -1.341333       -36.4995
  28   2.0000      -1.241507       -33.7831
  29   2.0000      -1.164791       -31.6956
  30   2.0000      -1.123898       -30.5828
  31   2.0000      -1.049791       -28.5663
  32   2.0000      -1.034842       -28.1595
  33   2.0000      -1.023299       -27.8454
  34   2.0000      -1.002761       -27.2865
  35   2.0000      -0.989023       -26.9127
  36   2.0000      -0.928463       -25.2648
  37   2.0000      -0.888065       -24.1655
  38   2.0000      -0.852396       -23.1949
  39   2.0000      -0.844251       -22.9732
  40   2.0000      -0.842105       -22.9148
  41   2.0000      -0.834809       -22.7163
  42   2.0000      -0.755418       -20.5560
  43   2.0000      -0.737416       -20.0661
  44   2.0000      -0.722494       -19.6601
  45   2.0000      -0.702358       -19.1121
  46   2.0000      -0.693018       -18.8580
  47   2.0000      -0.681161       -18.5353
  48   2.0000      -0.674374       -18.3507
  49   2.0000      -0.668547       -18.1921
  50   2.0000      -0.653588       -17.7850
  51   2.0000      -0.647754       -17.6263
  52   2.0000      -0.637092       -17.3362
  53   2.0000      -0.613502       -16.6942
  54   2.0000      -0.611015       -16.6266
  55   2.0000      -0.605582       -16.4787
  56   2.0000      -0.603052       -16.4099
  57   2.0000      -0.583253       -15.8711
  58   2.0000      -0.578160       -15.7325
  59   2.0000      -0.568883       -15.4801
  60   2.0000      -0.557646       -15.1743
  61   2.0000      -0.555462       -15.1149
  62   2.0000      -0.546092       -14.8599
  63   2.0000      -0.530526       -14.4363
  64   2.0000      -0.525090       -14.2884
  65   2.0000      -0.518295       -14.1035
  66   2.0000      -0.506485       -13.7822
  67   2.0000      -0.502061       -13.6618
  68   2.0000      -0.483490       -13.1564
  69   2.0000      -0.468735       -12.7549
  70   2.0000      -0.454326       -12.3628
  71   2.0000      -0.448087       -12.1931
  72   2.0000      -0.358559        -9.7569
  73   2.0000      -0.353324        -9.6144
  74   2.0000      -0.331248        -9.0137
  75   2.0000      -0.329207        -8.9582
  76   2.0000      -0.319904        -8.7050
  77   0.0000       0.080392         2.1876
  78   0.0000       0.098178         2.6716
  79   0.0000       0.118756         3.2315
  80   0.0000       0.126900         3.4531
  81   0.0000       0.129100         3.5130

MULLIKEN ATOMIC CHARGES
-----------------------
   0 C :   -0.271581
   1 C :    0.022650
   2 O :   -0.338005
   3 C :    0.391730
   4 O :   -0.367653
   5 C :   -0.220820
   6 C :    0.158910
   7 C :   -0.283005
   8 N :   -0.127258
   9 C :    0.202074
  10 S :   -0.436454
  11 N :   -0.209115
  12 C :    0.045798
  13 C :    0.013777
  14 C :   -0.158155
  15 C :   -0.152689
  16 C :   -0.268776
  17 C :    0.305231
  18 O :   -0.353395
  19 C :   -0.250361
  20 H :    0.082595
  21 H :    0.096310
  22 H :    0.110573
  23 H :    0.103364
  24 H :    0.122138
  25 H :    0.119811
  26 H :    0.143414
  27 H :    0.096901
  28 H :    0.197572
  29 H :    0.196625
  30 H :    0.159152
  31 H :    0.147548
  32 H :    0.165273
  33 H :    0.135390
  34 H :    0.241537
  35 H :    0.178895
Sum of atomic charges:    0.0000000

LOEWDIN ATOMIC CHARGES
----------------------
   0 C :    0.106734
   1 C :   -0.021308
   2 O :    0.299244
   3 C :   -0.422120
   4 O :    0.131441
   5 C :   -0.091671
   6 C :   -0.080053
   7 C :    0.130300
   8 N :    0.404765
   9 C :   -0.457442
  10 S :   -0.034194
  11 N :    0.396549
  12 C :   -0.051355
  13 C :   -0.044097
  14 C :    0.019230
  15 C :    0.043846
  16 C :    0.000080
  17 C :   -0.192317
  18 O :    0.397267
  19 C :    0.030081
  20 H :   -0.033337
  21 H :   -0.026015
  22 H :   -0.022695
  23 H :   -0.040553
  24 H :   -0.021518
  25 H :   -0.012431
  26 H :   -0.002937
  27 H :   -0.020917
  28 H :   -0.057674
  29 H :   -0.064149
  30 H :   -0.008030
  31 H :   -0.027521
  32 H :   -0.018699
  33 H :   -0.033793
  34 H :   -0.152348
  35 H :   -0.022360

  Mayer bond orders larger than 0.100000
B(  0-C ,  1-C ) :   0.9815 B(  0-C , 20-H ) :   0.9770 B(  0-C , 21-H ) :   0.9771
B(  0-C , 22-H ) :   0.9790 B(  1-C ,  2-O ) :   0.8801 B(  1-C , 23-H ) :   0.9564
B(  1-C , 24-H ) :   0.9786 B(  2-O ,  3-C ) :   1.1684 B(  3-C ,  4-O ) :   2.1156
B(  3-C ,  5-C ) :   0.9228 B(  5-C ,  6-C ) :   1.7023 B(  5-C , 12-C ) :   0.9573
B(  6-C ,  7-C ) :   0.9537 B(  6-C ,  8-N ) :   1.1290 B(  7-C , 25-H ) :   0.9740
B(  7-C , 26-H ) :   0.9576 B(  7-C , 27-H ) :   0.9843 B(  8-N ,  9-C ) :   1.1929
B(  8-N , 28-H ) :   0.9501 B(  9-C , 10-S ) :   1.6154 B(  9-C , 11-N ) :   1.2855
B( 11-N , 12-C ) :   0.9953 B( 11-N , 29-H ) :   0.9492 B( 12-C , 13-C ) :   0.9441
B( 12-C , 30-H ) :   1.0101 B( 13-C , 14-C ) :   1.3721 B( 13-C , 19-C ) :   1.3496
B( 14-C , 15-C ) :   1.3972 B( 14-C , 31-H ) :   0.9735 B( 15-C , 16-C ) :   1.3627
B( 15-C , 32-H ) :   0.9700 B( 16-C , 17-C ) :   1.3278 B( 16-C , 33-H ) :   0.9829
B( 17-C , 18-O ) :   1.1148 B( 17-C , 19-C ) :   1.3701 B( 18-O , 34-H ) :   0.9789
B( 19-C , 35-H ) :   0.9573

MP2 TOTAL ENERGY:    -1274.327386602 Eh
FINAL SINGLE POINT ENERGY     -1274.327386602401

DIPOLE MOMENT
-------------
                                X             Y             Z
Electronic contribution:     10.70443       7.04341       7.39181
Nuclear contribution   :    -12.00316      -8.64192      -7.09622
                        -----------------------------------------
Total Dipole Moment    :     -1.29872      -1.59851       0.29560
                        -----------------------------------------
Magnitude (a.u.)       :      2.08070
Magnitude (Debye)      :      5.28871

Rotational constants in cm-1:     0.011489     0.009616     0.006391
Rotational constants in MHz :   344.440858   288.265881   191.609993

                             ****ORCA TERMINATED NORMALLY****
TOTAL RUN TIME: 0 days 2 hours 29 minutes 12 seconds 121 msec
