                         Program Version 5.0.0 -  RELEASE  -
|  1> ! ri-mp2 cc-pvtz cc-pvtz/c TightSCF NoKeepInts
|  2>
|  3> %scf
|  4>   MaxCore 4096
|  5> end
|  6> *xyz  0  1
|  7>     C       14.9728596   14.8141139   16.4125652
|  8>     C       16.3413995   14.2197360   16.8089668
|  9>     O       17.4375115   14.9522945   16.2088799
| 10>     C       17.4074595   16.3123895   16.0678857
| 11>     O       16.9896286   16.7996298   15.0331631
| 12>     C       17.7052122   17.1090749   17.3110710
| 13>     C       17.3659337   18.4201042   17.4207742
| 14>     C       16.5354343   19.2407710   16.4575051
| 15>     N       17.8470246   19.1779839   18.4935756
| 16>     C       18.8631681   18.7799113   19.3223582
| 17>     S       19.5523424   19.8041625   20.4230374
| 18>     N       19.2952506   17.4860723   19.1723011
| 19>     C       18.5707073   16.4574658   18.4044949
| 20>     C       17.7883529   15.5960055   19.3880213
| 21>     C       18.2919668   14.3396746   19.7760933
| 22>     C       17.5818959   13.5331861   20.6812993
| 23>     C       16.3618635   13.9886154   21.2092522
| 24>     C       15.8640938   15.2444344   20.8365058
| 25>     O       14.6874894   15.6883888   21.3450775
| 26>     C       16.5714102   16.0445105   19.9340613
| 27>     H       14.8259298   15.8071545   16.8551492
| 28>     H       14.1608418   14.1674162   16.7663064
| 29>     H       14.8874190   14.9005223   15.3215440
| 30>     H       16.4110340   14.2020253   17.8976813
| 31>     H       16.3913382   13.1769097   16.4703424
| 32>     H       15.6125700   18.7107134   16.1900996
| 33>     H       17.0906256   19.4184525   15.5273066
| 34>     H       16.2456548   20.2156959   16.8665862
| 35>     H       17.5556729   20.1371416   18.5959051
| 36>     H       20.0347986   17.2134140   19.8067225
| 37>     H       19.3154165   15.8217907   17.9044539
| 38>     H       19.2361119   13.9845224   19.3710016
| 39>     H       17.9788179   12.5622753   20.9738584
| 40>     H       15.8108496   13.3696666   21.9100414
| 41>     H       14.3879548   15.0389228   21.9993878
| 42>     H       16.1709604   17.0168516   19.6707247
| 43> *
| 44>
| 45>                          ****END OF INPUT****

CARTESIAN COORDINATES (ANGSTROEM)
---------------------------------
  C     14.972860   14.814114   16.412565
  C     16.341400   14.219736   16.808967
  O     17.437511   14.952295   16.208880
  C     17.407460   16.312389   16.067886
  O     16.989629   16.799630   15.033163
  C     17.705212   17.109075   17.311071
  C     17.365934   18.420104   17.420774
  C     16.535434   19.240771   16.457505
  N     17.847025   19.177984   18.493576
  C     18.863168   18.779911   19.322358
  S     19.552342   19.804163   20.423037
  N     19.295251   17.486072   19.172301
  C     18.570707   16.457466   18.404495
  C     17.788353   15.596006   19.388021
  C     18.291967   14.339675   19.776093
  C     17.581896   13.533186   20.681299
  C     16.361863   13.988615   21.209252
  C     15.864094   15.244434   20.836506
  O     14.687489   15.688389   21.345077
  C     16.571410   16.044511   19.934061
  H     14.825930   15.807154   16.855149
  H     14.160842   14.167416   16.766306
  H     14.887419   14.900522   15.321544
  H     16.411034   14.202025   17.897681
  H     16.391338   13.176910   16.470342
  H     15.612570   18.710713   16.190100
  H     17.090626   19.418452   15.527307
  H     16.245655   20.215696   16.866586
  H     17.555673   20.137142   18.595905
  H     20.034799   17.213414   19.806722
  H     19.315416   15.821791   17.904454
  H     19.236112   13.984522   19.371002
  H     17.978818   12.562275   20.973858
  H     15.810850   13.369667   21.910041
  H     14.387955   15.038923   21.999388
  H     16.170960   17.016852   19.670725

 Total Charge           Charge          ....    0
 Multiplicity           Mult            ....    1
 Number of Electrons    NEL             ....  154
 Basis Dimension        Dim             ....  828

ORBITAL ENERGIES
----------------

  NO   OCC          E(Eh)            E(eV)
   0   2.0000     -91.891543     -2500.4960
   1   2.0000     -20.603845      -560.6591
   2   2.0000     -20.580476      -560.0232
   3   2.0000     -20.546828      -559.1076
   4   2.0000     -15.631979      -425.3678
   5   2.0000     -15.610355      -424.7794
   6   2.0000     -11.392631      -310.0092
   7   2.0000     -11.385934      -309.8270
   8   2.0000     -11.337850      -308.5186
   9   2.0000     -11.321857      -308.0834
  10   2.0000     -11.313805      -307.8643
  11   2.0000     -11.296297      -307.3879
  12   2.0000     -11.266346      -306.5729
  13   2.0000     -11.263234      -306.4882
  14   2.0000     -11.259632      -306.3902
  15   2.0000     -11.254242      -306.2435
  16   2.0000     -11.250523      -306.1423
  17   2.0000     -11.245084      -305.9943
  18   2.0000     -11.244781      -305.9861
  19   2.0000     -11.225536      -305.4624
  20   2.0000      -8.896544      -242.0873
  21   2.0000      -6.578104      -178.9993
  22   2.0000      -6.576117      -178.9452
  23   2.0000      -6.575517      -178.9289
  24   2.0000      -1.441734       -39.2316
  25   2.0000      -1.423468       -38.7345
  26   2.0000      -1.350012       -36.7357
  27   2.0000      -1.343269       -36.5522
  28   2.0000      -1.241701       -33.7884
  29   2.0000      -1.164285       -31.6818
  30   2.0000      -1.122073       -30.5332
  31   2.0000      -1.047918       -28.5153
  32   2.0000      -1.030204       -28.0333
  33   2.0000      -1.022709       -27.8293
  34   2.0000      -1.000371       -27.2215
  35   2.0000      -0.987023       -26.8583
  36   2.0000      -0.926877       -25.2216
  37   2.0000      -0.891825       -24.2678
  38   2.0000      -0.850445       -23.1418
  39   2.0000      -0.846127       -23.0243
  40   2.0000      -0.840367       -22.8676
  41   2.0000      -0.826125       -22.4800
  42   2.0000      -0.748703       -20.3732
  43   2.0000      -0.736860       -20.0510
  44   2.0000      -0.714877       -19.4528
  45   2.0000      -0.702611       -19.1190
  46   2.0000      -0.692602       -18.8467
  47   2.0000      -0.676419       -18.4063
  48   2.0000      -0.670251       -18.2385
  49   2.0000      -0.663897       -18.0656
  50   2.0000      -0.653881       -17.7930
  51   2.0000      -0.649755       -17.6807
  52   2.0000      -0.638472       -17.3737
  53   2.0000      -0.620769       -16.8920
  54   2.0000      -0.614496       -16.7213
  55   2.0000      -0.605518       -16.4770
  56   2.0000      -0.602295       -16.3893
  57   2.0000      -0.583732       -15.8841
  58   2.0000      -0.573841       -15.6150
  59   2.0000      -0.567261       -15.4360
  60   2.0000      -0.547476       -14.8976
  61   2.0000      -0.541657       -14.7392
  62   2.0000      -0.538325       -14.6486
  63   2.0000      -0.532404       -14.4874
  64   2.0000      -0.527118       -14.3436
  65   2.0000      -0.517838       -14.0911
  66   2.0000      -0.507647       -13.8138
  67   2.0000      -0.496218       -13.5028
  68   2.0000      -0.479649       -13.0519
  69   2.0000      -0.466272       -12.6879
  70   2.0000      -0.452306       -12.3079
  71   2.0000      -0.442083       -12.0297
  72   2.0000      -0.360261        -9.8032
  73   2.0000      -0.356143        -9.6912
  74   2.0000      -0.332611        -9.0508
  75   2.0000      -0.328100        -8.9281
  76   2.0000      -0.318166        -8.6577
  77   0.0000       0.069050         1.8790
  78   0.0000       0.101027         2.7491
  79   0.0000       0.120607         3.2819
  80   0.0000       0.126106         3.4315
  81   0.0000       0.130685         3.5561

MULLIKEN ATOMIC CHARGES
-----------------------
   0 C :   -0.298619
   1 C :    0.030835
   2 O :   -0.382532
   3 C :    0.478143
   4 O :   -0.393665
   5 C :   -0.260479
   6 C :    0.148173
   7 C :   -0.272110
   8 N :   -0.123884
   9 C :    0.215040
  10 S :   -0.435540
  11 N :   -0.199013
  12 C :    0.046287
  13 C :    0.051454
  14 C :   -0.199083
  15 C :   -0.127767
  16 C :   -0.276057
  17 C :    0.306519
  18 O :   -0.356165
  19 C :   -0.245461
  20 H :    0.087749
  21 H :    0.105733
  22 H :    0.120793
  23 H :    0.103145
  24 H :    0.116192
  25 H :    0.125684
  26 H :    0.139881
  27 H :    0.094247
  28 H :    0.199012
  29 H :    0.191081
  30 H :    0.151424
  31 H :    0.150586
  32 H :    0.163291
  33 H :    0.133789
  34 H :    0.242648
  35 H :    0.168672
Sum of atomic charges:    0.0000000

LOEWDIN ATOMIC CHARGES
----------------------
   0 C :    0.105486
   1 C :   -0.012216
   2 O :    0.277992
   3 C :   -0.422826
   4 O :    0.124525
   5 C :   -0.098913
   6 C :   -0.059547
   7 C :    0.130340
   8 N :    0.407617
   9 C :   -0.455090
  10 S :   -0.031297
  11 N :    0.396188
  12 C :   -0.052833
  13 C :   -0.039225
  14 C :    0.010911
  15 C :    0.043558
  16 C :   -0.000400
  17 C :   -0.189994
  18 O :    0.396844
  19 C :    0.030434
  20 H :   -0.032277
  21 H :   -0.024476
  22 H :   -0.021703
  23 H :   -0.038708
  24 H :   -0.022853
  25 H :   -0.007145
  26 H :   -0.002178
  27 H :   -0.022984
  28 H :   -0.057263
  29 H :   -0.066258
  30 H :   -0.005059
  31 H :   -0.029476
  32 H :   -0.018971
  33 H :   -0.033866
  34 H :   -0.152015
  35 H :   -0.026323

  Mayer bond orders larger than 0.100000
B(  0-C ,  1-C ) :   0.9720 B(  0-C , 20-H ) :   0.9739 B(  0-C , 21-H ) :   0.9756
B(  0-C , 22-H ) :   0.9726 B(  1-C ,  2-O ) :   0.8977 B(  1-C , 23-H ) :   0.9650
B(  1-C , 24-H ) :   0.9824 B(  2-O ,  3-C ) :   1.1027 B(  3-C ,  4-O ) :   2.0410
B(  3-C ,  5-C ) :   1.0363 B(  5-C ,  6-C ) :   1.6518 B(  5-C , 12-C ) :   0.9718
B(  6-C ,  7-C ) :   0.9740 B(  6-C ,  8-N ) :   1.1546 B(  7-C , 25-H ) :   0.9663
B(  7-C , 26-H ) :   0.9548 B(  7-C , 27-H ) :   0.9868 B(  8-N ,  9-C ) :   1.1786
B(  8-N , 28-H ) :   0.9486 B(  9-C , 10-S ) :   1.6140 B(  9-C , 11-N ) :   1.3005
B( 11-N , 12-C ) :   0.9612 B( 11-N , 29-H ) :   0.9548 B( 12-C , 13-C ) :   0.9541
B( 12-C , 30-H ) :   1.0000 B( 13-C , 14-C ) :   1.3507 B( 13-C , 19-C ) :   1.3682
B( 14-C , 15-C ) :   1.3920 B( 14-C , 31-H ) :   0.9737 B( 15-C , 16-C ) :   1.3666
B( 15-C , 32-H ) :   0.9700 B( 16-C , 17-C ) :   1.3274 B( 16-C , 33-H ) :   0.9837
B( 17-C , 18-O ) :   1.1166 B( 17-C , 19-C ) :   1.3762 B( 18-O , 34-H ) :   0.9785
B( 19-C , 35-H ) :   0.9555

MP2 TOTAL ENERGY:    -1274.329106516 Eh
FINAL SINGLE POINT ENERGY     -1274.329106516050

DIPOLE MOMENT
-------------
                                X             Y             Z
Electronic contribution:     10.41890       7.97403       5.90550
Nuclear contribution   :    -11.59343      -9.55465      -5.41839
                        -----------------------------------------
Total Dipole Moment    :     -1.17453      -1.58062       0.48710
                        -----------------------------------------
Magnitude (a.u.)       :      2.02858
Magnitude (Debye)      :      5.15625

Rotational constants in cm-1:     0.011529     0.009690     0.006656
Rotational constants in MHz :   345.625191   290.497969   199.553489

                             ****ORCA TERMINATED NORMALLY****
TOTAL RUN TIME: 0 days 2 hours 6 minutes 24 seconds 404 msec
