                         Program Version 5.0.0 -  RELEASE  -
|  1> ! ri-mp2 cc-pvtz cc-pvtz/c TightSCF NoKeepInts
|  2>
|  3> %scf
|  4>   MaxCore 4096
|  5> end
|  6> *xyz  0  1
|  7>     C       14.1638904   15.3252170   16.1974729
|  8>     C       15.4460018   15.4321020   17.0392047
|  9>     O       16.5622903   15.3469186   16.1301248
| 10>     C       17.8282691   15.7044480   16.5118500
| 11>     O       18.7538389   14.9283211   16.3616331
| 12>     C       17.9359504   16.8837472   17.4260250
| 13>     C       17.3339786   18.0711601   17.1770056
| 14>     C       16.5056349   18.4379487   15.9637916
| 15>     N       17.5116603   19.1389436   18.0598058
| 16>     C       18.3546551   19.1251673   19.1407460
| 17>     S       18.5579366   20.4565362   20.0999005
| 18>     N       19.0171144   17.9483502   19.3914466
| 19>     C       18.8121824   16.6819518   18.6607026
| 20>     C       18.1989827   15.6163681   19.5636482
| 21>     C       18.7343420   14.3158360   19.5909317
| 22>     C       18.1548568   13.3197205   20.3943184
| 23>     C       17.0268180   13.6244189   21.1749100
| 24>     C       16.4857813   14.9165905   21.1446941
| 25>     O       15.3871777   15.2108457   21.8841541
| 26>     C       17.0643455   15.9062693   20.3438858
| 27>     H       13.2761243   15.3681962   16.8401928
| 28>     H       14.1432809   14.3756029   15.6478298
| 29>     H       14.1045773   16.1451304   15.4713320
| 30>     H       15.4227201   16.3758383   17.5949834
| 31>     H       15.4935171   14.6102062   17.7666179
| 32>     H       16.7070145   17.7733930   15.1142744
| 33>     H       16.7282390   19.4565683   15.6216810
| 34>     H       15.4332162   18.3842699   16.1859134
| 35>     H       17.0431389   20.0147869   17.8878318
| 36>     H       19.6143781   17.9609422   20.2086635
| 37>     H       19.7960202   16.3253864   18.3212873
| 38>     H       19.5937091   14.0713305   18.9701253
| 39>     H       18.5762284   12.3158020   20.4022343
| 40>     H       16.5743397   12.8562979   21.7934945
| 41>     H       15.1762240   14.4276808   22.4151409
| 42>     H       16.6285653   16.8997073   20.3361459
| 43> *
| 44>
| 45>                          ****END OF INPUT****

CARTESIAN COORDINATES (ANGSTROEM)
---------------------------------
  C     14.163890   15.325217   16.197473
  C     15.446002   15.432102   17.039205
  O     16.562290   15.346919   16.130125
  C     17.828269   15.704448   16.511850
  O     18.753839   14.928321   16.361633
  C     17.935950   16.883747   17.426025
  C     17.333979   18.071160   17.177006
  C     16.505635   18.437949   15.963792
  N     17.511660   19.138944   18.059806
  C     18.354655   19.125167   19.140746
  S     18.557937   20.456536   20.099900
  N     19.017114   17.948350   19.391447
  C     18.812182   16.681952   18.660703
  C     18.198983   15.616368   19.563648
  C     18.734342   14.315836   19.590932
  C     18.154857   13.319720   20.394318
  C     17.026818   13.624419   21.174910
  C     16.485781   14.916590   21.144694
  O     15.387178   15.210846   21.884154
  C     17.064346   15.906269   20.343886
  H     13.276124   15.368196   16.840193
  H     14.143281   14.375603   15.647830
  H     14.104577   16.145130   15.471332
  H     15.422720   16.375838   17.594983
  H     15.493517   14.610206   17.766618
  H     16.707014   17.773393   15.114274
  H     16.728239   19.456568   15.621681
  H     15.433216   18.384270   16.185913
  H     17.043139   20.014787   17.887832
  H     19.614378   17.960942   20.208664
  H     19.796020   16.325386   18.321287
  H     19.593709   14.071331   18.970125
  H     18.576228   12.315802   20.402234
  H     16.574340   12.856298   21.793495
  H     15.176224   14.427681   22.415141
  H     16.628565   16.899707   20.336146

 Total Charge           Charge          ....    0
 Multiplicity           Mult            ....    1
 Number of Electrons    NEL             ....  154
 Basis Dimension        Dim             ....  828

ORBITAL ENERGIES
----------------

  NO   OCC          E(Eh)            E(eV)
   0   2.0000     -91.890845     -2500.4770
   1   2.0000     -20.599443      -560.5394
   2   2.0000     -20.595529      -560.4328
   3   2.0000     -20.552169      -559.2530
   4   2.0000     -15.629405      -425.2977
   5   2.0000     -15.611367      -424.8069
   6   2.0000     -11.395980      -310.1004
   7   2.0000     -11.387242      -309.8626
   8   2.0000     -11.333166      -308.3911
   9   2.0000     -11.315895      -307.9211
  10   2.0000     -11.312612      -307.8318
  11   2.0000     -11.303710      -307.5896
  12   2.0000     -11.267471      -306.6035
  13   2.0000     -11.263364      -306.4917
  14   2.0000     -11.261906      -306.4520
  15   2.0000     -11.255792      -306.2857
  16   2.0000     -11.245488      -306.0053
  17   2.0000     -11.241597      -305.8994
  18   2.0000     -11.238474      -305.8144
  19   2.0000     -11.235482      -305.7330
  20   2.0000      -8.895941      -242.0709
  21   2.0000      -6.577522      -178.9835
  22   2.0000      -6.575504      -178.9286
  23   2.0000      -6.574923      -178.9127
  24   2.0000      -1.448527       -39.4164
  25   2.0000      -1.419246       -38.6196
  26   2.0000      -1.359590       -36.9963
  27   2.0000      -1.341553       -36.5055
  28   2.0000      -1.240444       -33.7542
  29   2.0000      -1.160636       -31.5825
  30   2.0000      -1.125303       -30.6210
  31   2.0000      -1.048234       -28.5239
  32   2.0000      -1.040822       -28.3222
  33   2.0000      -1.017883       -27.6980
  34   2.0000      -1.004540       -27.3349
  35   2.0000      -0.989499       -26.9256
  36   2.0000      -0.927351       -25.2345
  37   2.0000      -0.881134       -23.9769
  38   2.0000      -0.854850       -23.2616
  39   2.0000      -0.842870       -22.9357
  40   2.0000      -0.836526       -22.7630
  41   2.0000      -0.835667       -22.7397
  42   2.0000      -0.758100       -20.6290
  43   2.0000      -0.739667       -20.1274
  44   2.0000      -0.731742       -19.9117
  45   2.0000      -0.697167       -18.9709
  46   2.0000      -0.687954       -18.7202
  47   2.0000      -0.683273       -18.5928
  48   2.0000      -0.676518       -18.4090
  49   2.0000      -0.662615       -18.0307
  50   2.0000      -0.652473       -17.7547
  51   2.0000      -0.644394       -17.5348
  52   2.0000      -0.641324       -17.4513
  53   2.0000      -0.614989       -16.7347
  54   2.0000      -0.607822       -16.5397
  55   2.0000      -0.606409       -16.5012
  56   2.0000      -0.603076       -16.4105
  57   2.0000      -0.585260       -15.9257
  58   2.0000      -0.577920       -15.7260
  59   2.0000      -0.567806       -15.4508
  60   2.0000      -0.561189       -15.2707
  61   2.0000      -0.556690       -15.1483
  62   2.0000      -0.541249       -14.7281
  63   2.0000      -0.531246       -14.4559
  64   2.0000      -0.524678       -14.2772
  65   2.0000      -0.516070       -14.0430
  66   2.0000      -0.502445       -13.6722
  67   2.0000      -0.498810       -13.5733
  68   2.0000      -0.489784       -13.3277
  69   2.0000      -0.469241       -12.7687
  70   2.0000      -0.460148       -12.5213
  71   2.0000      -0.450145       -12.2491
  72   2.0000      -0.357429        -9.7261
  73   2.0000      -0.351451        -9.5635
  74   2.0000      -0.330320        -8.9885
  75   2.0000      -0.323600        -8.8056
  76   2.0000      -0.318799        -8.6750
  77   0.0000       0.077218         2.1012
  78   0.0000       0.104287         2.8378
  79   0.0000       0.115707         3.1486
  80   0.0000       0.129262         3.5174
  81   0.0000       0.133614         3.6358

MULLIKEN ATOMIC CHARGES
-----------------------
   0 C :   -0.264339
   1 C :    0.008845
   2 O :   -0.332883
   3 C :    0.426756
   4 O :   -0.380882
   5 C :   -0.218168
   6 C :    0.144136
   7 C :   -0.317170
   8 N :   -0.132123
   9 C :    0.202071
  10 S :   -0.438622
  11 N :   -0.206718
  12 C :    0.060162
  13 C :    0.035619
  14 C :   -0.182875
  15 C :   -0.130787
  16 C :   -0.278691
  17 C :    0.314167
  18 O :   -0.358616
  19 C :   -0.284177
  20 H :    0.093514
  21 H :    0.109970
  22 H :    0.092000
  23 H :    0.096142
  24 H :    0.126307
  25 H :    0.137033
  26 H :    0.130150
  27 H :    0.119356
  28 H :    0.197326
  29 H :    0.196409
  30 H :    0.161493
  31 H :    0.164936
  32 H :    0.163110
  33 H :    0.132251
  34 H :    0.241857
  35 H :    0.172442
Sum of atomic charges:    0.0000000

LOEWDIN ATOMIC CHARGES
----------------------
   0 C :    0.109622
   1 C :   -0.020715
   2 O :    0.298757
   3 C :   -0.416741
   4 O :    0.128635
   5 C :   -0.088864
   6 C :   -0.092141
   7 C :    0.127466
   8 N :    0.402588
   9 C :   -0.456761
  10 S :   -0.035681
  11 N :    0.397156
  12 C :   -0.045563
  13 C :   -0.043917
  14 C :    0.022523
  15 C :    0.044509
  16 C :   -0.000836
  17 C :   -0.194894
  18 O :    0.393843
  19 C :    0.028057
  20 H :   -0.023861
  21 H :   -0.022782
  22 H :   -0.030518
  23 H :   -0.040425
  24 H :   -0.025623
  25 H :   -0.006822
  26 H :   -0.012641
  27 H :   -0.016266
  28 H :   -0.057642
  29 H :   -0.063566
  30 H :   -0.003076
  31 H :   -0.022308
  32 H :   -0.018840
  33 H :   -0.034735
  34 H :   -0.152995
  35 H :   -0.024944

  Mayer bond orders larger than 0.100000
B(  0-C ,  1-C ) :   0.9771 B(  0-C , 20-H ) :   0.9761 B(  0-C , 21-H ) :   0.9792
B(  0-C , 22-H ) :   0.9782 B(  1-C ,  2-O ) :   0.8967 B(  1-C , 23-H ) :   0.9652
B(  1-C , 24-H ) :   0.9757 B(  2-O ,  3-C ) :   1.1635 B(  3-C ,  4-O ) :   2.0983
B(  3-C ,  5-C ) :   0.9409 B(  5-C ,  6-C ) :   1.6748 B(  5-C , 12-C ) :   0.9612
B(  6-C ,  7-C ) :   0.9454 B(  6-C ,  8-N ) :   1.1251 B(  7-C , 25-H ) :   0.9744
B(  7-C , 26-H ) :   0.9793 B(  7-C , 27-H ) :   0.9632 B(  8-N ,  9-C ) :   1.1881
B(  8-N , 28-H ) :   0.9509 B(  9-C , 10-S ) :   1.6134 B(  9-C , 11-N ) :   1.2926
B( 11-N , 12-C ) :   1.0000 B( 11-N , 29-H ) :   0.9504 B( 12-C , 13-C ) :   0.9430
B( 12-C , 30-H ) :   0.9978 B( 13-C , 14-C ) :   1.3854 B( 13-C , 19-C ) :   1.3518
B( 14-C , 15-C ) :   1.3951 B( 14-C , 31-H ) :   0.9612 B( 15-C , 16-C ) :   1.3646
B( 15-C , 32-H ) :   0.9703 B( 16-C , 17-C ) :   1.3279 B( 16-C , 33-H ) :   0.9845
B( 17-C , 18-O ) :   1.1107 B( 17-C , 19-C ) :   1.3727 B( 18-O , 34-H ) :   0.9791
B( 19-C , 35-H ) :   0.9584

MP2 TOTAL ENERGY:    -1274.334120573 Eh
FINAL SINGLE POINT ENERGY     -1274.334120572703

DIPOLE MOMENT
-------------
                                X             Y             Z
Electronic contribution:     12.00821       6.48297       7.47257
Nuclear contribution   :    -13.49645      -7.48228      -7.72585
                        -----------------------------------------
Total Dipole Moment    :     -1.48824      -0.99931      -0.25328
                        -----------------------------------------
Magnitude (a.u.)       :      1.81042
Magnitude (Debye)      :      4.60173

Rotational constants in cm-1:     0.011206     0.009289     0.006809
Rotational constants in MHz :   335.936172   278.466002   204.114074

                             ****ORCA TERMINATED NORMALLY****
TOTAL RUN TIME: 0 days 2 hours 10 minutes 10 seconds 647 msec
