                         Program Version 5.0.0 -  RELEASE  -
|  1> ! ri-mp2 cc-pvtz cc-pvtz/c TightSCF NoKeepInts
|  2>
|  3> %scf
|  4>   MaxCore 4096
|  5> end
|  6> *xyz  0  1
|  7>     C       15.2634439   14.3700703   17.5366581
|  8>     C       16.0407201   14.5430852   16.2236466
|  9>     O       17.4295194   14.8318871   16.4943268
| 10>     C       17.8957535   16.0578337   16.1208204
| 11>     O       17.7662729   16.4088215   14.9608968
| 12>     C       17.8756910   17.0393401   17.2565937
| 13>     C       17.4419419   18.3172855   17.1149580
| 14>     C       16.7572480   18.9261857   15.9104047
| 15>     N       17.6584639   19.2434772   18.1396760
| 16>     C       18.5006035   19.0376915   19.2009398
| 17>     S       18.8694039   20.2415361   20.2731807
| 18>     N       19.0282403   17.7763370   19.3245558
| 19>     C       18.5779038   16.6016643   18.5529189
| 20>     C       17.7461854   15.6951198   19.4550344
| 21>     C       18.1238248   14.3529959   19.6510672
| 22>     C       17.3977440   13.5244818   20.5234259
| 23>     C       16.2846363   14.0414746   21.2078103
| 24>     C       15.9090757   15.3786948   21.0209776
| 25>     O       14.8340858   15.8805177   21.6789658
| 26>     C       16.6363771   16.2024122   20.1559947
| 27>     H       15.7531159   13.6360967   18.1866434
| 28>     H       14.2454788   14.0169756   17.3330425
| 29>     H       15.1854105   15.3247589   18.0671531
| 30>     H       15.9811308   13.6085289   15.6510507
| 31>     H       15.5727926   15.3318935   15.6182713
| 32>     H       17.4768788   19.0740377   15.0947836
| 33>     H       16.2923439   19.8944509   16.1298468
| 34>     H       15.9690495   18.2623710   15.5341793
| 35>     H       17.2940407   20.1786424   18.0508301
| 36>     H       19.6245223   17.6460340   20.1318637
| 37>     H       19.4775302   16.0426418   18.2595758
| 38>     H       18.9830537   13.9483298   19.1227095
| 39>     H       17.6975476   12.4875145   20.6651042
| 40>     H       15.7194109   13.4048787   21.8805759
| 41>     H       14.5019278   15.1861549   22.2676614
| 42>     H       16.3356308   17.2377787   20.0378568
| 43> *
| 44>
| 45>                          ****END OF INPUT****

CARTESIAN COORDINATES (ANGSTROEM)
---------------------------------
  C     15.263444   14.370070   17.536658
  C     16.040720   14.543085   16.223647
  O     17.429519   14.831887   16.494327
  C     17.895753   16.057834   16.120820
  O     17.766273   16.408821   14.960897
  C     17.875691   17.039340   17.256594
  C     17.441942   18.317285   17.114958
  C     16.757248   18.926186   15.910405
  N     17.658464   19.243477   18.139676
  C     18.500604   19.037692   19.200940
  S     18.869404   20.241536   20.273181
  N     19.028240   17.776337   19.324556
  C     18.577904   16.601664   18.552919
  C     17.746185   15.695120   19.455034
  C     18.123825   14.352996   19.651067
  C     17.397744   13.524482   20.523426
  C     16.284636   14.041475   21.207810
  C     15.909076   15.378695   21.020978
  O     14.834086   15.880518   21.678966
  C     16.636377   16.202412   20.155995
  H     15.753116   13.636097   18.186643
  H     14.245479   14.016976   17.333043
  H     15.185410   15.324759   18.067153
  H     15.981131   13.608529   15.651051
  H     15.572793   15.331893   15.618271
  H     17.476879   19.074038   15.094784
  H     16.292344   19.894451   16.129847
  H     15.969049   18.262371   15.534179
  H     17.294041   20.178642   18.050830
  H     19.624522   17.646034   20.131864
  H     19.477530   16.042642   18.259576
  H     18.983054   13.948330   19.122709
  H     17.697548   12.487514   20.665104
  H     15.719411   13.404879   21.880576
  H     14.501928   15.186155   22.267661
  H     16.335631   17.237779   20.037857

 Total Charge           Charge          ....    0
 Multiplicity           Mult            ....    1
 Number of Electrons    NEL             ....  154
 Basis Dimension        Dim             ....  828

ORBITAL ENERGIES
----------------

  NO   OCC          E(Eh)            E(eV)
   0   2.0000     -91.890303     -2500.4623
   1   2.0000     -20.598225      -560.5062
   2   2.0000     -20.581762      -560.0582
   3   2.0000     -20.556662      -559.3752
   4   2.0000     -15.629361      -425.2965
   5   2.0000     -15.609433      -424.7543
   6   2.0000     -11.394998      -310.0737
   7   2.0000     -11.384992      -309.8014
   8   2.0000     -11.334337      -308.4230
   9   2.0000     -11.315180      -307.9017
  10   2.0000     -11.313507      -307.8562
  11   2.0000     -11.297682      -307.4255
  12   2.0000     -11.261404      -306.4384
  13   2.0000     -11.261354      -306.4370
  14   2.0000     -11.256248      -306.2981
  15   2.0000     -11.255011      -306.2644
  16   2.0000     -11.244828      -305.9873
  17   2.0000     -11.239662      -305.8467
  18   2.0000     -11.239457      -305.8412
  19   2.0000     -11.219944      -305.3102
  20   2.0000      -8.895332      -242.0543
  21   2.0000      -6.576901      -178.9666
  22   2.0000      -6.574903      -178.9122
  23   2.0000      -6.574310      -178.8961
  24   2.0000      -1.452176       -39.5157
  25   2.0000      -1.417968       -38.5849
  26   2.0000      -1.353757       -36.8376
  27   2.0000      -1.341046       -36.4917
  28   2.0000      -1.239719       -33.7345
  29   2.0000      -1.158507       -31.5246
  30   2.0000      -1.121113       -30.5070
  31   2.0000      -1.044164       -28.4132
  32   2.0000      -1.033453       -28.1217
  33   2.0000      -1.016910       -27.6715
  34   2.0000      -0.999287       -27.1920
  35   2.0000      -0.985848       -26.8263
  36   2.0000      -0.924845       -25.1663
  37   2.0000      -0.885374       -24.0923
  38   2.0000      -0.847709       -23.0673
  39   2.0000      -0.840904       -22.8822
  40   2.0000      -0.835755       -22.7420
  41   2.0000      -0.821554       -22.3556
  42   2.0000      -0.759212       -20.6592
  43   2.0000      -0.733461       -19.9585
  44   2.0000      -0.724494       -19.7145
  45   2.0000      -0.697534       -18.9809
  46   2.0000      -0.690181       -18.7808
  47   2.0000      -0.681752       -18.5514
  48   2.0000      -0.672565       -18.3014
  49   2.0000      -0.665246       -18.1023
  50   2.0000      -0.649739       -17.6803
  51   2.0000      -0.646420       -17.5900
  52   2.0000      -0.636042       -17.3076
  53   2.0000      -0.608253       -16.5514
  54   2.0000      -0.602284       -16.3890
  55   2.0000      -0.600863       -16.3503
  56   2.0000      -0.587932       -15.9984
  57   2.0000      -0.580196       -15.7879
  58   2.0000      -0.575270       -15.6539
  59   2.0000      -0.571294       -15.5457
  60   2.0000      -0.564252       -15.3541
  61   2.0000      -0.549698       -14.9580
  62   2.0000      -0.539572       -14.6825
  63   2.0000      -0.525712       -14.3054
  64   2.0000      -0.515012       -14.0142
  65   2.0000      -0.512301       -13.9404
  66   2.0000      -0.504673       -13.7329
  67   2.0000      -0.502249       -13.6669
  68   2.0000      -0.479055       -13.0358
  69   2.0000      -0.464089       -12.6285
  70   2.0000      -0.452790       -12.3211
  71   2.0000      -0.448362       -12.2005
  72   2.0000      -0.357241        -9.7210
  73   2.0000      -0.348870        -9.4932
  74   2.0000      -0.329408        -8.9637
  75   2.0000      -0.323282        -8.7969
  76   2.0000      -0.317245        -8.6327
  77   0.0000       0.069467         1.8903
  78   0.0000       0.102282         2.7832
  79   0.0000       0.115525         3.1436
  80   0.0000       0.129952         3.5362
  81   0.0000       0.131213         3.5705

MULLIKEN ATOMIC CHARGES
-----------------------
   0 C :   -0.307696
   1 C :    0.044490
   2 O :   -0.372829
   3 C :    0.444179
   4 O :   -0.389178
   5 C :   -0.199165
   6 C :    0.145137
   7 C :   -0.275477
   8 N :   -0.122607
   9 C :    0.195798
  10 S :   -0.434401
  11 N :   -0.191487
  12 C :    0.019798
  13 C :    0.084481
  14 C :   -0.170212
  15 C :   -0.150745
  16 C :   -0.270532
  17 C :    0.324707
  18 O :   -0.358931
  19 C :   -0.293433
  20 H :    0.109711
  21 H :    0.113198
  22 H :    0.103687
  23 H :    0.109563
  24 H :    0.093915
  25 H :    0.139981
  26 H :    0.095678
  27 H :    0.120296
  28 H :    0.197817
  29 H :    0.191186
  30 H :    0.148072
  31 H :    0.144369
  32 H :    0.163943
  33 H :    0.132256
  34 H :    0.241050
  35 H :    0.173381
Sum of atomic charges:    0.0000000

LOEWDIN ATOMIC CHARGES
----------------------
   0 C :    0.105472
   1 C :   -0.012590
   2 O :    0.283253
   3 C :   -0.420149
   4 O :    0.133876
   5 C :   -0.094514
   6 C :   -0.069129
   7 C :    0.128515
   8 N :    0.405545
   9 C :   -0.458608
  10 S :   -0.032850
  11 N :    0.396735
  12 C :   -0.052388
  13 C :   -0.038185
  14 C :    0.016456
  15 C :    0.040661
  16 C :   -0.001160
  17 C :   -0.190363
  18 O :    0.396288
  19 C :    0.033391
  20 H :   -0.024872
  21 H :   -0.026651
  22 H :   -0.031793
  23 H :   -0.026388
  24 H :   -0.030358
  25 H :   -0.003780
  26 H :   -0.022390
  27 H :   -0.009448
  28 H :   -0.058118
  29 H :   -0.064989
  30 H :   -0.007759
  31 H :   -0.029723
  32 H :   -0.020837
  33 H :   -0.035231
  34 H :   -0.153428
  35 H :   -0.024491

  Mayer bond orders larger than 0.100000
B(  0-C ,  1-C ) :   0.9699 B(  0-C , 20-H ) :   0.9705 B(  0-C , 21-H ) :   0.9779
B(  0-C , 22-H ) :   0.9732 B(  1-C ,  2-O ) :   0.8838 B(  1-C , 23-H ) :   0.9881
B(  1-C , 24-H ) :   0.9745 B(  2-O ,  3-C ) :   1.1048 B(  3-C ,  4-O ) :   2.0371
B(  3-C ,  5-C ) :   1.0244 B(  5-C ,  6-C ) :   1.6772 B(  5-C , 12-C ) :   0.9733
B(  6-C ,  7-C ) :   0.9617 B(  6-C ,  8-N ) :   1.1311 B(  7-C , 25-H ) :   0.9576
B(  7-C , 26-H ) :   0.9867 B(  7-C , 27-H ) :   0.9707 B(  8-N ,  9-C ) :   1.1824
B(  8-N , 28-H ) :   0.9494 B(  9-C , 10-S ) :   1.6188 B(  9-C , 11-N ) :   1.2938
B( 11-N , 12-C ) :   0.9953 B( 11-N , 29-H ) :   0.9532 B( 12-C , 13-C ) :   0.9354
B( 12-C , 30-H ) :   1.0090 B( 13-C , 14-C ) :   1.3614 B( 13-C , 19-C ) :   1.3581
B( 14-C , 15-C ) :   1.3922 B( 14-C , 31-H ) :   0.9724 B( 15-C , 16-C ) :   1.3601
B( 15-C , 32-H ) :   0.9710 B( 16-C , 17-C ) :   1.3297 B( 16-C , 33-H ) :   0.9844
B( 17-C , 18-O ) :   1.1110 B( 17-C , 19-C ) :   1.3676 B( 18-O , 34-H ) :   0.9796
B( 19-C , 35-H ) :   0.9579

MP2 TOTAL ENERGY:    -1274.315831673 Eh
FINAL SINGLE POINT ENERGY     -1274.315831673320

DIPOLE MOMENT
-------------
                                X             Y             Z
Electronic contribution:      9.86387       9.09516       5.38013
Nuclear contribution   :    -11.00856     -10.68765      -5.48839
                        -----------------------------------------
Total Dipole Moment    :     -1.14469      -1.59249      -0.10826
                        -----------------------------------------
Magnitude (a.u.)       :      1.96419
Magnitude (Debye)      :      4.99259

Rotational constants in cm-1:     0.011784     0.009823     0.006506
Rotational constants in MHz :   353.274465   294.488457   195.052660

                             ****ORCA TERMINATED NORMALLY****
TOTAL RUN TIME: 0 days 1 hours 44 minutes 6 seconds 198 msec
