                         Program Version 5.0.0 -  RELEASE  -
|  1> ! ri-mp2 cc-pvtz cc-pvtz/c TightSCF NoKeepInts
|  2>
|  3> %scf
|  4>   MaxCore 4096
|  5> end
|  6> *xyz  0  1
|  7>     C       14.9591957   14.1711670   15.9032669
|  8>     C       16.3556734   13.9171857   16.5098859
|  9>     O       17.2126091   15.0820627   16.6413404
| 10>     C       16.8403837   16.3984916   16.5295096
| 11>     O       15.9939884   16.8016326   15.7517131
| 12>     C       17.5922497   17.2817341   17.4891438
| 13>     C       17.4525825   18.6324033   17.4998476
| 14>     C       16.5701793   19.4725040   16.6011100
| 15>     N       18.1944888   19.4081496   18.3955935
| 16>     C       19.1526246   18.9254942   19.2459092
| 17>     S       20.0414671   19.9238143   20.2202593
| 18>     N       19.3407372   17.5673694   19.2482284
| 19>     C       18.5260840   16.5932380   18.4998287
| 20>     C       17.7607334   15.7067371   19.4783572
| 21>     C       18.1340694   14.3619344   19.6616521
| 22>     C       17.4277691   13.5393127   20.5552806
| 23>     C       16.3414797   14.0663619   21.2743965
| 24>     C       15.9715701   15.4070253   21.0996379
| 25>     O       14.9249093   15.9194333   21.7944462
| 26>     C       16.6760743   16.2230644   20.2092610
| 27>     H       14.3842794   14.8791320   16.5134256
| 28>     H       14.3909894   13.2345821   15.8556150
| 29>     H       15.0392190   14.5649713   14.8821464
| 30>     H       16.2123405   13.4849633   17.5089144
| 31>     H       16.8753769   13.1623971   15.9060216
| 32>     H       15.5151665   19.2011995   16.7351627
| 33>     H       16.8198181   19.3016129   15.5461508
| 34>     H       16.6622640   20.5480894   16.7918154
| 35>     H       18.0708414   20.4079374   18.4071700
| 36>     H       20.0269923   17.2381579   19.9148795
| 37>     H       19.2202201   15.9604495   17.9290227
| 38>     H       18.9718752   13.9515851   19.1041874
| 39>     H       17.7236711   12.5003170   20.6901286
| 40>     H       15.7935461   13.4357015   21.9668381
| 41>     H       14.5931292   15.2220154   22.3795980
| 42>     H       16.3784022   17.2597728   20.0942561
| 43> *
| 44>
| 45>                          ****END OF INPUT****

CARTESIAN COORDINATES (ANGSTROEM)
---------------------------------
  C     14.959196   14.171167   15.903267
  C     16.355673   13.917186   16.509886
  O     17.212609   15.082063   16.641340
  C     16.840384   16.398492   16.529510
  O     15.993988   16.801633   15.751713
  C     17.592250   17.281734   17.489144
  C     17.452582   18.632403   17.499848
  C     16.570179   19.472504   16.601110
  N     18.194489   19.408150   18.395594
  C     19.152625   18.925494   19.245909
  S     20.041467   19.923814   20.220259
  N     19.340737   17.567369   19.248228
  C     18.526084   16.593238   18.499829
  C     17.760733   15.706737   19.478357
  C     18.134069   14.361934   19.661652
  C     17.427769   13.539313   20.555281
  C     16.341480   14.066362   21.274397
  C     15.971570   15.407025   21.099638
  O     14.924909   15.919433   21.794446
  C     16.676074   16.223064   20.209261
  H     14.384279   14.879132   16.513426
  H     14.390989   13.234582   15.855615
  H     15.039219   14.564971   14.882146
  H     16.212340   13.484963   17.508914
  H     16.875377   13.162397   15.906022
  H     15.515166   19.201200   16.735163
  H     16.819818   19.301613   15.546151
  H     16.662264   20.548089   16.791815
  H     18.070841   20.407937   18.407170
  H     20.026992   17.238158   19.914880
  H     19.220220   15.960449   17.929023
  H     18.971875   13.951585   19.104187
  H     17.723671   12.500317   20.690129
  H     15.793546   13.435702   21.966838
  H     14.593129   15.222015   22.379598
  H     16.378402   17.259773   20.094256

 Total Charge           Charge          ....    0
 Multiplicity           Mult            ....    1
 Number of Electrons    NEL             ....  154
 Basis Dimension        Dim             ....  828

ORBITAL ENERGIES
----------------

  NO   OCC          E(Eh)            E(eV)
   0   2.0000     -91.888287     -2500.4074
   1   2.0000     -20.598275      -560.5076
   2   2.0000     -20.593871      -560.3877
   3   2.0000     -20.540822      -558.9442
   4   2.0000     -15.628289      -425.2674
   5   2.0000     -15.607686      -424.7067
   6   2.0000     -11.396634      -310.1182
   7   2.0000     -11.383366      -309.7571
   8   2.0000     -11.335075      -308.4431
   9   2.0000     -11.315689      -307.9155
  10   2.0000     -11.308220      -307.7123
  11   2.0000     -11.301003      -307.5159
  12   2.0000     -11.261195      -306.4327
  13   2.0000     -11.257653      -306.3363
  14   2.0000     -11.257172      -306.3232
  15   2.0000     -11.251440      -306.1673
  16   2.0000     -11.244743      -305.9850
  17   2.0000     -11.239801      -305.8505
  18   2.0000     -11.239659      -305.8467
  19   2.0000     -11.222054      -305.3676
  20   2.0000      -8.893361      -242.0006
  21   2.0000      -6.574938      -178.9132
  22   2.0000      -6.572931      -178.8585
  23   2.0000      -6.572347      -178.8426
  24   2.0000      -1.441331       -39.2206
  25   2.0000      -1.417917       -38.5835
  26   2.0000      -1.352892       -36.8141
  27   2.0000      -1.339434       -36.4478
  28   2.0000      -1.238076       -33.6898
  29   2.0000      -1.158855       -31.5341
  30   2.0000      -1.119491       -30.4629
  31   2.0000      -1.043141       -28.3853
  32   2.0000      -1.034771       -28.1576
  33   2.0000      -1.016786       -27.6682
  34   2.0000      -0.995255       -27.0823
  35   2.0000      -0.983424       -26.7603
  36   2.0000      -0.922496       -25.1024
  37   2.0000      -0.896374       -24.3916
  38   2.0000      -0.847130       -23.0516
  39   2.0000      -0.838937       -22.8286
  40   2.0000      -0.835467       -22.7342
  41   2.0000      -0.818745       -22.2792
  42   2.0000      -0.744242       -20.2519
  43   2.0000      -0.731405       -19.9025
  44   2.0000      -0.717512       -19.5245
  45   2.0000      -0.696922       -18.9642
  46   2.0000      -0.687627       -18.7113
  47   2.0000      -0.674324       -18.3493
  48   2.0000      -0.668937       -18.2027
  49   2.0000      -0.662741       -18.0341
  50   2.0000      -0.651112       -17.7177
  51   2.0000      -0.644393       -17.5348
  52   2.0000      -0.635975       -17.3058
  53   2.0000      -0.608608       -16.5611
  54   2.0000      -0.605695       -16.4818
  55   2.0000      -0.601225       -16.3602
  56   2.0000      -0.598923       -16.2975
  57   2.0000      -0.578555       -15.7433
  58   2.0000      -0.571599       -15.5540
  59   2.0000      -0.569991       -15.5102
  60   2.0000      -0.560453       -15.2507
  61   2.0000      -0.539121       -14.6702
  62   2.0000      -0.534704       -14.5500
  63   2.0000      -0.526232       -14.3195
  64   2.0000      -0.523174       -14.2363
  65   2.0000      -0.513121       -13.9627
  66   2.0000      -0.501387       -13.6434
  67   2.0000      -0.496597       -13.5131
  68   2.0000      -0.486450       -13.2370
  69   2.0000      -0.462937       -12.5972
  70   2.0000      -0.450785       -12.2665
  71   2.0000      -0.440371       -11.9831
  72   2.0000      -0.353282        -9.6133
  73   2.0000      -0.350749        -9.5444
  74   2.0000      -0.328037        -8.9263
  75   2.0000      -0.323131        -8.7929
  76   2.0000      -0.315847        -8.5946
  77   0.0000       0.076389         2.0787
  78   0.0000       0.104404         2.8410
  79   0.0000       0.124671         3.3925
  80   0.0000       0.132291         3.5998
  81   0.0000       0.137940         3.7535

MULLIKEN ATOMIC CHARGES
-----------------------
   0 C :   -0.289220
   1 C :    0.046449
   2 O :   -0.373957
   3 C :    0.456200
   4 O :   -0.422232
   5 C :   -0.225922
   6 C :    0.157797
   7 C :   -0.270165
   8 N :   -0.122420
   9 C :    0.213847
  10 S :   -0.441957
  11 N :   -0.207816
  12 C :    0.071901
  13 C :    0.066823
  14 C :   -0.207081
  15 C :   -0.125829
  16 C :   -0.281271
  17 C :    0.316665
  18 O :   -0.355950
  19 C :   -0.269163
  20 H :    0.103288
  21 H :    0.096814
  22 H :    0.115911
  23 H :    0.097627
  24 H :    0.097417
  25 H :    0.130445
  26 H :    0.131643
  27 H :    0.094959
  28 H :    0.197135
  29 H :    0.195353
  30 H :    0.148984
  31 H :    0.152331
  32 H :    0.162785
  33 H :    0.131265
  34 H :    0.240988
  35 H :    0.166355
Sum of atomic charges:    0.0000000

LOEWDIN ATOMIC CHARGES
----------------------
   0 C :    0.102967
   1 C :   -0.010112
   2 O :    0.292806
   3 C :   -0.413359
   4 O :    0.109487
   5 C :   -0.095298
   6 C :   -0.059297
   7 C :    0.130898
   8 N :    0.406503
   9 C :   -0.456068
  10 S :   -0.036787
  11 N :    0.396234
  12 C :   -0.052545
  13 C :   -0.037531
  14 C :    0.014442
  15 C :    0.038647
  16 C :   -0.002780
  17 C :   -0.189497
  18 O :    0.395616
  19 C :    0.030768
  20 H :   -0.026648
  21 H :   -0.027508
  22 H :   -0.024403
  23 H :   -0.029336
  24 H :   -0.027163
  25 H :   -0.005173
  26 H :   -0.003925
  27 H :   -0.023640
  28 H :   -0.057717
  29 H :   -0.064839
  30 H :   -0.011216
  31 H :   -0.029801
  32 H :   -0.021089
  33 H :   -0.035403
  34 H :   -0.153604
  35 H :   -0.023630

  Mayer bond orders larger than 0.100000
B(  0-C ,  1-C ) :   0.9815 B(  0-C , 20-H ) :   0.9748 B(  0-C , 21-H ) :   0.9729
B(  0-C , 22-H ) :   0.9732 B(  1-C ,  2-O ) :   0.8954 B(  1-C , 23-H ) :   0.9706
B(  1-C , 24-H ) :   0.9802 B(  2-O ,  3-C ) :   1.1331 B(  3-C ,  4-O ) :   1.9933
B(  3-C ,  5-C ) :   1.0569 B(  5-C ,  6-C ) :   1.6522 B(  5-C , 12-C ) :   0.9737
B(  6-C ,  7-C ) :   0.9661 B(  6-C ,  8-N ) :   1.1604 B(  7-C , 25-H ) :   0.9603
B(  7-C , 26-H ) :   0.9602 B(  7-C , 27-H ) :   0.9909 B(  8-N ,  9-C ) :   1.1850
B(  8-N , 28-H ) :   0.9478 B(  9-C , 10-S ) :   1.6040 B(  9-C , 11-N ) :   1.3074
B( 11-N , 12-C ) :   0.9816 B( 11-N , 29-H ) :   0.9514 B( 12-C , 13-C ) :   0.9360
B( 12-C , 30-H ) :   1.0019 B( 13-C , 14-C ) :   1.3481 B( 13-C , 19-C ) :   1.3826
B( 14-C , 15-C ) :   1.3881 B( 14-C , 31-H ) :   0.9731 B( 15-C , 16-C ) :   1.3617
B( 15-C , 32-H ) :   0.9702 B( 16-C , 17-C ) :   1.3307 B( 16-C , 33-H ) :   0.9848
B( 17-C , 18-O ) :   1.1110 B( 17-C , 19-C ) :   1.3691 B( 18-O , 34-H ) :   0.9795
B( 19-C , 35-H ) :   0.9582

MP2 TOTAL ENERGY:    -1274.337805106 Eh
FINAL SINGLE POINT ENERGY     -1274.337805106436

DIPOLE MOMENT
-------------
                                X             Y             Z
Electronic contribution:     10.11968      10.07593       8.12411
Nuclear contribution   :    -11.11753     -11.87243      -8.36638
                        -----------------------------------------
Total Dipole Moment    :     -0.99785      -1.79650      -0.24227
                        -----------------------------------------
Magnitude (a.u.)       :      2.06925
Magnitude (Debye)      :      5.25963

Rotational constants in cm-1:     0.012024     0.008655     0.006206
Rotational constants in MHz :   360.462511   259.474326   186.066138

                             ****ORCA TERMINATED NORMALLY****
TOTAL RUN TIME: 0 days 2 hours 3 minutes 32 seconds 424 msec
