                         Program Version 5.0.0 -  RELEASE  -
|  1> ! ri-mp2 cc-pvtz cc-pvtz/c TightSCF NoKeepInts
|  2>
|  3> %scf
|  4>   MaxCore 4096
|  5> end
|  6> *xyz  0  1
|  7>     C       14.8888935   14.5983354   17.3935074
|  8>     C       15.5660005   15.5527796   16.3964192
|  9>     O       16.9035136   15.0595133   16.1814879
| 10>     C       18.0832411   15.7087865   16.4576690
| 11>     O       19.1217649   15.0794220   16.3772176
| 12>     C       18.0055861   16.8885063   17.3707682
| 13>     C       17.5282637   18.0867244   16.9606628
| 14>     C       16.9959229   18.4319380   15.5854651
| 15>     N       17.5790660   19.1880183   17.8176055
| 16>     C       18.2161078   19.1999737   19.0312265
| 17>     S       18.3012619   20.5699880   19.9530450
| 18>     N       18.7808906   18.0175025   19.4428250
| 19>     C       18.6493074   16.7209362   18.7472487
| 20>     C       17.8834992   15.7063124   19.5913097
| 21>     C       18.2848215   14.3577997   19.6009310
| 22>     C       17.5892203   13.4079340   20.3672096
| 23>     C       16.4805004   13.8082585   21.1319589
| 24>     C       16.0724672   15.1487988   21.1206351
| 25>     O       14.9931915   15.5356338   21.8458533
| 26>     C       16.7643277   16.0921053   20.3538264
| 27>     H       15.4460246   14.5597942   18.3357226
| 28>     H       14.8440712   13.5816631   16.9834699
| 29>     H       13.8657967   14.9269080   17.6123657
| 30>     H       15.0116405   15.5501788   15.4490075
| 31>     H       15.5335324   16.5627341   16.8126668
| 32>     H       17.1260303   17.6130630   14.8674287
| 33>     H       17.5260087   19.2992296   15.1709441
| 34>     H       15.9277150   18.6783652   15.6243990
| 35>     H       17.1891804   20.0704253   17.5251819
| 36>     H       19.2311262   18.0518919   20.3488065
| 37>     H       19.6644834   16.3265365   18.5910344
| 38>     H       19.1350833   14.0424671   18.9993146
| 39>     H       17.9089569   12.3672181   20.3617771
| 40>     H       15.9398276   13.0770566   21.7237731
| 41>     H       14.6849723   14.7627637   22.3428559
| 42>     H       16.4247028   17.1224381   20.3583803
| 43> *
| 44>
| 45>                          ****END OF INPUT****

CARTESIAN COORDINATES (ANGSTROEM)
---------------------------------
  C     14.888894   14.598335   17.393507
  C     15.566000   15.552780   16.396419
  O     16.903514   15.059513   16.181488
  C     18.083241   15.708787   16.457669
  O     19.121765   15.079422   16.377218
  C     18.005586   16.888506   17.370768
  C     17.528264   18.086724   16.960663
  C     16.995923   18.431938   15.585465
  N     17.579066   19.188018   17.817605
  C     18.216108   19.199974   19.031226
  S     18.301262   20.569988   19.953045
  N     18.780891   18.017502   19.442825
  C     18.649307   16.720936   18.747249
  C     17.883499   15.706312   19.591310
  C     18.284821   14.357800   19.600931
  C     17.589220   13.407934   20.367210
  C     16.480500   13.808258   21.131959
  C     16.072467   15.148799   21.120635
  O     14.993192   15.535634   21.845853
  C     16.764328   16.092105   20.353826
  H     15.446025   14.559794   18.335723
  H     14.844071   13.581663   16.983470
  H     13.865797   14.926908   17.612366
  H     15.011640   15.550179   15.449007
  H     15.533532   16.562734   16.812667
  H     17.126030   17.613063   14.867429
  H     17.526009   19.299230   15.170944
  H     15.927715   18.678365   15.624399
  H     17.189180   20.070425   17.525182
  H     19.231126   18.051892   20.348806
  H     19.664483   16.326536   18.591034
  H     19.135083   14.042467   18.999315
  H     17.908957   12.367218   20.361777
  H     15.939828   13.077057   21.723773
  H     14.684972   14.762764   22.342856
  H     16.424703   17.122438   20.358380

 Total Charge           Charge          ....    0
 Multiplicity           Mult            ....    1
 Number of Electrons    NEL             ....  154
 Basis Dimension        Dim             ....  828

ORBITAL ENERGIES
----------------

  NO   OCC          E(Eh)            E(eV)
   0   2.0000     -91.890245     -2500.4607
   1   2.0000     -20.602524      -560.6232
   2   2.0000     -20.599129      -560.5308
   3   2.0000     -20.549754      -559.1872
   4   2.0000     -15.627244      -425.2389
   5   2.0000     -15.611777      -424.8181
   6   2.0000     -11.399320      -310.1913
   7   2.0000     -11.386964      -309.8550
   8   2.0000     -11.329750      -308.2982
   9   2.0000     -11.316193      -307.9293
  10   2.0000     -11.315396      -307.9076
  11   2.0000     -11.304500      -307.6111
  12   2.0000     -11.271530      -306.7139
  13   2.0000     -11.266727      -306.5832
  14   2.0000     -11.263687      -306.5005
  15   2.0000     -11.256580      -306.3071
  16   2.0000     -11.245465      -306.0047
  17   2.0000     -11.241589      -305.8992
  18   2.0000     -11.238558      -305.8167
  19   2.0000     -11.225907      -305.4725
  20   2.0000      -8.895355      -242.0549
  21   2.0000      -6.576944      -178.9677
  22   2.0000      -6.574917      -178.9126
  23   2.0000      -6.574342      -178.8969
  24   2.0000      -1.448575       -39.4177
  25   2.0000      -1.418932       -38.6111
  26   2.0000      -1.359168       -36.9849
  27   2.0000      -1.340770       -36.4842
  28   2.0000      -1.240331       -33.7511
  29   2.0000      -1.160929       -31.5905
  30   2.0000      -1.126252       -30.6469
  31   2.0000      -1.049225       -28.5509
  32   2.0000      -1.038459       -28.2579
  33   2.0000      -1.018721       -27.7208
  34   2.0000      -1.005765       -27.3683
  35   2.0000      -0.989892       -26.9363
  36   2.0000      -0.928272       -25.2596
  37   2.0000      -0.885230       -24.0883
  38   2.0000      -0.855255       -23.2727
  39   2.0000      -0.841864       -22.9083
  40   2.0000      -0.836385       -22.7592
  41   2.0000      -0.834841       -22.7172
  42   2.0000      -0.756065       -20.5736
  43   2.0000      -0.740452       -20.1487
  44   2.0000      -0.731183       -19.8965
  45   2.0000      -0.697252       -18.9732
  46   2.0000      -0.689217       -18.7545
  47   2.0000      -0.682445       -18.5703
  48   2.0000      -0.676520       -18.4090
  49   2.0000      -0.662471       -18.0267
  50   2.0000      -0.654520       -17.8104
  51   2.0000      -0.642466       -17.4824
  52   2.0000      -0.639205       -17.3937
  53   2.0000      -0.615628       -16.7521
  54   2.0000      -0.610217       -16.6048
  55   2.0000      -0.607385       -16.5278
  56   2.0000      -0.602367       -16.3912
  57   2.0000      -0.587442       -15.9851
  58   2.0000      -0.578156       -15.7324
  59   2.0000      -0.568410       -15.4672
  60   2.0000      -0.562266       -15.3000
  61   2.0000      -0.556496       -15.1430
  62   2.0000      -0.542989       -14.7755
  63   2.0000      -0.532719       -14.4960
  64   2.0000      -0.519086       -14.1251
  65   2.0000      -0.513460       -13.9720
  66   2.0000      -0.503808       -13.7093
  67   2.0000      -0.501919       -13.6579
  68   2.0000      -0.485696       -13.2165
  69   2.0000      -0.470358       -12.7991
  70   2.0000      -0.452625       -12.3166
  71   2.0000      -0.449359       -12.2277
  72   2.0000      -0.358059        -9.7433
  73   2.0000      -0.351709        -9.5705
  74   2.0000      -0.329896        -8.9769
  75   2.0000      -0.324341        -8.8258
  76   2.0000      -0.318814        -8.6754
  77   0.0000       0.086650         2.3579
  78   0.0000       0.105520         2.8713
  79   0.0000       0.109802         2.9879
  80   0.0000       0.128839         3.5059
  81   0.0000       0.131161         3.5691

MULLIKEN ATOMIC CHARGES
-----------------------
   0 C :   -0.262764
   1 C :    0.017217
   2 O :   -0.311317
   3 C :    0.396108
   4 O :   -0.382747
   5 C :   -0.171245
   6 C :    0.123631
   7 C :   -0.321951
   8 N :   -0.136139
   9 C :    0.203769
  10 S :   -0.440607
  11 N :   -0.219762
  12 C :    0.065164
  13 C :    0.008915
  14 C :   -0.195684
  15 C :   -0.135280
  16 C :   -0.270233
  17 C :    0.303548
  18 O :   -0.359794
  19 C :   -0.246750
  20 H :    0.109881
  21 H :    0.104748
  22 H :    0.088977
  23 H :    0.111174
  24 H :    0.089137
  25 H :    0.122762
  26 H :    0.139594
  27 H :    0.121825
  28 H :    0.196185
  29 H :    0.200448
  30 H :    0.167697
  31 H :    0.170968
  32 H :    0.163362
  33 H :    0.132100
  34 H :    0.241288
  35 H :    0.175774
Sum of atomic charges:   -0.0000000

LOEWDIN ATOMIC CHARGES
----------------------
   0 C :    0.110186
   1 C :   -0.022186
   2 O :    0.313777
   3 C :   -0.418045
   4 O :    0.123470
   5 C :   -0.080474
   6 C :   -0.106677
   7 C :    0.124093
   8 N :    0.401181
   9 C :   -0.456675
  10 S :   -0.037717
  11 N :    0.397874
  12 C :   -0.043079
  13 C :   -0.043380
  14 C :    0.021790
  15 C :    0.045347
  16 C :   -0.001214
  17 C :   -0.193647
  18 O :    0.395847
  19 C :    0.025637
  20 H :   -0.024106
  21 H :   -0.025383
  22 H :   -0.026905
  23 H :   -0.029667
  24 H :   -0.040309
  25 H :   -0.008527
  26 H :   -0.009146
  27 H :   -0.016722
  28 H :   -0.057940
  29 H :   -0.063488
  30 H :   -0.001740
  31 H :   -0.021500
  32 H :   -0.018333
  33 H :   -0.034823
  34 H :   -0.153078
  35 H :   -0.024444

  Mayer bond orders larger than 0.100000
B(  0-C ,  1-C ) :   0.9780 B(  0-C , 20-H ) :   0.9697 B(  0-C , 21-H ) :   0.9817
B(  0-C , 22-H ) :   0.9753 B(  1-C ,  2-O ) :   0.9134 B(  1-C , 23-H ) :   0.9807
B(  1-C , 24-H ) :   0.9616 B(  2-O ,  3-C ) :   1.1708 B(  3-C ,  4-O ) :   2.0857
B(  3-C ,  5-C ) :   0.9224 B(  5-C ,  6-C ) :   1.6945 B(  5-C , 12-C ) :   0.9581
B(  6-C ,  7-C ) :   0.9476 B(  6-C ,  8-N ) :   1.1088 B(  7-C , 25-H ) :   0.9804
B(  7-C , 26-H ) :   0.9703 B(  7-C , 27-H ) :   0.9660 B(  8-N ,  9-C ) :   1.1956
B(  8-N , 28-H ) :   0.9522 B(  9-C , 10-S ) :   1.6104 B(  9-C , 11-N ) :   1.2877
B( 11-N , 12-C ) :   0.9908 B( 11-N , 29-H ) :   0.9482 B( 12-C , 13-C ) :   0.9473
B( 12-C , 30-H ) :   0.9957 B( 13-C , 14-C ) :   1.3901 B( 13-C , 19-C ) :   1.3533
B( 14-C , 15-C ) :   1.3973 B( 14-C , 31-H ) :   0.9600 B( 15-C , 16-C ) :   1.3587
B( 15-C , 32-H ) :   0.9708 B( 16-C , 17-C ) :   1.3327 B( 16-C , 33-H ) :   0.9852
B( 17-C , 18-O ) :   1.1097 B( 17-C , 19-C ) :   1.3686 B( 18-O , 34-H ) :   0.9793
B( 19-C , 35-H ) :   0.9561

MP2 TOTAL ENERGY:    -1274.330697141 Eh
FINAL SINGLE POINT ENERGY     -1274.330697141070

DIPOLE MOMENT
-------------
                                X             Y             Z
Electronic contribution:      9.97894       7.84474       6.18103
Nuclear contribution   :    -11.54140      -8.80569      -6.76082
                        -----------------------------------------
Total Dipole Moment    :     -1.56246      -0.96095      -0.57980
                        -----------------------------------------
Magnitude (a.u.)       :      1.92376
Magnitude (Debye)      :      4.88982

Rotational constants in cm-1:     0.012106     0.009301     0.006776
Rotational constants in MHz :   362.919113   278.841516   203.138988

                             ****ORCA TERMINATED NORMALLY****
TOTAL RUN TIME: 0 days 1 hours 51 minutes 23 seconds 575 msec
