                         Program Version 5.0.0 -  RELEASE  -
|  1> ! ri-mp2 cc-pvtz cc-pvtz/c TightSCF NoKeepInts
|  2>
|  3> %scf
|  4>   MaxCore 4096
|  5> end
|  6> *xyz  0  1
|  7>     C       15.3617211   14.6843492   17.2526215
|  8>     C       15.5078248   15.3297079   15.8577191
|  9>     O       16.8752263   15.6591507   15.5106222
| 10>     C       17.8919402   15.6943861   16.4232614
| 11>     O       18.6091508   14.7223180   16.5799002
| 12>     C       17.9066657   16.8655731   17.3657630
| 13>     C       17.3800330   18.0870627   17.0894939
| 14>     C       16.7089054   18.5540163   15.8138034
| 15>     N       17.5297353   19.1307668   18.0083692
| 16>     C       18.3504317   19.0956212   19.1045259
| 17>     S       18.5894234   20.4259133   20.0572283
| 18>     N       18.9623979   17.8970563   19.3698370
| 19>     C       18.6542925   16.6268707   18.6852620
| 20>     C       17.8816158   15.6877082   19.6096908
| 21>     C       18.2405499   14.3299950   19.7002182
| 22>     C       17.5297697   13.4531598   20.5363680
| 23>     C       16.4493923   13.9366651   21.2931600
| 24>     C       16.0880249   15.2877153   21.2083327
| 25>     O       15.0393033   15.7561158   21.9304539
| 26>     C       16.7969504   16.1582906   20.3744882
| 27>     H       16.0528434   13.8405453   17.3784631
| 28>     H       14.3424220   14.3030429   17.3875944
| 29>     H       15.5440040   15.4157907   18.0460835
| 30>     H       15.1174538   14.6344156   15.1031373
| 31>     H       14.8837295   16.2300235   15.8194994
| 32>     H       17.1465202   18.0756158   14.9290410
| 33>     H       16.8253658   19.6346218   15.6631571
| 34>     H       15.6352515   18.3385636   15.8295945
| 35>     H       17.0944149   20.0211821   17.8264748
| 36>     H       19.5460747   17.8892381   20.1966458
| 37>     H       19.6133031   16.1459054   18.4425384
| 38>     H       19.0672010   13.9484643   19.1048094
| 39>     H       17.8155751   12.4040925   20.5904641
| 40>     H       15.8963220   13.2621681   21.9383565
| 41>     H       14.7174085   15.0267571   22.4814012
| 42>     H       16.4957561   17.1991312   20.3256206
| 43> *
| 44>
| 45>                          ****END OF INPUT****

CARTESIAN COORDINATES (ANGSTROEM)
---------------------------------
  C     15.361721   14.684349   17.252621
  C     15.507825   15.329708   15.857719
  O     16.875226   15.659151   15.510622
  C     17.891940   15.694386   16.423261
  O     18.609151   14.722318   16.579900
  C     17.906666   16.865573   17.365763
  C     17.380033   18.087063   17.089494
  C     16.708905   18.554016   15.813803
  N     17.529735   19.130767   18.008369
  C     18.350432   19.095621   19.104526
  S     18.589423   20.425913   20.057228
  N     18.962398   17.897056   19.369837
  C     18.654293   16.626871   18.685262
  C     17.881616   15.687708   19.609691
  C     18.240550   14.329995   19.700218
  C     17.529770   13.453160   20.536368
  C     16.449392   13.936665   21.293160
  C     16.088025   15.287715   21.208333
  O     15.039303   15.756116   21.930454
  C     16.796950   16.158291   20.374488
  H     16.052843   13.840545   17.378463
  H     14.342422   14.303043   17.387594
  H     15.544004   15.415791   18.046084
  H     15.117454   14.634416   15.103137
  H     14.883729   16.230024   15.819499
  H     17.146520   18.075616   14.929041
  H     16.825366   19.634622   15.663157
  H     15.635252   18.338564   15.829595
  H     17.094415   20.021182   17.826475
  H     19.546075   17.889238   20.196646
  H     19.613303   16.145905   18.442538
  H     19.067201   13.948464   19.104809
  H     17.815575   12.404093   20.590464
  H     15.896322   13.262168   21.938357
  H     14.717408   15.026757   22.481401
  H     16.495756   17.199131   20.325621

 Total Charge           Charge          ....    0
 Multiplicity           Mult            ....    1
 Number of Electrons    NEL             ....  154
 Basis Dimension        Dim             ....  828

ORBITAL ENERGIES
----------------

  NO   OCC          E(Eh)            E(eV)
   0   2.0000     -91.890981     -2500.4807
   1   2.0000     -20.596044      -560.4468
   2   2.0000     -20.584619      -560.1359
   3   2.0000     -20.552775      -559.2695
   4   2.0000     -15.631070      -425.3430
   5   2.0000     -15.609437      -424.7544
   6   2.0000     -11.396725      -310.1207
   7   2.0000     -11.386000      -309.8288
   8   2.0000     -11.339460      -308.5624
   9   2.0000     -11.312403      -307.8261
  10   2.0000     -11.309197      -307.7389
  11   2.0000     -11.308203      -307.7119
  12   2.0000     -11.264469      -306.5218
  13   2.0000     -11.263730      -306.5017
  14   2.0000     -11.258436      -306.3576
  15   2.0000     -11.252381      -306.1929
  16   2.0000     -11.241982      -305.9099
  17   2.0000     -11.237688      -305.7930
  18   2.0000     -11.233764      -305.6863
  19   2.0000     -11.228074      -305.5314
  20   2.0000      -8.896039      -242.0735
  21   2.0000      -6.577614      -178.9860
  22   2.0000      -6.575606      -178.9313
  23   2.0000      -6.575017      -178.9153
  24   2.0000      -1.445763       -39.3412
  25   2.0000      -1.415867       -38.5277
  26   2.0000      -1.355655       -36.8893
  27   2.0000      -1.342661       -36.5357
  28   2.0000      -1.240145       -33.7461
  29   2.0000      -1.156392       -31.4670
  30   2.0000      -1.122245       -30.5378
  31   2.0000      -1.044637       -28.4260
  32   2.0000      -1.034114       -28.1397
  33   2.0000      -1.014652       -27.6101
  34   2.0000      -1.003030       -27.2938
  35   2.0000      -0.987900       -26.8821
  36   2.0000      -0.925796       -25.1922
  37   2.0000      -0.897056       -24.4101
  38   2.0000      -0.852656       -23.2020
  39   2.0000      -0.840362       -22.8674
  40   2.0000      -0.832444       -22.6519
  41   2.0000      -0.823405       -22.4060
  42   2.0000      -0.744105       -20.2481
  43   2.0000      -0.729177       -19.8419
  44   2.0000      -0.729035       -19.8380
  45   2.0000      -0.693813       -18.8796
  46   2.0000      -0.687182       -18.6992
  47   2.0000      -0.679822       -18.4989
  48   2.0000      -0.674800       -18.3622
  49   2.0000      -0.663256       -18.0481
  50   2.0000      -0.652113       -17.7449
  51   2.0000      -0.649950       -17.6860
  52   2.0000      -0.638533       -17.3754
  53   2.0000      -0.627478       -17.0745
  54   2.0000      -0.606318       -16.4987
  55   2.0000      -0.603903       -16.4330
  56   2.0000      -0.600005       -16.3270
  57   2.0000      -0.581653       -15.8276
  58   2.0000      -0.574601       -15.6357
  59   2.0000      -0.564592       -15.3633
  60   2.0000      -0.555564       -15.1177
  61   2.0000      -0.545227       -14.8364
  62   2.0000      -0.539149       -14.6710
  63   2.0000      -0.533724       -14.5234
  64   2.0000      -0.520059       -14.1515
  65   2.0000      -0.512420       -13.9437
  66   2.0000      -0.500000       -13.6057
  67   2.0000      -0.490605       -13.3500
  68   2.0000      -0.486004       -13.2248
  69   2.0000      -0.469676       -12.7805
  70   2.0000      -0.456105       -12.4113
  71   2.0000      -0.448856       -12.2140
  72   2.0000      -0.358235        -9.7481
  73   2.0000      -0.347431        -9.4541
  74   2.0000      -0.330154        -8.9839
  75   2.0000      -0.320808        -8.7296
  76   2.0000      -0.318037        -8.6542
  77   0.0000       0.070458         1.9173
  78   0.0000       0.106824         2.9068
  79   0.0000       0.118535         3.2255
  80   0.0000       0.132053         3.5933
  81   0.0000       0.136160         3.7051

MULLIKEN ATOMIC CHARGES
-----------------------
   0 C :   -0.331952
   1 C :    0.045376
   2 O :   -0.379817
   3 C :    0.502166
   4 O :   -0.395365
   5 C :   -0.249425
   6 C :    0.167281
   7 C :   -0.321250
   8 N :   -0.125271
   9 C :    0.188146
  10 S :   -0.435356
  11 N :   -0.204379
  12 C :    0.052837
  13 C :    0.035592
  14 C :   -0.190507
  15 C :   -0.137085
  16 C :   -0.274170
  17 C :    0.313214
  18 O :   -0.358591
  19 C :   -0.267599
  20 H :    0.123957
  21 H :    0.113918
  22 H :    0.108940
  23 H :    0.119417
  24 H :    0.084258
  25 H :    0.144415
  26 H :    0.118030
  27 H :    0.121348
  28 H :    0.197960
  29 H :    0.195609
  30 H :    0.160620
  31 H :    0.169075
  32 H :    0.163252
  33 H :    0.131170
  34 H :    0.240573
  35 H :    0.173615
Sum of atomic charges:    0.0000000

LOEWDIN ATOMIC CHARGES
----------------------
   0 C :    0.108321
   1 C :   -0.014220
   2 O :    0.282621
   3 C :   -0.421248
   4 O :    0.127106
   5 C :   -0.091991
   6 C :   -0.071535
   7 C :    0.127874
   8 N :    0.405017
   9 C :   -0.460815
  10 S :   -0.033746
  11 N :    0.397599
  12 C :   -0.045099
  13 C :   -0.041069
  14 C :    0.022075
  15 C :    0.042302
  16 C :   -0.001935
  17 C :   -0.193772
  18 O :    0.394505
  19 C :    0.026775
  20 H :   -0.020455
  21 H :   -0.022894
  22 H :   -0.032026
  23 H :   -0.022702
  24 H :   -0.038177
  25 H :   -0.006468
  26 H :   -0.016185
  27 H :   -0.017095
  28 H :   -0.057957
  29 H :   -0.063413
  30 H :   -0.002954
  31 H :   -0.023679
  32 H :   -0.019877
  33 H :   -0.035513
  34 H :   -0.153954
  35 H :   -0.025417

  Mayer bond orders larger than 0.100000
B(  0-C ,  1-C ) :   0.9641 B(  0-C , 20-H ) :   0.9671 B(  0-C , 21-H ) :   0.9756
B(  0-C , 22-H ) :   0.9694 B(  1-C ,  2-O ) :   0.8973 B(  1-C , 23-H ) :   0.9824
B(  1-C , 24-H ) :   0.9763 B(  2-O ,  3-C ) :   1.1078 B(  3-C ,  4-O ) :   2.0464
B(  3-C ,  5-C ) :   0.9964 B(  5-C ,  6-C ) :   1.6542 B(  5-C , 12-C ) :   0.9588
B(  6-C ,  7-C ) :   0.9457 B(  6-C ,  8-N ) :   1.1360 B(  7-C , 25-H ) :   0.9656
B(  7-C , 26-H ) :   0.9862 B(  7-C , 27-H ) :   0.9675 B(  8-N ,  9-C ) :   1.1815
B(  8-N , 28-H ) :   0.9499 B(  9-C , 10-S ) :   1.6156 B(  9-C , 11-N ) :   1.2991
B( 11-N , 12-C ) :   0.9867 B( 11-N , 29-H ) :   0.9516 B( 12-C , 13-C ) :   0.9494
B( 12-C , 30-H ) :   0.9985 B( 13-C , 14-C ) :   1.3823 B( 13-C , 19-C ) :   1.3486
B( 14-C , 15-C ) :   1.3963 B( 14-C , 31-H ) :   0.9592 B( 15-C , 16-C ) :   1.3618
B( 15-C , 32-H ) :   0.9702 B( 16-C , 17-C ) :   1.3310 B( 16-C , 33-H ) :   0.9847
B( 17-C , 18-O ) :   1.1116 B( 17-C , 19-C ) :   1.3703 B( 18-O , 34-H ) :   0.9801
B( 19-C , 35-H ) :   0.9594

MP2 TOTAL ENERGY:    -1274.329403246 Eh
FINAL SINGLE POINT ENERGY     -1274.329403246243

DIPOLE MOMENT
-------------
                                X             Y             Z
Electronic contribution:      9.70934       8.02722       6.30107
Nuclear contribution   :    -11.26245      -9.05950      -6.87626
                        -----------------------------------------
Total Dipole Moment    :     -1.55311      -1.03227      -0.57520
                        -----------------------------------------
Magnitude (a.u.)       :      1.95156
Magnitude (Debye)      :      4.96047

Rotational constants in cm-1:     0.011369     0.009877     0.006675
Rotational constants in MHz :   340.846128   296.114937   200.121079

                             ****ORCA TERMINATED NORMALLY****
TOTAL RUN TIME: 0 days 2 hours 17 minutes 13 seconds 17 msec
