                         Program Version 5.0.0 -  RELEASE  -
|  1> ! ri-mp2 cc-pvtz cc-pvtz/c TightSCF NoKeepInts
|  2>
|  3> %scf
|  4>   MaxCore 4096
|  5> end
|  6> *xyz  0  1
|  7>     C       15.4147474   13.7534022   16.0690691
|  8>     C       15.3577628   15.1401911   15.3906000
|  9>     O       16.3805868   16.0857606   15.8014758
| 10>     C       17.4159937   15.8455890   16.6649404
| 11>     O       17.9767406   14.7674020   16.7639774
| 12>     C       17.7690357   17.0063779   17.5533258
| 13>     C       17.3583279   18.2906130   17.3760447
| 14>     C       16.4889918   18.8548234   16.2705354
| 15>     N       17.8027132   19.2883345   18.2505591
| 16>     C       18.7547661   19.1166449   19.2200934
| 17>     S       19.3130242   20.3817551   20.1275753
| 18>     N       19.2194548   17.8390770   19.3993504
| 19>     C       18.6630904   16.6406844   18.7444131
| 20>     C       17.9030864   15.7832481   19.7535157
| 21>     C       18.2205633   14.4217461   19.9135994
| 22>     C       17.5196076   13.6256589   20.8348466
| 23>     C       16.4908849   14.1949298   21.6043856
| 24>     C       16.1686799   15.5495524   21.4455857
| 25>     O       15.1711752   16.1006150   22.1822450
| 26>     C       16.8675882   16.3391526   20.5271238
| 27>     H       16.2948855   13.1868897   15.7399151
| 28>     H       14.5280180   13.1656089   15.8033507
| 29>     H       15.4410831   13.8464428   17.1624047
| 30>     H       15.4244003   14.9977892   14.3042430
| 31>     H       14.3757261   15.5853764   15.5956156
| 32>     H       15.4635276   18.4738365   16.3514714
| 33>     H       16.8802666   18.5717852   15.2852937
| 34>     H       16.4346803   19.9500383   16.2907612
| 35>     H       17.4743036   20.2336629   18.1350942
| 36>     H       19.8985358   17.7322896   20.1418618
| 37>     H       19.5087598   16.0518758   18.3603125
| 38>     H       19.0037290   13.9746953   19.3059209
| 39>     H       17.7714070   12.5723267   20.9440050
| 40>     H       15.9458321   13.5833210   22.3155516
| 41>     H       14.8414885   15.4146835   22.7819087
| 42>     H       16.6035357   17.3858201   20.4230280
| 43> *
| 44>
| 45>                          ****END OF INPUT****

CARTESIAN COORDINATES (ANGSTROEM)
---------------------------------
  C     15.414747   13.753402   16.069069
  C     15.357763   15.140191   15.390600
  O     16.380587   16.085761   15.801476
  C     17.415994   15.845589   16.664940
  O     17.976741   14.767402   16.763977
  C     17.769036   17.006378   17.553326
  C     17.358328   18.290613   17.376045
  C     16.488992   18.854823   16.270535
  N     17.802713   19.288335   18.250559
  C     18.754766   19.116645   19.220093
  S     19.313024   20.381755   20.127575
  N     19.219455   17.839077   19.399350
  C     18.663090   16.640684   18.744413
  C     17.903086   15.783248   19.753516
  C     18.220563   14.421746   19.913599
  C     17.519608   13.625659   20.834847
  C     16.490885   14.194930   21.604386
  C     16.168680   15.549552   21.445586
  O     15.171175   16.100615   22.182245
  C     16.867588   16.339153   20.527124
  H     16.294885   13.186890   15.739915
  H     14.528018   13.165609   15.803351
  H     15.441083   13.846443   17.162405
  H     15.424400   14.997789   14.304243
  H     14.375726   15.585376   15.595616
  H     15.463528   18.473837   16.351471
  H     16.880267   18.571785   15.285294
  H     16.434680   19.950038   16.290761
  H     17.474304   20.233663   18.135094
  H     19.898536   17.732290   20.141862
  H     19.508760   16.051876   18.360312
  H     19.003729   13.974695   19.305921
  H     17.771407   12.572327   20.944005
  H     15.945832   13.583321   22.315552
  H     14.841488   15.414683   22.781909
  H     16.603536   17.385820   20.423028

 Total Charge           Charge          ....    0
 Multiplicity           Mult            ....    1
 Number of Electrons    NEL             ....  154
 Basis Dimension        Dim             ....  828

ORBITAL ENERGIES
----------------

  NO   OCC          E(Eh)            E(eV)
   0   2.0000     -91.887686     -2500.3910
   1   2.0000     -20.596798      -560.4674
   2   2.0000     -20.592276      -560.3443
   3   2.0000     -20.544940      -559.0562
   4   2.0000     -15.627822      -425.2547
   5   2.0000     -15.606317      -424.6695
   6   2.0000     -11.397797      -310.1498
   7   2.0000     -11.382444      -309.7320
   8   2.0000     -11.335719      -308.4606
   9   2.0000     -11.308137      -307.7100
  10   2.0000     -11.307286      -307.6869
  11   2.0000     -11.304804      -307.6194
  12   2.0000     -11.259661      -306.3910
  13   2.0000     -11.258256      -306.3527
  14   2.0000     -11.253820      -306.2320
  15   2.0000     -11.248264      -306.0808
  16   2.0000     -11.237957      -305.8004
  17   2.0000     -11.233960      -305.6916
  18   2.0000     -11.230789      -305.6053
  19   2.0000     -11.226034      -305.4759
  20   2.0000      -8.892753      -241.9841
  21   2.0000      -6.574332      -178.8967
  22   2.0000      -6.572324      -178.8420
  23   2.0000      -6.571740      -178.8261
  24   2.0000      -1.445224       -39.3265
  25   2.0000      -1.412026       -38.4232
  26   2.0000      -1.355799       -36.8932
  27   2.0000      -1.338870       -36.4325
  28   2.0000      -1.236544       -33.6481
  29   2.0000      -1.152411       -31.3587
  30   2.0000      -1.118523       -30.4365
  31   2.0000      -1.041892       -28.3513
  32   2.0000      -1.034335       -28.1457
  33   2.0000      -1.009944       -27.4820
  34   2.0000      -0.997214       -27.1356
  35   2.0000      -0.982440       -26.7336
  36   2.0000      -0.921445       -25.0738
  37   2.0000      -0.897296       -24.4167
  38   2.0000      -0.847866       -23.0716
  39   2.0000      -0.835938       -22.7470
  40   2.0000      -0.828398       -22.5418
  41   2.0000      -0.817705       -22.2509
  42   2.0000      -0.742657       -20.2087
  43   2.0000      -0.726820       -19.7778
  44   2.0000      -0.724478       -19.7140
  45   2.0000      -0.690242       -18.7824
  46   2.0000      -0.684137       -18.6163
  47   2.0000      -0.676656       -18.4127
  48   2.0000      -0.674073       -18.3425
  49   2.0000      -0.664027       -18.0691
  50   2.0000      -0.648074       -17.6350
  51   2.0000      -0.643851       -17.5201
  52   2.0000      -0.633940       -17.2504
  53   2.0000      -0.613370       -16.6906
  54   2.0000      -0.600967       -16.3531
  55   2.0000      -0.599733       -16.3196
  56   2.0000      -0.595766       -16.2116
  57   2.0000      -0.576214       -15.6796
  58   2.0000      -0.573798       -15.6138
  59   2.0000      -0.566530       -15.4161
  60   2.0000      -0.556646       -15.1471
  61   2.0000      -0.542967       -14.7749
  62   2.0000      -0.537970       -14.6389
  63   2.0000      -0.525496       -14.2995
  64   2.0000      -0.516832       -14.0637
  65   2.0000      -0.510870       -13.9015
  66   2.0000      -0.500207       -13.6113
  67   2.0000      -0.495108       -13.4726
  68   2.0000      -0.478877       -13.0309
  69   2.0000      -0.462701       -12.5907
  70   2.0000      -0.454153       -12.3581
  71   2.0000      -0.448155       -12.1949
  72   2.0000      -0.353435        -9.6175
  73   2.0000      -0.344449        -9.3729
  74   2.0000      -0.326877        -8.8948
  75   2.0000      -0.315713        -8.5910
  76   2.0000      -0.313955        -8.5432
  77   0.0000       0.075627         2.0579
  78   0.0000       0.111896         3.0448
  79   0.0000       0.121719         3.3122
  80   0.0000       0.135313         3.6821
  81   0.0000       0.139401         3.7933

MULLIKEN ATOMIC CHARGES
-----------------------
   0 C :   -0.299701
   1 C :    0.053886
   2 O :   -0.362158
   3 C :    0.442444
   4 O :   -0.419734
   5 C :   -0.172352
   6 C :    0.144396
   7 C :   -0.282837
   8 N :   -0.122263
   9 C :    0.201144
  10 S :   -0.440038
  11 N :   -0.198880
  12 C :    0.041961
  13 C :    0.054385
  14 C :   -0.166048
  15 C :   -0.134504
  16 C :   -0.280022
  17 C :    0.312021
  18 O :   -0.358916
  19 C :   -0.275109
  20 H :    0.121373
  21 H :    0.098089
  22 H :    0.108069
  23 H :    0.095365
  24 H :    0.089050
  25 H :    0.123997
  26 H :    0.129042
  27 H :    0.102562
  28 H :    0.196640
  29 H :    0.193958
  30 H :    0.154747
  31 H :    0.155477
  32 H :    0.159750
  33 H :    0.128647
  34 H :    0.240110
  35 H :    0.165449
Sum of atomic charges:    0.0000000

LOEWDIN ATOMIC CHARGES
----------------------
   0 C :    0.104445
   1 C :   -0.008623
   2 O :    0.291538
   3 C :   -0.414897
   4 O :    0.114718
   5 C :   -0.091757
   6 C :   -0.065542
   7 C :    0.124642
   8 N :    0.404702
   9 C :   -0.459200
  10 S :   -0.036637
  11 N :    0.397951
  12 C :   -0.046678
  13 C :   -0.039456
  14 C :    0.021772
  15 C :    0.040149
  16 C :   -0.002818
  17 C :   -0.193069
  18 O :    0.393002
  19 C :    0.027955
  20 H :   -0.023710
  21 H :   -0.026797
  22 H :   -0.024455
  23 H :   -0.027808
  24 H :   -0.029452
  25 H :   -0.010353
  26 H :   -0.007621
  27 H :   -0.021324
  28 H :   -0.059368
  29 H :   -0.063708
  30 H :   -0.005363
  31 H :   -0.025001
  32 H :   -0.021152
  33 H :   -0.036354
  34 H :   -0.154842
  35 H :   -0.024889

  Mayer bond orders larger than 0.100000
B(  0-C ,  1-C ) :   0.9751 B(  0-C , 20-H ) :   0.9719 B(  0-C , 21-H ) :   0.9727
B(  0-C , 22-H ) :   0.9730 B(  1-C ,  2-O ) :   0.9024 B(  1-C , 23-H ) :   0.9799
B(  1-C , 24-H ) :   0.9783 B(  2-O ,  3-C ) :   1.1376 B(  3-C ,  4-O ) :   1.9948
B(  3-C ,  5-C ) :   1.0380 B(  5-C ,  6-C ) :   1.6529 B(  5-C , 12-C ) :   0.9640
B(  6-C ,  7-C ) :   0.9538 B(  6-C ,  8-N ) :   1.1462 B(  7-C , 25-H ) :   0.9652
B(  7-C , 26-H ) :   0.9648 B(  7-C , 27-H ) :   0.9920 B(  8-N ,  9-C ) :   1.1798
B(  8-N , 28-H ) :   0.9487 B(  9-C , 10-S ) :   1.6098 B(  9-C , 11-N ) :   1.3045
B( 11-N , 12-C ) :   0.9905 B( 11-N , 29-H ) :   0.9519 B( 12-C , 13-C ) :   0.9449
B( 12-C , 30-H ) :   1.0002 B( 13-C , 14-C ) :   1.3753 B( 13-C , 19-C ) :   1.3691
B( 14-C , 15-C ) :   1.3946 B( 14-C , 31-H ) :   0.9641 B( 15-C , 16-C ) :   1.3619
B( 15-C , 32-H ) :   0.9712 B( 16-C , 17-C ) :   1.3315 B( 16-C , 33-H ) :   0.9858
B( 17-C , 18-O ) :   1.1083 B( 17-C , 19-C ) :   1.3779 B( 18-O , 34-H ) :   0.9805
B( 19-C , 35-H ) :   0.9583

MP2 TOTAL ENERGY:    -1274.336019896 Eh
FINAL SINGLE POINT ENERGY     -1274.336019896368

DIPOLE MOMENT
-------------
                                X             Y             Z
Electronic contribution:     10.10499      10.40947       9.31908
Nuclear contribution   :    -11.74647     -11.64915     -10.30752
                        -----------------------------------------
Total Dipole Moment    :     -1.64148      -1.23968      -0.98844
                        -----------------------------------------
Magnitude (a.u.)       :      2.28217
Magnitude (Debye)      :      5.80081

Rotational constants in cm-1:     0.010939     0.009127     0.006055
Rotational constants in MHz :   327.933816   273.608685   181.536346

                             ****ORCA TERMINATED NORMALLY****
TOTAL RUN TIME: 0 days 1 hours 54 minutes 15 seconds 106 msec
