                         Program Version 5.0.0 -  RELEASE  -
|  1> ! ri-mp2 cc-pvtz cc-pvtz/c TightSCF NoKeepInts
|  2>
|  3> %scf
|  4>   MaxCore 4096
|  5> end
|  6> *xyz  0  1
|  7>     C       15.2030018   14.7884482   17.0884570
|  8>     C       16.3912353   14.0761803   16.4045751
|  9>     O       17.6172773   14.8426528   16.4538502
| 10>     C       17.6120724   16.1628202   16.1083126
| 11>     O       17.0975773   16.5131128   15.0605540
| 12>     C       17.7972714   17.0757013   17.2911419
| 13>     C       17.4340474   18.3840793   17.2697828
| 14>     C       16.6938131   19.1174379   16.1717982
| 15>     N       17.8068322   19.2280594   18.3211816
| 16>     C       18.7285006   18.9054421   19.2826441
| 17>     S       19.2804368   20.0161371   20.3766517
| 18>     N       19.1739121   17.6072849   19.2864666
| 19>     C       18.5659139   16.5162010   18.5015614
| 20>     C       17.7085978   15.6486283   19.4193456
| 21>     C       17.9724594   14.2713731   19.5454904
| 22>     C       17.1975120   13.4684735   20.3991859
| 23>     C       16.1540744   14.0477286   21.1409124
| 24>     C       15.8940769   15.4201500   21.0270630
| 25>     O       14.8861496   15.9821233   21.7402885
| 26>     C       16.6649480   16.2162218   20.1741214
| 27>     H       15.3885536   14.9340897   18.1555031
| 28>     H       14.2979035   14.1765981   16.9942834
| 29>     H       14.9907649   15.7614818   16.6290800
| 30>     H       16.5537930   13.1001230   16.8793209
| 31>     H       16.1290367   13.8943908   15.3536130
| 32>     H       17.3010803   19.1576786   15.2584330
| 33>     H       16.4327780   20.1466043   16.4445624
| 34>     H       15.7605610   18.5973771   15.9212607
| 35>     H       17.4976338   20.1870030   18.3224808
| 36>     H       19.8322213   17.3887418   20.0232807
| 37>     H       19.3859413   15.8948998   18.1147445
| 38>     H       18.7777643   13.8195544   18.9721085
| 39>     H       17.4084172   12.4039502   20.4860237
| 40>     H       15.5535714   13.4320233   21.8025394
| 41>     H       14.5093045   15.2926657   22.3073819
| 42>     H       16.4479652   17.2765623   20.1059995
| 43> *
| 44>
| 45>                          ****END OF INPUT****

CARTESIAN COORDINATES (ANGSTROEM)
---------------------------------
  C     15.203002   14.788448   17.088457
  C     16.391235   14.076180   16.404575
  O     17.617277   14.842653   16.453850
  C     17.612072   16.162820   16.108313
  O     17.097577   16.513113   15.060554
  C     17.797271   17.075701   17.291142
  C     17.434047   18.384079   17.269783
  C     16.693813   19.117438   16.171798
  N     17.806832   19.228059   18.321182
  C     18.728501   18.905442   19.282644
  S     19.280437   20.016137   20.376652
  N     19.173912   17.607285   19.286467
  C     18.565914   16.516201   18.501561
  C     17.708598   15.648628   19.419346
  C     17.972459   14.271373   19.545490
  C     17.197512   13.468473   20.399186
  C     16.154074   14.047729   21.140912
  C     15.894077   15.420150   21.027063
  O     14.886150   15.982123   21.740288
  C     16.664948   16.216222   20.174121
  H     15.388554   14.934090   18.155503
  H     14.297903   14.176598   16.994283
  H     14.990765   15.761482   16.629080
  H     16.553793   13.100123   16.879321
  H     16.129037   13.894391   15.353613
  H     17.301080   19.157679   15.258433
  H     16.432778   20.146604   16.444562
  H     15.760561   18.597377   15.921261
  H     17.497634   20.187003   18.322481
  H     19.832221   17.388742   20.023281
  H     19.385941   15.894900   18.114745
  H     18.777764   13.819554   18.972109
  H     17.408417   12.403950   20.486024
  H     15.553571   13.432023   21.802539
  H     14.509304   15.292666   22.307382
  H     16.447965   17.276562   20.105999

 Total Charge           Charge          ....    0
 Multiplicity           Mult            ....    1
 Number of Electrons    NEL             ....  154
 Basis Dimension        Dim             ....  828

ORBITAL ENERGIES
----------------

  NO   OCC          E(Eh)            E(eV)
   0   2.0000     -91.890995     -2500.4811
   1   2.0000     -20.598676      -560.5185
   2   2.0000     -20.583773      -560.1129
   3   2.0000     -20.548137      -559.1432
   4   2.0000     -15.631075      -425.3432
   5   2.0000     -15.609328      -424.7514
   6   2.0000     -11.394318      -310.0551
   7   2.0000     -11.385380      -309.8119
   8   2.0000     -11.337116      -308.4986
   9   2.0000     -11.316153      -307.9282
  10   2.0000     -11.311703      -307.8071
  11   2.0000     -11.299277      -307.4690
  12   2.0000     -11.261816      -306.4496
  13   2.0000     -11.260349      -306.4097
  14   2.0000     -11.257800      -306.3403
  15   2.0000     -11.253764      -306.2305
  16   2.0000     -11.245868      -306.0156
  17   2.0000     -11.240512      -305.8699
  18   2.0000     -11.240040      -305.8570
  19   2.0000     -11.222985      -305.3929
  20   2.0000      -8.896006      -242.0726
  21   2.0000      -6.577569      -178.9848
  22   2.0000      -6.575578      -178.9306
  23   2.0000      -6.574979      -178.9143
  24   2.0000      -1.447797       -39.3966
  25   2.0000      -1.418451       -38.5980
  26   2.0000      -1.351019       -36.7631
  27   2.0000      -1.342004       -36.5178
  28   2.0000      -1.240008       -33.7423
  29   2.0000      -1.159320       -31.5467
  30   2.0000      -1.120900       -30.5012
  31   2.0000      -1.044226       -28.4148
  32   2.0000      -1.031556       -28.0701
  33   2.0000      -1.017662       -27.6920
  34   2.0000      -0.998415       -27.1683
  35   2.0000      -0.986320       -26.8391
  36   2.0000      -0.924440       -25.1553
  37   2.0000      -0.895905       -24.3788
  38   2.0000      -0.848176       -23.0800
  39   2.0000      -0.841621       -22.9017
  40   2.0000      -0.836427       -22.7603
  41   2.0000      -0.816533       -22.2190
  42   2.0000      -0.748712       -20.3735
  43   2.0000      -0.734028       -19.9739
  44   2.0000      -0.722805       -19.6685
  45   2.0000      -0.697944       -18.9920
  46   2.0000      -0.691302       -18.8113
  47   2.0000      -0.675467       -18.3804
  48   2.0000      -0.668652       -18.1949
  49   2.0000      -0.665042       -18.0967
  50   2.0000      -0.650392       -17.6981
  51   2.0000      -0.644413       -17.5354
  52   2.0000      -0.637153       -17.3378
  53   2.0000      -0.618486       -16.8299
  54   2.0000      -0.608760       -16.5652
  55   2.0000      -0.601609       -16.3706
  56   2.0000      -0.600251       -16.3337
  57   2.0000      -0.579590       -15.7714
  58   2.0000      -0.571886       -15.5618
  59   2.0000      -0.564943       -15.3729
  60   2.0000      -0.550575       -14.9819
  61   2.0000      -0.543408       -14.7869
  62   2.0000      -0.537709       -14.6318
  63   2.0000      -0.530776       -14.4431
  64   2.0000      -0.526610       -14.3298
  65   2.0000      -0.515428       -14.0255
  66   2.0000      -0.503346       -13.6967
  67   2.0000      -0.500923       -13.6308
  68   2.0000      -0.476755       -12.9732
  69   2.0000      -0.464606       -12.6426
  70   2.0000      -0.453504       -12.3405
  71   2.0000      -0.444089       -12.0843
  72   2.0000      -0.357461        -9.7270
  73   2.0000      -0.350682        -9.5425
  74   2.0000      -0.330097        -8.9824
  75   2.0000      -0.324675        -8.8349
  76   2.0000      -0.317694        -8.6449
  77   0.0000       0.067750         1.8436
  78   0.0000       0.104812         2.8521
  79   0.0000       0.121565         3.3080
  80   0.0000       0.129621         3.5272
  81   0.0000       0.134070         3.6482

MULLIKEN ATOMIC CHARGES
-----------------------
   0 C :   -0.330792
   1 C :    0.035426
   2 O :   -0.390113
   3 C :    0.467993
   4 O :   -0.412006
   5 C :   -0.205871
   6 C :    0.148166
   7 C :   -0.271543
   8 N :   -0.122662
   9 C :    0.194647
  10 S :   -0.432593
  11 N :   -0.192821
  12 C :    0.029926
  13 C :    0.040000
  14 C :   -0.176253
  15 C :   -0.140080
  16 C :   -0.269460
  17 C :    0.299729
  18 O :   -0.358944
  19 C :   -0.247307
  20 H :    0.117275
  21 H :    0.112371
  22 H :    0.109043
  23 H :    0.113889
  24 H :    0.120682
  25 H :    0.135724
  26 H :    0.094911
  27 H :    0.127517
  28 H :    0.198418
  29 H :    0.190717
  30 H :    0.151332
  31 H :    0.158711
  32 H :    0.162691
  33 H :    0.132535
  34 H :    0.240729
  35 H :    0.168014
Sum of atomic charges:    0.0000000

LOEWDIN ATOMIC CHARGES
----------------------
   0 C :    0.108266
   1 C :   -0.013044
   2 O :    0.282080
   3 C :   -0.420664
   4 O :    0.116333
   5 C :   -0.096438
   6 C :   -0.058562
   7 C :    0.130718
   8 N :    0.406847
   9 C :   -0.459249
  10 S :   -0.031324
  11 N :    0.396531
  12 C :   -0.052094
  13 C :   -0.039909
  14 C :    0.016867
  15 C :    0.038947
  16 C :   -0.002153
  17 C :   -0.192249
  18 O :    0.396567
  19 C :    0.031515
  20 H :   -0.029822
  21 H :   -0.023518
  22 H :   -0.028836
  23 H :   -0.024109
  24 H :   -0.028408
  25 H :   -0.003122
  26 H :   -0.023079
  27 H :   -0.007168
  28 H :   -0.057789
  29 H :   -0.065055
  30 H :   -0.006376
  31 H :   -0.028305
  32 H :   -0.020702
  33 H :   -0.034990
  34 H :   -0.153461
  35 H :   -0.024246

  Mayer bond orders larger than 0.100000
B(  0-C ,  1-C ) :   0.9575 B(  0-C , 20-H ) :   0.9683 B(  0-C , 21-H ) :   0.9779
B(  0-C , 22-H ) :   0.9730 B(  1-C ,  2-O ) :   0.8817 B(  1-C , 23-H ) :   0.9806
B(  1-C , 24-H ) :   0.9856 B(  2-O ,  3-C ) :   1.1037 B(  3-C ,  4-O ) :   2.0041
B(  3-C ,  5-C ) :   1.0607 B(  5-C ,  6-C ) :   1.6545 B(  5-C , 12-C ) :   0.9689
B(  6-C ,  7-C ) :   0.9705 B(  6-C ,  8-N ) :   1.1425 B(  7-C , 25-H ) :   0.9569
B(  7-C , 26-H ) :   0.9886 B(  7-C , 27-H ) :   0.9653 B(  8-N ,  9-C ) :   1.1777
B(  8-N , 28-H ) :   0.9485 B(  9-C , 10-S ) :   1.6214 B(  9-C , 11-N ) :   1.2979
B( 11-N , 12-C ) :   0.9875 B( 11-N , 29-H ) :   0.9538 B( 12-C , 13-C ) :   0.9364
B( 12-C , 30-H ) :   1.0045 B( 13-C , 14-C ) :   1.3690 B( 13-C , 19-C ) :   1.3723
B( 14-C , 15-C ) :   1.3846 B( 14-C , 31-H ) :   0.9673 B( 15-C , 16-C ) :   1.3640
B( 15-C , 32-H ) :   0.9706 B( 16-C , 17-C ) :   1.3309 B( 16-C , 33-H ) :   0.9842
B( 17-C , 18-O ) :   1.1133 B( 17-C , 19-C ) :   1.3785 B( 18-O , 34-H ) :   0.9797
B( 19-C , 35-H ) :   0.9572

MP2 TOTAL ENERGY:    -1274.330131034 Eh
FINAL SINGLE POINT ENERGY     -1274.330131034158

DIPOLE MOMENT
-------------
                                X             Y             Z
Electronic contribution:     10.05615       8.56632       5.98558
Nuclear contribution   :    -11.15448     -10.19727      -6.02683
                        -----------------------------------------
Total Dipole Moment    :     -1.09833      -1.63095      -0.04125
                        -----------------------------------------
Magnitude (a.u.)       :      1.96673
Magnitude (Debye)      :      4.99904

Rotational constants in cm-1:     0.011853     0.009790     0.006584
Rotational constants in MHz :   355.347729   293.505343   197.371348

                             ****ORCA TERMINATED NORMALLY****
TOTAL RUN TIME: 0 days 2 hours 17 minutes 48 seconds 334 msec
