                         Program Version 5.0.0 -  RELEASE  -
|  1> ! ri-mp2 cc-pvtz cc-pvtz/c TightSCF NoKeepInts
|  2>
|  3> %scf
|  4>   MaxCore 4096
|  5> end
|  6> *xyz  0  1
|  7>     C       15.4039302   14.4259818   17.1620148
|  8>     C       15.4569851   15.3878545   15.9561028
|  9>     O       16.8097990   15.7027967   15.5485915
| 10>     C       17.8555471   15.7149397   16.4279960
| 11>     O       18.5528882   14.7270718   16.5766294
| 12>     C       17.9041780   16.8849853   17.3698392
| 13>     C       17.4054905   18.1177386   17.0913967
| 14>     C       16.7449194   18.5946798   15.8133513
| 15>     N       17.5827076   19.1608030   18.0059842
| 16>     C       18.4022619   19.1085547   19.1023090
| 17>     S       18.6720244   20.4348254   20.0524157
| 18>     N       18.9873030   17.8969798   19.3694373
| 19>     C       18.6552536   16.6332582   18.6841755
| 20>     C       17.8701255   15.7088653   19.6111286
| 21>     C       18.2282713   14.3531258   19.7289225
| 22>     C       17.5040238   13.4898807   20.5677252
| 23>     C       16.4108937   13.9852659   21.2983138
| 24>     C       16.0492180   15.3341774   21.1840375
| 25>     O       14.9877905   15.8134158   21.8800095
| 26>     C       16.7708895   16.1910597   20.3469180
| 27>     H       16.0315742   13.5420660   16.9891141
| 28>     H       14.3761533   14.0817370   17.3282936
| 29>     H       15.7371653   14.9185463   18.0800763
| 30>     H       14.9269763   14.9376032   15.1067491
| 31>     H       14.9235968   16.3064553   16.2274550
| 32>     H       17.1838919   18.1128910   14.9308792
| 33>     H       16.8715336   19.6744774   15.6652890
| 34>     H       15.6694211   18.3876510   15.8195989
| 35>     H       17.1685330   20.0608664   17.8221319
| 36>     H       19.5701320   17.8775023   20.1966501
| 37>     H       19.6043202   16.1358258   18.4356922
| 38>     H       19.0635282   13.9625227   19.1516798
| 39>     H       17.7889056   12.4419134   20.6436910
| 40>     H       15.8476583   13.3211700   21.9455244
| 41>     H       14.6586229   15.0937623   22.4393980
| 42>     H       16.4704870   17.2307501   20.2744790
| 43> *
| 44>
| 45>                          ****END OF INPUT****

CARTESIAN COORDINATES (ANGSTROEM)
---------------------------------
  C     15.403930   14.425982   17.162015
  C     15.456985   15.387854   15.956103
  O     16.809799   15.702797   15.548591
  C     17.855547   15.714940   16.427996
  O     18.552888   14.727072   16.576629
  C     17.904178   16.884985   17.369839
  C     17.405490   18.117739   17.091397
  C     16.744919   18.594680   15.813351
  N     17.582708   19.160803   18.005984
  C     18.402262   19.108555   19.102309
  S     18.672024   20.434825   20.052416
  N     18.987303   17.896980   19.369437
  C     18.655254   16.633258   18.684175
  C     17.870126   15.708865   19.611129
  C     18.228271   14.353126   19.728922
  C     17.504024   13.489881   20.567725
  C     16.410894   13.985266   21.298314
  C     16.049218   15.334177   21.184037
  O     14.987790   15.813416   21.880009
  C     16.770889   16.191060   20.346918
  H     16.031574   13.542066   16.989114
  H     14.376153   14.081737   17.328294
  H     15.737165   14.918546   18.080076
  H     14.926976   14.937603   15.106749
  H     14.923597   16.306455   16.227455
  H     17.183892   18.112891   14.930879
  H     16.871534   19.674477   15.665289
  H     15.669421   18.387651   15.819599
  H     17.168533   20.060866   17.822132
  H     19.570132   17.877502   20.196650
  H     19.604320   16.135826   18.435692
  H     19.063528   13.962523   19.151680
  H     17.788906   12.441913   20.643691
  H     15.847658   13.321170   21.945524
  H     14.658623   15.093762   22.439398
  H     16.470487   17.230750   20.274479

 Total Charge           Charge          ....    0
 Multiplicity           Mult            ....    1
 Number of Electrons    NEL             ....  154
 Basis Dimension        Dim             ....  828

ORBITAL ENERGIES
----------------

  NO   OCC          E(Eh)            E(eV)
   0   2.0000     -91.890882     -2500.4780
   1   2.0000     -20.596425      -560.4572
   2   2.0000     -20.584736      -560.1392
   3   2.0000     -20.553409      -559.2867
   4   2.0000     -15.630989      -425.3408
   5   2.0000     -15.609470      -424.7553
   6   2.0000     -11.396433      -310.1127
   7   2.0000     -11.385962      -309.8278
   8   2.0000     -11.339370      -308.5599
   9   2.0000     -11.313022      -307.8430
  10   2.0000     -11.309196      -307.7389
  11   2.0000     -11.307867      -307.7027
  12   2.0000     -11.264041      -306.5101
  13   2.0000     -11.263334      -306.4909
  14   2.0000     -11.258724      -306.3655
  15   2.0000     -11.252944      -306.2082
  16   2.0000     -11.242610      -305.9270
  17   2.0000     -11.238435      -305.8134
  18   2.0000     -11.234585      -305.7086
  19   2.0000     -11.225647      -305.4654
  20   2.0000      -8.895942      -242.0709
  21   2.0000      -6.577516      -178.9833
  22   2.0000      -6.575508      -178.9287
  23   2.0000      -6.574919      -178.9127
  24   2.0000      -1.446191       -39.3528
  25   2.0000      -1.416251       -38.5382
  26   2.0000      -1.356278       -36.9062
  27   2.0000      -1.342552       -36.5327
  28   2.0000      -1.240137       -33.7458
  29   2.0000      -1.157013       -31.4839
  30   2.0000      -1.122333       -30.5402
  31   2.0000      -1.044939       -28.4342
  32   2.0000      -1.033230       -28.1156
  33   2.0000      -1.015007       -27.6197
  34   2.0000      -1.002699       -27.2848
  35   2.0000      -0.987607       -26.8742
  36   2.0000      -0.925759       -25.1912
  37   2.0000      -0.894957       -24.3530
  38   2.0000      -0.852700       -23.2031
  39   2.0000      -0.840634       -22.8748
  40   2.0000      -0.832949       -22.6657
  41   2.0000      -0.824786       -22.4436
  42   2.0000      -0.744251       -20.2521
  43   2.0000      -0.729766       -19.8580
  44   2.0000      -0.728744       -19.8301
  45   2.0000      -0.694345       -18.8941
  46   2.0000      -0.686676       -18.6854
  47   2.0000      -0.680580       -18.5195
  48   2.0000      -0.675420       -18.3791
  49   2.0000      -0.663718       -18.0607
  50   2.0000      -0.651980       -17.7413
  51   2.0000      -0.649212       -17.6660
  52   2.0000      -0.637936       -17.3591
  53   2.0000      -0.625775       -17.0282
  54   2.0000      -0.606113       -16.4932
  55   2.0000      -0.604266       -16.4429
  56   2.0000      -0.600320       -16.3355
  57   2.0000      -0.580898       -15.8070
  58   2.0000      -0.574576       -15.6350
  59   2.0000      -0.565202       -15.3799
  60   2.0000      -0.555322       -15.1111
  61   2.0000      -0.545996       -14.8573
  62   2.0000      -0.539151       -14.6710
  63   2.0000      -0.531569       -14.4647
  64   2.0000      -0.519855       -14.1460
  65   2.0000      -0.512378       -13.9425
  66   2.0000      -0.500313       -13.6142
  67   2.0000      -0.489936       -13.3318
  68   2.0000      -0.486562       -13.2400
  69   2.0000      -0.468301       -12.7431
  70   2.0000      -0.457097       -12.4383
  71   2.0000      -0.449013       -12.2183
  72   2.0000      -0.358392        -9.7524
  73   2.0000      -0.348441        -9.4816
  74   2.0000      -0.330083        -8.9820
  75   2.0000      -0.320922        -8.7327
  76   2.0000      -0.318397        -8.6640
  77   0.0000       0.070697         1.9238
  78   0.0000       0.106552         2.8994
  79   0.0000       0.119205         3.2437
  80   0.0000       0.131884         3.5887
  81   0.0000       0.136569         3.7162

MULLIKEN ATOMIC CHARGES
-----------------------
   0 C :   -0.316247
   1 C :    0.044319
   2 O :   -0.380028
   3 C :    0.489953
   4 O :   -0.393675
   5 C :   -0.225737
   6 C :    0.147114
   7 C :   -0.312865
   8 N :   -0.125296
   9 C :    0.190147
  10 S :   -0.435814
  11 N :   -0.202058
  12 C :    0.052056
  13 C :    0.011551
  14 C :   -0.167448
  15 C :   -0.143436
  16 C :   -0.267907
  17 C :    0.303022
  18 O :   -0.359188
  19 C :   -0.244416
  20 H :    0.119799
  21 H :    0.107993
  22 H :    0.110817
  23 H :    0.116779
  24 H :    0.077903
  25 H :    0.141414
  26 H :    0.115587
  27 H :    0.122186
  28 H :    0.197749
  29 H :    0.195085
  30 H :    0.159768
  31 H :    0.166474
  32 H :    0.162252
  33 H :    0.131640
  34 H :    0.240648
  35 H :    0.169859
Sum of atomic charges:    0.0000000

LOEWDIN ATOMIC CHARGES
----------------------
   0 C :    0.109630
   1 C :   -0.016126
   2 O :    0.283110
   3 C :   -0.420409
   4 O :    0.127927
   5 C :   -0.092760
   6 C :   -0.071158
   7 C :    0.127611
   8 N :    0.404921
   9 C :   -0.460590
  10 S :   -0.033840
  11 N :    0.397603
  12 C :   -0.045469
  13 C :   -0.043333
  14 C :    0.022178
  15 C :    0.042925
  16 C :   -0.001466
  17 C :   -0.193963
  18 O :    0.394614
  19 C :    0.025927
  20 H :   -0.020796
  21 H :   -0.024161
  22 H :   -0.029015
  23 H :   -0.021839
  24 H :   -0.039829
  25 H :   -0.006467
  26 H :   -0.016678
  27 H :   -0.016793
  28 H :   -0.057941
  29 H :   -0.063439
  30 H :   -0.003147
  31 H :   -0.023494
  32 H :   -0.019712
  33 H :   -0.035329
  34 H :   -0.153852
  35 H :   -0.024841

  Mayer bond orders larger than 0.100000
B(  0-C ,  1-C ) :   0.9691 B(  0-C , 20-H ) :   0.9701 B(  0-C , 21-H ) :   0.9763
B(  0-C , 22-H ) :   0.9670 B(  1-C ,  2-O ) :   0.8983 B(  1-C , 23-H ) :   0.9805
B(  1-C , 24-H ) :   0.9746 B(  2-O ,  3-C ) :   1.0998 B(  3-C ,  4-O ) :   2.0473
B(  3-C ,  5-C ) :   1.0068 B(  5-C ,  6-C ) :   1.6631 B(  5-C , 12-C ) :   0.9568
B(  6-C ,  7-C ) :   0.9461 B(  6-C ,  8-N ) :   1.1381 B(  7-C , 25-H ) :   0.9660
B(  7-C , 26-H ) :   0.9867 B(  7-C , 27-H ) :   0.9671 B(  8-N ,  9-C ) :   1.1813
B(  8-N , 28-H ) :   0.9499 B(  9-C , 10-S ) :   1.6156 B(  9-C , 11-N ) :   1.2994
B( 11-N , 12-C ) :   0.9892 B( 11-N , 29-H ) :   0.9518 B( 12-C , 13-C ) :   0.9475
B( 12-C , 30-H ) :   0.9985 B( 13-C , 14-C ) :   1.3898 B( 13-C , 19-C ) :   1.3571
B( 14-C , 15-C ) :   1.3950 B( 14-C , 31-H ) :   0.9591 B( 15-C , 16-C ) :   1.3625
B( 15-C , 32-H ) :   0.9706 B( 16-C , 17-C ) :   1.3313 B( 16-C , 33-H ) :   0.9844
B( 17-C , 18-O ) :   1.1119 B( 17-C , 19-C ) :   1.3727 B( 18-O , 34-H ) :   0.9799
B( 19-C , 35-H ) :   0.9591

MP2 TOTAL ENERGY:    -1274.330722726 Eh
FINAL SINGLE POINT ENERGY     -1274.330722725831

DIPOLE MOMENT
-------------
                                X             Y             Z
Electronic contribution:      9.64654       8.49529       6.32790
Nuclear contribution   :    -11.17593      -9.51887      -6.87719
                        -----------------------------------------
Total Dipole Moment    :     -1.52939      -1.02357      -0.54929
                        -----------------------------------------
Magnitude (a.u.)       :      1.92054
Magnitude (Debye)      :      4.88162

Rotational constants in cm-1:     0.011480     0.009760     0.006646
Rotational constants in MHz :   344.171979   292.599498   199.253737

                             ****ORCA TERMINATED NORMALLY****
TOTAL RUN TIME: 0 days 2 hours 10 minutes 20 seconds 245 msec
