                         Program Version 5.0.0 -  RELEASE  -
|  1> ! ri-mp2 cc-pvtz cc-pvtz/c TightSCF NoKeepInts
|  2>
|  3> %scf
|  4>   MaxCore 4096
|  5> end
|  6> *xyz  0  1
|  7>     C       15.1471364   15.5222499   17.3105207
|  8>     C       15.6207535   15.1423152   15.8922530
|  9>     O       16.9965682   15.4605033   15.5507027
| 10>     C       18.0374713   15.6965593   16.4131857
| 11>     O       18.9163275   14.8619196   16.5287601
| 12>     C       17.9025123   16.8296651   17.3883409
| 13>     C       17.3146850   18.0105824   17.0699432
| 14>     C       16.7023696   18.4049395   15.7406052
| 15>     N       17.3361342   19.0675666   17.9841971
| 16>     C       18.0933304   19.0941053   19.1256039
| 17>     S       18.1739411   20.4381343   20.0854860
| 18>     N       18.7840148   17.9475692   19.4288651
| 19>     C       18.6264277   16.6564850   18.7303528
| 20>     C       17.9286891   15.6338351   19.6244062
| 21>     C       18.3781274   14.3006780   19.6546345
| 22>     C       17.7392244   13.3454219   20.4624136
| 23>     C       16.6393233   13.7244226   21.2500860
| 24>     C       16.1865539   15.0501173   21.2237924
| 25>     O       15.1180926   15.4171662   21.9749841
| 26>     C       16.8241576   15.9991352   20.4184246
| 27>     H       15.7688813   15.0347459   18.0682652
| 28>     H       14.1218861   15.1635668   17.4629761
| 29>     H       15.1341369   16.6022559   17.4810528
| 30>     H       15.4989901   14.0557677   15.7904893
| 31>     H       14.9540640   15.6032997   15.1522530
| 32>     H       15.6572302   18.0837259   15.6704139
| 33>     H       17.2510417   17.9586396   14.9016996
| 34>     H       16.7274777   19.4905143   15.5835446
| 35>     H       16.8474750   19.9228273   17.7714692
| 36>     H       19.3219780   17.9874454   20.2852835
| 37>     H       19.6362073   16.2763491   18.5160553
| 38>     H       19.2217985   14.0002191   19.0367959
| 39>     H       18.0959712   12.3168711   20.4714497
| 40>     H       16.1418478   12.9890242   21.8736933
| 41>     H       14.8517426   14.6458799   22.4977626
| 42>     H       16.4504316   17.0174969   20.4132385
| 43> *
| 44>
| 45>                          ****END OF INPUT****

CARTESIAN COORDINATES (ANGSTROEM)
---------------------------------
  C     15.147136   15.522250   17.310521
  C     15.620753   15.142315   15.892253
  O     16.996568   15.460503   15.550703
  C     18.037471   15.696559   16.413186
  O     18.916328   14.861920   16.528760
  C     17.902512   16.829665   17.388341
  C     17.314685   18.010582   17.069943
  C     16.702370   18.404940   15.740605
  N     17.336134   19.067567   17.984197
  C     18.093330   19.094105   19.125604
  S     18.173941   20.438134   20.085486
  N     18.784015   17.947569   19.428865
  C     18.626428   16.656485   18.730353
  C     17.928689   15.633835   19.624406
  C     18.378127   14.300678   19.654634
  C     17.739224   13.345422   20.462414
  C     16.639323   13.724423   21.250086
  C     16.186554   15.050117   21.223792
  O     15.118093   15.417166   21.974984
  C     16.824158   15.999135   20.418425
  H     15.768881   15.034746   18.068265
  H     14.121886   15.163567   17.462976
  H     15.134137   16.602256   17.481053
  H     15.498990   14.055768   15.790489
  H     14.954064   15.603300   15.152253
  H     15.657230   18.083726   15.670414
  H     17.251042   17.958640   14.901700
  H     16.727478   19.490514   15.583545
  H     16.847475   19.922827   17.771469
  H     19.321978   17.987445   20.285283
  H     19.636207   16.276349   18.516055
  H     19.221798   14.000219   19.036796
  H     18.095971   12.316871   20.471450
  H     16.141848   12.989024   21.873693
  H     14.851743   14.645880   22.497763
  H     16.450432   17.017497   20.413238

 Total Charge           Charge          ....    0
 Multiplicity           Mult            ....    1
 Number of Electrons    NEL             ....  154
 Basis Dimension        Dim             ....  828

ORBITAL ENERGIES
----------------

  NO   OCC          E(Eh)            E(eV)
   0   2.0000     -91.891279     -2500.4888
   1   2.0000     -20.596770      -560.4666
   2   2.0000     -20.586379      -560.1839
   3   2.0000     -20.550103      -559.1967
   4   2.0000     -15.631075      -425.3432
   5   2.0000     -15.610124      -424.7731
   6   2.0000     -11.397057      -310.1297
   7   2.0000     -11.386635      -309.8461
   8   2.0000     -11.336441      -308.4802
   9   2.0000     -11.313270      -307.8497
  10   2.0000     -11.311082      -307.7902
  11   2.0000     -11.310475      -307.7737
  12   2.0000     -11.265385      -306.5467
  13   2.0000     -11.263177      -306.4866
  14   2.0000     -11.259694      -306.3918
  15   2.0000     -11.253629      -306.2268
  16   2.0000     -11.243058      -305.9392
  17   2.0000     -11.238474      -305.8144
  18   2.0000     -11.235098      -305.7226
  19   2.0000     -11.234561      -305.7080
  20   2.0000      -8.896343      -242.0818
  21   2.0000      -6.577920      -178.9943
  22   2.0000      -6.575909      -178.9396
  23   2.0000      -6.575321      -178.9236
  24   2.0000      -1.442155       -39.2430
  25   2.0000      -1.416596       -38.5475
  26   2.0000      -1.353105       -36.8199
  27   2.0000      -1.342487       -36.5309
  28   2.0000      -1.240298       -33.7502
  29   2.0000      -1.157512       -31.4975
  30   2.0000      -1.123253       -30.5653
  31   2.0000      -1.045729       -28.4557
  32   2.0000      -1.038844       -28.2684
  33   2.0000      -1.015619       -27.6364
  34   2.0000      -1.003569       -27.3085
  35   2.0000      -0.989580       -26.9278
  36   2.0000      -0.926696       -25.2167
  37   2.0000      -0.899242       -24.4696
  38   2.0000      -0.852742       -23.2043
  39   2.0000      -0.840720       -22.8772
  40   2.0000      -0.833420       -22.6785
  41   2.0000      -0.823532       -22.4094
  42   2.0000      -0.745915       -20.2974
  43   2.0000      -0.731974       -19.9180
  44   2.0000      -0.728869       -19.8335
  45   2.0000      -0.694409       -18.8958
  46   2.0000      -0.687484       -18.7074
  47   2.0000      -0.676544       -18.4097
  48   2.0000      -0.674052       -18.3419
  49   2.0000      -0.662742       -18.0341
  50   2.0000      -0.653101       -17.7718
  51   2.0000      -0.651566       -17.7300
  52   2.0000      -0.642889       -17.4939
  53   2.0000      -0.618548       -16.8316
  54   2.0000      -0.604753       -16.4562
  55   2.0000      -0.603900       -16.4329
  56   2.0000      -0.601194       -16.3593
  57   2.0000      -0.586462       -15.9584
  58   2.0000      -0.575650       -15.6642
  59   2.0000      -0.565089       -15.3769
  60   2.0000      -0.563593       -15.3361
  61   2.0000      -0.553323       -15.0567
  62   2.0000      -0.545521       -14.8444
  63   2.0000      -0.531999       -14.4764
  64   2.0000      -0.521875       -14.2009
  65   2.0000      -0.513588       -13.9754
  66   2.0000      -0.500513       -13.6196
  67   2.0000      -0.486634       -13.2420
  68   2.0000      -0.484988       -13.1972
  69   2.0000      -0.470145       -12.7933
  70   2.0000      -0.457217       -12.4415
  71   2.0000      -0.447249       -12.1703
  72   2.0000      -0.356855        -9.7105
  73   2.0000      -0.347911        -9.4672
  74   2.0000      -0.330522        -8.9940
  75   2.0000      -0.321913        -8.7597
  76   2.0000      -0.318744        -8.6735
  77   0.0000       0.073010         1.9867
  78   0.0000       0.107437         2.9235
  79   0.0000       0.116835         3.1793
  80   0.0000       0.131382         3.5751
  81   0.0000       0.131823         3.5871

MULLIKEN ATOMIC CHARGES
-----------------------
   0 C :   -0.348552
   1 C :    0.040058
   2 O :   -0.368938
   3 C :    0.454226
   4 O :   -0.384399
   5 C :   -0.212697
   6 C :    0.138936
   7 C :   -0.307703
   8 N :   -0.131122
   9 C :    0.191885
  10 S :   -0.435641
  11 N :   -0.210851
  12 C :    0.068674
  13 C :    0.020738
  14 C :   -0.193213
  15 C :   -0.137258
  16 C :   -0.277113
  17 C :    0.313974
  18 O :   -0.358065
  19 C :   -0.263612
  20 H :    0.131072
  21 H :    0.126469
  22 H :    0.104513
  23 H :    0.119654
  24 H :    0.104245
  25 H :    0.115590
  26 H :    0.141900
  27 H :    0.117629
  28 H :    0.197999
  29 H :    0.197517
  30 H :    0.162947
  31 H :    0.172172
  32 H :    0.162987
  33 H :    0.131636
  34 H :    0.240882
  35 H :    0.173463
Sum of atomic charges:    0.0000000

LOEWDIN ATOMIC CHARGES
----------------------
   0 C :    0.104981
   1 C :   -0.014821
   2 O :    0.279269
   3 C :   -0.417953
   4 O :    0.125238
   5 C :   -0.089758
   6 C :   -0.078250
   7 C :    0.128397
   8 N :    0.404875
   9 C :   -0.459611
  10 S :   -0.034132
  11 N :    0.397729
  12 C :   -0.044122
  13 C :   -0.043492
  14 C :    0.019273
  15 C :    0.042150
  16 C :   -0.002087
  17 C :   -0.194356
  18 O :    0.394861
  19 C :    0.028543
  20 H :   -0.022941
  21 H :   -0.019749
  22 H :   -0.035481
  23 H :   -0.022505
  24 H :   -0.028068
  25 H :   -0.016301
  26 H :   -0.005478
  27 H :   -0.015796
  28 H :   -0.058358
  29 H :   -0.063449
  30 H :   -0.002525
  31 H :   -0.022568
  32 H :   -0.019271
  33 H :   -0.035274
  34 H :   -0.153877
  35 H :   -0.025093

  Mayer bond orders larger than 0.100000
B(  0-C ,  1-C ) :   0.9633 B(  0-C , 20-H ) :   0.9634 B(  0-C , 21-H ) :   0.9765
B(  0-C , 22-H ) :   0.9713 B(  1-C ,  2-O ) :   0.8938 B(  1-C , 23-H ) :   0.9822
B(  1-C , 24-H ) :   0.9805 B(  2-O ,  3-C ) :   1.1233 B(  3-C ,  4-O ) :   2.0614
B(  3-C ,  5-C ) :   0.9745 B(  5-C ,  6-C ) :   1.6766 B(  5-C , 12-C ) :   0.9543
B(  6-C ,  7-C ) :   0.9500 B(  6-C ,  8-N ) :   1.1176 B(  7-C , 25-H ) :   0.9644
B(  7-C , 26-H ) :   0.9671 B(  7-C , 27-H ) :   0.9867 B(  8-N ,  9-C ) :   1.1833
B(  8-N , 28-H ) :   0.9494 B(  9-C , 10-S ) :   1.6148 B(  9-C , 11-N ) :   1.2949
B( 11-N , 12-C ) :   0.9844 B( 11-N , 29-H ) :   0.9508 B( 12-C , 13-C ) :   0.9478
B( 12-C , 30-H ) :   0.9970 B( 13-C , 14-C ) :   1.3916 B( 13-C , 19-C ) :   1.3490
B( 14-C , 15-C ) :   1.3969 B( 14-C , 31-H ) :   0.9580 B( 15-C , 16-C ) :   1.3617
B( 15-C , 32-H ) :   0.9706 B( 16-C , 17-C ) :   1.3298 B( 16-C , 33-H ) :   0.9848
B( 17-C , 18-O ) :   1.1115 B( 17-C , 19-C ) :   1.3726 B( 18-O , 34-H ) :   0.9799
B( 19-C , 35-H ) :   0.9581

MP2 TOTAL ENERGY:    -1274.325007304 Eh
FINAL SINGLE POINT ENERGY     -1274.325007304003

DIPOLE MOMENT
-------------
                                X             Y             Z
Electronic contribution:      9.51762       6.73481       6.47639
Nuclear contribution   :    -11.05157      -7.82365      -7.04599
                        -----------------------------------------
Total Dipole Moment    :     -1.53395      -1.08884      -0.56961
                        -----------------------------------------
Magnitude (a.u.)       :      1.96546
Magnitude (Debye)      :      4.99581

Rotational constants in cm-1:     0.011267     0.009895     0.006782
Rotational constants in MHz :   337.765854   296.634131   203.307940

                             ****ORCA TERMINATED NORMALLY****
TOTAL RUN TIME: 0 days 2 hours 11 minutes 8 seconds 528 msec
