                         Program Version 5.0.0 -  RELEASE  -
|  1> ! ri-mp2 cc-pvtz cc-pvtz/c TightSCF NoKeepInts
|  2>
|  3> %scf
|  4>   MaxCore 4096
|  5> end
|  6> *xyz  0  1
|  7>     C       15.2175983   14.5442436   17.1928154
|  8>     C       15.5908808   14.9158131   15.7398812
|  9>     O       16.5553624   15.9884475   15.7126643
| 10>     C       17.7022845   15.9004798   16.4472824
| 11>     O       18.3042862   14.8455697   16.5626858
| 12>     C       17.8858519   17.0345926   17.4125442
| 13>     C       17.3853741   18.2844575   17.2358982
| 14>     C       16.5910632   18.8075979   16.0570189
| 15>     N       17.6532640   19.2797791   18.1811582
| 16>     C       18.5137187   19.1448076   19.2387307
| 17>     S       18.8633773   20.4104508   20.2444049
| 18>     N       19.0706707   17.9041409   19.4201603
| 19>     C       18.6984063   16.6925956   18.6657041
| 20>     C       17.9311605   15.7219049   19.5592083
| 21>     C       18.3802718   14.3989312   19.7260921
| 22>     C       17.6662176   13.4963496   20.5318772
| 23>     C       16.4913372   13.9189878   21.1765777
| 24>     C       16.0392915   15.2350823   21.0109741
| 25>     O       14.8996753   15.6435731   21.6236574
| 26>     C       16.7526669   16.1314707   20.2093450
| 27>     H       16.0560466   14.0663262   17.7148972
| 28>     H       14.3794054   13.8373633   17.2004866
| 29>     H       14.9168051   15.4341894   17.7594922
| 30>     H       16.0039489   14.0315315   15.2359532
| 31>     H       14.6893360   15.2252058   15.1959227
| 32>     H       15.5629995   18.4254589   16.0832173
| 33>     H       17.0439931   18.4913358   15.1090049
| 34>     H       16.5388392   19.9029401   16.0364695
| 35>     H       17.2550117   20.1979159   18.0649418
| 36>     H       19.6776217   17.8233940   20.2257941
| 37>     H       19.6274129   16.2026949   18.3398673
| 38>     H       19.2769451   14.0636270   19.2105341
| 39>     H       18.0207417   12.4736054   20.6469273
| 40>     H       15.9349948   13.2240560   21.7966848
| 41>     H       14.5841338   14.9072964   22.1689327
| 42>     H       16.3860051   17.1457840   20.0961941
| 43> *
| 44>
| 45>                          ****END OF INPUT****

CARTESIAN COORDINATES (ANGSTROEM)
---------------------------------
  C     15.217598   14.544244   17.192815
  C     15.590881   14.915813   15.739881
  O     16.555362   15.988447   15.712664
  C     17.702285   15.900480   16.447282
  O     18.304286   14.845570   16.562686
  C     17.885852   17.034593   17.412544
  C     17.385374   18.284457   17.235898
  C     16.591063   18.807598   16.057019
  N     17.653264   19.279779   18.181158
  C     18.513719   19.144808   19.238731
  S     18.863377   20.410451   20.244405
  N     19.070671   17.904141   19.420160
  C     18.698406   16.692596   18.665704
  C     17.931161   15.721905   19.559208
  C     18.380272   14.398931   19.726092
  C     17.666218   13.496350   20.531877
  C     16.491337   13.918988   21.176578
  C     16.039292   15.235082   21.010974
  O     14.899675   15.643573   21.623657
  C     16.752667   16.131471   20.209345
  H     16.056047   14.066326   17.714897
  H     14.379405   13.837363   17.200487
  H     14.916805   15.434189   17.759492
  H     16.003949   14.031531   15.235953
  H     14.689336   15.225206   15.195923
  H     15.562999   18.425459   16.083217
  H     17.043993   18.491336   15.109005
  H     16.538839   19.902940   16.036469
  H     17.255012   20.197916   18.064942
  H     19.677622   17.823394   20.225794
  H     19.627413   16.202695   18.339867
  H     19.276945   14.063627   19.210534
  H     18.020742   12.473605   20.646927
  H     15.934995   13.224056   21.796685
  H     14.584134   14.907296   22.168933
  H     16.386005   17.145784   20.096194

 Total Charge           Charge          ....    0
 Multiplicity           Mult            ....    1
 Number of Electrons    NEL             ....  154
 Basis Dimension        Dim             ....  828

ORBITAL ENERGIES
----------------

  NO   OCC          E(Eh)            E(eV)
   0   2.0000     -91.888845     -2500.4226
   1   2.0000     -20.595029      -560.4192
   2   2.0000     -20.590357      -560.2921
   3   2.0000     -20.549706      -559.1859
   4   2.0000     -15.628920      -425.2845
   5   2.0000     -15.607952      -424.7140
   6   2.0000     -11.395282      -310.0814
   7   2.0000     -11.384051      -309.7758
   8   2.0000     -11.335480      -308.4541
   9   2.0000     -11.310870      -307.7844
  10   2.0000     -11.307566      -307.6945
  11   2.0000     -11.300775      -307.5097
  12   2.0000     -11.260387      -306.4107
  13   2.0000     -11.259389      -306.3835
  14   2.0000     -11.256267      -306.2986
  15   2.0000     -11.251231      -306.1616
  16   2.0000     -11.240873      -305.8797
  17   2.0000     -11.236350      -305.7566
  18   2.0000     -11.233833      -305.6881
  19   2.0000     -11.223425      -305.4049
  20   2.0000      -8.893912      -242.0156
  21   2.0000      -6.575488      -178.9281
  22   2.0000      -6.573481      -178.8735
  23   2.0000      -6.572895      -178.8576
  24   2.0000      -1.450317       -39.4651
  25   2.0000      -1.414786       -38.4983
  26   2.0000      -1.355003       -36.8715
  27   2.0000      -1.339958       -36.4621
  28   2.0000      -1.237926       -33.6857
  29   2.0000      -1.155324       -31.4380
  30   2.0000      -1.120810       -30.4988
  31   2.0000      -1.043384       -28.3919
  32   2.0000      -1.030594       -28.0439
  33   2.0000      -1.012694       -27.5568
  34   2.0000      -0.999134       -27.1878
  35   2.0000      -0.984764       -26.7968
  36   2.0000      -0.923306       -25.1244
  37   2.0000      -0.894333       -24.3360
  38   2.0000      -0.848353       -23.0848
  39   2.0000      -0.837535       -22.7905
  40   2.0000      -0.831255       -22.6196
  41   2.0000      -0.815701       -22.1964
  42   2.0000      -0.747712       -20.3463
  43   2.0000      -0.734340       -19.9824
  44   2.0000      -0.727288       -19.7905
  45   2.0000      -0.693179       -18.8624
  46   2.0000      -0.686224       -18.6731
  47   2.0000      -0.677188       -18.4272
  48   2.0000      -0.671978       -18.2855
  49   2.0000      -0.657941       -17.9035
  50   2.0000      -0.654246       -17.8029
  51   2.0000      -0.645486       -17.5646
  52   2.0000      -0.634200       -17.2574
  53   2.0000      -0.615753       -16.7555
  54   2.0000      -0.602973       -16.4077
  55   2.0000      -0.601978       -16.3807
  56   2.0000      -0.598758       -16.2930
  57   2.0000      -0.579086       -15.7577
  58   2.0000      -0.575712       -15.6659
  59   2.0000      -0.563469       -15.3328
  60   2.0000      -0.552455       -15.0331
  61   2.0000      -0.546837       -14.8802
  62   2.0000      -0.533687       -14.5224
  63   2.0000      -0.531713       -14.4687
  64   2.0000      -0.520164       -14.1544
  65   2.0000      -0.510611       -13.8944
  66   2.0000      -0.499011       -13.5788
  67   2.0000      -0.492799       -13.4097
  68   2.0000      -0.481418       -13.1000
  69   2.0000      -0.464283       -12.6338
  70   2.0000      -0.457947       -12.4614
  71   2.0000      -0.449047       -12.2192
  72   2.0000      -0.354432        -9.6446
  73   2.0000      -0.346949        -9.4410
  74   2.0000      -0.328065        -8.9271
  75   2.0000      -0.318381        -8.6636
  76   2.0000      -0.315809        -8.5936
  77   0.0000       0.072690         1.9780
  78   0.0000       0.107480         2.9247
  79   0.0000       0.119282         3.2458
  80   0.0000       0.132713         3.6113
  81   0.0000       0.141515         3.8508

MULLIKEN ATOMIC CHARGES
-----------------------
   0 C :   -0.333793
   1 C :    0.048399
   2 O :   -0.376333
   3 C :    0.450045
   4 O :   -0.416026
   5 C :   -0.181815
   6 C :    0.144213
   7 C :   -0.281548
   8 N :   -0.123819
   9 C :    0.203022
  10 S :   -0.439050
  11 N :   -0.200072
  12 C :    0.050391
  13 C :    0.047501
  14 C :   -0.163865
  15 C :   -0.133760
  16 C :   -0.278374
  17 C :    0.318489
  18 O :   -0.361100
  19 C :   -0.283648
  20 H :    0.131385
  21 H :    0.108178
  22 H :    0.102212
  23 H :    0.106059
  24 H :    0.106750
  25 H :    0.123727
  26 H :    0.127449
  27 H :    0.102949
  28 H :    0.197195
  29 H :    0.194024
  30 H :    0.153610
  31 H :    0.155694
  32 H :    0.161050
  33 H :    0.130343
  34 H :    0.240791
  35 H :    0.169731
Sum of atomic charges:    0.0000000

LOEWDIN ATOMIC CHARGES
----------------------
   0 C :    0.105244
   1 C :   -0.015960
   2 O :    0.291532
   3 C :   -0.416128
   4 O :    0.115166
   5 C :   -0.092872
   6 C :   -0.069424
   7 C :    0.125830
   8 N :    0.404688
   9 C :   -0.458088
  10 S :   -0.035756
  11 N :    0.397646
  12 C :   -0.045650
  13 C :   -0.040584
  14 C :    0.021189
  15 C :    0.040756
  16 C :   -0.002062
  17 C :   -0.192828
  18 O :    0.393803
  19 C :    0.030842
  20 H :   -0.022472
  21 H :   -0.025788
  22 H :   -0.029697
  23 H :   -0.028086
  24 H :   -0.025184
  25 H :   -0.010324
  26 H :   -0.007369
  27 H :   -0.020425
  28 H :   -0.058815
  29 H :   -0.063832
  30 H :   -0.004692
  31 H :   -0.024937
  32 H :   -0.020620
  33 H :   -0.035782
  34 H :   -0.154184
  35 H :   -0.025136

  Mayer bond orders larger than 0.100000
B(  0-C ,  1-C ) :   0.9590 B(  0-C , 20-H ) :   0.9668 B(  0-C , 21-H ) :   0.9766
B(  0-C , 22-H ) :   0.9729 B(  1-C ,  2-O ) :   0.8954 B(  1-C , 23-H ) :   0.9838
B(  1-C , 24-H ) :   0.9836 B(  2-O ,  3-C ) :   1.0998 B(  3-C ,  4-O ) :   2.0084
B(  3-C ,  5-C ) :   1.0416 B(  5-C ,  6-C ) :   1.6556 B(  5-C , 12-C ) :   0.9661
B(  6-C ,  7-C ) :   0.9541 B(  6-C ,  8-N ) :   1.1436 B(  7-C , 25-H ) :   0.9636
B(  7-C , 26-H ) :   0.9674 B(  7-C , 27-H ) :   0.9899 B(  8-N ,  9-C ) :   1.1816
B(  8-N , 28-H ) :   0.9492 B(  9-C , 10-S ) :   1.6111 B(  9-C , 11-N ) :   1.3023
B( 11-N , 12-C ) :   0.9916 B( 11-N , 29-H ) :   0.9519 B( 12-C , 13-C ) :   0.9438
B( 12-C , 30-H ) :   0.9990 B( 13-C , 14-C ) :   1.3781 B( 13-C , 19-C ) :   1.3608
B( 14-C , 15-C ) :   1.3925 B( 14-C , 31-H ) :   0.9646 B( 15-C , 16-C ) :   1.3620
B( 15-C , 32-H ) :   0.9712 B( 16-C , 17-C ) :   1.3325 B( 16-C , 33-H ) :   0.9850
B( 17-C , 18-O ) :   1.1074 B( 17-C , 19-C ) :   1.3709 B( 18-O , 34-H ) :   0.9803
B( 19-C , 35-H ) :   0.9583

MP2 TOTAL ENERGY:    -1274.337331295 Eh
FINAL SINGLE POINT ENERGY     -1274.337331294888

DIPOLE MOMENT
-------------
                                X             Y             Z
Electronic contribution:      9.78026       9.25426       6.53850
Nuclear contribution   :    -11.18837     -10.50201      -7.34024
                        -----------------------------------------
Total Dipole Moment    :     -1.40811      -1.24775      -0.80174
                        -----------------------------------------
Magnitude (a.u.)       :      2.04510
Magnitude (Debye)      :      5.19823

Rotational constants in cm-1:     0.011892     0.009400     0.006629
Rotational constants in MHz :   356.503638   281.802024   198.725070

                             ****ORCA TERMINATED NORMALLY****
TOTAL RUN TIME: 0 days 1 hours 39 minutes 49 seconds 181 msec
