                         Program Version 5.0.0 -  RELEASE  -
|  1> ! ri-mp2 cc-pvtz cc-pvtz/c TightSCF NoKeepInts
|  2>
|  3> %scf
|  4>   MaxCore 4096
|  5> end
|  6> *xyz  0  1
|  7>     C       14.7353521   14.4039717   17.0863574
|  8>     C       15.5356253   15.6573543   16.6978501
|  9>     O       16.7915176   15.1985363   16.1559793
| 10>     C       18.0262432   15.6413824   16.5622802
| 11>     O       18.9823146   14.8893512   16.5199491
| 12>     C       18.0618848   16.8834135   17.3935383
| 13>     C       17.5638016   18.0698644   16.9735351
| 14>     C       16.9463151   18.3754017   15.6258565
| 15>     N       17.6637198   19.1949364   17.7949071
| 16>     C       18.3238202   19.2275757   18.9960866
| 17>     S       18.4404409   20.6174851   19.8839241
| 18>     N       18.8773259   18.0472461   19.4291021
| 19>     C       18.7378842   16.7407162   18.7554277
| 20>     C       17.9640169   15.7476601   19.6173724
| 21>     C       18.4170674   14.4223809   19.7492180
| 22>     C       17.6895609   13.4884942   20.5054731
| 23>     C       16.4948414   13.8806960   21.1325521
| 24>     C       16.0361617   15.1977913   20.9979422
| 25>     O       14.8744691   15.5761505   21.5876031
| 26>     C       16.7629943   16.1259803   20.2458390
| 27>     H       15.2736238   13.8271251   17.8497402
| 28>     H       14.5770461   13.7584487   16.2133710
| 29>     H       13.7556798   14.6811879   17.4939625
| 30>     H       14.9840834   16.2357544   15.9459941
| 31>     H       15.6594365   16.2704192   17.5984276
| 32>     H       17.1040298   17.5651064   14.9032476
| 33>     H       17.3928884   19.2763912   15.1860300
| 34>     H       15.8664007   18.5446112   15.7143545
| 35>     H       17.2765353   20.0744619   17.4902365
| 36>     H       19.3385639   18.0968152   20.3288808
| 37>     H       19.7483313   16.3390070   18.5881152
| 38>     H       19.3285483   14.1094131   19.2441584
| 39>     H       18.0486928   12.4644980   20.5940837
| 40>     H       15.9276724   13.1605691   21.7130827
| 41>     H       14.5535993   14.8226517   22.1062019
| 42>     H       16.3865111   17.1391517   20.1533196
| 43> *
| 44>
| 45>                          ****END OF INPUT****

CARTESIAN COORDINATES (ANGSTROEM)
---------------------------------
  C     14.735352   14.403972   17.086357
  C     15.535625   15.657354   16.697850
  O     16.791518   15.198536   16.155979
  C     18.026243   15.641382   16.562280
  O     18.982315   14.889351   16.519949
  C     18.061885   16.883413   17.393538
  C     17.563802   18.069864   16.973535
  C     16.946315   18.375402   15.625856
  N     17.663720   19.194936   17.794907
  C     18.323820   19.227576   18.996087
  S     18.440441   20.617485   19.883924
  N     18.877326   18.047246   19.429102
  C     18.737884   16.740716   18.755428
  C     17.964017   15.747660   19.617372
  C     18.417067   14.422381   19.749218
  C     17.689561   13.488494   20.505473
  C     16.494841   13.880696   21.132552
  C     16.036162   15.197791   20.997942
  O     14.874469   15.576150   21.587603
  C     16.762994   16.125980   20.245839
  H     15.273624   13.827125   17.849740
  H     14.577046   13.758449   16.213371
  H     13.755680   14.681188   17.493962
  H     14.984083   16.235754   15.945994
  H     15.659436   16.270419   17.598428
  H     17.104030   17.565106   14.903248
  H     17.392888   19.276391   15.186030
  H     15.866401   18.544611   15.714355
  H     17.276535   20.074462   17.490237
  H     19.338564   18.096815   20.328881
  H     19.748331   16.339007   18.588115
  H     19.328548   14.109413   19.244158
  H     18.048693   12.464498   20.594084
  H     15.927672   13.160569   21.713083
  H     14.553599   14.822652   22.106202
  H     16.386511   17.139152   20.153320

 Total Charge           Charge          ....    0
 Multiplicity           Mult            ....    1
 Number of Electrons    NEL             ....  154
 Basis Dimension        Dim             ....  828

ORBITAL ENERGIES
----------------

  NO   OCC          E(Eh)            E(eV)
   0   2.0000     -91.890897     -2500.4784
   1   2.0000     -20.600772      -560.5755
   2   2.0000     -20.600495      -560.5680
   3   2.0000     -20.548325      -559.1484
   4   2.0000     -15.628650      -425.2772
   5   2.0000     -15.612088      -424.8265
   6   2.0000     -11.397411      -310.1393
   7   2.0000     -11.387594      -309.8722
   8   2.0000     -11.331781      -308.3534
   9   2.0000     -11.317298      -307.9593
  10   2.0000     -11.314263      -307.8767
  11   2.0000     -11.303713      -307.5897
  12   2.0000     -11.269000      -306.6451
  13   2.0000     -11.264540      -306.5237
  14   2.0000     -11.263769      -306.5027
  15   2.0000     -11.257034      -306.3195
  16   2.0000     -11.246451      -306.0315
  17   2.0000     -11.243016      -305.9380
  18   2.0000     -11.239533      -305.8433
  19   2.0000     -11.228703      -305.5486
  20   2.0000      -8.896002      -242.0725
  21   2.0000      -6.577586      -178.9852
  22   2.0000      -6.575564      -178.9302
  23   2.0000      -6.574985      -178.9144
  24   2.0000      -1.447219       -39.3808
  25   2.0000      -1.420288       -38.6480
  26   2.0000      -1.358854       -36.9763
  27   2.0000      -1.341414       -36.5017
  28   2.0000      -1.240776       -33.7632
  29   2.0000      -1.161970       -31.6188
  30   2.0000      -1.126116       -30.6432
  31   2.0000      -1.049408       -28.5559
  32   2.0000      -1.038451       -28.2577
  33   2.0000      -1.019298       -27.7365
  34   2.0000      -1.005673       -27.3657
  35   2.0000      -0.989988       -26.9390
  36   2.0000      -0.928344       -25.2615
  37   2.0000      -0.881797       -23.9949
  38   2.0000      -0.856058       -23.2945
  39   2.0000      -0.842618       -22.9288
  40   2.0000      -0.837473       -22.7888
  41   2.0000      -0.836590       -22.7648
  42   2.0000      -0.755202       -20.5501
  43   2.0000      -0.740888       -20.1606
  44   2.0000      -0.731751       -19.9120
  45   2.0000      -0.698617       -19.0103
  46   2.0000      -0.688781       -18.7427
  47   2.0000      -0.680692       -18.5226
  48   2.0000      -0.677670       -18.4403
  49   2.0000      -0.659201       -17.9378
  50   2.0000      -0.659038       -17.9333
  51   2.0000      -0.649524       -17.6744
  52   2.0000      -0.640850       -17.4384
  53   2.0000      -0.611973       -16.6526
  54   2.0000      -0.608780       -16.5658
  55   2.0000      -0.604563       -16.4510
  56   2.0000      -0.597730       -16.2650
  57   2.0000      -0.582638       -15.8544
  58   2.0000      -0.579052       -15.7568
  59   2.0000      -0.571043       -15.5389
  60   2.0000      -0.561703       -15.2847
  61   2.0000      -0.560107       -15.2413
  62   2.0000      -0.548583       -14.9277
  63   2.0000      -0.528004       -14.3677
  64   2.0000      -0.518231       -14.1018
  65   2.0000      -0.515608       -14.0304
  66   2.0000      -0.503120       -13.6906
  67   2.0000      -0.501199       -13.6383
  68   2.0000      -0.489666       -13.3245
  69   2.0000      -0.472251       -12.8506
  70   2.0000      -0.453202       -12.3322
  71   2.0000      -0.450185       -12.2502
  72   2.0000      -0.357288        -9.7223
  73   2.0000      -0.352732        -9.5983
  74   2.0000      -0.330481        -8.9929
  75   2.0000      -0.324860        -8.8399
  76   2.0000      -0.319192        -8.6856
  77   0.0000       0.081340         2.2134
  78   0.0000       0.103200         2.8082
  79   0.0000       0.114750         3.1225
  80   0.0000       0.127322         3.4646
  81   0.0000       0.134713         3.6657

MULLIKEN ATOMIC CHARGES
-----------------------
   0 C :   -0.256695
   1 C :    0.000991
   2 O :   -0.314676
   3 C :    0.405824
   4 O :   -0.386219
   5 C :   -0.203271
   6 C :    0.143751
   7 C :   -0.326145
   8 N :   -0.134537
   9 C :    0.201918
  10 S :   -0.439270
  11 N :   -0.211256
  12 C :    0.073572
  13 C :    0.034966
  14 C :   -0.191594
  15 C :   -0.129079
  16 C :   -0.279734
  17 C :    0.321122
  18 O :   -0.359209
  19 C :   -0.298058
  20 H :    0.108110
  21 H :    0.104964
  22 H :    0.088885
  23 H :    0.103538
  24 H :    0.107134
  25 H :    0.133536
  26 H :    0.136237
  27 H :    0.122137
  28 H :    0.196861
  29 H :    0.197688
  30 H :    0.163058
  31 H :    0.167202
  32 H :    0.164219
  33 H :    0.132605
  34 H :    0.242067
  35 H :    0.179361
Sum of atomic charges:    0.0000000

LOEWDIN ATOMIC CHARGES
----------------------
   0 C :    0.110464
   1 C :   -0.022258
   2 O :    0.307324
   3 C :   -0.416948
   4 O :    0.121360
   5 C :   -0.086043
   6 C :   -0.096758
   7 C :    0.125856
   8 N :    0.402026
   9 C :   -0.456359
  10 S :   -0.036327
  11 N :    0.397116
  12 C :   -0.044987
  13 C :   -0.043807
  14 C :    0.023422
  15 C :    0.045404
  16 C :   -0.000035
  17 C :   -0.193800
  18 O :    0.394571
  19 C :    0.026557
  20 H :   -0.021927
  21 H :   -0.025685
  22 H :   -0.026015
  23 H :   -0.035315
  24 H :   -0.037503
  25 H :   -0.006865
  26 H :   -0.010496
  27 H :   -0.016985
  28 H :   -0.057411
  29 H :   -0.063538
  30 H :   -0.002543
  31 H :   -0.021658
  32 H :   -0.018427
  33 H :   -0.034622
  34 H :   -0.152749
  35 H :   -0.025038

  Mayer bond orders larger than 0.100000
B(  0-C ,  1-C ) :   0.9852 B(  0-C , 20-H ) :   0.9742 B(  0-C , 21-H ) :   0.9800
B(  0-C , 22-H ) :   0.9766 B(  1-C ,  2-O ) :   0.9016 B(  1-C , 23-H ) :   0.9760
B(  1-C , 24-H ) :   0.9582 B(  2-O ,  3-C ) :   1.1947 B(  3-C ,  4-O ) :   2.0873
B(  3-C ,  5-C ) :   0.9303 B(  5-C ,  6-C ) :   1.6811 B(  5-C , 12-C ) :   0.9596
B(  6-C ,  7-C ) :   0.9408 B(  6-C ,  8-N ) :   1.1237 B(  7-C , 25-H ) :   0.9789
B(  7-C , 26-H ) :   0.9724 B(  7-C , 27-H ) :   0.9654 B(  8-N ,  9-C ) :   1.1918
B(  8-N , 28-H ) :   0.9518 B(  9-C , 10-S ) :   1.6134 B(  9-C , 11-N ) :   1.2896
B( 11-N , 12-C ) :   0.9990 B( 11-N , 29-H ) :   0.9497 B( 12-C , 13-C ) :   0.9408
B( 12-C , 30-H ) :   0.9974 B( 13-C , 14-C ) :   1.3883 B( 13-C , 19-C ) :   1.3417
B( 14-C , 15-C ) :   1.3954 B( 14-C , 31-H ) :   0.9608 B( 15-C , 16-C ) :   1.3627
B( 15-C , 32-H ) :   0.9700 B( 16-C , 17-C ) :   1.3296 B( 16-C , 33-H ) :   0.9846
B( 17-C , 18-O ) :   1.1084 B( 17-C , 19-C ) :   1.3674 B( 18-O , 34-H ) :   0.9790
B( 19-C , 35-H ) :   0.9558

MP2 TOTAL ENERGY:    -1274.336261870 Eh
FINAL SINGLE POINT ENERGY     -1274.336261869563

DIPOLE MOMENT
-------------
                                X             Y             Z
Electronic contribution:     10.48140       8.27092       6.25599
Nuclear contribution   :    -11.99333      -9.19923      -6.63298
                        -----------------------------------------
Total Dipole Moment    :     -1.51193      -0.92831      -0.37698
                        -----------------------------------------
Magnitude (a.u.)       :      1.81378
Magnitude (Debye)      :      4.61026

Rotational constants in cm-1:     0.012332     0.009073     0.006873
Rotational constants in MHz :   369.705324   272.014797   206.056789

                             ****ORCA TERMINATED NORMALLY****
TOTAL RUN TIME: 0 days 1 hours 42 minutes 28 seconds 631 msec
