                         Program Version 5.0.0 -  RELEASE  -
|  1> ! ri-mp2 cc-pvtz cc-pvtz/c TightSCF NoKeepInts
|  2>
|  3> %scf
|  4>   MaxCore 4096
|  5> end
|  6> *xyz  0  1
|  7>     C       15.3906998   14.0675993   17.0049648
|  8>     C       15.3108109   15.4524856   16.3284722
|  9>     O       16.5727601   15.8395804   15.7405454
| 10>     C       17.7204278   15.7681899   16.4751952
| 11>     O       18.3357742   14.7235364   16.5999451
| 12>     C       17.9431410   16.9475699   17.3743992
| 13>     C       17.5148655   18.2074358   17.1065734
| 14>     C       16.7937903   18.6962371   15.8673367
| 15>     N       17.8015047   19.2432747   18.0008498
| 16>     C       18.6062837   19.1264632   19.1034447
| 17>     S       18.9713304   20.4282252   20.0558145
| 18>     N       19.0926226   17.8730603   19.3775528
| 19>     C       18.7088840   16.6402682   18.6642924
| 20>     C       17.8868950   15.7313002   19.5727278
| 21>     C       18.2970615   14.4080309   19.8179332
| 22>     C       17.5308730   13.5612026   20.6362734
| 23>     C       16.3426535   14.0403146   21.2136713
| 24>     C       15.9292195   15.3567646   20.9690750
| 25>     O       14.7766274   15.8193749   21.5152228
| 26>     C       16.6941572   16.1977181   20.1549410
| 27>     H       15.8039851   13.3216864   16.3141866
| 28>     H       14.3923413   13.7333631   17.3112685
| 29>     H       16.0215265   14.0951842   17.9016447
| 30>     H       14.5431809   15.4291958   15.5442950
| 31>     H       15.0043102   16.1954883   17.0765924
| 32>     H       17.2127963   18.2379464   14.9624193
| 33>     H       16.8766130   19.7823392   15.7373472
| 34>     H       15.7272538   18.4456173   15.9097512
| 35>     H       17.4589623   20.1725706   17.8150906
| 36>     H       19.6604096   17.8096402   20.2129209
| 37>     H       19.6324941   16.1110958   18.3876490
| 38>     H       19.2041079   14.0282106   19.3536884
| 39>     H       17.8555419   12.5371144   20.8123010
| 40>     H       15.7462454   13.3879367   21.8428433
| 41>     H       14.4284340   15.1216466   22.0908733
| 42>     H       16.3584156   17.2143327   19.9818975
| 43> *
| 44>
| 45>                          ****END OF INPUT****

CARTESIAN COORDINATES (ANGSTROEM)
---------------------------------
  C     15.390700   14.067599   17.004965
  C     15.310811   15.452486   16.328472
  O     16.572760   15.839580   15.740545
  C     17.720428   15.768190   16.475195
  O     18.335774   14.723536   16.599945
  C     17.943141   16.947570   17.374399
  C     17.514865   18.207436   17.106573
  C     16.793790   18.696237   15.867337
  N     17.801505   19.243275   18.000850
  C     18.606284   19.126463   19.103445
  S     18.971330   20.428225   20.055814
  N     19.092623   17.873060   19.377553
  C     18.708884   16.640268   18.664292
  C     17.886895   15.731300   19.572728
  C     18.297062   14.408031   19.817933
  C     17.530873   13.561203   20.636273
  C     16.342654   14.040315   21.213671
  C     15.929220   15.356765   20.969075
  O     14.776627   15.819375   21.515223
  C     16.694157   16.197718   20.154941
  H     15.803985   13.321686   16.314187
  H     14.392341   13.733363   17.311268
  H     16.021527   14.095184   17.901645
  H     14.543181   15.429196   15.544295
  H     15.004310   16.195488   17.076592
  H     17.212796   18.237946   14.962419
  H     16.876613   19.782339   15.737347
  H     15.727254   18.445617   15.909751
  H     17.458962   20.172571   17.815091
  H     19.660410   17.809640   20.212921
  H     19.632494   16.111096   18.387649
  H     19.204108   14.028211   19.353688
  H     17.855542   12.537114   20.812301
  H     15.746245   13.387937   21.842843
  H     14.428434   15.121647   22.090873
  H     16.358416   17.214333   19.981897

 Total Charge           Charge          ....    0
 Multiplicity           Mult            ....    1
 Number of Electrons    NEL             ....  154
 Basis Dimension        Dim             ....  828

ORBITAL ENERGIES
----------------

  NO   OCC          E(Eh)            E(eV)
   0   2.0000     -91.890197     -2500.4594
   1   2.0000     -20.597779      -560.4941
   2   2.0000     -20.583967      -560.1182
   3   2.0000     -20.553773      -559.2966
   4   2.0000     -15.630396      -425.3247
   5   2.0000     -15.609453      -424.7548
   6   2.0000     -11.394670      -310.0647
   7   2.0000     -11.385637      -309.8189
   8   2.0000     -11.337226      -308.5016
   9   2.0000     -11.314175      -307.8744
  10   2.0000     -11.308832      -307.7290
  11   2.0000     -11.305480      -307.6377
  12   2.0000     -11.262119      -306.4578
  13   2.0000     -11.260779      -306.4214
  14   2.0000     -11.259289      -306.3808
  15   2.0000     -11.254053      -306.2383
  16   2.0000     -11.243690      -305.9564
  17   2.0000     -11.239741      -305.8489
  18   2.0000     -11.236684      -305.7657
  19   2.0000     -11.221522      -305.3531
  20   2.0000      -8.895269      -242.0526
  21   2.0000      -6.576844      -178.9650
  22   2.0000      -6.574836      -178.9104
  23   2.0000      -6.574249      -178.8944
  24   2.0000      -1.447374       -39.3850
  25   2.0000      -1.417551       -38.5735
  26   2.0000      -1.356870       -36.9223
  27   2.0000      -1.341505       -36.5042
  28   2.0000      -1.239572       -33.7305
  29   2.0000      -1.158305       -31.5191
  30   2.0000      -1.122399       -30.5420
  31   2.0000      -1.045508       -28.4497
  32   2.0000      -1.030735       -28.0477
  33   2.0000      -1.015690       -27.6383
  34   2.0000      -1.001610       -27.2552
  35   2.0000      -0.986521       -26.8446
  36   2.0000      -0.925324       -25.1793
  37   2.0000      -0.889680       -24.2094
  38   2.0000      -0.851771       -23.1779
  39   2.0000      -0.840545       -22.8724
  40   2.0000      -0.834172       -22.6990
  41   2.0000      -0.826694       -22.4955
  42   2.0000      -0.745417       -20.2838
  43   2.0000      -0.730143       -19.8682
  44   2.0000      -0.728777       -19.8310
  45   2.0000      -0.695738       -18.9320
  46   2.0000      -0.686306       -18.6753
  47   2.0000      -0.680368       -18.5138
  48   2.0000      -0.675273       -18.3751
  49   2.0000      -0.666368       -18.1328
  50   2.0000      -0.649794       -17.6818
  51   2.0000      -0.648045       -17.6342
  52   2.0000      -0.637884       -17.3577
  53   2.0000      -0.615193       -16.7402
  54   2.0000      -0.606683       -16.5087
  55   2.0000      -0.603809       -16.4305
  56   2.0000      -0.600889       -16.3510
  57   2.0000      -0.579349       -15.7649
  58   2.0000      -0.575333       -15.6556
  59   2.0000      -0.567780       -15.4501
  60   2.0000      -0.554025       -15.0758
  61   2.0000      -0.550613       -14.9829
  62   2.0000      -0.536801       -14.6071
  63   2.0000      -0.527869       -14.3640
  64   2.0000      -0.520752       -14.1704
  65   2.0000      -0.512213       -13.9380
  66   2.0000      -0.500969       -13.6321
  67   2.0000      -0.490169       -13.3382
  68   2.0000      -0.484098       -13.1730
  69   2.0000      -0.466682       -12.6991
  70   2.0000      -0.457491       -12.4489
  71   2.0000      -0.449054       -12.2194
  72   2.0000      -0.356640        -9.7047
  73   2.0000      -0.350104        -9.5268
  74   2.0000      -0.329519        -8.9667
  75   2.0000      -0.321439        -8.7468
  76   2.0000      -0.317686        -8.6447
  77   0.0000       0.070820         1.9271
  78   0.0000       0.103604         2.8192
  79   0.0000       0.119246         3.2448
  80   0.0000       0.130582         3.5533
  81   0.0000       0.138036         3.7561

MULLIKEN ATOMIC CHARGES
-----------------------
   0 C :   -0.282675
   1 C :    0.020105
   2 O :   -0.376356
   3 C :    0.459469
   4 O :   -0.389432
   5 C :   -0.232448
   6 C :    0.159269
   7 C :   -0.288205
   8 N :   -0.125095
   9 C :    0.203379
  10 S :   -0.438161
  11 N :   -0.201515
  12 C :    0.059813
  13 C :    0.020356
  14 C :   -0.155117
  15 C :   -0.134370
  16 C :   -0.274560
  17 C :    0.305977
  18 O :   -0.359870
  19 C :   -0.265587
  20 H :    0.113106
  21 H :    0.096188
  22 H :    0.112762
  23 H :    0.116824
  24 H :    0.085020
  25 H :    0.134274
  26 H :    0.108929
  27 H :    0.120707
  28 H :    0.197285
  29 H :    0.194703
  30 H :    0.154802
  31 H :    0.156167
  32 H :    0.161110
  33 H :    0.131371
  34 H :    0.241535
  35 H :    0.170240
Sum of atomic charges:    0.0000000

LOEWDIN ATOMIC CHARGES
----------------------
   0 C :    0.109338
   1 C :   -0.020499
   2 O :    0.284613
   3 C :   -0.418808
   4 O :    0.131457
   5 C :   -0.095203
   6 C :   -0.072283
   7 C :    0.126810
   8 N :    0.404693
   9 C :   -0.457930
  10 S :   -0.034817
  11 N :    0.397410
  12 C :   -0.046313
  13 C :   -0.042811
  14 C :    0.021624
  15 C :    0.042649
  16 C :   -0.001041
  17 C :   -0.193667
  18 O :    0.393846
  19 C :    0.027584
  20 H :   -0.021878
  21 H :   -0.027095
  22 H :   -0.025410
  23 H :   -0.022255
  24 H :   -0.038984
  25 H :   -0.005843
  26 H :   -0.018752
  27 H :   -0.012231
  28 H :   -0.058366
  29 H :   -0.063698
  30 H :   -0.004512
  31 H :   -0.024211
  32 H :   -0.019794
  33 H :   -0.035171
  34 H :   -0.153468
  35 H :   -0.024987

  Mayer bond orders larger than 0.100000
B(  0-C ,  1-C ) :   0.9808 B(  0-C , 20-H ) :   0.9739 B(  0-C , 21-H ) :   0.9757
B(  0-C , 22-H ) :   0.9663 B(  1-C ,  2-O ) :   0.8992 B(  1-C , 23-H ) :   0.9782
B(  1-C , 24-H ) :   0.9713 B(  2-O ,  3-C ) :   1.0944 B(  3-C ,  4-O ) :   2.0574
B(  3-C ,  5-C ) :   1.0023 B(  5-C ,  6-C ) :   1.6597 B(  5-C , 12-C ) :   0.9669
B(  6-C ,  7-C ) :   0.9501 B(  6-C ,  8-N ) :   1.1457 B(  7-C , 25-H ) :   0.9673
B(  7-C , 26-H ) :   0.9875 B(  7-C , 27-H ) :   0.9661 B(  8-N ,  9-C ) :   1.1822
B(  8-N , 28-H ) :   0.9491 B(  9-C , 10-S ) :   1.6118 B(  9-C , 11-N ) :   1.3018
B( 11-N , 12-C ) :   0.9931 B( 11-N , 29-H ) :   0.9518 B( 12-C , 13-C ) :   0.9416
B( 12-C , 30-H ) :   0.9984 B( 13-C , 14-C ) :   1.3815 B( 13-C , 19-C ) :   1.3690
B( 14-C , 15-C ) :   1.3925 B( 14-C , 31-H ) :   0.9646 B( 15-C , 16-C ) :   1.3631
B( 15-C , 32-H ) :   0.9715 B( 16-C , 17-C ) :   1.3320 B( 16-C , 33-H ) :   0.9848
B( 17-C , 18-O ) :   1.1107 B( 17-C , 19-C ) :   1.3705 B( 18-O , 34-H ) :   0.9795
B( 19-C , 35-H ) :   0.9574

MP2 TOTAL ENERGY:    -1274.331706260 Eh
FINAL SINGLE POINT ENERGY     -1274.331706260013

DIPOLE MOMENT
-------------
                                X             Y             Z
Electronic contribution:      9.87012       9.23047       6.08860
Nuclear contribution   :    -11.34679     -10.23952      -6.55471
                        -----------------------------------------
Total Dipole Moment    :     -1.47667      -1.00904      -0.46611
                        -----------------------------------------
Magnitude (a.u.)       :      1.84823
Magnitude (Debye)      :      4.69784

Rotational constants in cm-1:     0.012236     0.009275     0.006706
Rotational constants in MHz :   366.829649   278.053688   201.027337

                             ****ORCA TERMINATED NORMALLY****
TOTAL RUN TIME: 0 days 2 hours 8 minutes 54 seconds 610 msec
