                         Program Version 5.0.0 -  RELEASE  -
|  1> ! ri-mp2 cc-pvtz cc-pvtz/c TightSCF NoKeepInts
|  2>
|  3> %scf
|  4>   MaxCore 4096
|  5> end
|  6> *xyz  0  1
|  7>     C       15.2670689   14.4040756   14.3639376
|  8>     C       15.1777689   14.6491971   15.8797581
|  9>     O       16.0712139   15.7332654   16.1959159
| 10>     C       17.1742467   15.5135417   16.9705763
| 11>     O       17.5997451   14.3931178   17.2002297
| 12>     C       17.6946745   16.7317252   17.6806230
| 13>     C       17.3864667   18.0169493   17.3616855
| 14>     C       16.4868280   18.5163932   16.2493759
| 15>     N       17.9879127   19.0687404   18.0612907
| 16>     C       19.0047179   18.9277707   18.9682242
| 17>     S       19.7519044   20.2358588   19.6510676
| 18>     N       19.3707038   17.6432875   19.2797567
| 19>     C       18.6504064   16.4331135   18.8419701
| 20>     C       17.9080315   15.8001411   20.0162368
| 21>     C       18.1217908   14.4497848   20.3494217
| 22>     C       17.4402626   13.8609914   21.4277431
| 23>     C       16.5359441   14.6284672   22.1812474
| 24>     C       16.3171232   15.9726839   21.8507036
| 25>     O       15.4399717   16.7148566   22.5726392
| 26>     C       16.9965644   16.5557828   20.7765216
| 27>     H       15.0124705   15.3142495   13.8069916
| 28>     H       14.5741875   13.6095633   14.0613501
| 29>     H       16.2827593   14.0973152   14.0838134
| 30>     H       14.1506115   14.9351141   16.1401529
| 31>     H       15.4216783   13.7297764   16.4294039
| 32>     H       16.7656436   18.0632995   15.2897890
| 33>     H       16.5387700   19.6039345   16.1177090
| 34>     H       15.4399080   18.2594908   16.4535324
| 35>     H       17.7333148   20.0194579   17.8463169
| 36>     H       20.1013264   17.5650765   19.9754430
| 37>     H       19.4003452   15.7139425   18.4819159
| 38>     H       18.8078736   13.8492228   19.7570462
| 39>     H       17.6103212   12.8137107   21.6707972
| 40>     H       16.0061376   14.1772249   23.0134565
| 41>     H       15.1034394   16.1521669   23.2859852
| 42>     H       16.8148669   17.5987108   20.5413722
| 43> *
| 44>
| 45>                          ****END OF INPUT****

CARTESIAN COORDINATES (ANGSTROEM)
---------------------------------
  C     15.267069   14.404076   14.363938
  C     15.177769   14.649197   15.879758
  O     16.071214   15.733265   16.195916
  C     17.174247   15.513542   16.970576
  O     17.599745   14.393118   17.200230
  C     17.694675   16.731725   17.680623
  C     17.386467   18.016949   17.361686
  C     16.486828   18.516393   16.249376
  N     17.987913   19.068740   18.061291
  C     19.004718   18.927771   18.968224
  S     19.751904   20.235859   19.651068
  N     19.370704   17.643287   19.279757
  C     18.650406   16.433114   18.841970
  C     17.908031   15.800141   20.016237
  C     18.121791   14.449785   20.349422
  C     17.440263   13.860991   21.427743
  C     16.535944   14.628467   22.181247
  C     16.317123   15.972684   21.850704
  O     15.439972   16.714857   22.572639
  C     16.996564   16.555783   20.776522
  H     15.012470   15.314250   13.806992
  H     14.574188   13.609563   14.061350
  H     16.282759   14.097315   14.083813
  H     14.150611   14.935114   16.140153
  H     15.421678   13.729776   16.429404
  H     16.765644   18.063299   15.289789
  H     16.538770   19.603935   16.117709
  H     15.439908   18.259491   16.453532
  H     17.733315   20.019458   17.846317
  H     20.101326   17.565076   19.975443
  H     19.400345   15.713942   18.481916
  H     18.807874   13.849223   19.757046
  H     17.610321   12.813711   21.670797
  H     16.006138   14.177225   23.013457
  H     15.103439   16.152167   23.285985
  H     16.814867   17.598711   20.541372

 Total Charge           Charge          ....    0
 Multiplicity           Mult            ....    1
 Number of Electrons    NEL             ....  154
 Basis Dimension        Dim             ....  828

ORBITAL ENERGIES
----------------

  NO   OCC          E(Eh)            E(eV)
   0   2.0000     -91.888013     -2500.3999
   1   2.0000     -20.602867      -560.6325
   2   2.0000     -20.591235      -560.3160
   3   2.0000     -20.545846      -559.0809
   4   2.0000     -15.628445      -425.2716
   5   2.0000     -15.606569      -424.6763
   6   2.0000     -11.396715      -310.1204
   7   2.0000     -11.382852      -309.7432
   8   2.0000     -11.336578      -308.4840
   9   2.0000     -11.307034      -307.6800
  10   2.0000     -11.305306      -307.6330
  11   2.0000     -11.299177      -307.4662
  12   2.0000     -11.260662      -306.4182
  13   2.0000     -11.258997      -306.3729
  14   2.0000     -11.253002      -306.2098
  15   2.0000     -11.247175      -306.0512
  16   2.0000     -11.236824      -305.7695
  17   2.0000     -11.232967      -305.6646
  18   2.0000     -11.230270      -305.5912
  19   2.0000     -11.229926      -305.5818
  20   2.0000      -8.893076      -241.9929
  21   2.0000      -6.574653      -178.9054
  22   2.0000      -6.572646      -178.8508
  23   2.0000      -6.572060      -178.8349
  24   2.0000      -1.453777       -39.5593
  25   2.0000      -1.410967       -38.3944
  26   2.0000      -1.357511       -36.9397
  27   2.0000      -1.339347       -36.4455
  28   2.0000      -1.236889       -33.6575
  29   2.0000      -1.151716       -31.3398
  30   2.0000      -1.119358       -30.4593
  31   2.0000      -1.043454       -28.3938
  32   2.0000      -1.036034       -28.1919
  33   2.0000      -1.009069       -27.4582
  34   2.0000      -0.997351       -27.1393
  35   2.0000      -0.982836       -26.7443
  36   2.0000      -0.920949       -25.0603
  37   2.0000      -0.890310       -24.2266
  38   2.0000      -0.847388       -23.0586
  39   2.0000      -0.834943       -22.7200
  40   2.0000      -0.827401       -22.5147
  41   2.0000      -0.818113       -22.2620
  42   2.0000      -0.759848       -20.6765
  43   2.0000      -0.735790       -20.0219
  44   2.0000      -0.724623       -19.7180
  45   2.0000      -0.690129       -18.7794
  46   2.0000      -0.684831       -18.6352
  47   2.0000      -0.679951       -18.5024
  48   2.0000      -0.672410       -18.2972
  49   2.0000      -0.654822       -17.8186
  50   2.0000      -0.648053       -17.6344
  51   2.0000      -0.641901       -17.4670
  52   2.0000      -0.629409       -17.1271
  53   2.0000      -0.614477       -16.7208
  54   2.0000      -0.600214       -16.3326
  55   2.0000      -0.599337       -16.3088
  56   2.0000      -0.594529       -16.1780
  57   2.0000      -0.583069       -15.8661
  58   2.0000      -0.572763       -15.5857
  59   2.0000      -0.563924       -15.3452
  60   2.0000      -0.561247       -15.2723
  61   2.0000      -0.545368       -14.8402
  62   2.0000      -0.535084       -14.5604
  63   2.0000      -0.531504       -14.4630
  64   2.0000      -0.516790       -14.0626
  65   2.0000      -0.509473       -13.8635
  66   2.0000      -0.500313       -13.6142
  67   2.0000      -0.495135       -13.4733
  68   2.0000      -0.480496       -13.0750
  69   2.0000      -0.462770       -12.5926
  70   2.0000      -0.458448       -12.4750
  71   2.0000      -0.454284       -12.3617
  72   2.0000      -0.354216        -9.6387
  73   2.0000      -0.343607        -9.3500
  74   2.0000      -0.327120        -8.9014
  75   2.0000      -0.315486        -8.5848
  76   2.0000      -0.313384        -8.5276
  77   0.0000       0.075825         2.0633
  78   0.0000       0.113557         3.0900
  79   0.0000       0.121167         3.2971
  80   0.0000       0.136039         3.7018
  81   0.0000       0.139844         3.8054

MULLIKEN ATOMIC CHARGES
-----------------------
   0 C :   -0.271600
   1 C :    0.025118
   2 O :   -0.347625
   3 C :    0.453358
   4 O :   -0.431335
   5 C :   -0.180649
   6 C :    0.144251
   7 C :   -0.285042
   8 N :   -0.121600
   9 C :    0.200985
  10 S :   -0.439246
  11 N :   -0.196792
  12 C :    0.034893
  13 C :    0.057112
  14 C :   -0.161120
  15 C :   -0.134026
  16 C :   -0.278836
  17 C :    0.311548
  18 O :   -0.359173
  19 C :   -0.272033
  20 H :    0.090322
  21 H :    0.094075
  22 H :    0.102446
  23 H :    0.101796
  24 H :    0.118034
  25 H :    0.126823
  26 H :    0.102482
  27 H :    0.127555
  28 H :    0.196720
  29 H :    0.193597
  30 H :    0.153569
  31 H :    0.153329
  32 H :    0.158886
  33 H :    0.127845
  34 H :    0.239993
  35 H :    0.164336
Sum of atomic charges:    0.0000000

LOEWDIN ATOMIC CHARGES
----------------------
   0 C :    0.103957
   1 C :   -0.012556
   2 O :    0.307295
   3 C :   -0.414394
   4 O :    0.102494
   5 C :   -0.091065
   6 C :   -0.065466
   7 C :    0.124851
   8 N :    0.404871
   9 C :   -0.459018
  10 S :   -0.035957
  11 N :    0.397909
  12 C :   -0.046501
  13 C :   -0.038835
  14 C :    0.022096
  15 C :    0.040791
  16 C :   -0.002318
  17 C :   -0.192563
  18 O :    0.392959
  19 C :    0.028474
  20 H :   -0.029801
  21 H :   -0.026056
  22 H :   -0.024589
  23 H :   -0.029466
  24 H :   -0.026616
  25 H :   -0.008740
  26 H :   -0.021054
  27 H :   -0.009580
  28 H :   -0.059188
  29 H :   -0.063636
  30 H :   -0.005077
  31 H :   -0.025345
  32 H :   -0.021309
  33 H :   -0.036457
  34 H :   -0.154952
  35 H :   -0.025158

  Mayer bond orders larger than 0.100000
B(  0-C ,  1-C ) :   0.9703 B(  0-C , 20-H ) :   0.9791 B(  0-C , 21-H ) :   0.9759
B(  0-C , 22-H ) :   0.9783 B(  1-C ,  2-O ) :   0.8847 B(  1-C , 23-H ) :   0.9825
B(  1-C , 24-H ) :   0.9726 B(  2-O ,  3-C ) :   1.1576 B(  3-C ,  4-O ) :   1.9764
B(  3-C ,  5-C ) :   1.0567 B(  5-C ,  6-C ) :   1.6479 B(  5-C , 12-C ) :   0.9650
B(  6-C ,  7-C ) :   0.9544 B(  6-C ,  8-N ) :   1.1487 B(  7-C , 25-H ) :   0.9660
B(  7-C , 26-H ) :   0.9914 B(  7-C , 27-H ) :   0.9638 B(  8-N ,  9-C ) :   1.1782
B(  8-N , 28-H ) :   0.9488 B(  9-C , 10-S ) :   1.6108 B(  9-C , 11-N ) :   1.3045
B( 11-N , 12-C ) :   0.9925 B( 11-N , 29-H ) :   0.9520 B( 12-C , 13-C ) :   0.9480
B( 12-C , 30-H ) :   1.0001 B( 13-C , 14-C ) :   1.3757 B( 13-C , 19-C ) :   1.3693
B( 14-C , 15-C ) :   1.3946 B( 14-C , 31-H ) :   0.9650 B( 15-C , 16-C ) :   1.3626
B( 15-C , 32-H ) :   0.9715 B( 16-C , 17-C ) :   1.3315 B( 16-C , 33-H ) :   0.9861
B( 17-C , 18-O ) :   1.1079 B( 17-C , 19-C ) :   1.3792 B( 18-O , 34-H ) :   0.9807
B( 19-C , 35-H ) :   0.9586

MP2 TOTAL ENERGY:    -1274.346150149 Eh
FINAL SINGLE POINT ENERGY     -1274.346150148789

DIPOLE MOMENT
-------------
                                X             Y             Z
Electronic contribution:     10.67133       9.10170      12.14338
Nuclear contribution   :    -12.35528     -10.26578     -12.99141
                        -----------------------------------------
Total Dipole Moment    :     -1.68395      -1.16407      -0.84804
                        -----------------------------------------
Magnitude (a.u.)       :      2.21583
Magnitude (Debye)      :      5.63220

Rotational constants in cm-1:     0.010516     0.008722     0.005715
Rotational constants in MHz :   315.246767   261.473452   171.332931

                             ****ORCA TERMINATED NORMALLY****
TOTAL RUN TIME: 0 days 1 hours 26 minutes 38 seconds 885 msec
