                         Program Version 5.0.0 -  RELEASE  -
|  1> ! ri-mp2 cc-pvtz cc-pvtz/c TightSCF NoKeepInts
|  2>
|  3> %scf
|  4>   MaxCore 4096
|  5> end
|  6> *xyz  0  1
|  7>     C       14.6531268   14.2046152   15.9803641
|  8>     C       15.5796219   15.0180812   16.8985906
|  9>     O       16.5930315   15.6140117   16.0704466
| 10>     C       17.8502320   15.6790638   16.5895103
| 11>     O       18.4733020   14.6561915   16.8156757
| 12>     C       18.0352044   16.9040350   17.4310249
| 13>     C       17.5545062   18.1243829   17.0881966
| 14>     C       16.8088015   18.4900455   15.8220999
| 15>     N       17.7968382   19.2244674   17.9159461
| 16>     C       18.6074607   19.2065166   19.0210370
| 17>     S       18.9246121   20.5774827   19.8897762
| 18>     N       19.1409701   17.9911153   19.3720104
| 19>     C       18.7985933   16.7014918   18.7417677
| 20>     C       17.9854910   15.8332649   19.6980706
| 21>     C       18.4002910   14.5233736   20.0003790
| 22>     C       17.6405606   13.7116359   20.8592197
| 23>     C       16.4535809   14.2124347   21.4203654
| 24>     C       16.0344877   15.5150075   21.1184066
| 25>     O       14.8822966   15.9977318   21.6475796
| 26>     C       16.7923798   16.3203896   20.2627637
| 27>     H       15.2198406   13.4232744   15.4581975
| 28>     H       14.1838230   14.8527114   15.2300089
| 29>     H       13.8601433   13.7213979   16.5638539
| 30>     H       15.0161787   15.7932810   17.4340857
| 31>     H       16.0261695   14.3402361   17.6405599
| 32>     H       17.2293224   17.9690411   14.9526831
| 33>     H       16.8569950   19.5640623   15.6044795
| 34>     H       15.7511239   18.2093104   15.8997679
| 35>     H       17.4162017   20.1256902   17.6741991
| 36>     H       19.7119576   18.0020744   20.2075258
| 37>     H       19.7380741   16.1793567   18.5088852
| 38>     H       19.3066707   14.1259128   19.5496331
| 39>     H       17.9698834   12.6977038   21.0799465
| 40>     H       15.8625481   13.5873572   22.0815948
| 41>     H       14.5420080   15.3289133   22.2610799
| 42>     H       16.4506715   17.3263385   20.0442684
| 43> *
| 44>
| 45>                          ****END OF INPUT****

CARTESIAN COORDINATES (ANGSTROEM)
---------------------------------
  C     14.653127   14.204615   15.980364
  C     15.579622   15.018081   16.898591
  O     16.593031   15.614012   16.070447
  C     17.850232   15.679064   16.589510
  O     18.473302   14.656192   16.815676
  C     18.035204   16.904035   17.431025
  C     17.554506   18.124383   17.088197
  C     16.808802   18.490046   15.822100
  N     17.796838   19.224467   17.915946
  C     18.607461   19.206517   19.021037
  S     18.924612   20.577483   19.889776
  N     19.140970   17.991115   19.372010
  C     18.798593   16.701492   18.741768
  C     17.985491   15.833265   19.698071
  C     18.400291   14.523374   20.000379
  C     17.640561   13.711636   20.859220
  C     16.453581   14.212435   21.420365
  C     16.034488   15.515007   21.118407
  O     14.882297   15.997732   21.647580
  C     16.792380   16.320390   20.262764
  H     15.219841   13.423274   15.458197
  H     14.183823   14.852711   15.230009
  H     13.860143   13.721398   16.563854
  H     15.016179   15.793281   17.434086
  H     16.026170   14.340236   17.640560
  H     17.229322   17.969041   14.952683
  H     16.856995   19.564062   15.604479
  H     15.751124   18.209310   15.899768
  H     17.416202   20.125690   17.674199
  H     19.711958   18.002074   20.207526
  H     19.738074   16.179357   18.508885
  H     19.306671   14.125913   19.549633
  H     17.969883   12.697704   21.079946
  H     15.862548   13.587357   22.081595
  H     14.542008   15.328913   22.261080
  H     16.450671   17.326338   20.044268

 Total Charge           Charge          ....    0
 Multiplicity           Mult            ....    1
 Number of Electrons    NEL             ....  154
 Basis Dimension        Dim             ....  828

ORBITAL ENERGIES
----------------

  NO   OCC          E(Eh)            E(eV)
   0   2.0000     -91.889614     -2500.4435
   1   2.0000     -20.597410      -560.4840
   2   2.0000     -20.581370      -560.0475
   3   2.0000     -20.557426      -559.3960
   4   2.0000     -15.629192      -425.2919
   5   2.0000     -15.609211      -424.7482
   6   2.0000     -11.393972      -310.0457
   7   2.0000     -11.385225      -309.8077
   8   2.0000     -11.333602      -308.4030
   9   2.0000     -11.313572      -307.8579
  10   2.0000     -11.309646      -307.7511
  11   2.0000     -11.298745      -307.4545
  12   2.0000     -11.261683      -306.4460
  13   2.0000     -11.259635      -306.3902
  14   2.0000     -11.258953      -306.3717
  15   2.0000     -11.253745      -306.2300
  16   2.0000     -11.243455      -305.9500
  17   2.0000     -11.239105      -305.8316
  18   2.0000     -11.236455      -305.7595
  19   2.0000     -11.227835      -305.5249
  20   2.0000      -8.894688      -242.0368
  21   2.0000      -6.576265      -178.9493
  22   2.0000      -6.574256      -178.8946
  23   2.0000      -6.573671      -178.8787
  24   2.0000      -1.452932       -39.5363
  25   2.0000      -1.417195       -38.5638
  26   2.0000      -1.357169       -36.9304
  27   2.0000      -1.340284       -36.4710
  28   2.0000      -1.238634       -33.7050
  29   2.0000      -1.157768       -31.5045
  30   2.0000      -1.122285       -30.5389
  31   2.0000      -1.045775       -28.4570
  32   2.0000      -1.033673       -28.1277
  33   2.0000      -1.015191       -27.6247
  34   2.0000      -1.000350       -27.2209
  35   2.0000      -0.985733       -26.8232
  36   2.0000      -0.924436       -25.1552
  37   2.0000      -0.878437       -23.9035
  38   2.0000      -0.850084       -23.1320
  39   2.0000      -0.840355       -22.8672
  40   2.0000      -0.833784       -22.6884
  41   2.0000      -0.829910       -22.5830
  42   2.0000      -0.756282       -20.5795
  43   2.0000      -0.735523       -20.0146
  44   2.0000      -0.729574       -19.8527
  45   2.0000      -0.695318       -18.9206
  46   2.0000      -0.687406       -18.7053
  47   2.0000      -0.681039       -18.5320
  48   2.0000      -0.674643       -18.3580
  49   2.0000      -0.660291       -17.9674
  50   2.0000      -0.648675       -17.6513
  51   2.0000      -0.642317       -17.4783
  52   2.0000      -0.634119       -17.2553
  53   2.0000      -0.614897       -16.7322
  54   2.0000      -0.605810       -16.4849
  55   2.0000      -0.604050       -16.4370
  56   2.0000      -0.600905       -16.3515
  57   2.0000      -0.580404       -15.7936
  58   2.0000      -0.577149       -15.7050
  59   2.0000      -0.564454       -15.3596
  60   2.0000      -0.560236       -15.2448
  61   2.0000      -0.551245       -15.0001
  62   2.0000      -0.535845       -14.5811
  63   2.0000      -0.523062       -14.2333
  64   2.0000      -0.513825       -13.9819
  65   2.0000      -0.512121       -13.9355
  66   2.0000      -0.503936       -13.7128
  67   2.0000      -0.498671       -13.5695
  68   2.0000      -0.482861       -13.1393
  69   2.0000      -0.465775       -12.6744
  70   2.0000      -0.458140       -12.4666
  71   2.0000      -0.452973       -12.3260
  72   2.0000      -0.355233        -9.6664
  73   2.0000      -0.349285        -9.5045
  74   2.0000      -0.328943        -8.9510
  75   2.0000      -0.320934        -8.7331
  76   2.0000      -0.316607        -8.6153
  77   0.0000       0.069644         1.8951
  78   0.0000       0.102969         2.8019
  79   0.0000       0.117421         3.1952
  80   0.0000       0.130881         3.5615
  81   0.0000       0.134304         3.6546

MULLIKEN ATOMIC CHARGES
-----------------------
   0 C :   -0.255101
   1 C :    0.034525
   2 O :   -0.376782
   3 C :    0.456208
   4 O :   -0.390486
   5 C :   -0.209165
   6 C :    0.140446
   7 C :   -0.279858
   8 N :   -0.125210
   9 C :    0.202391
  10 S :   -0.438740
  11 N :   -0.201610
  12 C :    0.053127
  13 C :    0.034963
  14 C :   -0.159952
  15 C :   -0.134952
  16 C :   -0.279644
  17 C :    0.310081
  18 O :   -0.359014
  19 C :   -0.275866
  20 H :    0.104981
  21 H :    0.091498
  22 H :    0.087023
  23 H :    0.093137
  24 H :    0.112478
  25 H :    0.125116
  26 H :    0.106618
  27 H :    0.123413
  28 H :    0.197199
  29 H :    0.194228
  30 H :    0.155647
  31 H :    0.158379
  32 H :    0.161728
  33 H :    0.131584
  34 H :    0.241348
  35 H :    0.170265
Sum of atomic charges:   -0.0000000

LOEWDIN ATOMIC CHARGES
----------------------
   0 C :    0.109464
   1 C :   -0.017341
   2 O :    0.288501
   3 C :   -0.421140
   4 O :    0.133516
   5 C :   -0.094447
   6 C :   -0.076482
   7 C :    0.126800
   8 N :    0.404052
   9 C :   -0.457273
  10 S :   -0.035622
  11 N :    0.396934
  12 C :   -0.045496
  13 C :   -0.041687
  14 C :    0.021188
  15 C :    0.041684
  16 C :   -0.002031
  17 C :   -0.194688
  18 O :    0.393545
  19 C :    0.029178
  20 H :   -0.022211
  21 H :   -0.029266
  22 H :   -0.026363
  23 H :   -0.035922
  24 H :   -0.023446
  25 H :   -0.007339
  26 H :   -0.018835
  27 H :   -0.010450
  28 H :   -0.058587
  29 H :   -0.064075
  30 H :   -0.004430
  31 H :   -0.024219
  32 H :   -0.019917
  33 H :   -0.035277
  34 H :   -0.153566
  35 H :   -0.024752

  Mayer bond orders larger than 0.100000
B(  0-C ,  1-C ) :   0.9816 B(  0-C , 20-H ) :   0.9780 B(  0-C , 21-H ) :   0.9803
B(  0-C , 22-H ) :   0.9763 B(  1-C ,  2-O ) :   0.8784 B(  1-C , 23-H ) :   0.9735
B(  1-C , 24-H ) :   0.9691 B(  2-O ,  3-C ) :   1.0959 B(  3-C ,  4-O ) :   2.0456
B(  3-C ,  5-C ) :   1.0097 B(  5-C ,  6-C ) :   1.6667 B(  5-C , 12-C ) :   0.9668
B(  6-C ,  7-C ) :   0.9514 B(  6-C ,  8-N ) :   1.1382 B(  7-C , 25-H ) :   0.9711
B(  7-C , 26-H ) :   0.9869 B(  7-C , 27-H ) :   0.9638 B(  8-N ,  9-C ) :   1.1843
B(  8-N , 28-H ) :   0.9499 B(  9-C , 10-S ) :   1.6121 B(  9-C , 11-N ) :   1.2988
B( 11-N , 12-C ) :   0.9939 B( 11-N , 29-H ) :   0.9518 B( 12-C , 13-C ) :   0.9449
B( 12-C , 30-H ) :   0.9983 B( 13-C , 14-C ) :   1.3795 B( 13-C , 19-C ) :   1.3634
B( 14-C , 15-C ) :   1.3937 B( 14-C , 31-H ) :   0.9631 B( 15-C , 16-C ) :   1.3641
B( 15-C , 32-H ) :   0.9708 B( 16-C , 17-C ) :   1.3298 B( 16-C , 33-H ) :   0.9847
B( 17-C , 18-O ) :   1.1104 B( 17-C , 19-C ) :   1.3741 B( 18-O , 34-H ) :   0.9797
B( 19-C , 35-H ) :   0.9582

MP2 TOTAL ENERGY:    -1274.321930404 Eh
FINAL SINGLE POINT ENERGY     -1274.321930404306

DIPOLE MOMENT
-------------
                                X             Y             Z
Electronic contribution:     11.19383       9.78398       7.66149
Nuclear contribution   :    -12.53239     -10.95221      -8.09932
                        -----------------------------------------
Total Dipole Moment    :     -1.33856      -1.16823      -0.43783
                        -----------------------------------------
Magnitude (a.u.)       :      1.82980
Magnitude (Debye)      :      4.65099

Rotational constants in cm-1:     0.011743     0.009088     0.006558
Rotational constants in MHz :   352.055053   272.461492   196.613499

                             ****ORCA TERMINATED NORMALLY****
TOTAL RUN TIME: 0 days 1 hours 47 minutes 6 seconds 448 msec
