                         Program Version 5.0.0 -  RELEASE  -
|  1> ! ri-mp2 cc-pvtz cc-pvtz/c TightSCF NoKeepInts
|  2>
|  3> %scf
|  4>   MaxCore 4096
|  5> end
|  6> *xyz  0  1
|  7>     C       15.2104956   14.9907905   17.1044094
|  8>     C       16.3285525   14.1516298   16.4475217
|  9>     O       17.6273679   14.7912587   16.4670939
| 10>     C       17.7543900   16.0988399   16.0999946
| 11>     O       17.3576864   16.4474118   15.0020612
| 12>     C       17.8211211   17.0288347   17.2819904
| 13>     C       17.4067811   18.3207076   17.2250256
| 14>     C       16.6863301   19.0089657   16.0854976
| 15>     N       17.7029528   19.1931345   18.2774493
| 16>     C       18.6126578   18.9270157   19.2674511
| 17>     S       19.0832893   20.0769160   20.3588216
| 18>     N       19.1146981   17.6498890   19.3042941
| 19>     C       18.5690744   16.5198722   18.5279323
| 20>     C       17.7260958   15.6327016   19.4415541
| 21>     C       17.9869599   14.2516142   19.5262669
| 22>     C       17.2275451   13.4286019   20.3746165
| 23>     C       16.2029085   13.9910417   21.1542396
| 24>     C       15.9465980   15.3669092   21.0834435
| 25>     O       14.9565266   15.9127590   21.8332232
| 26>     C       16.7022166   16.1832616   20.2359692
| 27>     H       15.3925002   15.1324136   18.1717310
| 28>     H       14.2499943   14.4710770   17.0051539
| 29>     H       15.1025500   15.9717935   16.6266158
| 30>     H       16.3964500   13.1787099   16.9509176
| 31>     H       16.0475424   13.9628276   15.4026991
| 32>     H       17.3483473   19.1064631   15.2154694
| 33>     H       16.3293912   20.0114281   16.3488985
| 34>     H       15.8142848   18.4236523   15.7681836
| 35>     H       17.3527710   20.1375969   18.2537832
| 36>     H       19.7630129   17.4722755   20.0608084
| 37>     H       19.4231725   15.9235814   18.1771244
| 38>     H       18.7774178   13.8119472   18.9233916
| 39>     H       17.4359832   12.3613668   20.4278039
| 40>     H       15.6142072   13.3596840   21.8117177
| 41>     H       14.5892870   15.2096239   22.3897229
| 42>     H       16.4858404   17.2454039   20.2011233
| 43> *
| 44>
| 45>                          ****END OF INPUT****

CARTESIAN COORDINATES (ANGSTROEM)
---------------------------------
  C     15.210496   14.990790   17.104409
  C     16.328553   14.151630   16.447522
  O     17.627368   14.791259   16.467094
  C     17.754390   16.098840   16.099995
  O     17.357686   16.447412   15.002061
  C     17.821121   17.028835   17.281990
  C     17.406781   18.320708   17.225026
  C     16.686330   19.008966   16.085498
  N     17.702953   19.193134   18.277449
  C     18.612658   18.927016   19.267451
  S     19.083289   20.076916   20.358822
  N     19.114698   17.649889   19.304294
  C     18.569074   16.519872   18.527932
  C     17.726096   15.632702   19.441554
  C     17.986960   14.251614   19.526267
  C     17.227545   13.428602   20.374616
  C     16.202908   13.991042   21.154240
  C     15.946598   15.366909   21.083444
  O     14.956527   15.912759   21.833223
  C     16.702217   16.183262   20.235969
  H     15.392500   15.132414   18.171731
  H     14.249994   14.471077   17.005154
  H     15.102550   15.971793   16.626616
  H     16.396450   13.178710   16.950918
  H     16.047542   13.962828   15.402699
  H     17.348347   19.106463   15.215469
  H     16.329391   20.011428   16.348899
  H     15.814285   18.423652   15.768184
  H     17.352771   20.137597   18.253783
  H     19.763013   17.472275   20.060808
  H     19.423172   15.923581   18.177124
  H     18.777418   13.811947   18.923392
  H     17.435983   12.361367   20.427804
  H     15.614207   13.359684   21.811718
  H     14.589287   15.209624   22.389723
  H     16.485840   17.245404   20.201123

 Total Charge           Charge          ....    0
 Multiplicity           Mult            ....    1
 Number of Electrons    NEL             ....  154
 Basis Dimension        Dim             ....  828

ORBITAL ENERGIES
----------------

  NO   OCC          E(Eh)            E(eV)
   0   2.0000     -91.891211     -2500.4870
   1   2.0000     -20.598541      -560.5148
   2   2.0000     -20.580610      -560.0269
   3   2.0000     -20.551509      -559.2350
   4   2.0000     -15.630884      -425.3380
   5   2.0000     -15.609535      -424.7570
   6   2.0000     -11.394457      -310.0589
   7   2.0000     -11.385549      -309.8165
   8   2.0000     -11.336494      -308.4817
   9   2.0000     -11.315971      -307.9232
  10   2.0000     -11.312624      -307.8322
  11   2.0000     -11.300239      -307.4951
  12   2.0000     -11.262025      -306.4553
  13   2.0000     -11.260560      -306.4154
  14   2.0000     -11.257570      -306.3341
  15   2.0000     -11.254350      -306.2464
  16   2.0000     -11.245801      -306.0138
  17   2.0000     -11.240511      -305.8698
  18   2.0000     -11.239786      -305.8501
  19   2.0000     -11.224384      -305.4310
  20   2.0000      -8.896222      -242.0785
  21   2.0000      -6.577786      -178.9907
  22   2.0000      -6.575794      -178.9364
  23   2.0000      -6.575195      -178.9202
  24   2.0000      -1.448186       -39.4071
  25   2.0000      -1.418343       -38.5951
  26   2.0000      -1.351011       -36.7629
  27   2.0000      -1.341976       -36.5170
  28   2.0000      -1.240064       -33.7439
  29   2.0000      -1.159098       -31.5407
  30   2.0000      -1.120796       -30.4984
  31   2.0000      -1.044281       -28.4163
  32   2.0000      -1.031832       -28.0776
  33   2.0000      -1.017611       -27.6906
  34   2.0000      -0.999293       -27.1921
  35   2.0000      -0.986672       -26.8487
  36   2.0000      -0.924690       -25.1621
  37   2.0000      -0.896056       -24.3829
  38   2.0000      -0.848236       -23.0817
  39   2.0000      -0.841950       -22.9106
  40   2.0000      -0.836382       -22.7591
  41   2.0000      -0.817197       -22.2370
  42   2.0000      -0.748688       -20.3728
  43   2.0000      -0.734044       -19.9744
  44   2.0000      -0.723192       -19.6791
  45   2.0000      -0.697705       -18.9855
  46   2.0000      -0.691289       -18.8109
  47   2.0000      -0.675617       -18.3845
  48   2.0000      -0.668566       -18.1926
  49   2.0000      -0.665549       -18.1105
  50   2.0000      -0.650825       -17.7099
  51   2.0000      -0.645333       -17.5604
  52   2.0000      -0.637687       -17.3524
  53   2.0000      -0.618804       -16.8385
  54   2.0000      -0.608477       -16.5575
  55   2.0000      -0.601461       -16.3666
  56   2.0000      -0.600501       -16.3405
  57   2.0000      -0.579455       -15.7678
  58   2.0000      -0.572496       -15.5784
  59   2.0000      -0.564704       -15.3664
  60   2.0000      -0.551441       -15.0055
  61   2.0000      -0.544785       -14.8244
  62   2.0000      -0.540677       -14.7126
  63   2.0000      -0.529170       -14.3995
  64   2.0000      -0.526107       -14.3161
  65   2.0000      -0.515370       -14.0239
  66   2.0000      -0.503389       -13.6979
  67   2.0000      -0.500585       -13.6216
  68   2.0000      -0.476628       -12.9697
  69   2.0000      -0.464604       -12.6425
  70   2.0000      -0.453750       -12.3472
  71   2.0000      -0.444479       -12.0949
  72   2.0000      -0.357789        -9.7359
  73   2.0000      -0.349994        -9.5238
  74   2.0000      -0.330264        -8.9870
  75   2.0000      -0.324493        -8.8299
  76   2.0000      -0.317943        -8.6517
  77   0.0000       0.066669         1.8142
  78   0.0000       0.104282         2.8377
  79   0.0000       0.120197         3.2707
  80   0.0000       0.129380         3.5206
  81   0.0000       0.132895         3.6163

MULLIKEN ATOMIC CHARGES
-----------------------
   0 C :   -0.332461
   1 C :    0.037669
   2 O :   -0.390541
   3 C :    0.466179
   4 O :   -0.402217
   5 C :   -0.212016
   6 C :    0.154571
   7 C :   -0.274574
   8 N :   -0.122050
   9 C :    0.188506
  10 S :   -0.431272
  11 N :   -0.192724
  12 C :    0.030148
  13 C :    0.041245
  14 C :   -0.180540
  15 C :   -0.142232
  16 C :   -0.269883
  17 C :    0.300234
  18 O :   -0.358473
  19 C :   -0.246937
  20 H :    0.120775
  21 H :    0.115365
  22 H :    0.103923
  23 H :    0.114235
  24 H :    0.120247
  25 H :    0.137582
  26 H :    0.094888
  27 H :    0.126107
  28 H :    0.198175
  29 H :    0.190624
  30 H :    0.150087
  31 H :    0.158551
  32 H :    0.163516
  33 H :    0.132808
  34 H :    0.240600
  35 H :    0.169887
Sum of atomic charges:   -0.0000000

LOEWDIN ATOMIC CHARGES
----------------------
   0 C :    0.108291
   1 C :   -0.012080
   2 O :    0.278474
   3 C :   -0.421775
   4 O :    0.124074
   5 C :   -0.095872
   6 C :   -0.060592
   7 C :    0.130086
   8 N :    0.406918
   9 C :   -0.459799
  10 S :   -0.031120
  11 N :    0.396316
  12 C :   -0.051815
  13 C :   -0.039974
  14 C :    0.017671
  15 C :    0.038842
  16 C :   -0.002312
  17 C :   -0.192700
  18 O :    0.396558
  19 C :    0.031187
  20 H :   -0.030359
  21 H :   -0.022868
  22 H :   -0.030004
  23 H :   -0.023424
  24 H :   -0.028350
  25 H :   -0.003149
  26 H :   -0.022804
  27 H :   -0.008954
  28 H :   -0.057933
  29 H :   -0.065138
  30 H :   -0.006106
  31 H :   -0.028073
  32 H :   -0.020604
  33 H :   -0.034974
  34 H :   -0.153519
  35 H :   -0.024122

  Mayer bond orders larger than 0.100000
B(  0-C ,  1-C ) :   0.9597 B(  0-C , 20-H ) :   0.9676 B(  0-C , 21-H ) :   0.9780
B(  0-C , 22-H ) :   0.9727 B(  1-C ,  2-O ) :   0.8795 B(  1-C , 23-H ) :   0.9797
B(  1-C , 24-H ) :   0.9856 B(  2-O ,  3-C ) :   1.1005 B(  3-C ,  4-O ) :   2.0164
B(  3-C ,  5-C ) :   1.0497 B(  5-C ,  6-C ) :   1.6586 B(  5-C , 12-C ) :   0.9690
B(  6-C ,  7-C ) :   0.9694 B(  6-C ,  8-N ) :   1.1369 B(  7-C , 25-H ) :   0.9566
B(  7-C , 26-H ) :   0.9878 B(  7-C , 27-H ) :   0.9667 B(  8-N ,  9-C ) :   1.1779
B(  8-N , 28-H ) :   0.9489 B(  9-C , 10-S ) :   1.6232 B(  9-C , 11-N ) :   1.2956
B( 11-N , 12-C ) :   0.9883 B( 11-N , 29-H ) :   0.9535 B( 12-C , 13-C ) :   0.9366
B( 12-C , 30-H ) :   1.0059 B( 13-C , 14-C ) :   1.3713 B( 13-C , 19-C ) :   1.3660
B( 14-C , 15-C ) :   1.3869 B( 14-C , 31-H ) :   0.9667 B( 15-C , 16-C ) :   1.3635
B( 15-C , 32-H ) :   0.9702 B( 16-C , 17-C ) :   1.3309 B( 16-C , 33-H ) :   0.9840
B( 17-C , 18-O ) :   1.1131 B( 17-C , 19-C ) :   1.3784 B( 18-O , 34-H ) :   0.9798
B( 19-C , 35-H ) :   0.9573

MP2 TOTAL ENERGY:    -1274.322889266 Eh
FINAL SINGLE POINT ENERGY     -1274.322889266281

DIPOLE MOMENT
-------------
                                X             Y             Z
Electronic contribution:     10.07744       8.12962       6.03340
Nuclear contribution   :    -11.21185      -9.75151      -6.06784
                        -----------------------------------------
Total Dipole Moment    :     -1.13441      -1.62189      -0.03445
                        -----------------------------------------
Magnitude (a.u.)       :      1.97955
Magnitude (Debye)      :      5.03161

Rotational constants in cm-1:     0.011716     0.010002     0.006591
Rotational constants in MHz :   351.249392   299.853906   197.588289

                             ****ORCA TERMINATED NORMALLY****
TOTAL RUN TIME: 0 days 2 hours 16 minutes 28 seconds 252 msec
