                         Program Version 5.0.0 -  RELEASE  -
|  1> ! ri-mp2 cc-pvtz cc-pvtz/c TightSCF NoKeepInts
|  2>
|  3> %scf
|  4>   MaxCore 4096
|  5> end
|  6> *xyz  0  1
|  7>     C       15.6381807   13.7041827   15.2527084
|  8>     C       15.0818165   15.0486307   15.7704497
|  9>     O       16.0957532   16.0361518   16.0837154
| 10>     C       17.2721396   15.7964616   16.7455018
| 11>     O       17.7612384   14.6888301   16.8845044
| 12>     C       17.7179071   16.9536718   17.5947254
| 13>     C       17.3714365   18.2512244   17.3853090
| 14>     C       16.5094750   18.8205938   16.2767773
| 15>     N       17.8961503   19.2522230   18.2097166
| 16>     C       18.8765803   19.0621214   19.1472259
| 17>     S       19.5345512   20.3247692   19.9889738
| 18>     N       19.2844677   17.7684677   19.3502373
| 19>     C       18.6397167   16.5795424   18.7618587
| 20>     C       17.8798821   15.8001879   19.8324115
| 21>     C       18.1413030   14.4329622   20.0385064
| 22>     C       17.4431632   13.7096156   21.0199707
| 23>     C       16.4738290   14.3581624   21.8037835
| 24>     C       16.2073392   15.7187670   21.5992682
| 25>     O       15.2672660   16.3463415   22.3501675
| 26>     C       16.9035075   16.4359366   20.6212608
| 27>     H       16.4359006   13.8663616   14.5171152
| 28>     H       14.8419640   13.1260159   14.7688148
| 29>     H       16.0327681   13.0918532   16.0728985
| 30>     H       14.4081332   15.4707377   15.0138182
| 31>     H       14.4816935   14.8508962   16.6683422
| 32>     H       15.4541259   18.5688969   16.4394679
| 33>     H       16.8080919   18.4145219   15.3022661
| 34>     H       16.5821172   19.9125047   16.2034317
| 35>     H       17.6097707   20.2087321   18.0756186
| 36>     H       19.9863925   17.6506703   20.0694559
| 37>     H       19.4362007   15.9328854   18.3660590
| 38>     H       18.8780177   13.9249156   19.4208943
| 39>     H       17.6509069   12.6509927   21.1646301
| 40>     H       15.9310455   13.8028989   22.5613671
| 41>     H       14.9302906   15.7014379   22.9899188
| 42>     H       16.6838778   17.4888353   20.4828293
| 43> *
| 44>
| 45>                          ****END OF INPUT****

CARTESIAN COORDINATES (ANGSTROEM)
---------------------------------
  C     15.638181   13.704183   15.252708
  C     15.081816   15.048631   15.770450
  O     16.095753   16.036152   16.083715
  C     17.272140   15.796462   16.745502
  O     17.761238   14.688830   16.884504
  C     17.717907   16.953672   17.594725
  C     17.371436   18.251224   17.385309
  C     16.509475   18.820594   16.276777
  N     17.896150   19.252223   18.209717
  C     18.876580   19.062121   19.147226
  S     19.534551   20.324769   19.988974
  N     19.284468   17.768468   19.350237
  C     18.639717   16.579542   18.761859
  C     17.879882   15.800188   19.832411
  C     18.141303   14.432962   20.038506
  C     17.443163   13.709616   21.019971
  C     16.473829   14.358162   21.803784
  C     16.207339   15.718767   21.599268
  O     15.267266   16.346342   22.350167
  C     16.903507   16.435937   20.621261
  H     16.435901   13.866362   14.517115
  H     14.841964   13.126016   14.768815
  H     16.032768   13.091853   16.072899
  H     14.408133   15.470738   15.013818
  H     14.481693   14.850896   16.668342
  H     15.454126   18.568897   16.439468
  H     16.808092   18.414522   15.302266
  H     16.582117   19.912505   16.203432
  H     17.609771   20.208732   18.075619
  H     19.986393   17.650670   20.069456
  H     19.436201   15.932885   18.366059
  H     18.878018   13.924916   19.420894
  H     17.650907   12.650993   21.164630
  H     15.931045   13.802899   22.561367
  H     14.930291   15.701438   22.989919
  H     16.683878   17.488835   20.482829

 Total Charge           Charge          ....    0
 Multiplicity           Mult            ....    1
 Number of Electrons    NEL             ....  154
 Basis Dimension        Dim             ....  828

ORBITAL ENERGIES
----------------

  NO   OCC          E(Eh)            E(eV)
   0   2.0000     -91.887205     -2500.3780
   1   2.0000     -20.598407      -560.5111
   2   2.0000     -20.591781      -560.3308
   3   2.0000     -20.546739      -559.1052
   4   2.0000     -15.626952      -425.2310
   5   2.0000     -15.606030      -424.6617
   6   2.0000     -11.398474      -310.1682
   7   2.0000     -11.382105      -309.7228
   8   2.0000     -11.333821      -308.4089
   9   2.0000     -11.307636      -307.6964
  10   2.0000     -11.305732      -307.6446
  11   2.0000     -11.305183      -307.6297
  12   2.0000     -11.259247      -306.3797
  13   2.0000     -11.257905      -306.3432
  14   2.0000     -11.253457      -306.2221
  15   2.0000     -11.247886      -306.0705
  16   2.0000     -11.237454      -305.7867
  17   2.0000     -11.233399      -305.6763
  18   2.0000     -11.230561      -305.5991
  19   2.0000     -11.222973      -305.3926
  20   2.0000      -8.892279      -241.9712
  21   2.0000      -6.573859      -178.8838
  22   2.0000      -6.571850      -178.8291
  23   2.0000      -6.571267      -178.8133
  24   2.0000      -1.447029       -39.3757
  25   2.0000      -1.411517       -38.4093
  26   2.0000      -1.357591       -36.9419
  27   2.0000      -1.338194       -36.4141
  28   2.0000      -1.236028       -33.6340
  29   2.0000      -1.151919       -31.3453
  30   2.0000      -1.118365       -30.4323
  31   2.0000      -1.041655       -28.3449
  32   2.0000      -1.033703       -28.1285
  33   2.0000      -1.009440       -27.4683
  34   2.0000      -0.996350       -27.1121
  35   2.0000      -0.981706       -26.7136
  36   2.0000      -0.920918       -25.0594
  37   2.0000      -0.894667       -24.3451
  38   2.0000      -0.847192       -23.0533
  39   2.0000      -0.835568       -22.7370
  40   2.0000      -0.827990       -22.5307
  41   2.0000      -0.818315       -22.2675
  42   2.0000      -0.744621       -20.2622
  43   2.0000      -0.727711       -19.8020
  44   2.0000      -0.724583       -19.7169
  45   2.0000      -0.690604       -18.7923
  46   2.0000      -0.684062       -18.6143
  47   2.0000      -0.678909       -18.4741
  48   2.0000      -0.670852       -18.2548
  49   2.0000      -0.665351       -18.1051
  50   2.0000      -0.645083       -17.5536
  51   2.0000      -0.642606       -17.4862
  52   2.0000      -0.634013       -17.2524
  53   2.0000      -0.602947       -16.4070
  54   2.0000      -0.599487       -16.3129
  55   2.0000      -0.597069       -16.2471
  56   2.0000      -0.595078       -16.1929
  57   2.0000      -0.586138       -15.9496
  58   2.0000      -0.572410       -15.5761
  59   2.0000      -0.569968       -15.5096
  60   2.0000      -0.559204       -15.2167
  61   2.0000      -0.543977       -14.8024
  62   2.0000      -0.536583       -14.6012
  63   2.0000      -0.522290       -14.2122
  64   2.0000      -0.517204       -14.0738
  65   2.0000      -0.510244       -13.8844
  66   2.0000      -0.499614       -13.5952
  67   2.0000      -0.494803       -13.4643
  68   2.0000      -0.479294       -13.0422
  69   2.0000      -0.461158       -12.5487
  70   2.0000      -0.456761       -12.4291
  71   2.0000      -0.445900       -12.1335
  72   2.0000      -0.352888        -9.6026
  73   2.0000      -0.343874        -9.3573
  74   2.0000      -0.326429        -8.8826
  75   2.0000      -0.315183        -8.5766
  76   2.0000      -0.313615        -8.5339
  77   0.0000       0.076828         2.0906
  78   0.0000       0.112360         3.0575
  79   0.0000       0.121712         3.3120
  80   0.0000       0.135998         3.7007
  81   0.0000       0.139763         3.8031

MULLIKEN ATOMIC CHARGES
-----------------------
   0 C :   -0.287776
   1 C :    0.050298
   2 O :   -0.363464
   3 C :    0.435948
   4 O :   -0.423532
   5 C :   -0.143005
   6 C :    0.137157
   7 C :   -0.286212
   8 N :   -0.122007
   9 C :    0.201464
  10 S :   -0.441039
  11 N :   -0.197846
  12 C :    0.035701
  13 C :    0.055369
  14 C :   -0.164377
  15 C :   -0.134172
  16 C :   -0.279450
  17 C :    0.311287
  18 O :   -0.358892
  19 C :   -0.271190
  20 H :    0.099604
  21 H :    0.093961
  22 H :    0.120068
  23 H :    0.097197
  24 H :    0.089954
  25 H :    0.126428
  26 H :    0.124735
  27 H :    0.102290
  28 H :    0.196571
  29 H :    0.193510
  30 H :    0.154751
  31 H :    0.154284
  32 H :    0.159194
  33 H :    0.128113
  34 H :    0.239985
  35 H :    0.165095
Sum of atomic charges:   -0.0000000

LOEWDIN ATOMIC CHARGES
----------------------
   0 C :    0.102685
   1 C :   -0.009761
   2 O :    0.291919
   3 C :   -0.411594
   4 O :    0.117615
   5 C :   -0.090335
   6 C :   -0.068169
   7 C :    0.124530
   8 N :    0.404308
   9 C :   -0.458894
  10 S :   -0.037375
  11 N :    0.397668
  12 C :   -0.046180
  13 C :   -0.038791
  14 C :    0.021108
  15 C :    0.040358
  16 C :   -0.002605
  17 C :   -0.192690
  18 O :    0.393055
  19 C :    0.028784
  20 H :   -0.025341
  21 H :   -0.029525
  22 H :   -0.025469
  23 H :   -0.025072
  24 H :   -0.028967
  25 H :   -0.009991
  26 H :   -0.008845
  27 H :   -0.020969
  28 H :   -0.059309
  29 H :   -0.063858
  30 H :   -0.005353
  31 H :   -0.025391
  32 H :   -0.021338
  33 H :   -0.036455
  34 H :   -0.154946
  35 H :   -0.024808

  Mayer bond orders larger than 0.100000
B(  0-C ,  1-C ) :   0.9738 B(  0-C , 20-H ) :   0.9754 B(  0-C , 21-H ) :   0.9749
B(  0-C , 22-H ) :   0.9723 B(  1-C ,  2-O ) :   0.9042 B(  1-C , 23-H ) :   0.9824
B(  1-C , 24-H ) :   0.9785 B(  2-O ,  3-C ) :   1.1199 B(  3-C ,  4-O ) :   1.9833
B(  3-C ,  5-C ) :   1.0526 B(  5-C ,  6-C ) :   1.6560 B(  5-C , 12-C ) :   0.9635
B(  6-C ,  7-C ) :   0.9551 B(  6-C ,  8-N ) :   1.1418 B(  7-C , 25-H ) :   0.9635
B(  7-C , 26-H ) :   0.9672 B(  7-C , 27-H ) :   0.9911 B(  8-N ,  9-C ) :   1.1813
B(  8-N , 28-H ) :   0.9493 B(  9-C , 10-S ) :   1.6093 B(  9-C , 11-N ) :   1.3032
B( 11-N , 12-C ) :   0.9922 B( 11-N , 29-H ) :   0.9520 B( 12-C , 13-C ) :   0.9472
B( 12-C , 30-H ) :   0.9994 B( 13-C , 14-C ) :   1.3758 B( 13-C , 19-C ) :   1.3696
B( 14-C , 15-C ) :   1.3944 B( 14-C , 31-H ) :   0.9648 B( 15-C , 16-C ) :   1.3628
B( 15-C , 32-H ) :   0.9714 B( 16-C , 17-C ) :   1.3313 B( 16-C , 33-H ) :   0.9860
B( 17-C , 18-O ) :   1.1082 B( 17-C , 19-C ) :   1.3785 B( 18-O , 34-H ) :   0.9806
B( 19-C , 35-H ) :   0.9583

MP2 TOTAL ENERGY:    -1274.334648970 Eh
FINAL SINGLE POINT ENERGY     -1274.334648970484

DIPOLE MOMENT
-------------
                                X             Y             Z
Electronic contribution:      9.87063      10.48705      10.54658
Nuclear contribution   :    -11.52703     -11.69593     -11.49957
                        -----------------------------------------
Total Dipole Moment    :     -1.65640      -1.20888      -0.95299
                        -----------------------------------------
Magnitude (a.u.)       :      2.26125
Magnitude (Debye)      :      5.74763

Rotational constants in cm-1:     0.010808     0.008941     0.005932
Rotational constants in MHz :   324.028952   268.038828   177.850565

                             ****ORCA TERMINATED NORMALLY****
TOTAL RUN TIME: 0 days 1 hours 51 minutes 7 seconds 135 msec
