                         Program Version 5.0.0 -  RELEASE  -
|  1> ! ri-mp2 cc-pvtz cc-pvtz/c TightSCF NoKeepInts
|  2>
|  3> %scf
|  4>   MaxCore 4096
|  5> end
|  6> *xyz  0  1
|  7>     C       15.7502018   14.1542381   14.7787233
|  8>     C       15.5100672   14.1862634   16.3008831
|  9>     O       16.4543739   15.0890858   16.9045907
| 10>     C       16.2300667   16.4391415   16.8820052
| 11>     O       15.2759471   16.9359331   16.3071768
| 12>     C       17.2684612   17.2126129   17.6470187
| 13>     C       17.2848581   18.5693268   17.6856859
| 14>     C       16.3157869   19.5177816   17.0127744
| 15>     N       18.2997721   19.2388123   18.3760763
| 16>     C       19.3844095   18.6350411   18.9541222
| 17>     S       20.5956632   19.5080357   19.6659322
| 18>     N       19.4174395   17.2646250   18.9101309
| 19>     C       18.3272660   16.4043252   18.4146775
| 20>     C       17.7152970   15.6266086   19.5763516
| 21>     C       17.8456985   14.2267776   19.6456370
| 22>     C       17.2834929   13.5082517   20.7142509
| 23>     C       16.5872942   14.1948015   21.7236731
| 24>     C       16.4587523   15.5890731   21.6598225
| 25>     O       15.7880248   16.2549052   22.6334168
| 26>     C       17.0192716   16.3013795   20.5951433
| 27>     H       15.5435286   15.1324565   14.3267832
| 28>     H       15.0916738   13.4173465   14.3033174
| 29>     H       16.7887674   13.8810586   14.5552216
| 30>     H       14.4775121   14.4876151   16.5252282
| 31>     H       15.6656134   13.1784111   16.7065067
| 32>     H       15.2955473   19.3504762   17.3813293
| 33>     H       16.3028987   19.3515312   15.9281086
| 34>     H       16.5598612   20.5729284   17.1826685
| 35>     H       18.2926276   20.2454383   18.4170988
| 36>     H       20.2105887   16.8464535   19.3790302
| 37>     H       18.7736906   15.6864463   17.7123477
| 38>     H       18.3789263   13.6930552   18.8635646
| 39>     H       17.3877149   12.4255743   20.7576658
| 40>     H       16.1514203   13.6444341   22.5509106
| 41>     H       15.4994565   15.6010797   23.2876091
| 42>     H       16.9150280   17.3806754   20.5685174
| 43> *
| 44>
| 45>                          ****END OF INPUT****

CARTESIAN COORDINATES (ANGSTROEM)
---------------------------------
  C     15.750202   14.154238   14.778723
  C     15.510067   14.186263   16.300883
  O     16.454374   15.089086   16.904591
  C     16.230067   16.439142   16.882005
  O     15.275947   16.935933   16.307177
  C     17.268461   17.212613   17.647019
  C     17.284858   18.569327   17.685686
  C     16.315787   19.517782   17.012774
  N     18.299772   19.238812   18.376076
  C     19.384409   18.635041   18.954122
  S     20.595663   19.508036   19.665932
  N     19.417440   17.264625   18.910131
  C     18.327266   16.404325   18.414677
  C     17.715297   15.626609   19.576352
  C     17.845699   14.226778   19.645637
  C     17.283493   13.508252   20.714251
  C     16.587294   14.194801   21.723673
  C     16.458752   15.589073   21.659822
  O     15.788025   16.254905   22.633417
  C     17.019272   16.301379   20.595143
  H     15.543529   15.132456   14.326783
  H     15.091674   13.417346   14.303317
  H     16.788767   13.881059   14.555222
  H     14.477512   14.487615   16.525228
  H     15.665613   13.178411   16.706507
  H     15.295547   19.350476   17.381329
  H     16.302899   19.351531   15.928109
  H     16.559861   20.572928   17.182668
  H     18.292628   20.245438   18.417099
  H     20.210589   16.846453   19.379030
  H     18.773691   15.686446   17.712348
  H     18.378926   13.693055   18.863565
  H     17.387715   12.425574   20.757666
  H     16.151420   13.644434   22.550911
  H     15.499457   15.601080   23.287609
  H     16.915028   17.380675   20.568517

 Total Charge           Charge          ....    0
 Multiplicity           Mult            ....    1
 Number of Electrons    NEL             ....  154
 Basis Dimension        Dim             ....  828

ORBITAL ENERGIES
----------------

  NO   OCC          E(Eh)            E(eV)
   0   2.0000     -91.888576     -2500.4153
   1   2.0000     -20.602484      -560.6221
   2   2.0000     -20.595016      -560.4189
   3   2.0000     -20.542152      -558.9804
   4   2.0000     -15.628849      -425.2826
   5   2.0000     -15.607803      -424.7099
   6   2.0000     -11.396021      -310.1015
   7   2.0000     -11.383641      -309.7646
   8   2.0000     -11.335872      -308.4648
   9   2.0000     -11.311993      -307.8150
  10   2.0000     -11.308284      -307.7141
  11   2.0000     -11.298181      -307.4391
  12   2.0000     -11.258955      -306.3717
  13   2.0000     -11.258048      -306.3471
  14   2.0000     -11.253442      -306.2217
  15   2.0000     -11.251965      -306.1815
  16   2.0000     -11.241399      -305.8940
  17   2.0000     -11.236945      -305.7728
  18   2.0000     -11.236685      -305.7658
  19   2.0000     -11.224935      -305.4460
  20   2.0000      -8.893637      -242.0082
  21   2.0000      -6.575212      -178.9206
  22   2.0000      -6.573207      -178.8661
  23   2.0000      -6.572621      -178.8501
  24   2.0000      -1.451621       -39.5006
  25   2.0000      -1.414666       -38.4950
  26   2.0000      -1.355265       -36.8786
  27   2.0000      -1.339762       -36.4568
  28   2.0000      -1.238085       -33.6900
  29   2.0000      -1.156195       -31.4617
  30   2.0000      -1.119952       -30.4754
  31   2.0000      -1.041988       -28.3539
  32   2.0000      -1.036790       -28.2125
  33   2.0000      -1.013398       -27.5760
  34   2.0000      -0.995046       -27.0766
  35   2.0000      -0.983656       -26.7666
  36   2.0000      -0.921832       -25.0843
  37   2.0000      -0.894526       -24.3413
  38   2.0000      -0.846677       -23.0392
  39   2.0000      -0.836554       -22.7638
  40   2.0000      -0.832485       -22.6531
  41   2.0000      -0.817309       -22.2401
  42   2.0000      -0.757470       -20.6118
  43   2.0000      -0.731053       -19.8930
  44   2.0000      -0.722691       -19.6654
  45   2.0000      -0.694331       -18.8937
  46   2.0000      -0.687578       -18.7099
  47   2.0000      -0.680586       -18.5197
  48   2.0000      -0.671291       -18.2667
  49   2.0000      -0.654561       -17.8115
  50   2.0000      -0.646413       -17.5898
  51   2.0000      -0.645038       -17.5524
  52   2.0000      -0.630555       -17.1583
  53   2.0000      -0.612544       -16.6682
  54   2.0000      -0.605168       -16.4675
  55   2.0000      -0.598609       -16.2890
  56   2.0000      -0.597599       -16.2615
  57   2.0000      -0.578422       -15.7397
  58   2.0000      -0.570562       -15.5258
  59   2.0000      -0.570212       -15.5162
  60   2.0000      -0.562806       -15.3147
  61   2.0000      -0.538982       -14.6664
  62   2.0000      -0.536370       -14.5954
  63   2.0000      -0.529750       -14.4152
  64   2.0000      -0.523652       -14.2493
  65   2.0000      -0.512871       -13.9559
  66   2.0000      -0.500227       -13.6119
  67   2.0000      -0.497369       -13.5341
  68   2.0000      -0.484974       -13.1968
  69   2.0000      -0.463428       -12.6105
  70   2.0000      -0.455780       -12.4024
  71   2.0000      -0.447624       -12.1805
  72   2.0000      -0.354126        -9.6363
  73   2.0000      -0.348004        -9.4697
  74   2.0000      -0.327841        -8.9210
  75   2.0000      -0.319721        -8.7001
  76   2.0000      -0.315495        -8.5851
  77   0.0000       0.076655         2.0859
  78   0.0000       0.108591         2.9549
  79   0.0000       0.124558         3.3894
  80   0.0000       0.133210         3.6248
  81   0.0000       0.136705         3.7199

MULLIKEN ATOMIC CHARGES
-----------------------
   0 C :   -0.289215
   1 C :    0.035543
   2 O :   -0.349883
   3 C :    0.472463
   4 O :   -0.439301
   5 C :   -0.215587
   6 C :    0.148078
   7 C :   -0.274956
   8 N :   -0.119816
   9 C :    0.210489
  10 S :   -0.440016
  11 N :   -0.202908
  12 C :    0.044691
  13 C :    0.068549
  14 C :   -0.175346
  15 C :   -0.133053
  16 C :   -0.277602
  17 C :    0.315051
  18 O :   -0.357002
  19 C :   -0.268508
  20 H :    0.115475
  21 H :    0.094172
  22 H :    0.091492
  23 H :    0.101426
  24 H :    0.107415
  25 H :    0.132402
  26 H :    0.130301
  27 H :    0.095239
  28 H :    0.197220
  29 H :    0.194255
  30 H :    0.150469
  31 H :    0.145858
  32 H :    0.158946
  33 H :    0.128946
  34 H :    0.240481
  35 H :    0.164234
Sum of atomic charges:    0.0000000

LOEWDIN ATOMIC CHARGES
----------------------
   0 C :    0.104753
   1 C :   -0.015782
   2 O :    0.308297
   3 C :   -0.411909
   4 O :    0.095261
   5 C :   -0.093595
   6 C :   -0.058865
   7 C :    0.131394
   8 N :    0.406521
   9 C :   -0.456742
  10 S :   -0.035582
  11 N :    0.396611
  12 C :   -0.052842
  13 C :   -0.038734
  14 C :    0.014383
  15 C :    0.039207
  16 C :   -0.001358
  17 C :   -0.189523
  18 O :    0.394920
  19 C :    0.031484
  20 H :   -0.025092
  21 H :   -0.027047
  22 H :   -0.030316
  23 H :   -0.027533
  24 H :   -0.025988
  25 H :   -0.004460
  26 H :   -0.004296
  27 H :   -0.023411
  28 H :   -0.057616
  29 H :   -0.064547
  30 H :   -0.011506
  31 H :   -0.030521
  32 H :   -0.021692
  33 H :   -0.035778
  34 H :   -0.154132
  35 H :   -0.023962

  Mayer bond orders larger than 0.100000
B(  0-C ,  1-C ) :   0.9658 B(  0-C , 20-H ) :   0.9750 B(  0-C , 21-H ) :   0.9766
B(  0-C , 22-H ) :   0.9771 B(  1-C ,  2-O ) :   0.8975 B(  1-C , 23-H ) :   0.9769
B(  1-C , 24-H ) :   0.9835 B(  2-O ,  3-C ) :   1.1662 B(  3-C ,  4-O ) :   1.9480
B(  3-C ,  5-C ) :   1.0694 B(  5-C ,  6-C ) :   1.6562 B(  5-C , 12-C ) :   0.9737
B(  6-C ,  7-C ) :   0.9674 B(  6-C ,  8-N ) :   1.1651 B(  7-C , 25-H ) :   0.9607
B(  7-C , 26-H ) :   0.9601 B(  7-C , 27-H ) :   0.9905 B(  8-N ,  9-C ) :   1.1822
B(  8-N , 28-H ) :   0.9479 B(  9-C , 10-S ) :   1.6077 B(  9-C , 11-N ) :   1.3049
B( 11-N , 12-C ) :   0.9880 B( 11-N , 29-H ) :   0.9516 B( 12-C , 13-C ) :   0.9378
B( 12-C , 30-H ) :   1.0030 B( 13-C , 14-C ) :   1.3564 B( 13-C , 19-C ) :   1.3817
B( 14-C , 15-C ) :   1.3938 B( 14-C , 31-H ) :   0.9722 B( 15-C , 16-C ) :   1.3645
B( 15-C , 32-H ) :   0.9710 B( 16-C , 17-C ) :   1.3317 B( 16-C , 33-H ) :   0.9854
B( 17-C , 18-O ) :   1.1096 B( 17-C , 19-C ) :   1.3742 B( 18-O , 34-H ) :   0.9801
B( 19-C , 35-H ) :   0.9583

MP2 TOTAL ENERGY:    -1274.350826367 Eh
FINAL SINGLE POINT ENERGY     -1274.350826367235

DIPOLE MOMENT
-------------
                                X             Y             Z
Electronic contribution:      9.45475       9.04221      10.40085
Nuclear contribution   :    -10.61826     -10.66114     -10.73593
                        -----------------------------------------
Total Dipole Moment    :     -1.16351      -1.61893      -0.33508
                        -----------------------------------------
Magnitude (a.u.)       :      2.02162
Magnitude (Debye)      :      5.13856

Rotational constants in cm-1:     0.010634     0.008928     0.006015
Rotational constants in MHz :   318.795965   267.662310   180.335374

                             ****ORCA TERMINATED NORMALLY****
TOTAL RUN TIME: 0 days 1 hours 57 minutes 23 seconds 102 msec
