                         Program Version 5.0.0 -  RELEASE  -
|  1> ! ri-mp2 cc-pvtz cc-pvtz/c TightSCF NoKeepInts
|  2>
|  3> %scf
|  4>   MaxCore 4096
|  5> end
|  6> *xyz  0  1
|  7>     C       14.8317495   15.7428671   17.2483900
|  8>     C       15.8069239   14.8134068   16.4999905
|  9>     O       16.7821474   15.5729452   15.7549319
| 10>     C       17.9887804   15.8373221   16.3395593
| 11>     O       18.8049288   14.9386008   16.4415571
| 12>     C       17.9400538   16.9431313   17.3467570
| 13>     C       17.3255888   18.1256475   17.1029993
| 14>     C       16.6352589   18.5476332   15.8229525
| 15>     N       17.3741816   19.1439803   18.0586561
| 16>     C       18.1429338   19.1111936   19.1930038
| 17>     S       18.2352122   20.4047341   20.2189979
| 18>     N       18.8319173   17.9482840   19.4356465
| 19>     C       18.6837295   16.6983401   18.6638260
| 20>     C       17.9902002   15.6197820   19.4948686
| 21>     C       18.4832446   14.3017223   19.4992992
| 22>     C       17.8412027   13.2967229   20.2416278
| 23>     C       16.6940717   13.6102477   20.9896550
| 24>     C       16.1995244   14.9211245   20.9907668
| 25>     O       15.0861992   15.2260891   21.7035102
| 26>     C       16.8416218   15.9193686   20.2515242
| 27>     H       15.3455567   16.3716174   17.9809577
| 28>     H       14.0878199   15.1467887   17.7910041
| 29>     H       14.2942829   16.3882330   16.5439876
| 30>     H       16.3040033   14.1359290   17.2090230
| 31>     H       15.2302095   14.1946499   15.8005264
| 32>     H       15.5782474   18.2595664   15.8323915
| 33>     H       17.1002055   18.0825787   14.9447680
| 34>     H       16.6865974   19.6324665   15.6681278
| 35>     H       16.8809239   20.0074275   17.8949596
| 36>     H       19.3733325   17.9443338   20.2907766
| 37>     H       19.6936434   16.3398417   18.4162610
| 38>     H       19.3618330   14.0514211   18.9086325
| 39>     H       18.2316626   12.2804971   20.2301585
| 40>     H       16.1934955   12.8364381   21.5622817
| 41>     H       14.8272907   14.4307384   22.1930452
| 42>     H       16.4384252   16.9263295   20.2685790
| 43> *
| 44>
| 45>                          ****END OF INPUT****

CARTESIAN COORDINATES (ANGSTROEM)
---------------------------------
  C     14.831749   15.742867   17.248390
  C     15.806924   14.813407   16.499990
  O     16.782147   15.572945   15.754932
  C     17.988780   15.837322   16.339559
  O     18.804929   14.938601   16.441557
  C     17.940054   16.943131   17.346757
  C     17.325589   18.125647   17.102999
  C     16.635259   18.547633   15.822952
  N     17.374182   19.143980   18.058656
  C     18.142934   19.111194   19.193004
  S     18.235212   20.404734   20.218998
  N     18.831917   17.948284   19.435647
  C     18.683729   16.698340   18.663826
  C     17.990200   15.619782   19.494869
  C     18.483245   14.301722   19.499299
  C     17.841203   13.296723   20.241628
  C     16.694072   13.610248   20.989655
  C     16.199524   14.921124   20.990767
  O     15.086199   15.226089   21.703510
  C     16.841622   15.919369   20.251524
  H     15.345557   16.371617   17.980958
  H     14.087820   15.146789   17.791004
  H     14.294283   16.388233   16.543988
  H     16.304003   14.135929   17.209023
  H     15.230209   14.194650   15.800526
  H     15.578247   18.259566   15.832391
  H     17.100205   18.082579   14.944768
  H     16.686597   19.632466   15.668128
  H     16.880924   20.007427   17.894960
  H     19.373333   17.944334   20.290777
  H     19.693643   16.339842   18.416261
  H     19.361833   14.051421   18.908632
  H     18.231663   12.280497   20.230159
  H     16.193496   12.836438   21.562282
  H     14.827291   14.430738   22.193045
  H     16.438425   16.926330   20.268579

 Total Charge           Charge          ....    0
 Multiplicity           Mult            ....    1
 Number of Electrons    NEL             ....  154
 Basis Dimension        Dim             ....  828

ORBITAL ENERGIES
----------------

  NO   OCC          E(Eh)            E(eV)
   0   2.0000     -91.891001     -2500.4813
   1   2.0000     -20.598049      -560.5014
   2   2.0000     -20.579618      -559.9999
   3   2.0000     -20.556977      -559.3838
   4   2.0000     -15.630181      -425.3188
   5   2.0000     -15.610651      -424.7874
   6   2.0000     -11.394510      -310.0604
   7   2.0000     -11.386737      -309.8489
   8   2.0000     -11.333842      -308.4095
   9   2.0000     -11.314500      -307.8832
  10   2.0000     -11.312049      -307.8165
  11   2.0000     -11.301496      -307.5293
  12   2.0000     -11.262170      -306.4592
  13   2.0000     -11.261197      -306.4327
  14   2.0000     -11.261064      -306.4291
  15   2.0000     -11.254527      -306.2512
  16   2.0000     -11.244324      -305.9736
  17   2.0000     -11.240407      -305.8670
  18   2.0000     -11.236686      -305.7658
  19   2.0000     -11.228227      -305.5356
  20   2.0000      -8.896066      -242.0743
  21   2.0000      -6.577642      -178.9867
  22   2.0000      -6.575633      -178.9321
  23   2.0000      -6.575045      -178.9161
  24   2.0000      -1.449587       -39.4453
  25   2.0000      -1.417851       -38.5817
  26   2.0000      -1.354613       -36.8609
  27   2.0000      -1.341565       -36.5058
  28   2.0000      -1.239970       -33.7413
  29   2.0000      -1.158707       -31.5300
  30   2.0000      -1.123509       -30.5722
  31   2.0000      -1.046384       -28.4736
  32   2.0000      -1.032933       -28.1075
  33   2.0000      -1.016528       -27.6611
  34   2.0000      -1.001972       -27.2650
  35   2.0000      -0.988961       -26.9110
  36   2.0000      -0.926107       -25.2007
  37   2.0000      -0.887674       -24.1548
  38   2.0000      -0.850472       -23.1425
  39   2.0000      -0.840851       -22.8807
  40   2.0000      -0.834980       -22.7210
  41   2.0000      -0.825536       -22.4640
  42   2.0000      -0.754473       -20.5302
  43   2.0000      -0.735612       -20.0170
  44   2.0000      -0.729876       -19.8609
  45   2.0000      -0.696758       -18.9597
  46   2.0000      -0.687474       -18.7071
  47   2.0000      -0.678209       -18.4550
  48   2.0000      -0.674998       -18.3676
  49   2.0000      -0.660583       -17.9754
  50   2.0000      -0.654631       -17.8134
  51   2.0000      -0.646051       -17.5799
  52   2.0000      -0.638673       -17.3792
  53   2.0000      -0.609387       -16.5823
  54   2.0000      -0.605620       -16.4798
  55   2.0000      -0.602035       -16.3822
  56   2.0000      -0.592869       -16.1328
  57   2.0000      -0.588284       -16.0080
  58   2.0000      -0.576682       -15.6923
  59   2.0000      -0.573624       -15.6091
  60   2.0000      -0.563931       -15.3454
  61   2.0000      -0.553187       -15.0530
  62   2.0000      -0.544088       -14.8054
  63   2.0000      -0.524065       -14.2605
  64   2.0000      -0.518247       -14.1022
  65   2.0000      -0.512107       -13.9352
  66   2.0000      -0.501928       -13.6582
  67   2.0000      -0.495938       -13.4952
  68   2.0000      -0.484198       -13.1757
  69   2.0000      -0.466105       -12.6834
  70   2.0000      -0.454800       -12.3757
  71   2.0000      -0.453155       -12.3310
  72   2.0000      -0.355778        -9.6812
  73   2.0000      -0.349935        -9.5222
  74   2.0000      -0.330237        -8.9862
  75   2.0000      -0.322186        -8.7671
  76   2.0000      -0.318512        -8.6671
  77   0.0000       0.069664         1.8957
  78   0.0000       0.103277         2.8103
  79   0.0000       0.119291         3.2461
  80   0.0000       0.129301         3.5185
  81   0.0000       0.132658         3.6098

MULLIKEN ATOMIC CHARGES
-----------------------
   0 C :   -0.331058
   1 C :    0.045318
   2 O :   -0.380532
   3 C :    0.457701
   4 O :   -0.387755
   5 C :   -0.209585
   6 C :    0.141894
   7 C :   -0.285153
   8 N :   -0.126796
   9 C :    0.192247
  10 S :   -0.435859
  11 N :   -0.209939
  12 C :    0.065824
  13 C :    0.043375
  14 C :   -0.196899
  15 C :   -0.134276
  16 C :   -0.279898
  17 C :    0.323845
  18 O :   -0.358610
  19 C :   -0.294368
  20 H :    0.108718
  21 H :    0.122629
  22 H :    0.103136
  23 H :    0.102808
  24 H :    0.118550
  25 H :    0.124947
  26 H :    0.126093
  27 H :    0.112442
  28 H :    0.198289
  29 H :    0.196343
  30 H :    0.161335
  31 H :    0.168069
  32 H :    0.163716
  33 H :    0.132200
  34 H :    0.241050
  35 H :    0.180198
Sum of atomic charges:   -0.0000000

LOEWDIN ATOMIC CHARGES
----------------------
   0 C :    0.104411
   1 C :   -0.010131
   2 O :    0.276085
   3 C :   -0.418602
   4 O :    0.135995
   5 C :   -0.092735
   6 C :   -0.077715
   7 C :    0.128661
   8 N :    0.404884
   9 C :   -0.458137
  10 S :   -0.034330
  11 N :    0.397046
  12 C :   -0.044364
  13 C :   -0.042540
  14 C :    0.020534
  15 C :    0.040832
  16 C :   -0.002199
  17 C :   -0.193735
  18 O :    0.394741
  19 C :    0.029594
  20 H :   -0.036413
  21 H :   -0.021490
  22 H :   -0.033475
  23 H :   -0.025986
  24 H :   -0.022190
  25 H :   -0.013276
  26 H :   -0.007271
  27 H :   -0.016936
  28 H :   -0.057747
  29 H :   -0.063845
  30 H :   -0.003265
  31 H :   -0.023248
  32 H :   -0.019545
  33 H :   -0.035114
  34 H :   -0.153522
  35 H :   -0.024973

  Mayer bond orders larger than 0.100000
B(  0-C ,  1-C ) :   0.9620 B(  0-C , 20-H ) :   0.9711 B(  0-C , 21-H ) :   0.9774
B(  0-C , 22-H ) :   0.9782 B(  1-C ,  2-O ) :   0.8880 B(  1-C , 23-H ) :   0.9705
B(  1-C , 24-H ) :   0.9844 B(  2-O ,  3-C ) :   1.0977 B(  3-C ,  4-O ) :   2.0537
B(  3-C ,  5-C ) :   0.9887 B(  5-C ,  6-C ) :   1.6712 B(  5-C , 12-C ) :   0.9553
B(  6-C ,  7-C ) :   0.9551 B(  6-C ,  8-N ) :   1.1297 B(  7-C , 25-H ) :   0.9621
B(  7-C , 26-H ) :   0.9708 B(  7-C , 27-H ) :   0.9846 B(  8-N ,  9-C ) :   1.1849
B(  8-N , 28-H ) :   0.9502 B(  9-C , 10-S ) :   1.6167 B(  9-C , 11-N ) :   1.2919
B( 11-N , 12-C ) :   0.9869 B( 11-N , 29-H ) :   0.9510 B( 12-C , 13-C ) :   0.9478
B( 12-C , 30-H ) :   0.9976 B( 13-C , 14-C ) :   1.3833 B( 13-C , 19-C ) :   1.3410
B( 14-C , 15-C ) :   1.3985 B( 14-C , 31-H ) :   0.9600 B( 15-C , 16-C ) :   1.3609
B( 15-C , 32-H ) :   0.9703 B( 16-C , 17-C ) :   1.3315 B( 16-C , 33-H ) :   0.9844
B( 17-C , 18-O ) :   1.1101 B( 17-C , 19-C ) :   1.3675 B( 18-O , 34-H ) :   0.9798
B( 19-C , 35-H ) :   0.9541

MP2 TOTAL ENERGY:    -1274.321044916 Eh
FINAL SINGLE POINT ENERGY     -1274.321044916426

DIPOLE MOMENT
-------------
                                X             Y             Z
Electronic contribution:      9.91085       6.75674       5.81226
Nuclear contribution   :    -11.13746      -7.97551      -6.32518
                        -----------------------------------------
Total Dipole Moment    :     -1.22661      -1.21878      -0.51291
                        -----------------------------------------
Magnitude (a.u.)       :      1.80363
Magnitude (Debye)      :      4.58446

Rotational constants in cm-1:     0.012028     0.009615     0.007021
Rotational constants in MHz :   360.586909   288.243376   210.490212

                             ****ORCA TERMINATED NORMALLY****
TOTAL RUN TIME: 0 days 2 hours 53 minutes 37 seconds 135 msec
