                         Program Version 5.0.0 -  RELEASE  -
|  1> ! ri-mp2 cc-pvtz cc-pvtz/c TightSCF NoKeepInts
|  2>
|  3> %scf
|  4>   MaxCore 4096
|  5> end
|  6> *xyz  0  1
|  7>     C       15.0778918   14.9908834   16.7680366
|  8>     C       16.4111424   14.2090611   16.7725150
|  9>     O       17.4665991   14.9232083   16.0857479
| 10>     C       17.5047762   16.2865700   15.9765808
| 11>     O       17.2334052   16.8018569   14.9077850
| 12>     C       17.7061556   17.0663654   17.2504048
| 13>     C       17.3318777   18.3681344   17.3528973
| 14>     C       16.5206508   19.1727298   16.3604423
| 15>     N       17.7564258   19.1316071   18.4453767
| 16>     C       18.7696708   18.7606092   19.2907110
| 17>     S       19.4099443   19.8004173   20.4062203
| 18>     N       19.2431481   17.4807549   19.1418219
| 19>     C       18.5480404   16.4324538   18.3732108
| 20>     C       17.7592080   15.5791304   19.3599054
| 21>     C       18.2921221   14.3551542   19.8084994
| 22>     C       17.5827818   13.5577306   20.7222595
| 23>     C       16.3348388   13.9913175   21.2008007
| 24>     C       15.8103600   15.2182285   20.7729602
| 25>     O       14.6079993   15.6430745   21.2354581
| 26>     C       16.5179754   16.0096896   19.8633738
| 27>     H       15.1373892   15.9035768   17.3714006
| 28>     H       14.2758793   14.3704480   17.1860678
| 29>     H       14.7925887   15.2658835   15.7442858
| 30>     H       16.6924525   13.9693162   17.7996119
| 31>     H       16.2581689   13.2492197   16.2624803
| 32>     H       15.6538371   18.5991286   16.0087083
| 33>     H       17.1277000   19.4186533   15.4794088
| 34>     H       16.1420977   20.1113530   16.7817355
| 35>     H       17.4370699   20.0823337   18.5430834
| 36>     H       19.9815180   17.2280599   19.7857965
| 37>     H       19.3098352   15.7971625   17.8990510
| 38>     H       19.2586651   14.0174503   19.4432325
| 39>     H       18.0017969   12.6110008   21.0598545
| 40>     H       15.7838212   13.3792266   21.9075901
| 41>     H       14.3116492   15.0083502   21.9055751
| 42>     H       16.0975176   16.9618601   19.5611105
| 43> *
| 44>
| 45>                          ****END OF INPUT****

CARTESIAN COORDINATES (ANGSTROEM)
---------------------------------
  C     15.077892   14.990883   16.768037
  C     16.411142   14.209061   16.772515
  O     17.466599   14.923208   16.085748
  C     17.504776   16.286570   15.976581
  O     17.233405   16.801857   14.907785
  C     17.706156   17.066365   17.250405
  C     17.331878   18.368134   17.352897
  C     16.520651   19.172730   16.360442
  N     17.756426   19.131607   18.445377
  C     18.769671   18.760609   19.290711
  S     19.409944   19.800417   20.406220
  N     19.243148   17.480755   19.141822
  C     18.548040   16.432454   18.373211
  C     17.759208   15.579130   19.359905
  C     18.292122   14.355154   19.808499
  C     17.582782   13.557731   20.722259
  C     16.334839   13.991317   21.200801
  C     15.810360   15.218228   20.772960
  O     14.607999   15.643075   21.235458
  C     16.517975   16.009690   19.863374
  H     15.137389   15.903577   17.371401
  H     14.275879   14.370448   17.186068
  H     14.792589   15.265883   15.744286
  H     16.692453   13.969316   17.799612
  H     16.258169   13.249220   16.262480
  H     15.653837   18.599129   16.008708
  H     17.127700   19.418653   15.479409
  H     16.142098   20.111353   16.781735
  H     17.437070   20.082334   18.543083
  H     19.981518   17.228060   19.785797
  H     19.309835   15.797162   17.899051
  H     19.258665   14.017450   19.443233
  H     18.001797   12.611001   21.059854
  H     15.783821   13.379227   21.907590
  H     14.311649   15.008350   21.905575
  H     16.097518   16.961860   19.561111

 Total Charge           Charge          ....    0
 Multiplicity           Mult            ....    1
 Number of Electrons    NEL             ....  154
 Basis Dimension        Dim             ....  828

ORBITAL ENERGIES
----------------

  NO   OCC          E(Eh)            E(eV)
   0   2.0000     -91.891812     -2500.5033
   1   2.0000     -20.604810      -560.6854
   2   2.0000     -20.581387      -560.0480
   3   2.0000     -20.546632      -559.1023
   4   2.0000     -15.631878      -425.3650
   5   2.0000     -15.610726      -424.7895
   6   2.0000     -11.392812      -310.0142
   7   2.0000     -11.386156      -309.8331
   8   2.0000     -11.337032      -308.4963
   9   2.0000     -11.322603      -308.1037
  10   2.0000     -11.315505      -307.9105
  11   2.0000     -11.297580      -307.4228
  12   2.0000     -11.267691      -306.6095
  13   2.0000     -11.264001      -306.5090
  14   2.0000     -11.259715      -306.3924
  15   2.0000     -11.254292      -306.2449
  16   2.0000     -11.251225      -306.1614
  17   2.0000     -11.246137      -306.0229
  18   2.0000     -11.245685      -306.0107
  19   2.0000     -11.228630      -305.5466
  20   2.0000      -8.896802      -242.0943
  21   2.0000      -6.578360      -179.0063
  22   2.0000      -6.576376      -178.9523
  23   2.0000      -6.575774      -178.9359
  24   2.0000      -1.441193       -39.2168
  25   2.0000      -1.424396       -38.7598
  26   2.0000      -1.350213       -36.7412
  27   2.0000      -1.343457       -36.5573
  28   2.0000      -1.242068       -33.7984
  29   2.0000      -1.165095       -31.7038
  30   2.0000      -1.122286       -30.5390
  31   2.0000      -1.048702       -28.5366
  32   2.0000      -1.030716       -28.0472
  33   2.0000      -1.023705       -27.8564
  34   2.0000      -1.001589       -27.2546
  35   2.0000      -0.987590       -26.8737
  36   2.0000      -0.927513       -25.2389
  37   2.0000      -0.895536       -24.3688
  38   2.0000      -0.850568       -23.1451
  39   2.0000      -0.847593       -23.0642
  40   2.0000      -0.841304       -22.8930
  41   2.0000      -0.825599       -22.4657
  42   2.0000      -0.748230       -20.3604
  43   2.0000      -0.737817       -20.0770
  44   2.0000      -0.715329       -19.4651
  45   2.0000      -0.703557       -19.1447
  46   2.0000      -0.693756       -18.8781
  47   2.0000      -0.675953       -18.3936
  48   2.0000      -0.672020       -18.2866
  49   2.0000      -0.661629       -18.0038
  50   2.0000      -0.655434       -17.8353
  51   2.0000      -0.650632       -17.7046
  52   2.0000      -0.637847       -17.3567
  53   2.0000      -0.626464       -17.0469
  54   2.0000      -0.615361       -16.7448
  55   2.0000      -0.606472       -16.5029
  56   2.0000      -0.602536       -16.3958
  57   2.0000      -0.584584       -15.9073
  58   2.0000      -0.574539       -15.6340
  59   2.0000      -0.566941       -15.4273
  60   2.0000      -0.544320       -14.8117
  61   2.0000      -0.543171       -14.7804
  62   2.0000      -0.540030       -14.6950
  63   2.0000      -0.534336       -14.5400
  64   2.0000      -0.532928       -14.5017
  65   2.0000      -0.517456       -14.0807
  66   2.0000      -0.508809       -13.8454
  67   2.0000      -0.496135       -13.5005
  68   2.0000      -0.479396       -13.0450
  69   2.0000      -0.468666       -12.7531
  70   2.0000      -0.450281       -12.2528
  71   2.0000      -0.443066       -12.0564
  72   2.0000      -0.360485        -9.8093
  73   2.0000      -0.357115        -9.7176
  74   2.0000      -0.333225        -9.0675
  75   2.0000      -0.328411        -8.9365
  76   2.0000      -0.318347        -8.6627
  77   0.0000       0.069316         1.8862
  78   0.0000       0.102296         2.7836
  79   0.0000       0.119847         3.2612
  80   0.0000       0.124718         3.3938
  81   0.0000       0.129855         3.5335

MULLIKEN ATOMIC CHARGES
-----------------------
   0 C :   -0.328833
   1 C :    0.031086
   2 O :   -0.372892
   3 C :    0.489156
   4 O :   -0.389738
   5 C :   -0.282003
   6 C :    0.149311
   7 C :   -0.273938
   8 N :   -0.124734
   9 C :    0.214745
  10 S :   -0.434872
  11 N :   -0.198665
  12 C :    0.047462
  13 C :    0.072924
  14 C :   -0.205764
  15 C :   -0.126939
  16 C :   -0.276672
  17 C :    0.322544
  18 O :   -0.357285
  19 C :   -0.289642
  20 H :    0.096855
  21 H :    0.111907
  22 H :    0.124432
  23 H :    0.107316
  24 H :    0.122309
  25 H :    0.125069
  26 H :    0.142295
  27 H :    0.093855
  28 H :    0.198853
  29 H :    0.190532
  30 H :    0.151716
  31 H :    0.150176
  32 H :    0.163698
  33 H :    0.134010
  34 H :    0.243041
  35 H :    0.178685
Sum of atomic charges:   -0.0000000

LOEWDIN ATOMIC CHARGES
----------------------
   0 C :    0.105035
   1 C :   -0.011677
   2 O :    0.280495
   3 C :   -0.424719
   4 O :    0.125402
   5 C :   -0.098023
   6 C :   -0.062913
   7 C :    0.129935
   8 N :    0.407754
   9 C :   -0.454507
  10 S :   -0.030737
  11 N :    0.396095
  12 C :   -0.052573
  13 C :   -0.038847
  14 C :    0.009649
  15 C :    0.043299
  16 C :   -0.000079
  17 C :   -0.189000
  18 O :    0.396853
  19 C :    0.033013
  20 H :   -0.035630
  21 H :   -0.022102
  22 H :   -0.023445
  23 H :   -0.038550
  24 H :   -0.022996
  25 H :   -0.007279
  26 H :   -0.001998
  27 H :   -0.022842
  28 H :   -0.057279
  29 H :   -0.066651
  30 H :   -0.004361
  31 H :   -0.029885
  32 H :   -0.018871
  33 H :   -0.033728
  34 H :   -0.151684
  35 H :   -0.027156

  Mayer bond orders larger than 0.100000
B(  0-C ,  1-C ) :   0.9639 B(  0-C , 20-H ) :   0.9706 B(  0-C , 21-H ) :   0.9760
B(  0-C , 22-H ) :   0.9720 B(  1-C ,  2-O ) :   0.8996 B(  1-C , 23-H ) :   0.9666
B(  1-C , 24-H ) :   0.9827 B(  2-O ,  3-C ) :   1.1251 B(  3-C ,  4-O ) :   2.0554
B(  3-C ,  5-C ) :   1.0097 B(  5-C ,  6-C ) :   1.6566 B(  5-C , 12-C ) :   0.9748
B(  6-C ,  7-C ) :   0.9717 B(  6-C ,  8-N ) :   1.1499 B(  7-C , 25-H ) :   0.9676
B(  7-C , 26-H ) :   0.9547 B(  7-C , 27-H ) :   0.9858 B(  8-N ,  9-C ) :   1.1795
B(  8-N , 28-H ) :   0.9492 B(  9-C , 10-S ) :   1.6155 B(  9-C , 11-N ) :   1.2987
B( 11-N , 12-C ) :   0.9575 B( 11-N , 29-H ) :   0.9549 B( 12-C , 13-C ) :   0.9570
B( 12-C , 30-H ) :   0.9992 B( 13-C , 14-C ) :   1.3412 B( 13-C , 19-C ) :   1.3616
B( 14-C , 15-C ) :   1.3953 B( 14-C , 31-H ) :   0.9756 B( 15-C , 16-C ) :   1.3664
B( 15-C , 32-H ) :   0.9696 B( 16-C , 17-C ) :   1.3287 B( 16-C , 33-H ) :   0.9832
B( 17-C , 18-O ) :   1.1156 B( 17-C , 19-C ) :   1.3688 B( 18-O , 34-H ) :   0.9786
B( 19-C , 35-H ) :   0.9507

MP2 TOTAL ENERGY:    -1274.328446489 Eh
FINAL SINGLE POINT ENERGY     -1274.328446489043

DIPOLE MOMENT
-------------
                                X             Y             Z
Electronic contribution:     10.00969       7.58817       5.01971
Nuclear contribution   :    -11.24582      -9.18665      -4.40441
                        -----------------------------------------
Total Dipole Moment    :     -1.23613      -1.59848       0.61529
                        -----------------------------------------
Magnitude (a.u.)       :      2.11228
Magnitude (Debye)      :      5.36899

Rotational constants in cm-1:     0.011536     0.009896     0.006787
Rotational constants in MHz :   345.842074   296.677382   203.457340

                             ****ORCA TERMINATED NORMALLY****
TOTAL RUN TIME: 0 days 2 hours 13 minutes 25 seconds 364 msec
