                         Program Version 5.0.0 -  RELEASE  -
|  1> ! ri-mp2 cc-pvtz cc-pvtz/c TightSCF NoKeepInts
|  2>
|  3> %scf
|  4>   MaxCore 4096
|  5> end
|  6> *xyz  0  1
|  7>     C       14.9445836   15.4127910   16.9005602
|  8>     C       16.1312053   14.4260937   16.8787057
|  9>     O       17.1876249   14.9004935   16.0179636
| 10>     C       17.7575485   16.1489311   16.0090612
| 11>     O       18.1335269   16.6204025   14.9520628
| 12>     C       17.7625640   16.9670218   17.2665185
| 13>     C       17.3204375   18.2470482   17.2359972
| 14>     C       16.5812763   18.9138489   16.0968608
| 15>     N       17.5948582   19.1095614   18.3003516
| 16>     C       18.5343044   18.8555884   19.2655821
| 17>     S       18.9831732   19.9977280   20.3741743
| 18>     N       19.0992134   17.6035667   19.2512304
| 19>     C       18.5854375   16.4647063   18.4658228
| 20>     C       17.8379990   15.5364576   19.4125821
| 21>     C       18.3597965   14.2642347   19.7156137
| 22>     C       17.6753787   13.4012729   20.5880394
| 23>     C       16.4641473   13.8153942   21.1681099
| 24>     C       15.9498729   15.0869615   20.8809466
| 25>     O       14.7806094   15.4903155   21.4376800
| 26>     C       16.6325268   15.9439346   20.0125495
| 27>     H       15.1701036   16.3127782   17.4815630
| 28>     H       14.0704114   14.9374226   17.3621208
| 29>     H       14.6683689   15.7104652   15.8810877
| 30>     H       16.4801291   14.2176144   17.8892047
| 31>     H       15.7751388   13.4692498   16.4755274
| 32>     H       15.8907157   18.2152141   15.6086832
| 33>     H       17.2912977   19.2547849   15.3317638
| 34>     H       15.9942847   19.7789694   16.4270360
| 35>     H       17.2175761   20.0440655   18.2965851
| 36>     H       19.7815009   17.4424108   19.9811033
| 37>     H       19.4504081   15.9191118   18.0622568
| 38>     H       19.2965176   13.9395279   19.2694470
| 39>     H       18.0847874   12.4177826   20.8140991
| 40>     H       15.9325000   13.1516584   21.8424402
| 41>     H       14.5043293   14.8063443   22.0666799
| 42>     H       16.2228465   16.9282474   19.8139899
| 43> *
| 44>
| 45>                          ****END OF INPUT****

CARTESIAN COORDINATES (ANGSTROEM)
---------------------------------
  C     14.944584   15.412791   16.900560
  C     16.131205   14.426094   16.878706
  O     17.187625   14.900493   16.017964
  C     17.757548   16.148931   16.009061
  O     18.133527   16.620403   14.952063
  C     17.762564   16.967022   17.266518
  C     17.320437   18.247048   17.235997
  C     16.581276   18.913849   16.096861
  N     17.594858   19.109561   18.300352
  C     18.534304   18.855588   19.265582
  S     18.983173   19.997728   20.374174
  N     19.099213   17.603567   19.251230
  C     18.585438   16.464706   18.465823
  C     17.837999   15.536458   19.412582
  C     18.359797   14.264235   19.715614
  C     17.675379   13.401273   20.588039
  C     16.464147   13.815394   21.168110
  C     15.949873   15.086961   20.880947
  O     14.780609   15.490315   21.437680
  C     16.632527   15.943935   20.012549
  H     15.170104   16.312778   17.481563
  H     14.070411   14.937423   17.362121
  H     14.668369   15.710465   15.881088
  H     16.480129   14.217614   17.889205
  H     15.775139   13.469250   16.475527
  H     15.890716   18.215214   15.608683
  H     17.291298   19.254785   15.331764
  H     15.994285   19.778969   16.427036
  H     17.217576   20.044065   18.296585
  H     19.781501   17.442411   19.981103
  H     19.450408   15.919112   18.062257
  H     19.296518   13.939528   19.269447
  H     18.084787   12.417783   20.814099
  H     15.932500   13.151658   21.842440
  H     14.504329   14.806344   22.066680
  H     16.222846   16.928247   19.813990

 Total Charge           Charge          ....    0
 Multiplicity           Mult            ....    1
 Number of Electrons    NEL             ....  154
 Basis Dimension        Dim             ....  828

ORBITAL ENERGIES
----------------

  NO   OCC          E(Eh)            E(eV)
   0   2.0000     -91.890525     -2500.4683
   1   2.0000     -20.606237      -560.7242
   2   2.0000     -20.592684      -560.3554
   3   2.0000     -20.547209      -559.1180
   4   2.0000     -15.628122      -425.2628
   5   2.0000     -15.611371      -424.8070
   6   2.0000     -11.395373      -310.0839
   7   2.0000     -11.385693      -309.8204
   8   2.0000     -11.329276      -308.2853
   9   2.0000     -11.324673      -308.1600
  10   2.0000     -11.319843      -308.0286
  11   2.0000     -11.298700      -307.4532
  12   2.0000     -11.269530      -306.6595
  13   2.0000     -11.266114      -306.5665
  14   2.0000     -11.259270      -306.3803
  15   2.0000     -11.255600      -306.2804
  16   2.0000     -11.254016      -306.2373
  17   2.0000     -11.248957      -306.0997
  18   2.0000     -11.247756      -306.0670
  19   2.0000     -11.231128      -305.6145
  20   2.0000      -8.895557      -242.0604
  21   2.0000      -6.577126      -178.9727
  22   2.0000      -6.575127      -178.9183
  23   2.0000      -6.574536      -178.9022
  24   2.0000      -1.442422       -39.2503
  25   2.0000      -1.425892       -38.8005
  26   2.0000      -1.354344       -36.8536
  27   2.0000      -1.341249       -36.4972
  28   2.0000      -1.241237       -33.7758
  29   2.0000      -1.167345       -31.7651
  30   2.0000      -1.123723       -30.5781
  31   2.0000      -1.051251       -28.6060
  32   2.0000      -1.034070       -28.1385
  33   2.0000      -1.025760       -27.9124
  34   2.0000      -1.002972       -27.2923
  35   2.0000      -0.988550       -26.8998
  36   2.0000      -0.928931       -25.2775
  37   2.0000      -0.896860       -24.4048
  38   2.0000      -0.851507       -23.1707
  39   2.0000      -0.848244       -23.0819
  40   2.0000      -0.843396       -22.9500
  41   2.0000      -0.829595       -22.5744
  42   2.0000      -0.751901       -20.4603
  43   2.0000      -0.739758       -20.1298
  44   2.0000      -0.718476       -19.5507
  45   2.0000      -0.705653       -19.2018
  46   2.0000      -0.694280       -18.8923
  47   2.0000      -0.680290       -18.5116
  48   2.0000      -0.674338       -18.3497
  49   2.0000      -0.663889       -18.0653
  50   2.0000      -0.654216       -17.8021
  51   2.0000      -0.648559       -17.6482
  52   2.0000      -0.637787       -17.3551
  53   2.0000      -0.622806       -16.9474
  54   2.0000      -0.616126       -16.7656
  55   2.0000      -0.608647       -16.5621
  56   2.0000      -0.603579       -16.4242
  57   2.0000      -0.585877       -15.9425
  58   2.0000      -0.577789       -15.7224
  59   2.0000      -0.567112       -15.4319
  60   2.0000      -0.558168       -15.1885
  61   2.0000      -0.546224       -14.8635
  62   2.0000      -0.539989       -14.6938
  63   2.0000      -0.537031       -14.6133
  64   2.0000      -0.532793       -14.4980
  65   2.0000      -0.518770       -14.1164
  66   2.0000      -0.508731       -13.8433
  67   2.0000      -0.501520       -13.6471
  68   2.0000      -0.484486       -13.1835
  69   2.0000      -0.466283       -12.6882
  70   2.0000      -0.449571       -12.2334
  71   2.0000      -0.445907       -12.1337
  72   2.0000      -0.358266        -9.7489
  73   2.0000      -0.357636        -9.7318
  74   2.0000      -0.334861        -9.1120
  75   2.0000      -0.328767        -8.9462
  76   2.0000      -0.317357        -8.6357
  77   0.0000       0.076665         2.0862
  78   0.0000       0.101158         2.7527
  79   0.0000       0.118735         3.2309
  80   0.0000       0.125910         3.4262
  81   0.0000       0.130571         3.5530

MULLIKEN ATOMIC CHARGES
-----------------------
   0 C :   -0.336996
   1 C :    0.031672
   2 O :   -0.322004
   3 C :    0.400810
   4 O :   -0.370620
   5 C :   -0.247184
   6 C :    0.159286
   7 C :   -0.286765
   8 N :   -0.129979
   9 C :    0.207480
  10 S :   -0.436515
  11 N :   -0.190562
  12 C :    0.039896
  13 C :    0.055612
  14 C :   -0.194912
  15 C :   -0.129000
  16 C :   -0.273738
  17 C :    0.317817
  18 O :   -0.356029
  19 C :   -0.283998
  20 H :    0.102677
  21 H :    0.116207
  22 H :    0.117895
  23 H :    0.102873
  24 H :    0.125779
  25 H :    0.118735
  26 H :    0.150064
  27 H :    0.096847
  28 H :    0.197699
  29 H :    0.190352
  30 H :    0.152683
  31 H :    0.151587
  32 H :    0.164297
  33 H :    0.135349
  34 H :    0.242766
  35 H :    0.179921
Sum of atomic charges:    0.0000000

LOEWDIN ATOMIC CHARGES
----------------------
   0 C :    0.102997
   1 C :   -0.016010
   2 O :    0.297239
   3 C :   -0.419847
   4 O :    0.127831
   5 C :   -0.089243
   6 C :   -0.082054
   7 C :    0.129155
   8 N :    0.404970
   9 C :   -0.455650
  10 S :   -0.033259
  11 N :    0.396815
  12 C :   -0.052006
  13 C :   -0.044436
  14 C :    0.009769
  15 C :    0.044042
  16 C :    0.001510
  17 C :   -0.189993
  18 O :    0.397774
  19 C :    0.035460
  20 H :   -0.037971
  21 H :   -0.022352
  22 H :   -0.026686
  23 H :   -0.040090
  24 H :   -0.020350
  25 H :   -0.009788
  26 H :   -0.002056
  27 H :   -0.021096
  28 H :   -0.057899
  29 H :   -0.065604
  30 H :   -0.004860
  31 H :   -0.029119
  32 H :   -0.018450
  33 H :   -0.033072
  34 H :   -0.151637
  35 H :   -0.024033

  Mayer bond orders larger than 0.100000
B(  0-C ,  1-C ) :   0.9577 B(  0-C , 20-H ) :   0.9694 B(  0-C , 21-H ) :   0.9766
B(  0-C , 22-H ) :   0.9760 B(  1-C ,  2-O ) :   0.9082 B(  1-C , 23-H ) :   0.9632
B(  1-C , 24-H ) :   0.9838 B(  2-O ,  3-C ) :   1.1978 B(  3-C ,  4-O ) :   2.1053
B(  3-C ,  5-C ) :   0.9323 B(  5-C ,  6-C ) :   1.7089 B(  5-C , 12-C ) :   0.9706
B(  6-C ,  7-C ) :   0.9543 B(  6-C ,  8-N ) :   1.1274 B(  7-C , 25-H ) :   0.9739
B(  7-C , 26-H ) :   0.9577 B(  7-C , 27-H ) :   0.9830 B(  8-N ,  9-C ) :   1.1879
B(  8-N , 28-H ) :   0.9506 B(  9-C , 10-S ) :   1.6168 B(  9-C , 11-N ) :   1.2878
B( 11-N , 12-C ) :   0.9792 B( 11-N , 29-H ) :   0.9545 B( 12-C , 13-C ) :   0.9484
B( 12-C , 30-H ) :   1.0065 B( 13-C , 14-C ) :   1.3539 B( 13-C , 19-C ) :   1.3592
B( 14-C , 15-C ) :   1.3885 B( 14-C , 31-H ) :   0.9734 B( 15-C , 16-C ) :   1.3723
B( 15-C , 32-H ) :   0.9697 B( 16-C , 17-C ) :   1.3240 B( 16-C , 33-H ) :   0.9827
B( 17-C , 18-O ) :   1.1155 B( 17-C , 19-C ) :   1.3741 B( 18-O , 34-H ) :   0.9785
B( 19-C , 35-H ) :   0.9521

MP2 TOTAL ENERGY:    -1274.328042798 Eh
FINAL SINGLE POINT ENERGY     -1274.328042797545

DIPOLE MOMENT
-------------
                                X             Y             Z
Electronic contribution:     10.12162       6.72735       5.22961
Nuclear contribution   :    -11.56315      -8.47639      -4.60466
                        -----------------------------------------
Total Dipole Moment    :     -1.44152      -1.74904       0.62495
                        -----------------------------------------
Magnitude (a.u.)       :      2.35110
Magnitude (Debye)      :      5.97603

Rotational constants in cm-1:     0.011590     0.009868     0.006780
Rotational constants in MHz :   347.466653   295.848325   203.249053

                             ****ORCA TERMINATED NORMALLY****
TOTAL RUN TIME: 0 days 2 hours 4 minutes 12 seconds 737 msec
