                         Program Version 5.0.0 -  RELEASE  -
|  1> ! ri-mp2 cc-pvtz cc-pvtz/c TightSCF NoKeepInts
|  2>
|  3> %scf
|  4>   MaxCore 4096
|  5> end
|  6> *xyz  0  1
|  7>     C       14.6776479   14.4368799   17.2358458
|  8>     C       15.6342184   15.3290728   16.4283377
|  9>     O       16.9682359   14.9663450   16.8061886
| 10>     C       18.0152421   15.7776539   16.4843145
| 11>     O       19.0722324   15.2510345   16.1927760
| 12>     C       18.0466290   16.9549658   17.3948738
| 13>     C       17.5685163   18.1577789   17.0091553
| 14>     C       16.9478366   18.4952922   15.6705550
| 15>     N       17.6663082   19.2533609   17.8694909
| 16>     C       18.3185329   19.2388018   19.0755842
| 17>     S       18.4431258   20.5979251   20.0094498
| 18>     N       18.8584720   18.0391032   19.4724626
| 19>     C       18.7042104   16.7542705   18.7600827
| 20>     C       17.9333549   15.7468753   19.6065920
| 21>     C       18.4141750   14.4329702   19.7543078
| 22>     C       17.7015289   13.4916029   20.5156303
| 23>     C       16.4959403   13.8657092   21.1331174
| 24>     C       16.0106342   15.1717043   20.9824717
| 25>     O       14.8388084   15.5313167   21.5642681
| 26>     C       16.7215844   16.1071042   20.2242372
| 27>     H       14.8595186   13.3776087   17.0149158
| 28>     H       13.6335123   14.6661047   16.9913871
| 29>     H       14.8211403   14.5922083   18.3123067
| 30>     H       15.4850026   15.1801367   15.3507639
| 31>     H       15.4252018   16.3762082   16.6775528
| 32>     H       17.1623091   17.7356858   14.9090135
| 33>     H       17.3425039   19.4438936   15.2841768
| 34>     H       15.8587892   18.5949204   15.7552672
| 35>     H       17.2861813   20.1451683   17.5937525
| 36>     H       19.3111071   18.0536425   20.3775590
| 37>     H       19.7109196   16.3490913   18.5807968
| 38>     H       19.3359968   14.1356969   19.2597748
| 39>     H       18.0807242   12.4762432   20.6165133
| 40>     H       15.9405598   13.1400448   21.7178215
| 41>     H       14.5299525   14.7740533   22.0842438
| 42>     H       16.3263469   17.1115259   20.1184131
| 43> *
| 44>
| 45>                          ****END OF INPUT****

CARTESIAN COORDINATES (ANGSTROEM)
---------------------------------
  C     14.677648   14.436880   17.235846
  C     15.634218   15.329073   16.428338
  O     16.968236   14.966345   16.806189
  C     18.015242   15.777654   16.484314
  O     19.072232   15.251034   16.192776
  C     18.046629   16.954966   17.394874
  C     17.568516   18.157779   17.009155
  C     16.947837   18.495292   15.670555
  N     17.666308   19.253361   17.869491
  C     18.318533   19.238802   19.075584
  S     18.443126   20.597925   20.009450
  N     18.858472   18.039103   19.472463
  C     18.704210   16.754271   18.760083
  C     17.933355   15.746875   19.606592
  C     18.414175   14.432970   19.754308
  C     17.701529   13.491603   20.515630
  C     16.495940   13.865709   21.133117
  C     16.010634   15.171704   20.982472
  O     14.838808   15.531317   21.564268
  C     16.721584   16.107104   20.224237
  H     14.859519   13.377609   17.014916
  H     13.633512   14.666105   16.991387
  H     14.821140   14.592208   18.312307
  H     15.485003   15.180137   15.350764
  H     15.425202   16.376208   16.677553
  H     17.162309   17.735686   14.909013
  H     17.342504   19.443894   15.284177
  H     15.858789   18.594920   15.755267
  H     17.286181   20.145168   17.593753
  H     19.311107   18.053642   20.377559
  H     19.710920   16.349091   18.580797
  H     19.335997   14.135697   19.259775
  H     18.080724   12.476243   20.616513
  H     15.940560   13.140045   21.717821
  H     14.529953   14.774053   22.084244
  H     16.326347   17.111526   20.118413

 Total Charge           Charge          ....    0
 Multiplicity           Mult            ....    1
 Number of Electrons    NEL             ....  154
 Basis Dimension        Dim             ....  828

ORBITAL ENERGIES
----------------

  NO   OCC          E(Eh)            E(eV)
   0   2.0000     -91.885823     -2500.3404
   1   2.0000     -20.598138      -560.5038
   2   2.0000     -20.597941      -560.4985
   3   2.0000     -20.564374      -559.5851
   4   2.0000     -15.620545      -425.0566
   5   2.0000     -15.608993      -424.7423
   6   2.0000     -11.394095      -310.0491
   7   2.0000     -11.382851      -309.7431
   8   2.0000     -11.318971      -308.0048
   9   2.0000     -11.315249      -307.9036
  10   2.0000     -11.313808      -307.8644
  11   2.0000     -11.305782      -307.6460
  12   2.0000     -11.268563      -306.6332
  13   2.0000     -11.263208      -306.4875
  14   2.0000     -11.260563      -306.4155
  15   2.0000     -11.254321      -306.2456
  16   2.0000     -11.243298      -305.9457
  17   2.0000     -11.238677      -305.8200
  18   2.0000     -11.237111      -305.7773
  19   2.0000     -11.231003      -305.6111
  20   2.0000      -8.890979      -241.9358
  21   2.0000      -6.572581      -178.8490
  22   2.0000      -6.570543      -178.7936
  23   2.0000      -6.569982      -178.7783
  24   2.0000      -1.459943       -39.7271
  25   2.0000      -1.417670       -38.5768
  26   2.0000      -1.366265       -37.1780
  27   2.0000      -1.335342       -36.3365
  28   2.0000      -1.236132       -33.6369
  29   2.0000      -1.158008       -31.5110
  30   2.0000      -1.122769       -30.5521
  31   2.0000      -1.046572       -28.4787
  32   2.0000      -1.041072       -28.3290
  33   2.0000      -1.015793       -27.6411
  34   2.0000      -1.002399       -27.2767
  35   2.0000      -0.985602       -26.8196
  36   2.0000      -0.925356       -25.1802
  37   2.0000      -0.882847       -24.0235
  38   2.0000      -0.851219       -23.1628
  39   2.0000      -0.838503       -22.8168
  40   2.0000      -0.834679       -22.7128
  41   2.0000      -0.833898       -22.6915
  42   2.0000      -0.760521       -20.6948
  43   2.0000      -0.735216       -20.0063
  44   2.0000      -0.729323       -19.8459
  45   2.0000      -0.696892       -18.9634
  46   2.0000      -0.691632       -18.8203
  47   2.0000      -0.683711       -18.6047
  48   2.0000      -0.676505       -18.4086
  49   2.0000      -0.662630       -18.0311
  50   2.0000      -0.652260       -17.7489
  51   2.0000      -0.641967       -17.4688
  52   2.0000      -0.636616       -17.3232
  53   2.0000      -0.620859       -16.8944
  54   2.0000      -0.609626       -16.5888
  55   2.0000      -0.605225       -16.4690
  56   2.0000      -0.601364       -16.3639
  57   2.0000      -0.587111       -15.9761
  58   2.0000      -0.576323       -15.6825
  59   2.0000      -0.564695       -15.3661
  60   2.0000      -0.560662       -15.2564
  61   2.0000      -0.550160       -14.9706
  62   2.0000      -0.538370       -14.6498
  63   2.0000      -0.530249       -14.4288
  64   2.0000      -0.521222       -14.1832
  65   2.0000      -0.512082       -13.9345
  66   2.0000      -0.500143       -13.6096
  67   2.0000      -0.499209       -13.5842
  68   2.0000      -0.490965       -13.3598
  69   2.0000      -0.466109       -12.6835
  70   2.0000      -0.460695       -12.5362
  71   2.0000      -0.454323       -12.3628
  72   2.0000      -0.353496        -9.6191
  73   2.0000      -0.348042        -9.4707
  74   2.0000      -0.325928        -8.8689
  75   2.0000      -0.321438        -8.7468
  76   2.0000      -0.313884        -8.5412
  77   0.0000       0.090316         2.4576
  78   0.0000       0.098246         2.6734
  79   0.0000       0.108647         2.9564
  80   0.0000       0.125363         3.4113
  81   0.0000       0.128594         3.4992

MULLIKEN ATOMIC CHARGES
-----------------------
   0 C :   -0.267401
   1 C :    0.009923
   2 O :   -0.305007
   3 C :    0.377007
   4 O :   -0.350761
   5 C :   -0.130627
   6 C :    0.115032
   7 C :   -0.324835
   8 N :   -0.133301
   9 C :    0.209032
  10 S :   -0.448169
  11 N :   -0.207360
  12 C :    0.030252
  13 C :    0.052070
  14 C :   -0.178406
  15 C :   -0.134457
  16 C :   -0.264162
  17 C :    0.293762
  18 O :   -0.365492
  19 C :   -0.263340
  20 H :    0.102614
  21 H :    0.087086
  22 H :    0.118535
  23 H :    0.108186
  24 H :    0.079282
  25 H :    0.117675
  26 H :    0.130292
  27 H :    0.123043
  28 H :    0.193590
  29 H :    0.196361
  30 H :    0.165452
  31 H :    0.156150
  32 H :    0.161166
  33 H :    0.131498
  34 H :    0.241055
  35 H :    0.174256
Sum of atomic charges:    0.0000000

LOEWDIN ATOMIC CHARGES
----------------------
   0 C :    0.113230
   1 C :   -0.034751
   2 O :    0.329712
   3 C :   -0.426875
   4 O :    0.152330
   5 C :   -0.078153
   6 C :   -0.118905
   7 C :    0.121069
   8 N :    0.398575
   9 C :   -0.454805
  10 S :   -0.043516
  11 N :    0.397461
  12 C :   -0.040478
  13 C :   -0.039076
  14 C :    0.023027
  15 C :    0.045706
  16 C :   -0.001074
  17 C :   -0.194241
  18 O :    0.394255
  19 C :    0.028332
  20 H :   -0.024334
  21 H :   -0.026695
  22 H :   -0.022470
  23 H :   -0.033393
  24 H :   -0.038033
  25 H :   -0.011757
  26 H :   -0.011548
  27 H :   -0.018149
  28 H :   -0.060370
  29 H :   -0.063891
  30 H :   -0.003307
  31 H :   -0.024994
  32 H :   -0.019512
  33 H :   -0.035466
  34 H :   -0.153559
  35 H :   -0.024346

  Mayer bond orders larger than 0.100000
B(  0-C ,  1-C ) :   0.9841 B(  0-C , 20-H ) :   0.9806 B(  0-C , 21-H ) :   0.9764
B(  0-C , 22-H ) :   0.9718 B(  1-C ,  2-O ) :   0.9299 B(  1-C , 23-H ) :   0.9784
B(  1-C , 24-H ) :   0.9637 B(  2-O ,  3-C ) :   1.0853 B(  3-C ,  4-O ) :   2.1094
B(  3-C ,  5-C ) :   0.9335 B(  5-C ,  6-C ) :   1.7240 B(  5-C , 12-C ) :   0.9721
B(  6-C ,  7-C ) :   0.9414 B(  6-C ,  8-N ) :   1.1031 B(  7-C , 25-H ) :   0.9817
B(  7-C , 26-H ) :   0.9746 B(  7-C , 27-H ) :   0.9668 B(  8-N ,  9-C ) :   1.2037
B(  8-N , 28-H ) :   0.9545 B(  9-C , 10-S ) :   1.6035 B(  9-C , 11-N ) :   1.2856
B( 11-N , 12-C ) :   0.9995 B( 11-N , 29-H ) :   0.9487 B( 12-C , 13-C ) :   0.9475
B( 12-C , 30-H ) :   0.9994 B( 13-C , 14-C ) :   1.3785 B( 13-C , 19-C ) :   1.3537
B( 14-C , 15-C ) :   1.3943 B( 14-C , 31-H ) :   0.9667 B( 15-C , 16-C ) :   1.3663
B( 15-C , 32-H ) :   0.9710 B( 16-C , 17-C ) :   1.3307 B( 16-C , 33-H ) :   0.9848
B( 17-C , 18-O ) :   1.0975 B( 17-C , 19-C ) :   1.3706 B( 18-O , 34-H ) :   0.9798
B( 19-C , 35-H ) :   0.9566

MP2 TOTAL ENERGY:    -1274.311208541 Eh
FINAL SINGLE POINT ENERGY     -1274.311208541336

DIPOLE MOMENT
-------------
                                X             Y             Z
Electronic contribution:     10.59682       8.22086       6.73657
Nuclear contribution   :    -12.20684      -9.52043      -7.55496
                        -----------------------------------------
Total Dipole Moment    :     -1.61001      -1.29957      -0.81839
                        -----------------------------------------
Magnitude (a.u.)       :      2.22504
Magnitude (Debye)      :      5.65559

Rotational constants in cm-1:     0.012429     0.009009     0.006819
Rotational constants in MHz :   372.598557   270.074773   204.442166

                             ****ORCA TERMINATED NORMALLY****
TOTAL RUN TIME: 0 days 2 hours 7 minutes 30 seconds 207 msec
