                         Program Version 5.0.0 -  RELEASE  -
|  1> ! ri-mp2 cc-pvtz cc-pvtz/c TightSCF NoKeepInts
|  2>
|  3> %scf
|  4>   MaxCore 4096
|  5> end
|  6> *xyz  0  1
|  7>     C       14.8517620   16.1972606   17.2542192
|  8>     C       15.6317734   14.8938506   16.9899797
|  9>     O       16.8105762   15.0274527   16.1555120
| 10>     C       17.9634646   15.7325810   16.4125597
| 11>     O       19.0380855   15.2259906   16.1493236
| 12>     C       17.8955166   16.8771410   17.3610334
| 13>     C       17.3977486   18.0765363   16.9849356
| 14>     C       16.8360979   18.4381788   15.6268827
| 15>     N       17.4496360   19.1584624   17.8659375
| 16>     C       18.0564949   19.1336536   19.0950057
| 17>     S       18.0936681   20.4668802   20.0723359
| 18>     N       18.6306176   17.9456936   19.4781494
| 19>     C       18.5892160   16.6852560   18.7091458
| 20>     C       17.9447540   15.5551550   19.5058858
| 21>     C       18.4558916   14.2480463   19.4052977
| 22>     C       17.8587650   13.1887959   20.1085026
| 23>     C       16.7385098   13.4366884   20.9196025
| 24>     C       16.2236242   14.7359446   21.0206328
| 25>     O       15.1338000   14.9766604   21.7915213
| 26>     C       16.8190465   15.7886165   20.3183911
| 27>     H       15.3269126   16.8170061   18.0205348
| 28>     H       13.8513113   15.9518354   17.6312867
| 29>     H       14.7196803   16.7737666   16.3323784
| 30>     H       15.9064174   14.4338217   17.9477197
| 31>     H       14.9515899   14.1927107   16.4893590
| 32>     H       16.6510450   17.5565148   15.0013462
| 33>     H       17.5384475   19.0798544   15.0797766
| 34>     H       15.8856024   18.9778677   15.7192221
| 35>     H       17.0562887   20.0457022   17.5936988
| 36>     H       19.0575201   17.9547529   20.3959881
| 37>     H       19.6291862   16.3931371   18.5001034
| 38>     H       19.3134916   14.0502460   18.7649191
| 39>     H       18.2630329   12.1816547   20.0189395
| 40>     H       16.2734436   12.6205803   21.4630097
| 41>     H       14.9068506   14.1493605   22.2429029
| 42>     H       16.3971316   16.7843445   20.4079609
| 43> *
| 44>
| 45>                          ****END OF INPUT****

CARTESIAN COORDINATES (ANGSTROEM)
---------------------------------
  C     14.851762   16.197261   17.254219
  C     15.631773   14.893851   16.989980
  O     16.810576   15.027453   16.155512
  C     17.963465   15.732581   16.412560
  O     19.038085   15.225991   16.149324
  C     17.895517   16.877141   17.361033
  C     17.397749   18.076536   16.984936
  C     16.836098   18.438179   15.626883
  N     17.449636   19.158462   17.865937
  C     18.056495   19.133654   19.095006
  S     18.093668   20.466880   20.072336
  N     18.630618   17.945694   19.478149
  C     18.589216   16.685256   18.709146
  C     17.944754   15.555155   19.505886
  C     18.455892   14.248046   19.405298
  C     17.858765   13.188796   20.108503
  C     16.738510   13.436688   20.919602
  C     16.223624   14.735945   21.020633
  O     15.133800   14.976660   21.791521
  C     16.819046   15.788616   20.318391
  H     15.326913   16.817006   18.020535
  H     13.851311   15.951835   17.631287
  H     14.719680   16.773767   16.332378
  H     15.906417   14.433822   17.947720
  H     14.951590   14.192711   16.489359
  H     16.651045   17.556515   15.001346
  H     17.538447   19.079854   15.079777
  H     15.885602   18.977868   15.719222
  H     17.056289   20.045702   17.593699
  H     19.057520   17.954753   20.395988
  H     19.629186   16.393137   18.500103
  H     19.313492   14.050246   18.764919
  H     18.263033   12.181655   20.018939
  H     16.273444   12.620580   21.463010
  H     14.906851   14.149360   22.242903
  H     16.397132   16.784344   20.407961

 Total Charge           Charge          ....    0
 Multiplicity           Mult            ....    1
 Number of Electrons    NEL             ....  154
 Basis Dimension        Dim             ....  828

ORBITAL ENERGIES
----------------

  NO   OCC          E(Eh)            E(eV)
   0   2.0000     -91.890191     -2500.4592
   1   2.0000     -20.603042      -560.6373
   2   2.0000     -20.592228      -560.3430
   3   2.0000     -20.551556      -559.2363
   4   2.0000     -15.626243      -425.2117
   5   2.0000     -15.612533      -424.8386
   6   2.0000     -11.397746      -310.1484
   7   2.0000     -11.387166      -309.8605
   8   2.0000     -11.326151      -308.2002
   9   2.0000     -11.320665      -308.0510
  10   2.0000     -11.316757      -307.9446
  11   2.0000     -11.304616      -307.6142
  12   2.0000     -11.267528      -306.6050
  13   2.0000     -11.265558      -306.5514
  14   2.0000     -11.261374      -306.4376
  15   2.0000     -11.260947      -306.4259
  16   2.0000     -11.250022      -306.1287
  17   2.0000     -11.245523      -306.0062
  18   2.0000     -11.242889      -305.9346
  19   2.0000     -11.233396      -305.6762
  20   2.0000      -8.895304      -242.0535
  21   2.0000      -6.576892      -178.9663
  22   2.0000      -6.574866      -178.9112
  23   2.0000      -6.574291      -178.8956
  24   2.0000      -1.442675       -39.2572
  25   2.0000      -1.422865       -38.7181
  26   2.0000      -1.354751       -36.8646
  27   2.0000      -1.339805       -36.4579
  28   2.0000      -1.240255       -33.7491
  29   2.0000      -1.164707       -31.6933
  30   2.0000      -1.126094       -30.6426
  31   2.0000      -1.050850       -28.5951
  32   2.0000      -1.037478       -28.2312
  33   2.0000      -1.022391       -27.8207
  34   2.0000      -1.005458       -27.3599
  35   2.0000      -0.990734       -26.9592
  36   2.0000      -0.929066       -25.2812
  37   2.0000      -0.895710       -24.3735
  38   2.0000      -0.852755       -23.2046
  39   2.0000      -0.842944       -22.9377
  40   2.0000      -0.840147       -22.8616
  41   2.0000      -0.831727       -22.6324
  42   2.0000      -0.750844       -20.4315
  43   2.0000      -0.736160       -20.0319
  44   2.0000      -0.729342       -19.8464
  45   2.0000      -0.700760       -19.0686
  46   2.0000      -0.689831       -18.7713
  47   2.0000      -0.678377       -18.4596
  48   2.0000      -0.675673       -18.3860
  49   2.0000      -0.662722       -18.0336
  50   2.0000      -0.655875       -17.8473
  51   2.0000      -0.645564       -17.5667
  52   2.0000      -0.640460       -17.4278
  53   2.0000      -0.615042       -16.7361
  54   2.0000      -0.608922       -16.5696
  55   2.0000      -0.607489       -16.5306
  56   2.0000      -0.604232       -16.4420
  57   2.0000      -0.590083       -16.0570
  58   2.0000      -0.582705       -15.8562
  59   2.0000      -0.578893       -15.7525
  60   2.0000      -0.567661       -15.4468
  61   2.0000      -0.556586       -15.1455
  62   2.0000      -0.539279       -14.6745
  63   2.0000      -0.533030       -14.5045
  64   2.0000      -0.523363       -14.2414
  65   2.0000      -0.514729       -14.0065
  66   2.0000      -0.504442       -13.7266
  67   2.0000      -0.497145       -13.5280
  68   2.0000      -0.489792       -13.3279
  69   2.0000      -0.464290       -12.6340
  70   2.0000      -0.455079       -12.3833
  71   2.0000      -0.447894       -12.1878
  72   2.0000      -0.355894        -9.6844
  73   2.0000      -0.354173        -9.6375
  74   2.0000      -0.330180        -8.9846
  75   2.0000      -0.328581        -8.9411
  76   2.0000      -0.318702        -8.6723
  77   0.0000       0.088732         2.4145
  78   0.0000       0.101672         2.7666
  79   0.0000       0.118379         3.2213
  80   0.0000       0.124327         3.3831
  81   0.0000       0.127853         3.4791

MULLIKEN ATOMIC CHARGES
-----------------------
   0 C :   -0.340236
   1 C :    0.039854
   2 O :   -0.342313
   3 C :    0.394138
   4 O :   -0.374606
   5 C :   -0.174406
   6 C :    0.128608
   7 C :   -0.330244
   8 N :   -0.136070
   9 C :    0.209854
  10 S :   -0.441523
  11 N :   -0.225766
  12 C :    0.095873
  13 C :   -0.001859
  14 C :   -0.201137
  15 C :   -0.132393
  16 C :   -0.276307
  17 C :    0.318224
  18 O :   -0.356541
  19 C :   -0.275688
  20 H :    0.112461
  21 H :    0.125435
  22 H :    0.105804
  23 H :    0.103052
  24 H :    0.126513
  25 H :    0.122282
  26 H :    0.150588
  27 H :    0.114088
  28 H :    0.196761
  29 H :    0.201622
  30 H :    0.165282
  31 H :    0.171402
  32 H :    0.165659
  33 H :    0.134116
  34 H :    0.242168
  35 H :    0.185307
Sum of atomic charges:    0.0000000

LOEWDIN ATOMIC CHARGES
----------------------
   0 C :    0.102889
   1 C :   -0.011886
   2 O :    0.286913
   3 C :   -0.416659
   4 O :    0.129034
   5 C :   -0.082619
   6 C :   -0.099656
   7 C :    0.124655
   8 N :    0.402734
   9 C :   -0.455214
  10 S :   -0.038007
  11 N :    0.397681
  12 C :   -0.044732
  13 C :   -0.044723
  14 C :    0.020648
  15 C :    0.044934
  16 C :   -0.000712
  17 C :   -0.194246
  18 O :    0.396426
  19 C :    0.027631
  20 H :   -0.035454
  21 H :   -0.020725
  22 H :   -0.030273
  23 H :   -0.029048
  24 H :   -0.019292
  25 H :   -0.010335
  26 H :   -0.008214
  27 H :   -0.017468
  28 H :   -0.057585
  29 H :   -0.064186
  30 H :   -0.002846
  31 H :   -0.021210
  32 H :   -0.017597
  33 H :   -0.033876
  34 H :   -0.152357
  35 H :   -0.024624

  Mayer bond orders larger than 0.100000
B(  0-C ,  1-C ) :   0.9560 B(  0-C , 20-H ) :   0.9704 B(  0-C , 21-H ) :   0.9783
B(  0-C , 22-H ) :   0.9759 B(  1-C ,  2-O ) :   0.9022 B(  1-C , 23-H ) :   0.9702
B(  1-C , 24-H ) :   0.9839 B(  2-O ,  3-C ) :   1.1690 B(  3-C ,  4-O ) :   2.1063
B(  3-C ,  5-C ) :   0.9164 B(  5-C ,  6-C ) :   1.7013 B(  5-C , 12-C ) :   0.9470
B(  6-C ,  7-C ) :   0.9516 B(  6-C ,  8-N ) :   1.1114 B(  7-C , 25-H ) :   0.9788
B(  7-C , 26-H ) :   0.9652 B(  7-C , 27-H ) :   0.9703 B(  8-N ,  9-C ) :   1.1990
B(  8-N , 28-H ) :   0.9518 B(  9-C , 10-S ) :   1.6097 B(  9-C , 11-N ) :   1.2834
B( 11-N , 12-C ) :   0.9966 B( 11-N , 29-H ) :   0.9473 B( 12-C , 13-C ) :   0.9399
B( 12-C , 30-H ) :   0.9978 B( 13-C , 14-C ) :   1.3900 B( 13-C , 19-C ) :   1.3405
B( 14-C , 15-C ) :   1.3997 B( 14-C , 31-H ) :   0.9610 B( 15-C , 16-C ) :   1.3588
B( 15-C , 32-H ) :   0.9696 B( 16-C , 17-C ) :   1.3300 B( 16-C , 33-H ) :   0.9841
B( 17-C , 18-O ) :   1.1127 B( 17-C , 19-C ) :   1.3655 B( 18-O , 34-H ) :   0.9786
B( 19-C , 35-H ) :   0.9513

MP2 TOTAL ENERGY:    -1274.325224518 Eh
FINAL SINGLE POINT ENERGY     -1274.325224517590

DIPOLE MOMENT
-------------
                                X             Y             Z
Electronic contribution:      9.44384       5.25185       5.86512
Nuclear contribution   :    -10.88297      -6.54066      -6.08167
                        -----------------------------------------
Total Dipole Moment    :     -1.43913      -1.28881      -0.21654
                        -----------------------------------------
Magnitude (a.u.)       :      1.94397
Magnitude (Debye)      :      4.94119

Rotational constants in cm-1:     0.012553     0.009261     0.006956
Rotational constants in MHz :   376.334824   277.652380   208.533358

                             ****ORCA TERMINATED NORMALLY****
TOTAL RUN TIME: 0 days 2 hours 33 minutes 19 seconds 790 msec
