                         Program Version 5.0.0 -  RELEASE  -
|  1> ! ri-mp2 cc-pvtz cc-pvtz/c TightSCF NoKeepInts
|  2>
|  3> %scf
|  4>   MaxCore 4096
|  5> end
|  6> *xyz  0  1
|  7>     C       14.9272758   15.4523031   17.1451021
|  8>     C       15.7980119   14.8095420   16.0486335
|  9>     O       16.8231535   15.7202225   15.6020026
| 10>     C       17.9630163   15.8439414   16.3441985
| 11>     O       18.6905409   14.8775660   16.4923019
| 12>     C       17.9100567   16.9369894   17.3707658
| 13>     C       17.2985910   18.1293250   17.1579238
| 14>     C       16.5986895   18.5920764   15.8964274
| 15>     N       17.3809786   19.1342859   18.1265197
| 16>     C       18.2107448   19.0981843   19.2165926
| 17>     S       18.3693074   20.3918247   20.2344406
| 18>     N       18.9038385   17.9307968   19.4193897
| 19>     C       18.6742706   16.6765065   18.6756882
| 20>     C       17.9610557   15.6475528   19.5526602
| 21>     C       18.3898820   14.3071445   19.5630658
| 22>     C       17.7379615   13.3495850   20.3576747
| 23>     C       16.6461784   13.7336208   21.1539753
| 24>     C       16.2155588   15.0668532   21.1500028
| 25>     O       15.1561598   15.4398518   21.9110877
| 26>     C       16.8667042   16.0178280   20.3579940
| 27>     H       15.5166581   15.6882125   18.0353154
| 28>     H       14.1331084   14.7597794   17.4494771
| 29>     H       14.4511163   16.3702887   16.7833025
| 30>     H       16.2471282   13.8777374   16.4200379
| 31>     H       15.1550210   14.5525110   15.1970817
| 32>     H       15.5845572   18.1824044   15.8346689
| 33>     H       17.1452270   18.2678854   15.0019289
| 34>     H       16.5207079   19.6847468   15.8397613
| 35>     H       16.8845647   20.0005741   17.9907185
| 36>     H       19.4918983   17.9215689   20.2430159
| 37>     H       19.6598308   16.2670420   18.4098982
| 38>     H       19.2271824   14.0027678   18.9389887
| 39>     H       18.0785417   12.3156340   20.3501801
| 40>     H       16.1384958   12.9968842   21.7676469
| 41>     H       14.8792853   14.6652850   22.4233316
| 42>     H       16.5117007   17.0426783   20.3721995
| 43> *
| 44>
| 45>                          ****END OF INPUT****

CARTESIAN COORDINATES (ANGSTROEM)
---------------------------------
  C     14.927276   15.452303   17.145102
  C     15.798012   14.809542   16.048634
  O     16.823154   15.720223   15.602003
  C     17.963016   15.843941   16.344199
  O     18.690541   14.877566   16.492302
  C     17.910057   16.936989   17.370766
  C     17.298591   18.129325   17.157924
  C     16.598689   18.592076   15.896427
  N     17.380979   19.134286   18.126520
  C     18.210745   19.098184   19.216593
  S     18.369307   20.391825   20.234441
  N     18.903838   17.930797   19.419390
  C     18.674271   16.676506   18.675688
  C     17.961056   15.647553   19.552660
  C     18.389882   14.307144   19.563066
  C     17.737962   13.349585   20.357675
  C     16.646178   13.733621   21.153975
  C     16.215559   15.066853   21.150003
  O     15.156160   15.439852   21.911088
  C     16.866704   16.017828   20.357994
  H     15.516658   15.688213   18.035315
  H     14.133108   14.759779   17.449477
  H     14.451116   16.370289   16.783303
  H     16.247128   13.877737   16.420038
  H     15.155021   14.552511   15.197082
  H     15.584557   18.182404   15.834669
  H     17.145227   18.267885   15.001929
  H     16.520708   19.684747   15.839761
  H     16.884565   20.000574   17.990718
  H     19.491898   17.921569   20.243016
  H     19.659831   16.267042   18.409898
  H     19.227182   14.002768   18.938989
  H     18.078542   12.315634   20.350180
  H     16.138496   12.996884   21.767647
  H     14.879285   14.665285   22.423332
  H     16.511701   17.042678   20.372199

 Total Charge           Charge          ....    0
 Multiplicity           Mult            ....    1
 Number of Electrons    NEL             ....  154
 Basis Dimension        Dim             ....  828

ORBITAL ENERGIES
----------------

  NO   OCC          E(Eh)            E(eV)
   0   2.0000     -91.890669     -2500.4722
   1   2.0000     -20.595846      -560.4415
   2   2.0000     -20.582793      -560.0863
   3   2.0000     -20.554982      -559.3295
   4   2.0000     -15.630499      -425.3275
   5   2.0000     -15.609415      -424.7538
   6   2.0000     -11.395208      -310.0794
   7   2.0000     -11.385796      -309.8233
   8   2.0000     -11.336046      -308.4695
   9   2.0000     -11.312332      -307.8242
  10   2.0000     -11.310221      -307.7668
  11   2.0000     -11.301831      -307.5385
  12   2.0000     -11.261760      -306.4481
  13   2.0000     -11.261260      -306.4345
  14   2.0000     -11.259104      -306.3758
  15   2.0000     -11.252583      -306.1984
  16   2.0000     -11.242015      -305.9108
  17   2.0000     -11.237954      -305.8003
  18   2.0000     -11.234410      -305.7038
  19   2.0000     -11.227326      -305.5111
  20   2.0000      -8.895721      -242.0649
  21   2.0000      -6.577296      -178.9773
  22   2.0000      -6.575289      -178.9227
  23   2.0000      -6.574699      -178.9067
  24   2.0000      -1.450547       -39.4714
  25   2.0000      -1.415672       -38.5224
  26   2.0000      -1.355131       -36.8750
  27   2.0000      -1.341563       -36.5058
  28   2.0000      -1.239348       -33.7244
  29   2.0000      -1.156339       -31.4656
  30   2.0000      -1.122090       -30.5336
  31   2.0000      -1.044601       -28.4251
  32   2.0000      -1.033118       -28.1126
  33   2.0000      -1.014430       -27.6041
  34   2.0000      -1.000930       -27.2367
  35   2.0000      -0.987772       -26.8786
  36   2.0000      -0.924796       -25.1650
  37   2.0000      -0.891031       -24.2462
  38   2.0000      -0.849724       -23.1222
  39   2.0000      -0.839658       -22.8483
  40   2.0000      -0.832579       -22.6556
  41   2.0000      -0.820561       -22.3286
  42   2.0000      -0.753697       -20.5091
  43   2.0000      -0.735156       -20.0046
  44   2.0000      -0.728497       -19.8234
  45   2.0000      -0.694708       -18.9040
  46   2.0000      -0.687048       -18.6955
  47   2.0000      -0.676111       -18.3979
  48   2.0000      -0.675217       -18.3736
  49   2.0000      -0.661152       -17.9909
  50   2.0000      -0.653614       -17.7857
  51   2.0000      -0.646496       -17.5920
  52   2.0000      -0.638393       -17.3716
  53   2.0000      -0.608812       -16.5666
  54   2.0000      -0.603278       -16.4160
  55   2.0000      -0.600112       -16.3299
  56   2.0000      -0.595634       -16.2080
  57   2.0000      -0.585896       -15.9431
  58   2.0000      -0.575085       -15.6489
  59   2.0000      -0.567029       -15.4296
  60   2.0000      -0.562467       -15.3055
  61   2.0000      -0.551513       -15.0074
  62   2.0000      -0.546365       -14.8674
  63   2.0000      -0.523507       -14.2453
  64   2.0000      -0.519628       -14.1398
  65   2.0000      -0.513124       -13.9628
  66   2.0000      -0.500304       -13.6140
  67   2.0000      -0.494061       -13.4441
  68   2.0000      -0.482149       -13.1199
  69   2.0000      -0.464318       -12.6347
  70   2.0000      -0.456842       -12.4313
  71   2.0000      -0.452286       -12.3073
  72   2.0000      -0.356283        -9.6950
  73   2.0000      -0.347413        -9.4536
  74   2.0000      -0.329815        -8.9747
  75   2.0000      -0.320523        -8.7219
  76   2.0000      -0.317582        -8.6418
  77   0.0000       0.068676         1.8688
  78   0.0000       0.106079         2.8866
  79   0.0000       0.119915         3.2630
  80   0.0000       0.132358         3.6017
  81   0.0000       0.133501         3.6327

MULLIKEN ATOMIC CHARGES
-----------------------
   0 C :   -0.321333
   1 C :    0.043919
   2 O :   -0.380825
   3 C :    0.484222
   4 O :   -0.400611
   5 C :   -0.244101
   6 C :    0.174221
   7 C :   -0.285115
   8 N :   -0.126633
   9 C :    0.187916
  10 S :   -0.434809
  11 N :   -0.206111
  12 C :    0.061521
  13 C :    0.038866
  14 C :   -0.192106
  15 C :   -0.137813
  16 C :   -0.275640
  17 C :    0.320836
  18 O :   -0.358487
  19 C :   -0.282771
  20 H :    0.118733
  21 H :    0.117276
  22 H :    0.092343
  23 H :    0.106035
  24 H :    0.110505
  25 H :    0.123145
  26 H :    0.127958
  27 H :    0.107473
  28 H :    0.197994
  29 H :    0.195635
  30 H :    0.160244
  31 H :    0.168733
  32 H :    0.162596
  33 H :    0.131176
  34 H :    0.240370
  35 H :    0.174641
Sum of atomic charges:    0.0000000

LOEWDIN ATOMIC CHARGES
----------------------
   0 C :    0.106499
   1 C :   -0.015020
   2 O :    0.281545
   3 C :   -0.415735
   4 O :    0.128929
   5 C :   -0.093593
   6 C :   -0.069967
   7 C :    0.127254
   8 N :    0.405782
   9 C :   -0.459605
  10 S :   -0.033842
  11 N :    0.397034
  12 C :   -0.044498
  13 C :   -0.041601
  14 C :    0.020240
  15 C :    0.041326
  16 C :   -0.002139
  17 C :   -0.193773
  18 O :    0.394775
  19 C :    0.027871
  20 H :   -0.032187
  21 H :   -0.022571
  22 H :   -0.034053
  23 H :   -0.026460
  24 H :   -0.022891
  25 H :   -0.014397
  26 H :   -0.006761
  27 H :   -0.018732
  28 H :   -0.058354
  29 H :   -0.063934
  30 H :   -0.002960
  31 H :   -0.023668
  32 H :   -0.019922
  33 H :   -0.035550
  34 H :   -0.154023
  35 H :   -0.025020

  Mayer bond orders larger than 0.100000
B(  0-C ,  1-C ) :   0.9625 B(  0-C , 20-H ) :   0.9676 B(  0-C , 21-H ) :   0.9792
B(  0-C , 22-H ) :   0.9785 B(  1-C ,  2-O ) :   0.8920 B(  1-C , 23-H ) :   0.9760
B(  1-C , 24-H ) :   0.9843 B(  2-O ,  3-C ) :   1.0938 B(  3-C ,  4-O ) :   2.0242
B(  3-C ,  5-C ) :   1.0189 B(  5-C ,  6-C ) :   1.6571 B(  5-C , 12-C ) :   0.9549
B(  6-C ,  7-C ) :   0.9534 B(  6-C ,  8-N ) :   1.1371 B(  7-C , 25-H ) :   0.9637
B(  7-C , 26-H ) :   0.9684 B(  7-C , 27-H ) :   0.9880 B(  8-N ,  9-C ) :   1.1815
B(  8-N , 28-H ) :   0.9496 B(  9-C , 10-S ) :   1.6167 B(  9-C , 11-N ) :   1.2958
B( 11-N , 12-C ) :   0.9837 B( 11-N , 29-H ) :   0.9515 B( 12-C , 13-C ) :   0.9509
B( 12-C , 30-H ) :   0.9978 B( 13-C , 14-C ) :   1.3858 B( 13-C , 19-C ) :   1.3457
B( 14-C , 15-C ) :   1.3986 B( 14-C , 31-H ) :   0.9586 B( 15-C , 16-C ) :   1.3615
B( 15-C , 32-H ) :   0.9705 B( 16-C , 17-C ) :   1.3313 B( 16-C , 33-H ) :   0.9847
B( 17-C , 18-O ) :   1.1108 B( 17-C , 19-C ) :   1.3715 B( 18-O , 34-H ) :   0.9802
B( 19-C , 35-H ) :   0.9600

MP2 TOTAL ENERGY:    -1274.325423325 Eh
FINAL SINGLE POINT ENERGY     -1274.325423324717

DIPOLE MOMENT
-------------
                                X             Y             Z
Electronic contribution:      9.98975       7.43454       6.42686
Nuclear contribution   :    -11.29039      -8.66736      -7.08548
                        -----------------------------------------
Total Dipole Moment    :     -1.30064      -1.23282      -0.65862
                        -----------------------------------------
Magnitude (a.u.)       :      1.90926
Magnitude (Debye)      :      4.85296

Rotational constants in cm-1:     0.011410     0.009849     0.006800
Rotational constants in MHz :   342.056828   295.265177   203.856123

                             ****ORCA TERMINATED NORMALLY****
TOTAL RUN TIME: 0 days 1 hours 41 minutes 38 seconds 692 msec
