                         Program Version 5.0.0 -  RELEASE  -
|  1> ! ri-mp2 cc-pvtz cc-pvtz/c TightSCF NoKeepInts
|  2>
|  3> %scf
|  4>   MaxCore 4096
|  5> end
|  6> *xyz  0  1
|  7>     C       14.1833677   15.0788032   16.0043062
|  8>     C       15.6556708   14.6503859   16.1205287
|  9>     O       16.4605627   15.8308787   15.9723183
| 10>     C       17.6943146   15.8367566   16.5518908
| 11>     O       18.3545510   14.8146812   16.6425904
| 12>     C       17.8879951   16.9877189   17.4936650
| 13>     C       17.3119139   18.2071285   17.3379393
| 14>     C       16.4131577   18.6680758   16.2090976
| 15>     N       17.5932346   19.2297641   18.2493518
| 16>     C       18.5337783   19.1558265   19.2429765
| 17>     S       18.8885195   20.4535161   20.2050930
| 18>     N       19.1670471   17.9484080   19.3981534
| 19>     C       18.8050495   16.7069370   18.6882378
| 20>     C       18.1557628   15.7127498   19.6474182
| 21>     C       18.6815604   14.4158732   19.7941462
| 22>     C       18.0813632   13.4940559   20.6681788
| 23>     C       16.9441245   13.8709464   21.4025590
| 24>     C       16.4147239   15.1602785   21.2563121
| 25>     O       15.3120509   15.5248591   21.9580504
| 26>     C       17.0140733   16.0754036   20.3853097
| 27>     H       13.9284859   15.8033144   16.7877468
| 28>     H       13.5215498   14.2107611   16.1115876
| 29>     H       13.9905156   15.5394162   15.0274652
| 30>     H       15.8170884   14.1959672   17.1084915
| 31>     H       15.9129589   13.9113463   15.3502008
| 32>     H       16.8019540   18.3364084   15.2381936
| 33>     H       16.3233684   19.7601281   16.1614984
| 34>     H       15.4036392   18.2544356   16.3252562
| 35>     H       17.1392780   20.1239018   18.1515406
| 36>     H       19.8336636   17.9119244   20.1585914
| 37>     H       19.7324957   16.2599370   18.3019252
| 38>     H       19.5500867   14.1160108   19.2127638
| 39>     H       18.4948843   12.4920892   20.7681042
| 40>     H       16.4764336   13.1614824   22.0770355
| 41>     H       15.0778225   14.7828580   22.5355317
| 42>     H       16.5899539   17.0689721   20.2899441
| 43> *
| 44>
| 45>                          ****END OF INPUT****

CARTESIAN COORDINATES (ANGSTROEM)
---------------------------------
  C     14.183368   15.078803   16.004306
  C     15.655671   14.650386   16.120529
  O     16.460563   15.830879   15.972318
  C     17.694315   15.836757   16.551891
  O     18.354551   14.814681   16.642590
  C     17.887995   16.987719   17.493665
  C     17.311914   18.207128   17.337939
  C     16.413158   18.668076   16.209098
  N     17.593235   19.229764   18.249352
  C     18.533778   19.155826   19.242976
  S     18.888519   20.453516   20.205093
  N     19.167047   17.948408   19.398153
  C     18.805049   16.706937   18.688238
  C     18.155763   15.712750   19.647418
  C     18.681560   14.415873   19.794146
  C     18.081363   13.494056   20.668179
  C     16.944125   13.870946   21.402559
  C     16.414724   15.160279   21.256312
  O     15.312051   15.524859   21.958050
  C     17.014073   16.075404   20.385310
  H     13.928486   15.803314   16.787747
  H     13.521550   14.210761   16.111588
  H     13.990516   15.539416   15.027465
  H     15.817088   14.195967   17.108491
  H     15.912959   13.911346   15.350201
  H     16.801954   18.336408   15.238194
  H     16.323368   19.760128   16.161498
  H     15.403639   18.254436   16.325256
  H     17.139278   20.123902   18.151541
  H     19.833664   17.911924   20.158591
  H     19.732496   16.259937   18.301925
  H     19.550087   14.116011   19.212764
  H     18.494884   12.492089   20.768104
  H     16.476434   13.161482   22.077036
  H     15.077822   14.782858   22.535532
  H     16.589954   17.068972   20.289944

 Total Charge           Charge          ....    0
 Multiplicity           Mult            ....    1
 Number of Electrons    NEL             ....  154
 Basis Dimension        Dim             ....  828

ORBITAL ENERGIES
----------------

  NO   OCC          E(Eh)            E(eV)
   0   2.0000     -91.888356     -2500.4093
   1   2.0000     -20.594153      -560.3954
   2   2.0000     -20.593782      -560.3853
   3   2.0000     -20.550760      -559.2146
   4   2.0000     -15.628208      -425.2652
   5   2.0000     -15.607552      -424.7031
   6   2.0000     -11.394327      -310.0554
   7   2.0000     -11.383616      -309.7639
   8   2.0000     -11.334106      -308.4167
   9   2.0000     -11.310151      -307.7648
  10   2.0000     -11.307378      -307.6894
  11   2.0000     -11.299028      -307.4622
  12   2.0000     -11.260079      -306.4023
  13   2.0000     -11.259463      -306.3856
  14   2.0000     -11.255796      -306.2858
  15   2.0000     -11.250224      -306.1342
  16   2.0000     -11.239892      -305.8530
  17   2.0000     -11.235905      -305.7445
  18   2.0000     -11.233930      -305.6908
  19   2.0000     -11.232976      -305.6648
  20   2.0000      -8.893427      -242.0024
  21   2.0000      -6.575005      -178.9150
  22   2.0000      -6.572996      -178.8603
  23   2.0000      -6.572412      -178.8444
  24   2.0000      -1.454644       -39.5829
  25   2.0000      -1.413906       -38.4744
  26   2.0000      -1.356943       -36.9243
  27   2.0000      -1.339291       -36.4440
  28   2.0000      -1.237344       -33.6698
  29   2.0000      -1.154422       -31.4134
  30   2.0000      -1.120564       -30.4921
  31   2.0000      -1.044511       -28.4226
  32   2.0000      -1.036993       -28.2180
  33   2.0000      -1.011821       -27.5330
  34   2.0000      -0.998575       -27.1726
  35   2.0000      -0.984260       -26.7831
  36   2.0000      -0.922270       -25.0963
  37   2.0000      -0.886259       -24.1163
  38   2.0000      -0.847293       -23.0560
  39   2.0000      -0.836741       -22.7689
  40   2.0000      -0.830313       -22.5940
  41   2.0000      -0.820802       -22.3352
  42   2.0000      -0.759719       -20.6730
  43   2.0000      -0.735977       -20.0270
  44   2.0000      -0.726711       -19.7748
  45   2.0000      -0.692542       -18.8450
  46   2.0000      -0.683879       -18.6093
  47   2.0000      -0.681931       -18.5563
  48   2.0000      -0.676530       -18.4093
  49   2.0000      -0.658410       -17.9163
  50   2.0000      -0.651720       -17.7342
  51   2.0000      -0.644117       -17.5273
  52   2.0000      -0.635723       -17.2989
  53   2.0000      -0.603299       -16.4166
  54   2.0000      -0.601910       -16.3788
  55   2.0000      -0.600816       -16.3490
  56   2.0000      -0.597554       -16.2603
  57   2.0000      -0.575995       -15.6736
  58   2.0000      -0.575053       -15.6480
  59   2.0000      -0.565814       -15.3966
  60   2.0000      -0.559393       -15.2219
  61   2.0000      -0.554449       -15.0873
  62   2.0000      -0.543003       -14.7759
  63   2.0000      -0.519740       -14.1428
  64   2.0000      -0.514682       -14.0052
  65   2.0000      -0.511696       -13.9240
  66   2.0000      -0.505808       -13.7637
  67   2.0000      -0.497122       -13.5274
  68   2.0000      -0.481930       -13.1140
  69   2.0000      -0.463445       -12.6110
  70   2.0000      -0.459326       -12.4989
  71   2.0000      -0.455495       -12.3947
  72   2.0000      -0.353906        -9.6303
  73   2.0000      -0.346224        -9.4212
  74   2.0000      -0.327601        -8.9145
  75   2.0000      -0.317256        -8.6330
  76   2.0000      -0.315146        -8.5756
  77   0.0000       0.073811         2.0085
  78   0.0000       0.108156         2.9431
  79   0.0000       0.119236         3.2446
  80   0.0000       0.134006         3.6465
  81   0.0000       0.139024         3.7830

MULLIKEN ATOMIC CHARGES
-----------------------
   0 C :   -0.283713
   1 C :    0.056402
   2 O :   -0.355040
   3 C :    0.429220
   4 O :   -0.407558
   5 C :   -0.175667
   6 C :    0.141196
   7 C :   -0.285412
   8 N :   -0.124817
   9 C :    0.203060
  10 S :   -0.439975
  11 N :   -0.199795
  12 C :    0.049201
  13 C :    0.050488
  14 C :   -0.161253
  15 C :   -0.133381
  16 C :   -0.280917
  17 C :    0.311969
  18 O :   -0.358809
  19 C :   -0.277211
  20 H :    0.095376
  21 H :    0.103571
  22 H :    0.096993
  23 H :    0.093744
  24 H :    0.099981
  25 H :    0.125429
  26 H :    0.105069
  27 H :    0.125592
  28 H :    0.197136
  29 H :    0.194056
  30 H :    0.154198
  31 H :    0.154555
  32 H :    0.160230
  33 H :    0.129476
  34 H :    0.240501
  35 H :    0.166103
Sum of atomic charges:   -0.0000000

LOEWDIN ATOMIC CHARGES
----------------------
   0 C :    0.106755
   1 C :   -0.016685
   2 O :    0.299115
   3 C :   -0.416626
   4 O :    0.117149
   5 C :   -0.092751
   6 C :   -0.071413
   7 C :    0.125740
   8 N :    0.404267
   9 C :   -0.457887
  10 S :   -0.036480
  11 N :    0.397342
  12 C :   -0.045687
  13 C :   -0.039728
  14 C :    0.021782
  15 C :    0.041086
  16 C :   -0.002484
  17 C :   -0.193460
  18 O :    0.393118
  19 C :    0.027715
  20 H :   -0.028185
  21 H :   -0.022869
  22 H :   -0.027891
  23 H :   -0.025715
  24 H :   -0.028972
  25 H :   -0.008134
  26 H :   -0.020058
  27 H :   -0.010481
  28 H :   -0.058908
  29 H :   -0.063933
  30 H :   -0.004740
  31 H :   -0.024950
  32 H :   -0.020740
  33 H :   -0.036038
  34 H :   -0.154527
  35 H :   -0.024727

  Mayer bond orders larger than 0.100000
B(  0-C ,  1-C ) :   0.9698 B(  0-C , 20-H ) :   0.9774 B(  0-C , 21-H ) :   0.9784
B(  0-C , 22-H ) :   0.9769 B(  1-C ,  2-O ) :   0.9037 B(  1-C , 23-H ) :   0.9711
B(  1-C , 24-H ) :   0.9827 B(  2-O ,  3-C ) :   1.1162 B(  3-C ,  4-O ) :   2.0153
B(  3-C ,  5-C ) :   1.0349 B(  5-C ,  6-C ) :   1.6610 B(  5-C , 12-C ) :   0.9661
B(  6-C ,  7-C ) :   0.9529 B(  6-C ,  8-N ) :   1.1394 B(  7-C , 25-H ) :   0.9688
B(  7-C , 26-H ) :   0.9896 B(  7-C , 27-H ) :   0.9632 B(  8-N ,  9-C ) :   1.1830
B(  8-N , 28-H ) :   0.9495 B(  9-C , 10-S ) :   1.6102 B(  9-C , 11-N ) :   1.3016
B( 11-N , 12-C ) :   0.9916 B( 11-N , 29-H ) :   0.9518 B( 12-C , 13-C ) :   0.9450
B( 12-C , 30-H ) :   0.9986 B( 13-C , 14-C ) :   1.3767 B( 13-C , 19-C ) :   1.3691
B( 14-C , 15-C ) :   1.3945 B( 14-C , 31-H ) :   0.9645 B( 15-C , 16-C ) :   1.3631
B( 15-C , 32-H ) :   0.9711 B( 16-C , 17-C ) :   1.3309 B( 16-C , 33-H ) :   0.9855
B( 17-C , 18-O ) :   1.1088 B( 17-C , 19-C ) :   1.3771 B( 18-O , 34-H ) :   0.9802
B( 19-C , 35-H ) :   0.9583

MP2 TOTAL ENERGY:    -1274.335397130 Eh
FINAL SINGLE POINT ENERGY     -1274.335397130043

DIPOLE MOMENT
-------------
                                X             Y             Z
Electronic contribution:     11.94208       8.44081       8.57595
Nuclear contribution   :    -13.33426      -9.77234      -9.35576
                        -----------------------------------------
Total Dipole Moment    :     -1.39219      -1.33153      -0.77981
                        -----------------------------------------
Magnitude (a.u.)       :      2.07829
Magnitude (Debye)      :      5.28258

Rotational constants in cm-1:     0.010822     0.009208     0.006404
Rotational constants in MHz :   324.423233   276.040090   191.974222

                             ****ORCA TERMINATED NORMALLY****
TOTAL RUN TIME: 0 days 1 hours 41 minutes 29 seconds 277 msec
