                         Program Version 5.0.0 -  RELEASE  -
|  1> ! ri-mp2 cc-pvtz cc-pvtz/c TightSCF NoKeepInts
|  2>
|  3> %scf
|  4>   MaxCore 4096
|  5> end
|  6> *xyz  0  1
|  7>     C       15.1995441   14.9825128   17.2483442
|  8>     C       15.6712772   14.9496067   15.7793445
|  9>     O       16.7752604   15.8509478   15.5532389
| 10>     C       17.8628770   15.8273526   16.3766758
| 11>     O       18.4721497   14.7871724   16.5584661
| 12>     C       17.9005104   16.9485585   17.3773759
| 13>     C       17.3260842   18.1649289   17.1875264
| 14>     C       16.5536116   18.6498650   15.9778867
| 15>     N       17.4947271   19.1695790   18.1460866
| 16>     C       18.3603540   19.1003732   19.2058822
| 17>     S       18.6169233   20.3908499   20.2078163
| 18>     N       19.0029668   17.9024747   19.3915314
| 19>     C       18.6898150   16.6599920   18.6604406
| 20>     C       17.9401554   15.6842244   19.5640009
| 21>     C       18.3860607   14.3567143   19.7016726
| 22>     C       17.6936303   13.4487916   20.5201375
| 23>     C       16.5437266   13.8704885   21.2087892
| 24>     C       16.0946894   15.1909814   21.0736748
| 25>     O       14.9786799   15.5987924   21.7287220
| 26>     C       16.7860858   16.0925138   20.2585709
| 27>     H       15.9406658   14.5158946   17.9084185
| 28>     H       14.2637832   14.4215575   17.3588236
| 29>     H       15.0207825   16.0105038   17.5862383
| 30>     H       15.9743908   13.9251709   15.5238955
| 31>     H       14.8389499   15.2276587   15.1202687
| 32>     H       15.5596521   18.1875998   15.9407681
| 33>     H       17.0797256   18.3937600   15.0496241
| 34>     H       16.4138239   19.7377421   15.9749000
| 35>     H       17.0343482   20.0574731   18.0242304
| 36>     H       19.6152861   17.8673102   20.1964508
| 37>     H       19.6435609   16.1953382   18.3709139
| 38>     H       19.2640660   14.0222655   19.1539710
| 39>     H       18.0460418   12.4229164   20.6117078
| 40>     H       16.0043347   13.1715624   21.8393349
| 41>     H       14.6785039   14.8591397   22.2781079
| 42>     H       16.4199556   17.1093872   20.1701631
| 43> *
| 44>
| 45>                          ****END OF INPUT****

CARTESIAN COORDINATES (ANGSTROEM)
---------------------------------
  C     15.199544   14.982513   17.248344
  C     15.671277   14.949607   15.779345
  O     16.775260   15.850948   15.553239
  C     17.862877   15.827353   16.376676
  O     18.472150   14.787172   16.558466
  C     17.900510   16.948559   17.377376
  C     17.326084   18.164929   17.187526
  C     16.553612   18.649865   15.977887
  N     17.494727   19.169579   18.146087
  C     18.360354   19.100373   19.205882
  S     18.616923   20.390850   20.207816
  N     19.002967   17.902475   19.391531
  C     18.689815   16.659992   18.660441
  C     17.940155   15.684224   19.564001
  C     18.386061   14.356714   19.701673
  C     17.693630   13.448792   20.520138
  C     16.543727   13.870488   21.208789
  C     16.094689   15.190981   21.073675
  O     14.978680   15.598792   21.728722
  C     16.786086   16.092514   20.258571
  H     15.940666   14.515895   17.908418
  H     14.263783   14.421557   17.358824
  H     15.020782   16.010504   17.586238
  H     15.974391   13.925171   15.523896
  H     14.838950   15.227659   15.120269
  H     15.559652   18.187600   15.940768
  H     17.079726   18.393760   15.049624
  H     16.413824   19.737742   15.974900
  H     17.034348   20.057473   18.024230
  H     19.615286   17.867310   20.196451
  H     19.643561   16.195338   18.370914
  H     19.264066   14.022265   19.153971
  H     18.046042   12.422916   20.611708
  H     16.004335   13.171562   21.839335
  H     14.678504   14.859140   22.278108
  H     16.419956   17.109387   20.170163

 Total Charge           Charge          ....    0
 Multiplicity           Mult            ....    1
 Number of Electrons    NEL             ....  154
 Basis Dimension        Dim             ....  828

ORBITAL ENERGIES
----------------

  NO   OCC          E(Eh)            E(eV)
   0   2.0000     -91.890107     -2500.4569
   1   2.0000     -20.595010      -560.4187
   2   2.0000     -20.583915      -560.1168
   3   2.0000     -20.552005      -559.2485
   4   2.0000     -15.630711      -425.3333
   5   2.0000     -15.608565      -424.7306
   6   2.0000     -11.395141      -310.0776
   7   2.0000     -11.384988      -309.8013
   8   2.0000     -11.337556      -308.5106
   9   2.0000     -11.311007      -307.7882
  10   2.0000     -11.308125      -307.7097
  11   2.0000     -11.302593      -307.5592
  12   2.0000     -11.261791      -306.4489
  13   2.0000     -11.261092      -306.4299
  14   2.0000     -11.256616      -306.3081
  15   2.0000     -11.251429      -306.1669
  16   2.0000     -11.241129      -305.8867
  17   2.0000     -11.236445      -305.7592
  18   2.0000     -11.233719      -305.6850
  19   2.0000     -11.226450      -305.4872
  20   2.0000      -8.895156      -242.0495
  21   2.0000      -6.576729      -178.9619
  22   2.0000      -6.574725      -178.9074
  23   2.0000      -6.574135      -178.8913
  24   2.0000      -1.449434       -39.4411
  25   2.0000      -1.414807       -38.4989
  26   2.0000      -1.354240       -36.8507
  27   2.0000      -1.341520       -36.5046
  28   2.0000      -1.238981       -33.7144
  29   2.0000      -1.155405       -31.4402
  30   2.0000      -1.121140       -30.5078
  31   2.0000      -1.043689       -28.4002
  32   2.0000      -1.031670       -28.0732
  33   2.0000      -1.013036       -27.5661
  34   2.0000      -1.000581       -27.2272
  35   2.0000      -0.986520       -26.8446
  36   2.0000      -0.924173       -25.1480
  37   2.0000      -0.894816       -24.3492
  38   2.0000      -0.849580       -23.1183
  39   2.0000      -0.838680       -22.8216
  40   2.0000      -0.831430       -22.6244
  41   2.0000      -0.816912       -22.2293
  42   2.0000      -0.748320       -20.3628
  43   2.0000      -0.733568       -19.9614
  44   2.0000      -0.727608       -19.7992
  45   2.0000      -0.693554       -18.8726
  46   2.0000      -0.687148       -18.6983
  47   2.0000      -0.676805       -18.4168
  48   2.0000      -0.672105       -18.2889
  49   2.0000      -0.660401       -17.9704
  50   2.0000      -0.653846       -17.7921
  51   2.0000      -0.646240       -17.5851
  52   2.0000      -0.636854       -17.3297
  53   2.0000      -0.616337       -16.7714
  54   2.0000      -0.602738       -16.4013
  55   2.0000      -0.602669       -16.3995
  56   2.0000      -0.598980       -16.2991
  57   2.0000      -0.581058       -15.8114
  58   2.0000      -0.575496       -15.6600
  59   2.0000      -0.562835       -15.3155
  60   2.0000      -0.553904       -15.0725
  61   2.0000      -0.547692       -14.9035
  62   2.0000      -0.540291       -14.7021
  63   2.0000      -0.530931       -14.4474
  64   2.0000      -0.520687       -14.1686
  65   2.0000      -0.512128       -13.9357
  66   2.0000      -0.499442       -13.5905
  67   2.0000      -0.492292       -13.3960
  68   2.0000      -0.480817       -13.0837
  69   2.0000      -0.464200       -12.6315
  70   2.0000      -0.456002       -12.4084
  71   2.0000      -0.449689       -12.2367
  72   2.0000      -0.356110        -9.6902
  73   2.0000      -0.346713        -9.4345
  74   2.0000      -0.329177        -8.9574
  75   2.0000      -0.319147        -8.6844
  76   2.0000      -0.316870        -8.6225
  77   0.0000       0.068902         1.8749
  78   0.0000       0.107674         2.9300
  79   0.0000       0.118821         3.2333
  80   0.0000       0.132807         3.6139
  81   0.0000       0.137901         3.7525

MULLIKEN ATOMIC CHARGES
-----------------------
   0 C :   -0.341686
   1 C :    0.041537
   2 O :   -0.384736
   3 C :    0.470545
   4 O :   -0.406392
   5 C :   -0.199774
   6 C :    0.145195
   7 C :   -0.284347
   8 N :   -0.122977
   9 C :    0.193917
  10 S :   -0.435876
  11 N :   -0.196938
  12 C :    0.042744
  13 C :    0.033928
  14 C :   -0.162424
  15 C :   -0.136043
  16 C :   -0.278435
  17 C :    0.312286
  18 O :   -0.360393
  19 C :   -0.265999
  20 H :    0.129363
  21 H :    0.116707
  22 H :    0.102202
  23 H :    0.112235
  24 H :    0.110951
  25 H :    0.119199
  26 H :    0.131969
  27 H :    0.106049
  28 H :    0.197449
  29 H :    0.193186
  30 H :    0.155697
  31 H :    0.159118
  32 H :    0.161005
  33 H :    0.130576
  34 H :    0.240731
  35 H :    0.169431
Sum of atomic charges:   -0.0000000

LOEWDIN ATOMIC CHARGES
----------------------
   0 C :    0.104757
   1 C :   -0.017626
   2 O :    0.285008
   3 C :   -0.418320
   4 O :    0.121693
   5 C :   -0.093672
   6 C :   -0.068170
   7 C :    0.125906
   8 N :    0.405631
   9 C :   -0.459692
  10 S :   -0.033838
  11 N :    0.397704
  12 C :   -0.045691
  13 C :   -0.041542
  14 C :    0.020413
  15 C :    0.040719
  16 C :   -0.002324
  17 C :   -0.193661
  18 O :    0.394095
  19 C :    0.030916
  20 H :   -0.021480
  21 H :   -0.023803
  22 H :   -0.031596
  23 H :   -0.026320
  24 H :   -0.024642
  25 H :   -0.011986
  26 H :   -0.006210
  27 H :   -0.020007
  28 H :   -0.058768
  29 H :   -0.063782
  30 H :   -0.003576
  31 H :   -0.024297
  32 H :   -0.020296
  33 H :   -0.035673
  34 H :   -0.154228
  35 H :   -0.025640

  Mayer bond orders larger than 0.100000
B(  0-C ,  1-C ) :   0.9582 B(  0-C , 20-H ) :   0.9662 B(  0-C , 21-H ) :   0.9769
B(  0-C , 22-H ) :   0.9713 B(  1-C ,  2-O ) :   0.8929 B(  1-C , 23-H ) :   0.9854
B(  1-C , 24-H ) :   0.9829 B(  2-O ,  3-C ) :   1.0888 B(  3-C ,  4-O ) :   2.0184
B(  3-C ,  5-C ) :   1.0361 B(  5-C ,  6-C ) :   1.6574 B(  5-C , 12-C ) :   0.9652
B(  6-C ,  7-C ) :   0.9558 B(  6-C ,  8-N ) :   1.1399 B(  7-C , 25-H ) :   0.9647
B(  7-C , 26-H ) :   0.9658 B(  7-C , 27-H ) :   0.9901 B(  8-N ,  9-C ) :   1.1783
B(  8-N , 28-H ) :   0.9488 B(  9-C , 10-S ) :   1.6155 B(  9-C , 11-N ) :   1.3016
B( 11-N , 12-C ) :   0.9883 B( 11-N , 29-H ) :   0.9525 B( 12-C , 13-C ) :   0.9453
B( 12-C , 30-H ) :   0.9994 B( 13-C , 14-C ) :   1.3838 B( 13-C , 19-C ) :   1.3601
B( 14-C , 15-C ) :   1.3944 B( 14-C , 31-H ) :   0.9623 B( 15-C , 16-C ) :   1.3624
B( 15-C , 32-H ) :   0.9713 B( 16-C , 17-C ) :   1.3308 B( 16-C , 33-H ) :   0.9851
B( 17-C , 18-O ) :   1.1097 B( 17-C , 19-C ) :   1.3757 B( 18-O , 34-H ) :   0.9802
B( 19-C , 35-H ) :   0.9583

MP2 TOTAL ENERGY:    -1274.330019626 Eh
FINAL SINGLE POINT ENERGY     -1274.330019626364

DIPOLE MOMENT
-------------
                                X             Y             Z
Electronic contribution:      9.83896       8.23645       6.23885
Nuclear contribution   :    -11.22914      -9.41295      -6.94945
                        -----------------------------------------
Total Dipole Moment    :     -1.39018      -1.17650      -0.71059
                        -----------------------------------------
Magnitude (a.u.)       :      1.95491
Magnitude (Debye)      :      4.96900

Rotational constants in cm-1:     0.011525     0.009797     0.006765
Rotational constants in MHz :   345.517178   293.707283   202.819156

                             ****ORCA TERMINATED NORMALLY****
TOTAL RUN TIME: 0 days 1 hours 46 minutes 22 seconds 437 msec
