                         Program Version 5.0.0 -  RELEASE  -
|  1> ! ri-mp2 cc-pvtz cc-pvtz/c TightSCF NoKeepInts
|  2>
|  3> %scf
|  4>   MaxCore 4096
|  5> end
|  6> *xyz  0  1
|  7>     C       14.3222584   15.3244576   16.7736767
|  8>     C       15.7362900   14.7487041   16.5914974
|  9>     O       16.5422637   15.7659674   15.9730486
| 10>     C       17.8289986   15.8820502   16.4047823
| 11>     O       18.5441903   14.8969937   16.4790825
| 12>     C       17.9627910   17.0076172   17.3826672
| 13>     C       17.3664625   18.2133811   17.2150946
| 14>     C       16.5275922   18.6615816   16.0368754
| 15>     N       17.5607650   19.2227664   18.1623697
| 16>     C       18.4236765   19.1415792   19.2241467
| 17>     S       18.6709185   20.4196439   20.2442662
| 18>     N       19.0719261   17.9439847   19.3990543
| 19>     C       18.8074812   16.7158557   18.6249859
| 20>     C       18.1204599   15.6688349   19.4970414
| 21>     C       18.6767395   14.3849780   19.6437092
| 22>     C       18.0319601   13.4101360   20.4233334
| 23>     C       16.8183039   13.7198681   21.0604487
| 24>     C       16.2585460   14.9960736   20.9130429
| 25>     O       15.0802883   15.2948066   21.5157271
| 26>     C       16.9029348   15.9643834   20.1371603
| 27>     H       14.3447877   16.2025524   17.4310008
| 28>     H       13.6596814   14.5766190   17.2261079
| 29>     H       13.8969416   15.6214541   15.8070293
| 30>     H       16.1379176   14.4726592   17.5771178
| 31>     H       15.7140333   13.8486825   15.9631936
| 32>     H       16.9366987   18.2793120   15.0933051
| 33>     H       16.4834620   19.7538506   15.9471587
| 34>     H       15.4999590   18.2890062   16.1295789
| 35>     H       17.0947344   20.1092077   18.0510348
| 36>     H       19.6792297   17.9029729   20.2074858
| 37>     H       19.7740129   16.3125762   18.2896323
| 38>     H       19.6040454   14.1362212   19.1331772
| 39>     H       18.4701812   12.4187133   20.5242544
| 40>     H       16.3156684   12.9685674   21.6605239
| 41>     H       14.8278216   14.5298198   22.0545590
| 42>     H       16.4529784   16.9461222   20.0368301
| 43> *
| 44>
| 45>                          ****END OF INPUT****

CARTESIAN COORDINATES (ANGSTROEM)
---------------------------------
  C     14.322258   15.324458   16.773677
  C     15.736290   14.748704   16.591497
  O     16.542264   15.765967   15.973049
  C     17.828999   15.882050   16.404782
  O     18.544190   14.896994   16.479083
  C     17.962791   17.007617   17.382667
  C     17.366463   18.213381   17.215095
  C     16.527592   18.661582   16.036875
  N     17.560765   19.222766   18.162370
  C     18.423676   19.141579   19.224147
  S     18.670918   20.419644   20.244266
  N     19.071926   17.943985   19.399054
  C     18.807481   16.715856   18.624986
  C     18.120460   15.668835   19.497041
  C     18.676740   14.384978   19.643709
  C     18.031960   13.410136   20.423333
  C     16.818304   13.719868   21.060449
  C     16.258546   14.996074   20.913043
  O     15.080288   15.294807   21.515727
  C     16.902935   15.964383   20.137160
  H     14.344788   16.202552   17.431001
  H     13.659681   14.576619   17.226108
  H     13.896942   15.621454   15.807029
  H     16.137918   14.472659   17.577118
  H     15.714033   13.848683   15.963194
  H     16.936699   18.279312   15.093305
  H     16.483462   19.753851   15.947159
  H     15.499959   18.289006   16.129579
  H     17.094734   20.109208   18.051035
  H     19.679230   17.902973   20.207486
  H     19.774013   16.312576   18.289632
  H     19.604045   14.136221   19.133177
  H     18.470181   12.418713   20.524254
  H     16.315668   12.968567   21.660524
  H     14.827822   14.529820   22.054559
  H     16.452978   16.946122   20.036830

 Total Charge           Charge          ....    0
 Multiplicity           Mult            ....    1
 Number of Electrons    NEL             ....  154
 Basis Dimension        Dim             ....  828

ORBITAL ENERGIES
----------------

  NO   OCC          E(Eh)            E(eV)
   0   2.0000     -91.888948     -2500.4254
   1   2.0000     -20.597805      -560.4948
   2   2.0000     -20.583248      -560.0986
   3   2.0000     -20.555961      -559.3561
   4   2.0000     -15.628131      -425.2631
   5   2.0000     -15.608900      -424.7397
   6   2.0000     -11.393638      -310.0366
   7   2.0000     -11.384638      -309.7917
   8   2.0000     -11.331768      -308.3531
   9   2.0000     -11.314127      -307.8731
  10   2.0000     -11.309840      -307.7564
  11   2.0000     -11.297158      -307.4113
  12   2.0000     -11.260205      -306.4057
  13   2.0000     -11.259526      -306.3873
  14   2.0000     -11.259284      -306.3807
  15   2.0000     -11.254244      -306.2436
  16   2.0000     -11.243935      -305.9630
  17   2.0000     -11.239535      -305.8433
  18   2.0000     -11.236946      -305.7728
  19   2.0000     -11.231182      -305.6160
  20   2.0000      -8.894030      -242.0189
  21   2.0000      -6.575609      -178.9314
  22   2.0000      -6.573598      -178.8767
  23   2.0000      -6.573016      -178.8608
  24   2.0000      -1.453365       -39.5481
  25   2.0000      -1.417588       -38.5745
  26   2.0000      -1.356148       -36.9027
  27   2.0000      -1.339495       -36.4495
  28   2.0000      -1.238110       -33.6907
  29   2.0000      -1.158143       -31.5147
  30   2.0000      -1.121998       -30.5311
  31   2.0000      -1.045929       -28.4612
  32   2.0000      -1.034827       -28.1591
  33   2.0000      -1.015559       -27.6348
  34   2.0000      -0.999904       -27.2088
  35   2.0000      -0.985694       -26.8221
  36   2.0000      -0.924217       -25.1492
  37   2.0000      -0.883042       -24.0288
  38   2.0000      -0.848071       -23.0772
  39   2.0000      -0.839452       -22.8426
  40   2.0000      -0.834115       -22.6974
  41   2.0000      -0.824701       -22.4413
  42   2.0000      -0.757168       -20.6036
  43   2.0000      -0.735995       -20.0274
  44   2.0000      -0.729265       -19.8443
  45   2.0000      -0.695818       -18.9342
  46   2.0000      -0.685913       -18.6646
  47   2.0000      -0.681261       -18.5380
  48   2.0000      -0.676222       -18.4009
  49   2.0000      -0.657078       -17.8800
  50   2.0000      -0.654229       -17.8025
  51   2.0000      -0.644357       -17.5339
  52   2.0000      -0.636803       -17.3283
  53   2.0000      -0.606599       -16.5064
  54   2.0000      -0.605476       -16.4758
  55   2.0000      -0.602494       -16.3947
  56   2.0000      -0.600605       -16.3433
  57   2.0000      -0.578225       -15.7343
  58   2.0000      -0.575349       -15.6561
  59   2.0000      -0.568090       -15.4585
  60   2.0000      -0.559463       -15.2238
  61   2.0000      -0.550483       -14.9794
  62   2.0000      -0.545223       -14.8363
  63   2.0000      -0.523266       -14.2388
  64   2.0000      -0.513976       -13.9860
  65   2.0000      -0.508458       -13.8358
  66   2.0000      -0.507314       -13.8047
  67   2.0000      -0.499202       -13.5840
  68   2.0000      -0.482787       -13.1373
  69   2.0000      -0.466086       -12.6828
  70   2.0000      -0.455988       -12.4081
  71   2.0000      -0.453693       -12.3456
  72   2.0000      -0.354264        -9.6400
  73   2.0000      -0.349628        -9.5139
  74   2.0000      -0.328395        -8.9361
  75   2.0000      -0.321453        -8.7472
  76   2.0000      -0.315719        -8.5911
  77   0.0000       0.070947         1.9306
  78   0.0000       0.102391         2.7862
  79   0.0000       0.118486         3.2242
  80   0.0000       0.130040         3.5386
  81   0.0000       0.135774         3.6946

MULLIKEN ATOMIC CHARGES
-----------------------
   0 C :   -0.288013
   1 C :    0.045495
   2 O :   -0.374041
   3 C :    0.443493
   4 O :   -0.394803
   5 C :   -0.189472
   6 C :    0.130706
   7 C :   -0.282513
   8 N :   -0.125578
   9 C :    0.204079
  10 S :   -0.440161
  11 N :   -0.201581
  12 C :    0.061174
  13 C :    0.020982
  14 C :   -0.147477
  15 C :   -0.135330
  16 C :   -0.279068
  17 C :    0.312018
  18 O :   -0.359951
  19 C :   -0.275581
  20 H :    0.094901
  21 H :    0.106005
  22 H :    0.100090
  23 H :    0.099260
  24 H :    0.111152
  25 H :    0.122948
  26 H :    0.106683
  27 H :    0.125314
  28 H :    0.197207
  29 H :    0.194285
  30 H :    0.155426
  31 H :    0.156546
  32 H :    0.161538
  33 H :    0.131907
  34 H :    0.241446
  35 H :    0.170916
Sum of atomic charges:    0.0000000

LOEWDIN ATOMIC CHARGES
----------------------
   0 C :    0.106353
   1 C :   -0.013945
   2 O :    0.290016
   3 C :   -0.419372
   4 O :    0.130470
   5 C :   -0.093805
   6 C :   -0.077710
   7 C :    0.126834
   8 N :    0.403803
   9 C :   -0.456910
  10 S :   -0.036657
  11 N :    0.396900
  12 C :   -0.044990
  13 C :   -0.042289
  14 C :    0.021554
  15 C :    0.042448
  16 C :   -0.002020
  17 C :   -0.194923
  18 O :    0.393968
  19 C :    0.028116
  20 H :   -0.029522
  21 H :   -0.022759
  22 H :   -0.028205
  23 H :   -0.025843
  24 H :   -0.028589
  25 H :   -0.008009
  26 H :   -0.019089
  27 H :   -0.010777
  28 H :   -0.058736
  29 H :   -0.064212
  30 H :   -0.004553
  31 H :   -0.024288
  32 H :   -0.019818
  33 H :   -0.035196
  34 H :   -0.153654
  35 H :   -0.024592

  Mayer bond orders larger than 0.100000
B(  0-C ,  1-C ) :   0.9712 B(  0-C , 20-H ) :   0.9762 B(  0-C , 21-H ) :   0.9784
B(  0-C , 22-H ) :   0.9768 B(  1-C ,  2-O ) :   0.8909 B(  1-C , 23-H ) :   0.9661
B(  1-C , 24-H ) :   0.9856 B(  2-O ,  3-C ) :   1.0896 B(  3-C ,  4-O ) :   2.0318
B(  3-C ,  5-C ) :   1.0211 B(  5-C ,  6-C ) :   1.6728 B(  5-C , 12-C ) :   0.9633
B(  6-C ,  7-C ) :   0.9528 B(  6-C ,  8-N ) :   1.1364 B(  7-C , 25-H ) :   0.9716
B(  7-C , 26-H ) :   0.9876 B(  7-C , 27-H ) :   0.9625 B(  8-N ,  9-C ) :   1.1864
B(  8-N , 28-H ) :   0.9501 B(  9-C , 10-S ) :   1.6105 B(  9-C , 11-N ) :   1.2984
B( 11-N , 12-C ) :   0.9937 B( 11-N , 29-H ) :   0.9517 B( 12-C , 13-C ) :   0.9433
B( 12-C , 30-H ) :   0.9977 B( 13-C , 14-C ) :   1.3799 B( 13-C , 19-C ) :   1.3688
B( 14-C , 15-C ) :   1.3936 B( 14-C , 31-H ) :   0.9639 B( 15-C , 16-C ) :   1.3642
B( 15-C , 32-H ) :   0.9710 B( 16-C , 17-C ) :   1.3297 B( 16-C , 33-H ) :   0.9846
B( 17-C , 18-O ) :   1.1094 B( 17-C , 19-C ) :   1.3732 B( 18-O , 34-H ) :   0.9797
B( 19-C , 35-H ) :   0.9573

MP2 TOTAL ENERGY:    -1274.323374816 Eh
FINAL SINGLE POINT ENERGY     -1274.323374815635

DIPOLE MOMENT
-------------
                                X             Y             Z
Electronic contribution:     11.40010       7.73574       6.43113
Nuclear contribution   :    -12.65052      -9.03396      -6.97830
                        -----------------------------------------
Total Dipole Moment    :     -1.25041      -1.29822      -0.54717
                        -----------------------------------------
Magnitude (a.u.)       :      1.88369
Magnitude (Debye)      :      4.78796

Rotational constants in cm-1:     0.011903     0.009203     0.006921
Rotational constants in MHz :   356.850014   275.897223   207.497508

                             ****ORCA TERMINATED NORMALLY****
TOTAL RUN TIME: 0 days 1 hours 51 minutes 55 seconds 485 msec
