                         Program Version 5.0.0 -  RELEASE  -
|  1> ! ri-mp2 cc-pvtz cc-pvtz/c TightSCF NoKeepInts
|  2>
|  3> %scf
|  4>   MaxCore 4096
|  5> end
|  6> *xyz  0  1
|  7>     C       15.2348470   14.5610696   17.2527291
|  8>     C       15.4237484   15.5649284   16.0989161
|  9>     O       16.7823125   15.5193247   15.6089114
| 10>     C       17.8735368   15.6510213   16.4263458
| 11>     O       18.6901670   14.7515979   16.5081242
| 12>     C       17.8964167   16.8335295   17.3530320
| 13>     C       17.4268511   18.0653698   17.0249687
| 14>     C       16.8471037   18.5273271   15.7020469
| 15>     N       17.5834081   19.1299301   17.9171192
| 16>     C       18.3614015   19.0978247   19.0437357
| 17>     S       18.6006761   20.4429968   19.9750381
| 18>     N       18.9351272   17.8916258   19.3556154
| 19>     C       18.6376635   16.6142461   18.6791670
| 20>     C       17.8735642   15.6754227   19.6081889
| 21>     C       18.2304295   14.3165664   19.6878042
| 22>     C       17.5266339   13.4381411   20.5282091
| 23>     C       16.4554863   13.9212089   21.2985634
| 24>     C       16.0950493   15.2731421   21.2223012
| 25>     O       15.0543482   15.7404552   21.9565278
| 26>     C       16.7961924   16.1454638   20.3835496
| 27>     H       15.7537150   14.8870501   18.1569888
| 28>     H       15.6167173   13.5708656   16.9727582
| 29>     H       14.1713660   14.4584057   17.4998664
| 30>     H       14.7409916   15.3070836   15.2789244
| 31>     H       15.1566270   16.5651122   16.4555722
| 32>     H       17.1365898   17.8730190   14.8712457
| 33>     H       17.2150301   19.5269137   15.4372440
| 34>     H       15.7529887   18.5794081   15.7368215
| 35>     H       17.1847047   20.0287808   17.6959175
| 36>     H       19.4909717   17.8893446   20.2015475
| 37>     H       19.6014705   16.1387771   18.4441388
| 38>     H       19.0496709   13.9359716   19.0812728
| 39>     H       17.8105472   12.3881445   20.5752281
| 40>     H       15.9081643   13.2452644   21.9472241
| 41>     H       14.7367582   15.0097445   22.5083034
| 42>     H       16.4957240   17.1869226   20.3400530
| 43> *
| 44>
| 45>                          ****END OF INPUT****

CARTESIAN COORDINATES (ANGSTROEM)
---------------------------------
  C     15.234847   14.561070   17.252729
  C     15.423748   15.564928   16.098916
  O     16.782312   15.519325   15.608911
  C     17.873537   15.651021   16.426346
  O     18.690167   14.751598   16.508124
  C     17.896417   16.833530   17.353032
  C     17.426851   18.065370   17.024969
  C     16.847104   18.527327   15.702047
  N     17.583408   19.129930   17.917119
  C     18.361401   19.097825   19.043736
  S     18.600676   20.442997   19.975038
  N     18.935127   17.891626   19.355615
  C     18.637663   16.614246   18.679167
  C     17.873564   15.675423   19.608189
  C     18.230429   14.316566   19.687804
  C     17.526634   13.438141   20.528209
  C     16.455486   13.921209   21.298563
  C     16.095049   15.273142   21.222301
  O     15.054348   15.740455   21.956528
  C     16.796192   16.145464   20.383550
  H     15.753715   14.887050   18.156989
  H     15.616717   13.570866   16.972758
  H     14.171366   14.458406   17.499866
  H     14.740992   15.307084   15.278924
  H     15.156627   16.565112   16.455572
  H     17.136590   17.873019   14.871246
  H     17.215030   19.526914   15.437244
  H     15.752989   18.579408   15.736821
  H     17.184705   20.028781   17.695918
  H     19.490972   17.889345   20.201548
  H     19.601471   16.138777   18.444139
  H     19.049671   13.935972   19.081273
  H     17.810547   12.388144   20.575228
  H     15.908164   13.245264   21.947224
  H     14.736758   15.009745   22.508303
  H     16.495724   17.186923   20.340053

 Total Charge           Charge          ....    0
 Multiplicity           Mult            ....    1
 Number of Electrons    NEL             ....  154
 Basis Dimension        Dim             ....  828

ORBITAL ENERGIES
----------------

  NO   OCC          E(Eh)            E(eV)
   0   2.0000     -91.891114     -2500.4843
   1   2.0000     -20.597505      -560.4866
   2   2.0000     -20.592012      -560.3371
   3   2.0000     -20.552286      -559.2561
   4   2.0000     -15.630364      -425.3238
   5   2.0000     -15.610328      -424.7786
   6   2.0000     -11.397944      -310.1538
   7   2.0000     -11.386607      -309.8453
   8   2.0000     -11.338767      -308.5435
   9   2.0000     -11.314376      -307.8798
  10   2.0000     -11.311016      -307.7884
  11   2.0000     -11.307737      -307.6992
  12   2.0000     -11.266899      -306.5879
  13   2.0000     -11.265736      -306.5563
  14   2.0000     -11.260416      -306.4115
  15   2.0000     -11.254396      -306.2477
  16   2.0000     -11.243916      -305.9625
  17   2.0000     -11.239684      -305.8474
  18   2.0000     -11.235941      -305.7455
  19   2.0000     -11.225735      -305.4678
  20   2.0000      -8.896189      -242.0776
  21   2.0000      -6.577769      -178.9902
  22   2.0000      -6.575753      -178.9353
  23   2.0000      -6.575169      -178.9194
  24   2.0000      -1.447051       -39.3763
  25   2.0000      -1.417321       -38.5673
  26   2.0000      -1.358597       -36.9693
  27   2.0000      -1.342926       -36.5429
  28   2.0000      -1.240919       -33.7671
  29   2.0000      -1.158511       -31.5247
  30   2.0000      -1.123650       -30.5761
  31   2.0000      -1.046320       -28.4718
  32   2.0000      -1.034970       -28.1630
  33   2.0000      -1.016572       -27.6623
  34   2.0000      -1.004545       -27.3351
  35   2.0000      -0.988769       -26.9058
  36   2.0000      -0.926973       -25.2242
  37   2.0000      -0.893633       -24.3170
  38   2.0000      -0.854532       -23.2530
  39   2.0000      -0.841529       -22.8992
  40   2.0000      -0.834298       -22.7024
  41   2.0000      -0.828978       -22.5577
  42   2.0000      -0.745655       -20.2903
  43   2.0000      -0.735850       -20.0235
  44   2.0000      -0.729763       -19.8579
  45   2.0000      -0.695514       -18.9259
  46   2.0000      -0.686818       -18.6893
  47   2.0000      -0.681806       -18.5529
  48   2.0000      -0.676101       -18.3976
  49   2.0000      -0.661940       -18.0123
  50   2.0000      -0.655644       -17.8410
  51   2.0000      -0.649233       -17.6665
  52   2.0000      -0.639206       -17.3937
  53   2.0000      -0.623250       -16.9595
  54   2.0000      -0.608155       -16.5487
  55   2.0000      -0.605451       -16.4752
  56   2.0000      -0.601182       -16.3590
  57   2.0000      -0.584025       -15.8921
  58   2.0000      -0.575066       -15.6483
  59   2.0000      -0.565769       -15.3953
  60   2.0000      -0.559763       -15.2319
  61   2.0000      -0.547272       -14.8920
  62   2.0000      -0.543564       -14.7911
  63   2.0000      -0.533155       -14.5079
  64   2.0000      -0.520498       -14.1635
  65   2.0000      -0.512973       -13.9587
  66   2.0000      -0.501093       -13.6354
  67   2.0000      -0.494378       -13.4527
  68   2.0000      -0.484426       -13.1819
  69   2.0000      -0.469248       -12.7689
  70   2.0000      -0.459415       -12.5013
  71   2.0000      -0.448913       -12.2155
  72   2.0000      -0.359589        -9.7849
  73   2.0000      -0.349638        -9.5141
  74   2.0000      -0.330472        -8.9926
  75   2.0000      -0.322397        -8.7729
  76   2.0000      -0.319492        -8.6938
  77   0.0000       0.074053         2.0151
  78   0.0000       0.106027         2.8851
  79   0.0000       0.117323         3.1925
  80   0.0000       0.130940         3.5631
  81   0.0000       0.134617         3.6631

MULLIKEN ATOMIC CHARGES
-----------------------
   0 C :   -0.299709
   1 C :    0.030905
   2 O :   -0.355596
   3 C :    0.458566
   4 O :   -0.386789
   5 C :   -0.223446
   6 C :    0.145385
   7 C :   -0.324226
   8 N :   -0.129884
   9 C :    0.192449
  10 S :   -0.437125
  11 N :   -0.206973
  12 C :    0.060268
  13 C :    0.000078
  14 C :   -0.174360
  15 C :   -0.144323
  16 C :   -0.265217
  17 C :    0.300427
  18 O :   -0.358509
  19 C :   -0.236321
  20 H :    0.110461
  21 H :    0.114392
  22 H :    0.101714
  23 H :    0.120662
  24 H :    0.080006
  25 H :    0.143002
  26 H :    0.126618
  27 H :    0.122879
  28 H :    0.197430
  29 H :    0.197088
  30 H :    0.162905
  31 H :    0.170241
  32 H :    0.162699
  33 H :    0.132262
  34 H :    0.240834
  35 H :    0.171207
Sum of atomic charges:    0.0000000

LOEWDIN ATOMIC CHARGES
----------------------
   0 C :    0.110864
   1 C :   -0.021027
   2 O :    0.290978
   3 C :   -0.417501
   4 O :    0.126131
   5 C :   -0.088167
   6 C :   -0.080344
   7 C :    0.125797
   8 N :    0.404053
   9 C :   -0.460590
  10 S :   -0.034769
  11 N :    0.397700
  12 C :   -0.044899
  13 C :   -0.045317
  14 C :    0.021158
  15 C :    0.043699
  16 C :   -0.000855
  17 C :   -0.193452
  18 O :    0.395106
  19 C :    0.025830
  20 H :   -0.030135
  21 H :   -0.020827
  22 H :   -0.025026
  23 H :   -0.020776
  24 H :   -0.040575
  25 H :   -0.007887
  26 H :   -0.012988
  27 H :   -0.018537
  28 H :   -0.056969
  29 H :   -0.063093
  30 H :   -0.002723
  31 H :   -0.022633
  32 H :   -0.019142
  33 H :   -0.034996
  34 H :   -0.153564
  35 H :   -0.024525

  Mayer bond orders larger than 0.100000
B(  0-C ,  1-C ) :   0.9720 B(  0-C , 20-H ) :   0.9661 B(  0-C , 21-H ) :   0.9745
B(  0-C , 22-H ) :   0.9776 B(  1-C ,  2-O ) :   0.8981 B(  1-C , 23-H ) :   0.9800
B(  1-C , 24-H ) :   0.9709 B(  2-O ,  3-C ) :   1.1307 B(  3-C ,  4-O ) :   2.0662
B(  3-C ,  5-C ) :   0.9696 B(  5-C ,  6-C ) :   1.6750 B(  5-C , 12-C ) :   0.9542
B(  6-C ,  7-C ) :   0.9397 B(  6-C ,  8-N ) :   1.1277 B(  7-C , 25-H ) :   0.9706
B(  7-C , 26-H ) :   0.9802 B(  7-C , 27-H ) :   0.9655 B(  8-N ,  9-C ) :   1.1855
B(  8-N , 28-H ) :   0.9512 B(  9-C , 10-S ) :   1.6144 B(  9-C , 11-N ) :   1.2961
B( 11-N , 12-C ) :   0.9911 B( 11-N , 29-H ) :   0.9508 B( 12-C , 13-C ) :   0.9482
B( 12-C , 30-H ) :   0.9975 B( 13-C , 14-C ) :   1.3937 B( 13-C , 19-C ) :   1.3562
B( 14-C , 15-C ) :   1.3944 B( 14-C , 31-H ) :   0.9581 B( 15-C , 16-C ) :   1.3623
B( 15-C , 32-H ) :   0.9708 B( 16-C , 17-C ) :   1.3313 B( 16-C , 33-H ) :   0.9842
B( 17-C , 18-O ) :   1.1123 B( 17-C , 19-C ) :   1.3701 B( 18-O , 34-H ) :   0.9797
B( 19-C , 35-H ) :   0.9588

MP2 TOTAL ENERGY:    -1274.335092172 Eh
FINAL SINGLE POINT ENERGY     -1274.335092172089

DIPOLE MOMENT
-------------
                                X             Y             Z
Electronic contribution:      9.66579       7.80399       6.10140
Nuclear contribution   :    -11.23484      -8.72019      -6.57797
                        -----------------------------------------
Total Dipole Moment    :     -1.56905      -0.91621      -0.47658
                        -----------------------------------------
Magnitude (a.u.)       :      1.87842
Magnitude (Debye)      :      4.77457

Rotational constants in cm-1:     0.011514     0.009705     0.006666
Rotational constants in MHz :   345.166622   290.957457   199.832637

                             ****ORCA TERMINATED NORMALLY****
TOTAL RUN TIME: 0 days 2 hours 6 minutes 0 seconds 223 msec
