                         Program Version 5.0.0 -  RELEASE  -
|  1> ! ri-mp2 cc-pvtz cc-pvtz/c TightSCF NoKeepInts
|  2>
|  3> %scf
|  4>   MaxCore 4096
|  5> end
|  6> *xyz  0  1
|  7>     C       14.2351898   14.9761943   16.4006522
|  8>     C       15.4378469   15.5676013   17.1533596
|  9>     O       16.6224453   15.1619551   16.4405719
| 10>     C       17.8221576   15.8295753   16.4510242
| 11>     O       18.8255108   15.2445956   16.0882976
| 12>     C       17.9276585   16.9612552   17.4173138
| 13>     C       17.3897706   18.1758839   17.1652700
| 14>     C       16.6249561   18.5899899   15.9261491
| 15>     N       17.5810059   19.2220334   18.0699160
| 16>     C       18.3740752   19.1501094   19.1862171
| 17>     S       18.5902894   20.4523610   20.1817743
| 18>     N       18.9765174   17.9415205   19.4403996
| 19>     C       18.7656845   16.7009729   18.6666942
| 20>     C       18.1287021   15.6064736   19.5171337
| 21>     C       18.5585029   14.2736289   19.3833099
| 22>     C       17.9605909   13.2490684   20.1355401
| 23>     C       16.9204511   13.5580036   21.0282719
| 24>     C       16.4840509   14.8829742   21.1595260
| 25>     O       15.4688773   15.1826870   22.0079316
| 26>     C       17.0799403   15.9012961   20.4085887
| 27>     H       13.2970680   15.2385680   16.9046671
| 28>     H       14.3080018   13.8819781   16.3594685
| 29>     H       14.1939349   15.3580418   15.3729897
| 30>     H       15.3157299   16.6540569   17.1818350
| 31>     H       15.4676046   15.1909994   18.1842691
| 32>     H       16.5066549   17.7674928   15.2100619
| 33>     H       17.1507655   19.3969343   15.3996839
| 34>     H       15.6214014   18.9516059   16.1824110
| 35>     H       17.1640240   20.1224612   17.8918815
| 36>     H       19.5411079   17.9143349   20.2802373
| 37>     H       19.7518635   16.3430057   18.3352223
| 38>     H       19.3498477   14.0285930   18.6776353
| 39>     H       18.2998157   12.2211272   20.0182448
| 40>     H       16.4539115   12.7684654   21.6082275
| 41>     H       15.2305013   14.3676234   22.4754261
| 42>     H       16.7205441   16.9185327   20.5237976
| 43> *
| 44>
| 45>                          ****END OF INPUT****

CARTESIAN COORDINATES (ANGSTROEM)
---------------------------------
  C     14.235190   14.976194   16.400652
  C     15.437847   15.567601   17.153360
  O     16.622445   15.161955   16.440572
  C     17.822158   15.829575   16.451024
  O     18.825511   15.244596   16.088298
  C     17.927658   16.961255   17.417314
  C     17.389771   18.175884   17.165270
  C     16.624956   18.589990   15.926149
  N     17.581006   19.222033   18.069916
  C     18.374075   19.150109   19.186217
  S     18.590289   20.452361   20.181774
  N     18.976517   17.941520   19.440400
  C     18.765684   16.700973   18.666694
  C     18.128702   15.606474   19.517134
  C     18.558503   14.273629   19.383310
  C     17.960591   13.249068   20.135540
  C     16.920451   13.558004   21.028272
  C     16.484051   14.882974   21.159526
  O     15.468877   15.182687   22.007932
  C     17.079940   15.901296   20.408589
  H     13.297068   15.238568   16.904667
  H     14.308002   13.881978   16.359468
  H     14.193935   15.358042   15.372990
  H     15.315730   16.654057   17.181835
  H     15.467605   15.190999   18.184269
  H     16.506655   17.767493   15.210062
  H     17.150765   19.396934   15.399684
  H     15.621401   18.951606   16.182411
  H     17.164024   20.122461   17.891881
  H     19.541108   17.914335   20.280237
  H     19.751863   16.343006   18.335222
  H     19.349848   14.028593   18.677635
  H     18.299816   12.221127   20.018245
  H     16.453912   12.768465   21.608228
  H     15.230501   14.367623   22.475426
  H     16.720544   16.918533   20.523798

 Total Charge           Charge          ....    0
 Multiplicity           Mult            ....    1
 Number of Electrons    NEL             ....  154
 Basis Dimension        Dim             ....  828

ORBITAL ENERGIES
----------------

  NO   OCC          E(Eh)            E(eV)
   0   2.0000     -91.889732     -2500.4467
   1   2.0000     -20.601418      -560.5931
   2   2.0000     -20.600323      -560.5633
   3   2.0000     -20.551285      -559.2289
   4   2.0000     -15.626067      -425.2069
   5   2.0000     -15.611887      -424.8210
   6   2.0000     -11.397970      -310.1545
   7   2.0000     -11.386741      -309.8490
   8   2.0000     -11.327267      -308.2306
   9   2.0000     -11.317174      -307.9560
  10   2.0000     -11.316123      -307.9274
  11   2.0000     -11.302059      -307.5447
  12   2.0000     -11.270794      -306.6939
  13   2.0000     -11.264810      -306.5311
  14   2.0000     -11.264196      -306.5144
  15   2.0000     -11.257447      -306.3307
  16   2.0000     -11.246665      -306.0373
  17   2.0000     -11.242456      -305.9228
  18   2.0000     -11.239881      -305.8527
  19   2.0000     -11.233351      -305.6750
  20   2.0000      -8.894854      -242.0413
  21   2.0000      -6.576445      -178.9542
  22   2.0000      -6.574416      -178.8989
  23   2.0000      -6.573843      -178.8834
  24   2.0000      -1.449136       -39.4330
  25   2.0000      -1.420165       -38.6447
  26   2.0000      -1.359969       -37.0066
  27   2.0000      -1.339715       -36.4555
  28   2.0000      -1.239832       -33.7375
  29   2.0000      -1.161938       -31.6179
  30   2.0000      -1.126118       -30.6432
  31   2.0000      -1.049745       -28.5650
  32   2.0000      -1.040738       -28.3199
  33   2.0000      -1.019525       -27.7427
  34   2.0000      -1.005602       -27.3638
  35   2.0000      -0.989545       -26.9269
  36   2.0000      -0.928339       -25.2614
  37   2.0000      -0.882070       -24.0023
  38   2.0000      -0.855327       -23.2746
  39   2.0000      -0.842079       -22.9141
  40   2.0000      -0.837704       -22.7951
  41   2.0000      -0.836945       -22.7744
  42   2.0000      -0.757467       -20.6117
  43   2.0000      -0.739333       -20.1183
  44   2.0000      -0.732550       -19.9337
  45   2.0000      -0.697757       -18.9869
  46   2.0000      -0.688613       -18.7381
  47   2.0000      -0.680660       -18.5217
  48   2.0000      -0.677668       -18.4403
  49   2.0000      -0.666647       -18.1404
  50   2.0000      -0.653243       -17.7756
  51   2.0000      -0.650399       -17.6982
  52   2.0000      -0.639690       -17.4068
  53   2.0000      -0.612582       -16.6692
  54   2.0000      -0.608330       -16.5535
  55   2.0000      -0.604260       -16.4427
  56   2.0000      -0.596517       -16.2320
  57   2.0000      -0.587377       -15.9833
  58   2.0000      -0.578493       -15.7416
  59   2.0000      -0.570534       -15.5250
  60   2.0000      -0.563508       -15.3338
  61   2.0000      -0.560782       -15.2596
  62   2.0000      -0.548759       -14.9325
  63   2.0000      -0.528139       -14.3714
  64   2.0000      -0.523139       -14.2353
  65   2.0000      -0.515338       -14.0231
  66   2.0000      -0.505209       -13.7474
  67   2.0000      -0.502790       -13.6816
  68   2.0000      -0.488388       -13.2897
  69   2.0000      -0.469942       -12.7878
  70   2.0000      -0.453433       -12.3385
  71   2.0000      -0.450022       -12.2457
  72   2.0000      -0.357071        -9.7164
  73   2.0000      -0.352123        -9.5818
  74   2.0000      -0.329489        -8.9658
  75   2.0000      -0.325153        -8.8479
  76   2.0000      -0.318184        -8.6582
  77   0.0000       0.088322         2.4034
  78   0.0000       0.104633         2.8472
  79   0.0000       0.110857         3.0166
  80   0.0000       0.127460         3.4684
  81   0.0000       0.129571         3.5258

MULLIKEN ATOMIC CHARGES
-----------------------
   0 C :   -0.255158
   1 C :    0.012303
   2 O :   -0.306947
   3 C :    0.385751
   4 O :   -0.379867
   5 C :   -0.167652
   6 C :    0.122635
   7 C :   -0.321391
   8 N :   -0.134889
   9 C :    0.205961
  10 S :   -0.441863
  11 N :   -0.218161
  12 C :    0.067221
  13 C :    0.020562
  14 C :   -0.191726
  15 C :   -0.133337
  16 C :   -0.273642
  17 C :    0.319284
  18 O :   -0.359234
  19 C :   -0.279245
  20 H :    0.089120
  21 H :    0.106928
  22 H :    0.094105
  23 H :    0.088979
  24 H :    0.124375
  25 H :    0.120926
  26 H :    0.144002
  27 H :    0.118201
  28 H :    0.195242
  29 H :    0.199415
  30 H :    0.165542
  31 H :    0.167419
  32 H :    0.163964
  33 H :    0.133053
  34 H :    0.241679
  35 H :    0.176447
Sum of atomic charges:   -0.0000000

LOEWDIN ATOMIC CHARGES
----------------------
   0 C :    0.109376
   1 C :   -0.021756
   2 O :    0.311120
   3 C :   -0.417785
   4 O :    0.125912
   5 C :   -0.080310
   6 C :   -0.109218
   7 C :    0.123242
   8 N :    0.400780
   9 C :   -0.455275
  10 S :   -0.038485
  11 N :    0.397395
  12 C :   -0.043587
  13 C :   -0.043413
  14 C :    0.023129
  15 C :    0.046023
  16 C :   -0.000558
  17 C :   -0.195089
  18 O :    0.394925
  19 C :    0.027072
  20 H :   -0.025479
  21 H :   -0.023516
  22 H :   -0.028107
  23 H :   -0.038720
  24 H :   -0.027498
  25 H :   -0.009191
  26 H :   -0.008586
  27 H :   -0.016995
  28 H :   -0.058092
  29 H :   -0.063762
  30 H :   -0.002154
  31 H :   -0.021693
  32 H :   -0.018165
  33 H :   -0.034477
  34 H :   -0.152816
  35 H :   -0.024247

  Mayer bond orders larger than 0.100000
B(  0-C ,  1-C ) :   0.9831 B(  0-C , 20-H ) :   0.9769 B(  0-C , 21-H ) :   0.9792
B(  0-C , 22-H ) :   0.9779 B(  1-C ,  2-O ) :   0.9085 B(  1-C , 23-H ) :   0.9671
B(  1-C , 24-H ) :   0.9668 B(  2-O ,  3-C ) :   1.1789 B(  3-C ,  4-O ) :   2.0973
B(  3-C ,  5-C ) :   0.9177 B(  5-C ,  6-C ) :   1.6995 B(  5-C , 12-C ) :   0.9619
B(  6-C ,  7-C ) :   0.9440 B(  6-C ,  8-N ) :   1.1110 B(  7-C , 25-H ) :   0.9818
B(  7-C , 26-H ) :   0.9671 B(  7-C , 27-H ) :   0.9679 B(  8-N ,  9-C ) :   1.1976
B(  8-N , 28-H ) :   0.9526 B(  9-C , 10-S ) :   1.6097 B(  9-C , 11-N ) :   1.2865
B( 11-N , 12-C ) :   0.9950 B( 11-N , 29-H ) :   0.9482 B( 12-C , 13-C ) :   0.9444
B( 12-C , 30-H ) :   0.9976 B( 13-C , 14-C ) :   1.3864 B( 13-C , 19-C ) :   1.3463
B( 14-C , 15-C ) :   1.3972 B( 14-C , 31-H ) :   0.9618 B( 15-C , 16-C ) :   1.3632
B( 15-C , 32-H ) :   0.9699 B( 16-C , 17-C ) :   1.3286 B( 16-C , 33-H ) :   0.9843
B( 17-C , 18-O ) :   1.1084 B( 17-C , 19-C ) :   1.3656 B( 18-O , 34-H ) :   0.9790
B( 19-C , 35-H ) :   0.9587

MP2 TOTAL ENERGY:    -1274.330046105 Eh
FINAL SINGLE POINT ENERGY     -1274.330046105060

DIPOLE MOMENT
-------------
                                X             Y             Z
Electronic contribution:     11.86832       6.84076       7.48535
Nuclear contribution   :    -13.48170      -7.86185      -7.80643
                        -----------------------------------------
Total Dipole Moment    :     -1.61338      -1.02110      -0.32109
                        -----------------------------------------
Magnitude (a.u.)       :      1.93616
Magnitude (Debye)      :      4.92133

Rotational constants in cm-1:     0.011653     0.009127     0.006731
Rotational constants in MHz :   349.337875   273.635398   201.781778

                             ****ORCA TERMINATED NORMALLY****
TOTAL RUN TIME: 0 days 1 hours 50 minutes 33 seconds 581 msec
