                         Program Version 5.0.0 -  RELEASE  -
|  1> ! ri-mp2 cc-pvtz cc-pvtz/c TightSCF NoKeepInts
|  2>
|  3> %scf
|  4>   MaxCore 4096
|  5> end
|  6> *xyz  0  1
|  7>     C       15.2284724   14.2256602   17.0768612
|  8>     C       16.4895126   13.9833836   16.2199212
|  9>     O       17.4883939   14.9899873   16.4834615
| 10>     C       17.2069393   16.3073050   16.2512386
| 11>     O       16.4543104   16.6501925   15.3551966
| 12>     C       17.7000882   17.2154672   17.3445457
| 13>     C       17.4554640   18.5509272   17.3462387
| 14>     C       16.6558491   19.3394483   16.3311332
| 15>     N       18.0059321   19.3625331   18.3430321
| 16>     C       18.9240570   18.9468588   19.2702709
| 17>     S       19.6329274   19.9976154   20.3329303
| 18>     N       19.2329929   17.6104980   19.2669685
| 19>     C       18.5343788   16.5841501   18.4717831
| 20>     C       17.6944077   15.7105141   19.3984550
| 21>     C       18.0491555   14.3673233   19.6256228
| 22>     C       17.2860734   13.5621769   20.4881105
| 23>     C       16.1608720   14.1050129   21.1318417
| 24>     C       15.8079302   15.4436590   20.9122992
| 25>     O       14.7220719   15.9705604   21.5319086
| 26>     C       16.5688376   16.2422544   20.0530003
| 27>     H       15.4770956   14.2321389   18.1437109
| 28>     H       14.4963501   13.4272888   16.9068838
| 29>     H       14.7467720   15.1784683   16.8251473
| 30>     H       16.9017219   12.9936212   16.4539626
| 31>     H       16.2182213   13.9940684   15.1554815
| 32>     H       17.0864636   19.2261448   15.3280547
| 33>     H       16.6166154   20.4119370   16.5547620
| 34>     H       15.6223637   18.9726861   16.2864929
| 35>     H       17.7948174   20.3476037   18.3551055
| 36>     H       19.8885353   17.3277298   19.9839715
| 37>     H       19.3029120   15.9531411   18.0035876
| 38>     H       18.9174848   13.9445938   19.1273359
| 39>     H       17.5679534   12.5241875   20.6562624
| 40>     H       15.5688648   13.4875324   21.7993918
| 41>     H       14.3579147   15.2871029   22.1143137
| 42>     H       16.2842474   17.2782276   19.9047162
| 43> *
| 44>
| 45>                          ****END OF INPUT****

CARTESIAN COORDINATES (ANGSTROEM)
---------------------------------
  C     15.228472   14.225660   17.076861
  C     16.489513   13.983384   16.219921
  O     17.488394   14.989987   16.483462
  C     17.206939   16.307305   16.251239
  O     16.454310   16.650192   15.355197
  C     17.700088   17.215467   17.344546
  C     17.455464   18.550927   17.346239
  C     16.655849   19.339448   16.331133
  N     18.005932   19.362533   18.343032
  C     18.924057   18.946859   19.270271
  S     19.632927   19.997615   20.332930
  N     19.232993   17.610498   19.266968
  C     18.534379   16.584150   18.471783
  C     17.694408   15.710514   19.398455
  C     18.049156   14.367323   19.625623
  C     17.286073   13.562177   20.488110
  C     16.160872   14.105013   21.131842
  C     15.807930   15.443659   20.912299
  O     14.722072   15.970560   21.531909
  C     16.568838   16.242254   20.053000
  H     15.477096   14.232139   18.143711
  H     14.496350   13.427289   16.906884
  H     14.746772   15.178468   16.825147
  H     16.901722   12.993621   16.453963
  H     16.218221   13.994068   15.155481
  H     17.086464   19.226145   15.328055
  H     16.616615   20.411937   16.554762
  H     15.622364   18.972686   16.286493
  H     17.794817   20.347604   18.355105
  H     19.888535   17.327730   19.983971
  H     19.302912   15.953141   18.003588
  H     18.917485   13.944594   19.127336
  H     17.567953   12.524188   20.656262
  H     15.568865   13.487532   21.799392
  H     14.357915   15.287103   22.114314
  H     16.284247   17.278228   19.904716

 Total Charge           Charge          ....    0
 Multiplicity           Mult            ....    1
 Number of Electrons    NEL             ....  154
 Basis Dimension        Dim             ....  828

ORBITAL ENERGIES
----------------

  NO   OCC          E(Eh)            E(eV)
   0   2.0000     -91.889737     -2500.4469
   1   2.0000     -20.598515      -560.5141
   2   2.0000     -20.593673      -560.3823
   3   2.0000     -20.542636      -558.9935
   4   2.0000     -15.630167      -425.3185
   5   2.0000     -15.608824      -424.7377
   6   2.0000     -11.394472      -310.0593
   7   2.0000     -11.384631      -309.7915
   8   2.0000     -11.336930      -308.4936
   9   2.0000     -11.316014      -307.9244
  10   2.0000     -11.309985      -307.7603
  11   2.0000     -11.296860      -307.4032
  12   2.0000     -11.261317      -306.4360
  13   2.0000     -11.259582      -306.3888
  14   2.0000     -11.257519      -306.3327
  15   2.0000     -11.252697      -306.2014
  16   2.0000     -11.245304      -306.0003
  17   2.0000     -11.240161      -305.8603
  18   2.0000     -11.239961      -305.8549
  19   2.0000     -11.220543      -305.3265
  20   2.0000      -8.894781      -242.0393
  21   2.0000      -6.576351      -178.9516
  22   2.0000      -6.574351      -178.8972
  23   2.0000      -6.573760      -178.8811
  24   2.0000      -1.448626       -39.4191
  25   2.0000      -1.418219       -38.5917
  26   2.0000      -1.352353       -36.7994
  27   2.0000      -1.341088       -36.4928
  28   2.0000      -1.239428       -33.7266
  29   2.0000      -1.159409       -31.5491
  30   2.0000      -1.121043       -30.5051
  31   2.0000      -1.043907       -28.4062
  32   2.0000      -1.032490       -28.0955
  33   2.0000      -1.017182       -27.6789
  34   2.0000      -0.996534       -27.1171
  35   2.0000      -0.985156       -26.8075
  36   2.0000      -0.923717       -25.1356
  37   2.0000      -0.894959       -24.3531
  38   2.0000      -0.847784       -23.0694
  39   2.0000      -0.839952       -22.8563
  40   2.0000      -0.835841       -22.7444
  41   2.0000      -0.815328       -22.1862
  42   2.0000      -0.751365       -20.4457
  43   2.0000      -0.733811       -19.9680
  44   2.0000      -0.723091       -19.6763
  45   2.0000      -0.697736       -18.9864
  46   2.0000      -0.690051       -18.7773
  47   2.0000      -0.676659       -18.4128
  48   2.0000      -0.669830       -18.2270
  49   2.0000      -0.663717       -18.0607
  50   2.0000      -0.649221       -17.6662
  51   2.0000      -0.642392       -17.4804
  52   2.0000      -0.634583       -17.2679
  53   2.0000      -0.613471       -16.6934
  54   2.0000      -0.608969       -16.5709
  55   2.0000      -0.601582       -16.3699
  56   2.0000      -0.599844       -16.3226
  57   2.0000      -0.579278       -15.7630
  58   2.0000      -0.571163       -15.5421
  59   2.0000      -0.566394       -15.4124
  60   2.0000      -0.553763       -15.0687
  61   2.0000      -0.543828       -14.7983
  62   2.0000      -0.532384       -14.4869
  63   2.0000      -0.531153       -14.4534
  64   2.0000      -0.526685       -14.3318
  65   2.0000      -0.514301       -13.9948
  66   2.0000      -0.502843       -13.6831
  67   2.0000      -0.501028       -13.6337
  68   2.0000      -0.477645       -12.9974
  69   2.0000      -0.465363       -12.6632
  70   2.0000      -0.453284       -12.3345
  71   2.0000      -0.444771       -12.1028
  72   2.0000      -0.355739        -9.6802
  73   2.0000      -0.351456        -9.5636
  74   2.0000      -0.329175        -8.9573
  75   2.0000      -0.324007        -8.8167
  76   2.0000      -0.316874        -8.6226
  77   0.0000       0.072856         1.9825
  78   0.0000       0.105274         2.8647
  79   0.0000       0.123575         3.3626
  80   0.0000       0.130827         3.5600
  81   0.0000       0.136821         3.7231

MULLIKEN ATOMIC CHARGES
-----------------------
   0 C :   -0.319495
   1 C :    0.027353
   2 O :   -0.375755
   3 C :    0.465383
   4 O :   -0.428816
   5 C :   -0.222308
   6 C :    0.152135
   7 C :   -0.270833
   8 N :   -0.123250
   9 C :    0.210248
  10 S :   -0.437917
  11 N :   -0.202203
  12 C :    0.051105
  13 C :    0.045551
  14 C :   -0.181227
  15 C :   -0.133172
  16 C :   -0.275306
  17 C :    0.302795
  18 O :   -0.358674
  19 C :   -0.243742
  20 H :    0.109794
  21 H :    0.106037
  22 H :    0.113033
  23 H :    0.113921
  24 H :    0.119813
  25 H :    0.132617
  26 H :    0.095212
  27 H :    0.131200
  28 H :    0.198212
  29 H :    0.193611
  30 H :    0.151669
  31 H :    0.153417
  32 H :    0.160804
  33 H :    0.131379
  34 H :    0.241048
  35 H :    0.166364
Sum of atomic charges:    0.0000000

LOEWDIN ATOMIC CHARGES
----------------------
   0 C :    0.106376
   1 C :   -0.016082
   2 O :    0.296045
   3 C :   -0.416436
   4 O :    0.101536
   5 C :   -0.095493
   6 C :   -0.057913
   7 C :    0.131551
   8 N :    0.406833
   9 C :   -0.456794
  10 S :   -0.033975
  11 N :    0.396719
  12 C :   -0.052174
  13 C :   -0.039068
  14 C :    0.013858
  15 C :    0.039181
  16 C :   -0.002514
  17 C :   -0.190758
  18 O :    0.396408
  19 C :    0.031961
  20 H :   -0.027204
  21 H :   -0.026164
  22 H :   -0.026995
  23 H :   -0.024651
  24 H :   -0.028268
  25 H :   -0.003425
  26 H :   -0.023328
  27 H :   -0.005084
  28 H :   -0.057477
  29 H :   -0.064781
  30 H :   -0.008873
  31 H :   -0.029427
  32 H :   -0.020857
  33 H :   -0.035224
  34 H :   -0.153433
  35 H :   -0.024069

  Mayer bond orders larger than 0.100000
B(  0-C ,  1-C ) :   0.9569 B(  0-C , 20-H ) :   0.9698 B(  0-C , 21-H ) :   0.9783
B(  0-C , 22-H ) :   0.9743 B(  1-C ,  2-O ) :   0.8865 B(  1-C , 23-H ) :   0.9834
B(  1-C , 24-H ) :   0.9839 B(  2-O ,  3-C ) :   1.1360 B(  3-C ,  4-O ) :   1.9807
B(  3-C ,  5-C ) :   1.0651 B(  5-C ,  6-C ) :   1.6534 B(  5-C , 12-C ) :   0.9717
B(  6-C ,  7-C ) :   0.9674 B(  6-C ,  8-N ) :   1.1604 B(  7-C , 25-H ) :   0.9593
B(  7-C , 26-H ) :   0.9901 B(  7-C , 27-H ) :   0.9613 B(  8-N ,  9-C ) :   1.1808
B(  8-N , 28-H ) :   0.9478 B(  9-C , 10-S ) :   1.6104 B(  9-C , 11-N ) :   1.3045
B( 11-N , 12-C ) :   0.9821 B( 11-N , 29-H ) :   0.9528 B( 12-C , 13-C ) :   0.9359
B( 12-C , 30-H ) :   1.0027 B( 13-C , 14-C ) :   1.3576 B( 13-C , 19-C ) :   1.3841
B( 14-C , 15-C ) :   1.3882 B( 14-C , 31-H ) :   0.9708 B( 15-C , 16-C ) :   1.3606
B( 15-C , 32-H ) :   0.9717 B( 16-C , 17-C ) :   1.3316 B( 16-C , 33-H ) :   0.9851
B( 17-C , 18-O ) :   1.1125 B( 17-C , 19-C ) :   1.3743 B( 18-O , 34-H ) :   0.9795
B( 19-C , 35-H ) :   0.9566

MP2 TOTAL ENERGY:    -1274.346076124 Eh
FINAL SINGLE POINT ENERGY     -1274.346076123795

DIPOLE MOMENT
-------------
                                X             Y             Z
Electronic contribution:      9.57011       9.85459       6.08309
Nuclear contribution   :    -10.50111     -11.56247      -6.26062
                        -----------------------------------------
Total Dipole Moment    :     -0.93100      -1.70787      -0.17753
                        -----------------------------------------
Magnitude (a.u.)       :      1.95323
Magnitude (Debye)      :      4.96471

Rotational constants in cm-1:     0.012331     0.009090     0.006488
Rotational constants in MHz :   369.661012   272.512998   194.516746

                             ****ORCA TERMINATED NORMALLY****
TOTAL RUN TIME: 0 days 2 hours 8 minutes 13 seconds 42 msec
