                         Program Version 5.0.0 -  RELEASE  -
|  1> ! ri-mp2 cc-pvtz cc-pvtz/c TightSCF NoKeepInts
|  2>
|  3> %scf
|  4>   MaxCore 4096
|  5> end
|  6> *xyz  0  1
|  7>     C       14.9411479   16.0842828   17.3389671
|  8>     C       15.5021680   14.9913405   16.4075136
|  9>     O       16.9358656   14.7679030   16.4405317
| 10>     C       17.9984663   15.6409724   16.4759914
| 11>     O       19.1055606   15.1813546   16.2664714
| 12>     C       17.8936141   16.8099681   17.3905191
| 13>     C       17.4898434   18.0142520   16.9301599
| 14>     C       17.0386273   18.3290159   15.5194869
| 15>     N       17.5443715   19.1345556   17.7615027
| 16>     C       18.0827652   19.1422658   19.0219470
| 17>     S       18.1357450   20.5203017   19.9345067
| 18>     N       18.5812016   17.9505879   19.4892716
| 19>     C       18.5203774   16.6555611   18.7803479
| 20>     C       17.8469611   15.5694372   19.6191885
| 21>     C       18.2469284   14.2281527   19.4702760
| 22>     C       17.6450013   13.2092791   20.2267547
| 23>     C       16.6338846   13.5316563   21.1470254
| 24>     C       16.2329348   14.8649431   21.3029880
| 25>     O       15.2513444   15.1790367   22.1853040
| 26>     C       16.8339656   15.8779373   20.5487472
| 27>     H       15.4011496   16.0423200   18.3292621
| 28>     H       13.8648475   15.9256261   17.4789704
| 29>     H       15.0540058   17.0865281   16.9197412
| 30>     H       15.0147004   14.0412454   16.6626611
| 31>     H       15.2034532   15.2311855   15.3788589
| 32>     H       17.8702590   18.7478092   14.9381731
| 33>     H       16.2197661   19.0590551   15.5115791
| 34>     H       16.6843483   17.4386945   14.9870274
| 35>     H       17.2128755   20.0255135   17.4268804
| 36>     H       18.9646821   17.9855734   20.4253836
| 37>     H       19.5591616   16.3298487   18.6208952
| 38>     H       19.0236791   13.9723285   18.7522313
| 39>     H       17.9620190   12.1762203   20.0944015
| 40>     H       16.1651176   12.7473758   21.7320741
| 41>     H       14.9906121   14.3601798   22.6332670
| 42>     H       16.4955488   16.8996923   20.6850929
| 43> *
| 44>
| 45>                          ****END OF INPUT****

CARTESIAN COORDINATES (ANGSTROEM)
---------------------------------
  C     14.941148   16.084283   17.338967
  C     15.502168   14.991340   16.407514
  O     16.935866   14.767903   16.440532
  C     17.998466   15.640972   16.475991
  O     19.105561   15.181355   16.266471
  C     17.893614   16.809968   17.390519
  C     17.489843   18.014252   16.930160
  C     17.038627   18.329016   15.519487
  N     17.544372   19.134556   17.761503
  C     18.082765   19.142266   19.021947
  S     18.135745   20.520302   19.934507
  N     18.581202   17.950588   19.489272
  C     18.520377   16.655561   18.780348
  C     17.846961   15.569437   19.619188
  C     18.246928   14.228153   19.470276
  C     17.645001   13.209279   20.226755
  C     16.633885   13.531656   21.147025
  C     16.232935   14.864943   21.302988
  O     15.251344   15.179037   22.185304
  C     16.833966   15.877937   20.548747
  H     15.401150   16.042320   18.329262
  H     13.864847   15.925626   17.478970
  H     15.054006   17.086528   16.919741
  H     15.014700   14.041245   16.662661
  H     15.203453   15.231185   15.378859
  H     17.870259   18.747809   14.938173
  H     16.219766   19.059055   15.511579
  H     16.684348   17.438695   14.987027
  H     17.212875   20.025513   17.426880
  H     18.964682   17.985573   20.425384
  H     19.559162   16.329849   18.620895
  H     19.023679   13.972328   18.752231
  H     17.962019   12.176220   20.094402
  H     16.165118   12.747376   21.732074
  H     14.990612   14.360180   22.633267
  H     16.495549   16.899692   20.685093

 Total Charge           Charge          ....    0
 Multiplicity           Mult            ....    1
 Number of Electrons    NEL             ....  154
 Basis Dimension        Dim             ....  828

ORBITAL ENERGIES
----------------

  NO   OCC          E(Eh)            E(eV)
   0   2.0000     -91.888278     -2500.4072
   1   2.0000     -20.598579      -560.5158
   2   2.0000     -20.597986      -560.4997
   3   2.0000     -20.553384      -559.2860
   4   2.0000     -15.623900      -425.1479
   5   2.0000     -15.610749      -424.7901
   6   2.0000     -11.399216      -310.1884
   7   2.0000     -11.385247      -309.8083
   8   2.0000     -11.322524      -308.1015
   9   2.0000     -11.315965      -307.9231
  10   2.0000     -11.314771      -307.8906
  11   2.0000     -11.311790      -307.8094
  12   2.0000     -11.269996      -306.6722
  13   2.0000     -11.263626      -306.4988
  14   2.0000     -11.262204      -306.4601
  15   2.0000     -11.254943      -306.2626
  16   2.0000     -11.243781      -305.9588
  17   2.0000     -11.240257      -305.8629
  18   2.0000     -11.236748      -305.7675
  19   2.0000     -11.233834      -305.6882
  20   2.0000      -8.893407      -242.0019
  21   2.0000      -6.575004      -178.9149
  22   2.0000      -6.572970      -178.8596
  23   2.0000      -6.572403      -178.8442
  24   2.0000      -1.446775       -39.3688
  25   2.0000      -1.417801       -38.5803
  26   2.0000      -1.356557       -36.9138
  27   2.0000      -1.337625       -36.3986
  28   2.0000      -1.238130       -33.6912
  29   2.0000      -1.158908       -31.5355
  30   2.0000      -1.124059       -30.5872
  31   2.0000      -1.047629       -28.5074
  32   2.0000      -1.041419       -28.3385
  33   2.0000      -1.017671       -27.6922
  34   2.0000      -1.004066       -27.3220
  35   2.0000      -0.989184       -26.9171
  36   2.0000      -0.926705       -25.2169
  37   2.0000      -0.901947       -24.5432
  38   2.0000      -0.851673       -23.1752
  39   2.0000      -0.839300       -22.8385
  40   2.0000      -0.834007       -22.6945
  41   2.0000      -0.828539       -22.5457
  42   2.0000      -0.746709       -20.3190
  43   2.0000      -0.734704       -19.9923
  44   2.0000      -0.730628       -19.8814
  45   2.0000      -0.694837       -18.9075
  46   2.0000      -0.685369       -18.6498
  47   2.0000      -0.676368       -18.4049
  48   2.0000      -0.674848       -18.3635
  49   2.0000      -0.666059       -18.1244
  50   2.0000      -0.654491       -17.8096
  51   2.0000      -0.652154       -17.7460
  52   2.0000      -0.637801       -17.3554
  53   2.0000      -0.611765       -16.6470
  54   2.0000      -0.607767       -16.5382
  55   2.0000      -0.602493       -16.3947
  56   2.0000      -0.599515       -16.3136
  57   2.0000      -0.594622       -16.1805
  58   2.0000      -0.586971       -15.9723
  59   2.0000      -0.575033       -15.6474
  60   2.0000      -0.565670       -15.3927
  61   2.0000      -0.558583       -15.1998
  62   2.0000      -0.543151       -14.7799
  63   2.0000      -0.528923       -14.3927
  64   2.0000      -0.514470       -13.9994
  65   2.0000      -0.511886       -13.9291
  66   2.0000      -0.500990       -13.6326
  67   2.0000      -0.500694       -13.6246
  68   2.0000      -0.486843       -13.2477
  69   2.0000      -0.465160       -12.6576
  70   2.0000      -0.455510       -12.3950
  71   2.0000      -0.450496       -12.2586
  72   2.0000      -0.353842        -9.6285
  73   2.0000      -0.347519        -9.4565
  74   2.0000      -0.328108        -8.9283
  75   2.0000      -0.322044        -8.7632
  76   2.0000      -0.316792        -8.6203
  77   0.0000       0.095601         2.6014
  78   0.0000       0.103370         2.8128
  79   0.0000       0.109633         2.9833
  80   0.0000       0.128269         3.4904
  81   0.0000       0.131038         3.5657

MULLIKEN ATOMIC CHARGES
-----------------------
   0 C :   -0.339574
   1 C :    0.031341
   2 O :   -0.330265
   3 C :    0.376021
   4 O :   -0.368974
   5 C :   -0.170438
   6 C :    0.141283
   7 C :   -0.313075
   8 N :   -0.143082
   9 C :    0.216293
  10 S :   -0.446137
  11 N :   -0.239737
  12 C :    0.108990
  13 C :    0.016831
  14 C :   -0.210150
  15 C :   -0.135611
  16 C :   -0.275328
  17 C :    0.326738
  18 O :   -0.357439
  19 C :   -0.286509
  20 H :    0.133781
  21 H :    0.121594
  22 H :    0.097190
  23 H :    0.123254
  24 H :    0.097247
  25 H :    0.151871
  26 H :    0.109256
  27 H :    0.109339
  28 H :    0.194635
  29 H :    0.205981
  30 H :    0.166713
  31 H :    0.168727
  32 H :    0.163684
  33 H :    0.131562
  34 H :    0.240972
  35 H :    0.183018
Sum of atomic charges:   -0.0000000

LOEWDIN ATOMIC CHARGES
----------------------
   0 C :    0.105068
   1 C :   -0.017936
   2 O :    0.301949
   3 C :   -0.420590
   4 O :    0.133276
   5 C :   -0.078752
   6 C :   -0.110308
   7 C :    0.123664
   8 N :    0.401346
   9 C :   -0.454057
  10 S :   -0.041040
  11 N :    0.398418
  12 C :   -0.040910
  13 C :   -0.041037
  14 C :    0.024372
  15 C :    0.044984
  16 C :   -0.001648
  17 C :   -0.193705
  18 O :    0.395045
  19 C :    0.024201
  20 H :   -0.026871
  21 H :   -0.021375
  22 H :   -0.034871
  23 H :   -0.016593
  24 H :   -0.034151
  25 H :   -0.006341
  26 H :   -0.016955
  27 H :   -0.013387
  28 H :   -0.059857
  29 H :   -0.064278
  30 H :   -0.003046
  31 H :   -0.021440
  32 H :   -0.018535
  33 H :   -0.035204
  34 H :   -0.153473
  35 H :   -0.025964

  Mayer bond orders larger than 0.100000
B(  0-C ,  1-C ) :   0.9519 B(  0-C , 20-H ) :   0.9654 B(  0-C , 21-H ) :   0.9803
B(  0-C , 22-H ) :   0.9757 B(  1-C ,  2-O ) :   0.9228 B(  1-C , 23-H ) :   0.9803
B(  1-C , 24-H ) :   0.9812 B(  2-O ,  3-C ) :   1.1178 B(  3-C ,  4-O ) :   2.0883
B(  3-C ,  5-C ) :   0.9246 B(  5-C ,  6-C ) :   1.7112 B(  5-C , 12-C ) :   0.9465
B(  6-C ,  7-C ) :   0.9420 B(  6-C ,  8-N ) :   1.1054 B(  7-C , 25-H ) :   0.9639
B(  7-C , 26-H ) :   0.9747 B(  7-C , 27-H ) :   0.9822 B(  8-N ,  9-C ) :   1.2053
B(  8-N , 28-H ) :   0.9522 B(  9-C , 10-S ) :   1.6001 B(  9-C , 11-N ) :   1.2878
B( 11-N , 12-C ) :   0.9826 B( 11-N , 29-H ) :   0.9440 B( 12-C , 13-C ) :   0.9591
B( 12-C , 30-H ) :   0.9944 B( 13-C , 14-C ) :   1.3879 B( 13-C , 19-C ) :   1.3360
B( 14-C , 15-C ) :   1.4051 B( 14-C , 31-H ) :   0.9619 B( 15-C , 16-C ) :   1.3548
B( 15-C , 32-H ) :   0.9698 B( 16-C , 17-C ) :   1.3354 B( 16-C , 33-H ) :   0.9849
B( 17-C , 18-O ) :   1.1064 B( 17-C , 19-C ) :   1.3631 B( 18-O , 34-H ) :   0.9797
B( 19-C , 35-H ) :   0.9574

MP2 TOTAL ENERGY:    -1274.312956481 Eh
FINAL SINGLE POINT ENERGY     -1274.312956481408

DIPOLE MOMENT
-------------
                                X             Y             Z
Electronic contribution:      9.42944       5.17584       6.87042
Nuclear contribution   :    -11.05381      -6.41657      -7.63120
                        -----------------------------------------
Total Dipole Moment    :     -1.62437      -1.24074      -0.76078
                        -----------------------------------------
Magnitude (a.u.)       :      2.18101
Magnitude (Debye)      :      5.54367

Rotational constants in cm-1:     0.012139     0.009299     0.006682
Rotational constants in MHz :   363.917415   278.791112   200.333692

                             ****ORCA TERMINATED NORMALLY****
TOTAL RUN TIME: 0 days 2 hours 13 minutes 21 seconds 626 msec
