                         Program Version 5.0.0 -  RELEASE  -
|  1> ! ri-mp2 cc-pvtz cc-pvtz/c TightSCF NoKeepInts
|  2>
|  3> %scf
|  4>   MaxCore 4096
|  5> end
|  6> *xyz  0  1
|  7>     C       16.1075718   13.3635700   15.4141115
|  8>     C       15.3592237   14.5105071   16.1137752
|  9>     O       16.3482641   15.3331883   16.7571971
| 10>     C       16.1943320   16.6914544   16.8030958
| 11>     O       15.2775875   17.2672886   16.2418290
| 12>     C       17.2697090   17.3683698   17.6076749
| 13>     C       17.3595105   18.7185008   17.7146048
| 14>     C       16.4460037   19.7506998   17.0888915
| 15>     N       18.4057770   19.2963126   18.4401187
| 16>     C       19.4521818   18.6060949   18.9912747
| 17>     S       20.7044604   19.3750814   19.7504582
| 18>     N       19.4106384   17.2397716   18.8794344
| 19>     C       18.2791707   16.4659572   18.3361756
| 20>     C       17.6188941   15.6623203   19.4529669
| 21>     C       17.6581994   14.2553119   19.4392742
| 22>     C       17.0498983   13.5128945   20.4654119
| 23>     C       16.3991897   14.1823636   21.5158214
| 24>     C       16.3611685   15.5833751   21.5345040
| 25>     O       15.7340904   16.2326129   22.5475925
| 26>     C       16.9671209   16.3194873   20.5117152
| 27>     H       15.4004199   12.6991448   14.9027720
| 28>     H       16.6723079   12.7692058   16.1429679
| 29>     H       16.8088976   13.7577938   14.6681281
| 30>     H       14.7995198   15.0721476   15.3534041
| 31>     H       14.6476433   14.1209429   16.8534057
| 32>     H       15.4157781   19.6178400   17.4434064
| 33>     H       16.4324458   19.6431271   15.9968443
| 34>     H       16.7433901   20.7811162   17.3160171
| 35>     H       18.4533880   20.2985499   18.5311669
| 36>     H       20.1767351   16.7559993   19.3298696
| 37>     H       18.6913023   15.7626668   17.5989525
| 38>     H       18.1550732   13.7353238   18.6246879
| 39>     H       17.0832022   12.4250776   20.4442588
| 40>     H       15.9279405   13.6135335   22.3105288
| 41>     H       15.4035201   15.5613956   23.1631543
| 42>     H       16.9324440   17.4029733   20.5485081
| 43> *
| 44>
| 45>                          ****END OF INPUT****

CARTESIAN COORDINATES (ANGSTROEM)
---------------------------------
  C     16.107572   13.363570   15.414111
  C     15.359224   14.510507   16.113775
  O     16.348264   15.333188   16.757197
  C     16.194332   16.691454   16.803096
  O     15.277587   17.267289   16.241829
  C     17.269709   17.368370   17.607675
  C     17.359510   18.718501   17.714605
  C     16.446004   19.750700   17.088891
  N     18.405777   19.296313   18.440119
  C     19.452182   18.606095   18.991275
  S     20.704460   19.375081   19.750458
  N     19.410638   17.239772   18.879434
  C     18.279171   16.465957   18.336176
  C     17.618894   15.662320   19.452967
  C     17.658199   14.255312   19.439274
  C     17.049898   13.512894   20.465412
  C     16.399190   14.182364   21.515821
  C     16.361169   15.583375   21.534504
  O     15.734090   16.232613   22.547593
  C     16.967121   16.319487   20.511715
  H     15.400420   12.699145   14.902772
  H     16.672308   12.769206   16.142968
  H     16.808898   13.757794   14.668128
  H     14.799520   15.072148   15.353404
  H     14.647643   14.120943   16.853406
  H     15.415778   19.617840   17.443406
  H     16.432446   19.643127   15.996844
  H     16.743390   20.781116   17.316017
  H     18.453388   20.298550   18.531167
  H     20.176735   16.755999   19.329870
  H     18.691302   15.762667   17.598952
  H     18.155073   13.735324   18.624688
  H     17.083202   12.425078   20.444259
  H     15.927941   13.613534   22.310529
  H     15.403520   15.561396   23.163154
  H     16.932444   17.402973   20.548508

 Total Charge           Charge          ....    0
 Multiplicity           Mult            ....    1
 Number of Electrons    NEL             ....  154
 Basis Dimension        Dim             ....  828

ORBITAL ENERGIES
----------------

  NO   OCC          E(Eh)            E(eV)
   0   2.0000     -91.888593     -2500.4157
   1   2.0000     -20.603025      -560.6368
   2   2.0000     -20.595273      -560.4259
   3   2.0000     -20.541174      -558.9538
   4   2.0000     -15.628739      -425.2796
   5   2.0000     -15.607889      -424.7123
   6   2.0000     -11.395110      -310.0767
   7   2.0000     -11.383661      -309.7652
   8   2.0000     -11.335658      -308.4589
   9   2.0000     -11.312331      -307.8242
  10   2.0000     -11.308415      -307.7176
  11   2.0000     -11.295942      -307.3782
  12   2.0000     -11.258703      -306.3649
  13   2.0000     -11.258381      -306.3561
  14   2.0000     -11.253824      -306.2321
  15   2.0000     -11.251623      -306.1722
  16   2.0000     -11.241796      -305.9048
  17   2.0000     -11.237340      -305.7836
  18   2.0000     -11.237107      -305.7772
  19   2.0000     -11.231865      -305.6346
  20   2.0000      -8.893655      -242.0087
  21   2.0000      -6.575230      -178.9211
  22   2.0000      -6.573225      -178.8666
  23   2.0000      -6.572638      -178.8506
  24   2.0000      -1.451677       -39.5021
  25   2.0000      -1.414932       -38.5022
  26   2.0000      -1.355051       -36.8728
  27   2.0000      -1.339694       -36.4549
  28   2.0000      -1.238088       -33.6901
  29   2.0000      -1.156500       -31.4700
  30   2.0000      -1.119940       -30.4751
  31   2.0000      -1.043526       -28.3958
  32   2.0000      -1.039902       -28.2972
  33   2.0000      -1.013829       -27.5877
  34   2.0000      -0.995504       -27.0890
  35   2.0000      -0.984042       -26.7771
  36   2.0000      -0.921890       -25.0859
  37   2.0000      -0.890172       -24.2228
  38   2.0000      -0.846329       -23.0298
  39   2.0000      -0.836540       -22.7634
  40   2.0000      -0.832811       -22.6619
  41   2.0000      -0.817145       -22.2356
  42   2.0000      -0.765306       -20.8250
  43   2.0000      -0.731435       -19.9034
  44   2.0000      -0.721169       -19.6240
  45   2.0000      -0.694446       -18.8968
  46   2.0000      -0.685722       -18.6595
  47   2.0000      -0.679626       -18.4936
  48   2.0000      -0.677475       -18.4350
  49   2.0000      -0.661734       -18.0067
  50   2.0000      -0.645634       -17.5686
  51   2.0000      -0.644458       -17.5366
  52   2.0000      -0.635011       -17.2795
  53   2.0000      -0.605492       -16.4763
  54   2.0000      -0.600247       -16.3336
  55   2.0000      -0.597937       -16.2707
  56   2.0000      -0.594948       -16.1893
  57   2.0000      -0.577230       -15.7072
  58   2.0000      -0.570337       -15.5197
  59   2.0000      -0.569245       -15.4899
  60   2.0000      -0.562165       -15.2973
  61   2.0000      -0.549828       -14.9616
  62   2.0000      -0.540006       -14.6943
  63   2.0000      -0.526003       -14.3133
  64   2.0000      -0.524014       -14.2592
  65   2.0000      -0.512904       -13.9568
  66   2.0000      -0.501589       -13.6489
  67   2.0000      -0.497612       -13.5407
  68   2.0000      -0.484652       -13.1881
  69   2.0000      -0.464628       -12.6432
  70   2.0000      -0.458436       -12.4747
  71   2.0000      -0.447642       -12.1810
  72   2.0000      -0.354052        -9.6342
  73   2.0000      -0.348300        -9.4777
  74   2.0000      -0.327874        -8.9219
  75   2.0000      -0.320036        -8.7086
  76   2.0000      -0.315562        -8.5869
  77   0.0000       0.076780         2.0893
  78   0.0000       0.107795         2.9332
  79   0.0000       0.123902         3.3715
  80   0.0000       0.132299         3.6000
  81   0.0000       0.135952         3.6995

MULLIKEN ATOMIC CHARGES
-----------------------
   0 C :   -0.265116
   1 C :    0.018680
   2 O :   -0.343106
   3 C :    0.470117
   4 O :   -0.435305
   5 C :   -0.220502
   6 C :    0.148567
   7 C :   -0.274809
   8 N :   -0.120327
   9 C :    0.209988
  10 S :   -0.439906
  11 N :   -0.202546
  12 C :    0.044210
  13 C :    0.067525
  14 C :   -0.179007
  15 C :   -0.133429
  16 C :   -0.277757
  17 C :    0.315819
  18 O :   -0.356777
  19 C :   -0.269183
  20 H :    0.094403
  21 H :    0.090882
  22 H :    0.096139
  23 H :    0.121765
  24 H :    0.096956
  25 H :    0.132405
  26 H :    0.130620
  27 H :    0.094754
  28 H :    0.197312
  29 H :    0.194256
  30 H :    0.151129
  31 H :    0.148924
  32 H :    0.159074
  33 H :    0.129180
  34 H :    0.240477
  35 H :    0.164588
Sum of atomic charges:    0.0000000

LOEWDIN ATOMIC CHARGES
----------------------
   0 C :    0.105046
   1 C :   -0.012442
   2 O :    0.310884
   3 C :   -0.413141
   4 O :    0.094804
   5 C :   -0.094405
   6 C :   -0.058938
   7 C :    0.131446
   8 N :    0.406487
   9 C :   -0.456839
  10 S :   -0.035575
  11 N :    0.396601
  12 C :   -0.052903
  13 C :   -0.038915
  14 C :    0.014075
  15 C :    0.038914
  16 C :   -0.001387
  17 C :   -0.189523
  18 O :    0.395021
  19 C :    0.031692
  20 H :   -0.024596
  21 H :   -0.030749
  22 H :   -0.026439
  23 H :   -0.027319
  24 H :   -0.029525
  25 H :   -0.004382
  26 H :   -0.004124
  27 H :   -0.023506
  28 H :   -0.057612
  29 H :   -0.064541
  30 H :   -0.011513
  31 H :   -0.031318
  32 H :   -0.021706
  33 H :   -0.035727
  34 H :   -0.154104
  35 H :   -0.023741

  Mayer bond orders larger than 0.100000
B(  0-C ,  1-C ) :   0.9721 B(  0-C , 20-H ) :   0.9771 B(  0-C , 21-H ) :   0.9795
B(  0-C , 22-H ) :   0.9772 B(  1-C ,  2-O ) :   0.8922 B(  1-C , 23-H ) :   0.9767
B(  1-C , 24-H ) :   0.9778 B(  2-O ,  3-C ) :   1.1820 B(  3-C ,  4-O ) :   1.9701
B(  3-C ,  5-C ) :   1.0539 B(  5-C ,  6-C ) :   1.6587 B(  5-C , 12-C ) :   0.9711
B(  6-C ,  7-C ) :   0.9676 B(  6-C ,  8-N ) :   1.1648 B(  7-C , 25-H ) :   0.9607
B(  7-C , 26-H ) :   0.9602 B(  7-C , 27-H ) :   0.9903 B(  8-N ,  9-C ) :   1.1826
B(  8-N , 28-H ) :   0.9480 B(  9-C , 10-S ) :   1.6080 B(  9-C , 11-N ) :   1.3043
B( 11-N , 12-C ) :   0.9900 B( 11-N , 29-H ) :   0.9517 B( 12-C , 13-C ) :   0.9362
B( 12-C , 30-H ) :   1.0040 B( 13-C , 14-C ) :   1.3568 B( 13-C , 19-C ) :   1.3817
B( 14-C , 15-C ) :   1.3925 B( 14-C , 31-H ) :   0.9708 B( 15-C , 16-C ) :   1.3641
B( 15-C , 32-H ) :   0.9710 B( 16-C , 17-C ) :   1.3322 B( 16-C , 33-H ) :   0.9853
B( 17-C , 18-O ) :   1.1098 B( 17-C , 19-C ) :   1.3738 B( 18-O , 34-H ) :   0.9801
B( 19-C , 35-H ) :   0.9583

MP2 TOTAL ENERGY:    -1274.350817164 Eh
FINAL SINGLE POINT ENERGY     -1274.350817164114

DIPOLE MOMENT
-------------
                                X             Y             Z
Electronic contribution:      8.86505      10.37351       9.18848
Nuclear contribution   :    -10.09768     -11.94947      -9.59549
                        -----------------------------------------
Total Dipole Moment    :     -1.23263      -1.57596      -0.40701
                        -----------------------------------------
Magnitude (a.u.)       :      2.04173
Magnitude (Debye)      :      5.18967

Rotational constants in cm-1:     0.011040     0.008609     0.006119
Rotational constants in MHz :   330.965543   258.081469   183.437502

                             ****ORCA TERMINATED NORMALLY****
TOTAL RUN TIME: 0 days 1 hours 40 minutes 46 seconds 429 msec
