                         Program Version 5.0.0 -  RELEASE  -
|  1> ! ri-mp2 cc-pvtz cc-pvtz/c TightSCF NoKeepInts
|  2>
|  3> %scf
|  4>   MaxCore 4096
|  5> end
|  6> *xyz  0  1
|  7>     C       14.5092517   15.5130649   16.9987036
|  8>     C       15.8232852   14.7933825   16.6513797
|  9>     O       16.6476630   15.7075865   15.9056691
| 10>     C       17.9186747   15.9027839   16.3567068
| 11>     O       18.6870178   14.9592530   16.4313100
| 12>     C       17.9619905   17.0072186   17.3663384
| 13>     C       17.3255695   18.1906631   17.1908965
| 14>     C       16.5279745   18.6254113   15.9794051
| 15>     N       17.4383157   19.1912067   18.1603023
| 16>     C       18.2665915   19.1305564   19.2508026
| 17>     S       18.4229413   20.4022604   20.2963877
| 18>     N       18.9592729   17.9588604   19.4321790
| 19>     C       18.7694011   16.7304385   18.6365469
| 20>     C       18.0888740   15.6488913   19.4703879
| 21>     C       18.6632288   14.3698516   19.5857788
| 22>     C       18.0231496   13.3616573   20.3258019
| 23>     C       16.7957485   13.6326964   20.9541441
| 24>     C       16.2180325   14.9040539   20.8379659
| 25>     O       15.0258099   15.1653973   21.4303059
| 26>     C       16.8579881   15.9057378   20.1018779
| 27>     H       14.7004189   16.3753689   17.6491702
| 28>     H       13.8303168   14.8335771   17.5282415
| 29>     H       14.0055108   15.8631089   16.0892503
| 30>     H       16.3180969   14.4662696   17.5766118
| 31>     H       15.6164616   13.9026536   16.0441150
| 32>     H       15.5026861   18.2395822   16.0295179
| 33>     H       16.9797749   18.2498280   15.0527649
| 34>     H       16.4732882   19.7170763   15.8875511
| 35>     H       16.9402484   20.0593834   18.0432968
| 36>     H       19.5412792   17.9322343   20.2596557
| 37>     H       19.7620986   16.3662602   18.3343345
| 38>     H       19.6011722   14.1510286   19.0806936
| 39>     H       18.4756741   12.3744464   20.4025877
| 40>     H       16.2964854   12.8553600   21.5231418
| 41>     H       14.7796882   14.3822793   21.9456370
| 42>     H       16.3930185   16.8825711   20.0245402
| 43> *
| 44>
| 45>                          ****END OF INPUT****

CARTESIAN COORDINATES (ANGSTROEM)
---------------------------------
  C     14.509252   15.513065   16.998704
  C     15.823285   14.793382   16.651380
  O     16.647663   15.707586   15.905669
  C     17.918675   15.902784   16.356707
  O     18.687018   14.959253   16.431310
  C     17.961990   17.007219   17.366338
  C     17.325570   18.190663   17.190897
  C     16.527974   18.625411   15.979405
  N     17.438316   19.191207   18.160302
  C     18.266592   19.130556   19.250803
  S     18.422941   20.402260   20.296388
  N     18.959273   17.958860   19.432179
  C     18.769401   16.730439   18.636547
  C     18.088874   15.648891   19.470388
  C     18.663229   14.369852   19.585779
  C     18.023150   13.361657   20.325802
  C     16.795748   13.632696   20.954144
  C     16.218032   14.904054   20.837966
  O     15.025810   15.165397   21.430306
  C     16.857988   15.905738   20.101878
  H     14.700419   16.375369   17.649170
  H     13.830317   14.833577   17.528242
  H     14.005511   15.863109   16.089250
  H     16.318097   14.466270   17.576612
  H     15.616462   13.902654   16.044115
  H     15.502686   18.239582   16.029518
  H     16.979775   18.249828   15.052765
  H     16.473288   19.717076   15.887551
  H     16.940248   20.059383   18.043297
  H     19.541279   17.932234   20.259656
  H     19.762099   16.366260   18.334335
  H     19.601172   14.151029   19.080694
  H     18.475674   12.374446   20.402588
  H     16.296485   12.855360   21.523142
  H     14.779688   14.382279   21.945637
  H     16.393019   16.882571   20.024540

 Total Charge           Charge          ....    0
 Multiplicity           Mult            ....    1
 Number of Electrons    NEL             ....  154
 Basis Dimension        Dim             ....  828

ORBITAL ENERGIES
----------------

  NO   OCC          E(Eh)            E(eV)
   0   2.0000     -91.889648     -2500.4445
   1   2.0000     -20.598906      -560.5247
   2   2.0000     -20.579471      -559.9959
   3   2.0000     -20.557512      -559.3983
   4   2.0000     -15.628777      -425.2806
   5   2.0000     -15.609626      -424.7595
   6   2.0000     -11.393748      -310.0396
   7   2.0000     -11.385377      -309.8119
   8   2.0000     -11.332076      -308.3615
   9   2.0000     -11.315304      -307.9051
  10   2.0000     -11.310830      -307.7833
  11   2.0000     -11.297358      -307.4167
  12   2.0000     -11.260760      -306.4209
  13   2.0000     -11.260476      -306.4131
  14   2.0000     -11.259959      -306.3991
  15   2.0000     -11.255487      -306.2774
  16   2.0000     -11.245210      -305.9977
  17   2.0000     -11.240640      -305.8734
  18   2.0000     -11.238059      -305.8031
  19   2.0000     -11.230238      -305.5903
  20   2.0000      -8.894726      -242.0378
  21   2.0000      -6.576304      -178.9503
  22   2.0000      -6.574294      -178.8956
  23   2.0000      -6.573709      -178.8797
  24   2.0000      -1.452217       -39.5168
  25   2.0000      -1.418672       -38.6040
  26   2.0000      -1.355650       -36.8891
  27   2.0000      -1.340201       -36.4687
  28   2.0000      -1.238827       -33.7102
  29   2.0000      -1.159361       -31.5478
  30   2.0000      -1.122664       -30.5492
  31   2.0000      -1.046682       -28.4817
  32   2.0000      -1.033825       -28.1318
  33   2.0000      -1.016805       -27.6687
  34   2.0000      -1.000688       -27.2301
  35   2.0000      -0.986862       -26.8539
  36   2.0000      -0.925193       -25.1758
  37   2.0000      -0.883073       -24.0296
  38   2.0000      -0.848835       -23.0980
  39   2.0000      -0.840584       -22.8734
  40   2.0000      -0.835400       -22.7324
  41   2.0000      -0.826413       -22.4878
  42   2.0000      -0.756547       -20.5867
  43   2.0000      -0.735894       -20.0247
  44   2.0000      -0.729990       -19.8640
  45   2.0000      -0.697020       -18.9669
  46   2.0000      -0.686986       -18.6938
  47   2.0000      -0.680767       -18.5246
  48   2.0000      -0.675851       -18.3908
  49   2.0000      -0.657069       -17.8798
  50   2.0000      -0.655749       -17.8438
  51   2.0000      -0.644561       -17.5394
  52   2.0000      -0.637202       -17.3392
  53   2.0000      -0.607954       -16.5433
  54   2.0000      -0.605989       -16.4898
  55   2.0000      -0.603156       -16.4127
  56   2.0000      -0.599643       -16.3171
  57   2.0000      -0.578999       -15.7554
  58   2.0000      -0.575859       -15.6699
  59   2.0000      -0.571828       -15.5602
  60   2.0000      -0.561881       -15.2896
  61   2.0000      -0.550368       -14.9763
  62   2.0000      -0.545063       -14.8319
  63   2.0000      -0.524363       -14.2687
  64   2.0000      -0.514941       -14.0122
  65   2.0000      -0.509149       -13.8546
  66   2.0000      -0.505917       -13.7667
  67   2.0000      -0.499788       -13.5999
  68   2.0000      -0.482790       -13.1374
  69   2.0000      -0.466670       -12.6987
  70   2.0000      -0.454989       -12.3809
  71   2.0000      -0.452527       -12.3139
  72   2.0000      -0.355152        -9.6642
  73   2.0000      -0.350669        -9.5422
  74   2.0000      -0.329086        -8.9549
  75   2.0000      -0.322916        -8.7870
  76   2.0000      -0.316539        -8.6135
  77   0.0000       0.069542         1.8923
  78   0.0000       0.101078         2.7505
  79   0.0000       0.118898         3.2354
  80   0.0000       0.128683         3.5016
  81   0.0000       0.134189         3.6515

MULLIKEN ATOMIC CHARGES
-----------------------
   0 C :   -0.302656
   1 C :    0.037636
   2 O :   -0.380478
   3 C :    0.456796
   4 O :   -0.389472
   5 C :   -0.193246
   6 C :    0.121690
   7 C :   -0.283092
   8 N :   -0.124343
   9 C :    0.199516
  10 S :   -0.438990
  11 N :   -0.200760
  12 C :    0.056825
  13 C :    0.014332
  14 C :   -0.150441
  15 C :   -0.135807
  16 C :   -0.277613
  17 C :    0.312898
  18 O :   -0.360634
  19 C :   -0.274572
  20 H :    0.095873
  21 H :    0.113678
  22 H :    0.104830
  23 H :    0.103122
  24 H :    0.116916
  25 H :    0.125962
  26 H :    0.123801
  27 H :    0.108611
  28 H :    0.197482
  29 H :    0.194129
  30 H :    0.157066
  31 H :    0.158901
  32 H :    0.162157
  33 H :    0.132630
  34 H :    0.241668
  35 H :    0.175587
Sum of atomic charges:   -0.0000000

LOEWDIN ATOMIC CHARGES
----------------------
   0 C :    0.104349
   1 C :   -0.010834
   2 O :    0.284617
   3 C :   -0.420660
   4 O :    0.134651
   5 C :   -0.094000
   6 C :   -0.079067
   7 C :    0.127382
   8 N :    0.404016
   9 C :   -0.457300
  10 S :   -0.035915
  11 N :    0.396903
  12 C :   -0.044988
  13 C :   -0.043498
  14 C :    0.020998
  15 C :    0.042618
  16 C :   -0.001669
  17 C :   -0.194875
  18 O :    0.394446
  19 C :    0.029099
  20 H :   -0.031339
  21 H :   -0.022310
  22 H :   -0.028976
  23 H :   -0.025818
  24 H :   -0.027268
  25 H :   -0.011182
  26 H :   -0.007762
  27 H :   -0.018534
  28 H :   -0.058548
  29 H :   -0.064182
  30 H :   -0.004107
  31 H :   -0.023801
  32 H :   -0.019471
  33 H :   -0.034877
  34 H :   -0.153327
  35 H :   -0.024772

  Mayer bond orders larger than 0.100000
B(  0-C ,  1-C ) :   0.9697 B(  0-C , 20-H ) :   0.9749 B(  0-C , 21-H ) :   0.9779
B(  0-C , 22-H ) :   0.9763 B(  1-C ,  2-O ) :   0.8843 B(  1-C , 23-H ) :   0.9661
B(  1-C , 24-H ) :   0.9864 B(  2-O ,  3-C ) :   1.0872 B(  3-C ,  4-O ) :   2.0432
B(  3-C ,  5-C ) :   1.0081 B(  5-C ,  6-C ) :   1.6754 B(  5-C , 12-C ) :   0.9621
B(  6-C ,  7-C ) :   0.9540 B(  6-C ,  8-N ) :   1.1325 B(  7-C , 25-H ) :   0.9620
B(  7-C , 26-H ) :   0.9717 B(  7-C , 27-H ) :   0.9872 B(  8-N ,  9-C ) :   1.1862
B(  8-N , 28-H ) :   0.9501 B(  9-C , 10-S ) :   1.6127 B(  9-C , 11-N ) :   1.2965
B( 11-N , 12-C ) :   0.9940 B( 11-N , 29-H ) :   0.9518 B( 12-C , 13-C ) :   0.9446
B( 12-C , 30-H ) :   0.9976 B( 13-C , 14-C ) :   1.3837 B( 13-C , 19-C ) :   1.3614
B( 14-C , 15-C ) :   1.3933 B( 14-C , 31-H ) :   0.9630 B( 15-C , 16-C ) :   1.3643
B( 15-C , 32-H ) :   0.9709 B( 16-C , 17-C ) :   1.3300 B( 16-C , 33-H ) :   0.9842
B( 17-C , 18-O ) :   1.1075 B( 17-C , 19-C ) :   1.3741 B( 18-O , 34-H ) :   0.9796
B( 19-C , 35-H ) :   0.9557

MP2 TOTAL ENERGY:    -1274.319969587 Eh
FINAL SINGLE POINT ENERGY     -1274.319969587287

DIPOLE MOMENT
-------------
                                X             Y             Z
Electronic contribution:     10.73571       7.28485       5.99561
Nuclear contribution   :    -11.91422      -8.56481      -6.48832
                        -----------------------------------------
Total Dipole Moment    :     -1.17850      -1.27997      -0.49271
                        -----------------------------------------
Magnitude (a.u.)       :      1.80830
Magnitude (Debye)      :      4.59634

Rotational constants in cm-1:     0.012134     0.009337     0.007099
Rotational constants in MHz :   363.755008   279.919989   212.833154

                             ****ORCA TERMINATED NORMALLY****
TOTAL RUN TIME: 0 days 2 hours 9 minutes 2 seconds 877 msec
