                         Program Version 5.0.0 -  RELEASE  -
|  1> ! ri-mp2 cc-pvtz cc-pvtz/c TightSCF NoKeepInts
|  2>
|  3> %scf
|  4>   MaxCore 4096
|  5> end
|  6> *xyz  0  1
|  7>     C       15.1761493   13.9168832   15.5297278
|  8>     C       15.8765391   14.2506887   16.8624683
|  9>     O       16.9644252   15.1663723   16.6312181
| 10>     C       16.7169340   16.5070964   16.5237111
| 11>     O       15.7370675   16.9403130   15.9432940
| 12>     C       17.5356213   17.3188181   17.4914151
| 13>     C       17.4283130   18.6695054   17.5782633
| 14>     C       16.5216675   19.5720733   16.7686965
| 15>     N       18.2409064   19.3825669   18.4647318
| 16>     C       19.2549696   18.8401556   19.2077318
| 17>     S       20.2375562   19.7704512   20.1590049
| 18>     N       19.4195724   17.4816765   19.1185336
| 19>     C       18.5163994   16.5617164   18.4038992
| 20>     C       17.7959370   15.6701679   19.4117328
| 21>     C       18.1445545   14.3120202   19.5358343
| 22>     C       17.4772278   13.4834672   20.4535530
| 23>     C       16.4557503   14.0178899   21.2571720
| 24>     C       16.1114122   15.3716635   21.1419254
| 25>     O       15.1268643   15.8910112   21.9175256
| 26>     C       16.7761996   16.1933544   20.2265780
| 27>     H       14.6481348   14.7884410   15.1246744
| 28>     H       14.4389747   13.1184316   15.6761259
| 29>     H       15.9052761   13.5771133   14.7839901
| 30>     H       15.1597789   14.6720336   17.5806462
| 31>     H       16.2776043   13.3232382   17.2908018
| 32>     H       15.4683283   19.3549410   16.9880134
| 33>     H       16.6717541   19.4084280   15.6939852
| 34>     H       16.6896029   20.6374084   16.9653992
| 35>     H       18.1356164   20.3816405   18.5413917
| 36>     H       20.1528051   17.1068868   19.7065166
| 37>     H       19.1399140   15.9240450   17.7613972
| 38>     H       18.9316666   13.8955780   18.9127188
| 39>     H       17.7534984   12.4340280   20.5416130
| 40>     H       15.9384944   13.3825749   21.9687644
| 41>     H       14.8226743   15.1895746   22.5128916
| 42>     H       16.4988100   17.2397457   20.1580538
| 43> *
| 44>
| 45>                          ****END OF INPUT****

CARTESIAN COORDINATES (ANGSTROEM)
---------------------------------
  C     15.176149   13.916883   15.529728
  C     15.876539   14.250689   16.862468
  O     16.964425   15.166372   16.631218
  C     16.716934   16.507096   16.523711
  O     15.737067   16.940313   15.943294
  C     17.535621   17.318818   17.491415
  C     17.428313   18.669505   17.578263
  C     16.521667   19.572073   16.768697
  N     18.240906   19.382567   18.464732
  C     19.254970   18.840156   19.207732
  S     20.237556   19.770451   20.159005
  N     19.419572   17.481676   19.118534
  C     18.516399   16.561716   18.403899
  C     17.795937   15.670168   19.411733
  C     18.144555   14.312020   19.535834
  C     17.477228   13.483467   20.453553
  C     16.455750   14.017890   21.257172
  C     16.111412   15.371663   21.141925
  O     15.126864   15.891011   21.917526
  C     16.776200   16.193354   20.226578
  H     14.648135   14.788441   15.124674
  H     14.438975   13.118432   15.676126
  H     15.905276   13.577113   14.783990
  H     15.159779   14.672034   17.580646
  H     16.277604   13.323238   17.290802
  H     15.468328   19.354941   16.988013
  H     16.671754   19.408428   15.693985
  H     16.689603   20.637408   16.965399
  H     18.135616   20.381640   18.541392
  H     20.152805   17.106887   19.706517
  H     19.139914   15.924045   17.761397
  H     18.931667   13.895578   18.912719
  H     17.753498   12.434028   20.541613
  H     15.938494   13.382575   21.968764
  H     14.822674   15.189575   22.512892
  H     16.498810   17.239746   20.158054

 Total Charge           Charge          ....    0
 Multiplicity           Mult            ....    1
 Number of Electrons    NEL             ....  154
 Basis Dimension        Dim             ....  828

ORBITAL ENERGIES
----------------

  NO   OCC          E(Eh)            E(eV)
   0   2.0000     -91.889384     -2500.4373
   1   2.0000     -20.598997      -560.5272
   2   2.0000     -20.590704      -560.3015
   3   2.0000     -20.545756      -559.0785
   4   2.0000     -15.629639      -425.3041
   5   2.0000     -15.608803      -424.7371
   6   2.0000     -11.395468      -310.0864
   7   2.0000     -11.384471      -309.7872
   8   2.0000     -11.336145      -308.4722
   9   2.0000     -11.316483      -307.9372
  10   2.0000     -11.310025      -307.7614
  11   2.0000     -11.296974      -307.4063
  12   2.0000     -11.261977      -306.4540
  13   2.0000     -11.259072      -306.3749
  14   2.0000     -11.257892      -306.3428
  15   2.0000     -11.252892      -306.2068
  16   2.0000     -11.245414      -306.0033
  17   2.0000     -11.240534      -305.8705
  18   2.0000     -11.240312      -305.8644
  19   2.0000     -11.216939      -305.2284
  20   2.0000      -8.894446      -242.0302
  21   2.0000      -6.576020      -178.9426
  22   2.0000      -6.574015      -178.8880
  23   2.0000      -6.573428      -178.8721
  24   2.0000      -1.448651       -39.4198
  25   2.0000      -1.418656       -38.6036
  26   2.0000      -1.354725       -36.8639
  27   2.0000      -1.340686       -36.4819
  28   2.0000      -1.239266       -33.7222
  29   2.0000      -1.159668       -31.5562
  30   2.0000      -1.120675       -30.4951
  31   2.0000      -1.044094       -28.4113
  32   2.0000      -1.032366       -28.0921
  33   2.0000      -1.017597       -27.6902
  34   2.0000      -0.995670       -27.0936
  35   2.0000      -0.984210       -26.7817
  36   2.0000      -0.923676       -25.1345
  37   2.0000      -0.887447       -24.1487
  38   2.0000      -0.848186       -23.0803
  39   2.0000      -0.839895       -22.8547
  40   2.0000      -0.836198       -22.7541
  41   2.0000      -0.822611       -22.3844
  42   2.0000      -0.754722       -20.5370
  43   2.0000      -0.733333       -19.9550
  44   2.0000      -0.721957       -19.6454
  45   2.0000      -0.697828       -18.9889
  46   2.0000      -0.689426       -18.7602
  47   2.0000      -0.680271       -18.5111
  48   2.0000      -0.670403       -18.2426
  49   2.0000      -0.655690       -17.8422
  50   2.0000      -0.648076       -17.6350
  51   2.0000      -0.646412       -17.5898
  52   2.0000      -0.633878       -17.2487
  53   2.0000      -0.609501       -16.5854
  54   2.0000      -0.603472       -16.4213
  55   2.0000      -0.600174       -16.3316
  56   2.0000      -0.596730       -16.2378
  57   2.0000      -0.582154       -15.8412
  58   2.0000      -0.575271       -15.6539
  59   2.0000      -0.571093       -15.5402
  60   2.0000      -0.564529       -15.3616
  61   2.0000      -0.539130       -14.6705
  62   2.0000      -0.534988       -14.5578
  63   2.0000      -0.526828       -14.3357
  64   2.0000      -0.516458       -14.0535
  65   2.0000      -0.512786       -13.9536
  66   2.0000      -0.502164       -13.6646
  67   2.0000      -0.498305       -13.5596
  68   2.0000      -0.486959       -13.2508
  69   2.0000      -0.463800       -12.6206
  70   2.0000      -0.455589       -12.3972
  71   2.0000      -0.442545       -12.0423
  72   2.0000      -0.354604        -9.6493
  73   2.0000      -0.351695        -9.5701
  74   2.0000      -0.329021        -8.9531
  75   2.0000      -0.323851        -8.8124
  76   2.0000      -0.316777        -8.6199
  77   0.0000       0.072730         1.9791
  78   0.0000       0.103337         2.8120
  79   0.0000       0.124079         3.3764
  80   0.0000       0.131074         3.5667
  81   0.0000       0.136403         3.7117

MULLIKEN ATOMIC CHARGES
-----------------------
   0 C :   -0.279930
   1 C :    0.038866
   2 O :   -0.374784
   3 C :    0.464128
   4 O :   -0.421685
   5 C :   -0.230361
   6 C :    0.157883
   7 C :   -0.271283
   8 N :   -0.122463
   9 C :    0.213967
  10 S :   -0.440125
  11 N :   -0.207137
  12 C :    0.068899
  13 C :    0.055755
  14 C :   -0.196071
  15 C :   -0.125778
  16 C :   -0.281359
  17 C :    0.314948
  18 O :   -0.355921
  19 C :   -0.264593
  20 H :    0.121540
  21 H :    0.089428
  22 H :    0.090851
  23 H :    0.095293
  24 H :    0.106536
  25 H :    0.132270
  26 H :    0.129692
  27 H :    0.095652
  28 H :    0.197376
  29 H :    0.194968
  30 H :    0.149768
  31 H :    0.150233
  32 H :    0.163453
  33 H :    0.131839
  34 H :    0.241251
  35 H :    0.166891
Sum of atomic charges:    0.0000000

LOEWDIN ATOMIC CHARGES
----------------------
   0 C :    0.104976
   1 C :   -0.016481
   2 O :    0.295238
   3 C :   -0.414196
   4 O :    0.111844
   5 C :   -0.096206
   6 C :   -0.059149
   7 C :    0.131177
   8 N :    0.406709
   9 C :   -0.456036
  10 S :   -0.035315
  11 N :    0.396122
  12 C :   -0.052276
  13 C :   -0.037162
  14 C :    0.014896
  15 C :    0.039702
  16 C :   -0.002496
  17 C :   -0.189947
  18 O :    0.395897
  19 C :    0.030707
  20 H :   -0.026715
  21 H :   -0.030423
  22 H :   -0.028830
  23 H :   -0.029054
  24 H :   -0.025527
  25 H :   -0.004809
  26 H :   -0.004154
  27 H :   -0.023189
  28 H :   -0.057487
  29 H :   -0.064815
  30 H :   -0.009910
  31 H :   -0.029815
  32 H :   -0.020851
  33 H :   -0.035222
  34 H :   -0.153368
  35 H :   -0.023835

  Mayer bond orders larger than 0.100000
B(  0-C ,  1-C ) :   0.9824 B(  0-C , 20-H ) :   0.9727 B(  0-C , 21-H ) :   0.9783
B(  0-C , 22-H ) :   0.9764 B(  1-C ,  2-O ) :   0.8818 B(  1-C , 23-H ) :   0.9694
B(  1-C , 24-H ) :   0.9793 B(  2-O ,  3-C ) :   1.1141 B(  3-C ,  4-O ) :   1.9789
B(  3-C ,  5-C ) :   1.0679 B(  5-C ,  6-C ) :   1.6498 B(  5-C , 12-C ) :   0.9716
B(  6-C ,  7-C ) :   0.9665 B(  6-C ,  8-N ) :   1.1614 B(  7-C , 25-H ) :   0.9592
B(  7-C , 26-H ) :   0.9614 B(  7-C , 27-H ) :   0.9908 B(  8-N ,  9-C ) :   1.1829
B(  8-N , 28-H ) :   0.9478 B(  9-C , 10-S ) :   1.6059 B(  9-C , 11-N ) :   1.3069
B( 11-N , 12-C ) :   0.9779 B( 11-N , 29-H ) :   0.9517 B( 12-C , 13-C ) :   0.9373
B( 12-C , 30-H ) :   1.0018 B( 13-C , 14-C ) :   1.3481 B( 13-C , 19-C ) :   1.3817
B( 14-C , 15-C ) :   1.3887 B( 14-C , 31-H ) :   0.9745 B( 15-C , 16-C ) :   1.3639
B( 15-C , 32-H ) :   0.9699 B( 16-C , 17-C ) :   1.3304 B( 16-C , 33-H ) :   0.9844
B( 17-C , 18-O ) :   1.1119 B( 17-C , 19-C ) :   1.3707 B( 18-O , 34-H ) :   0.9793
B( 19-C , 35-H ) :   0.9581

MP2 TOTAL ENERGY:    -1274.338127153 Eh
FINAL SINGLE POINT ENERGY     -1274.338127152831

DIPOLE MOMENT
-------------
                                X             Y             Z
Electronic contribution:     10.35675      10.02491       8.25637
Nuclear contribution   :    -11.34787     -11.61389      -8.38112
                        -----------------------------------------
Total Dipole Moment    :     -0.99112      -1.58897      -0.12474
                        -----------------------------------------
Magnitude (a.u.)       :      1.87689
Magnitude (Debye)      :      4.77067

Rotational constants in cm-1:     0.012060     0.008673     0.006199
Rotational constants in MHz :   361.555589   260.005362   185.838675

                             ****ORCA TERMINATED NORMALLY****
TOTAL RUN TIME: 0 days 2 hours 11 minutes 25 seconds 349 msec
