                         Program Version 5.0.0 -  RELEASE  -
|  1> ! ri-mp2 cc-pvtz cc-pvtz/c TightSCF NoKeepInts
|  2>
|  3> %scf
|  4>   MaxCore 4096
|  5> end
|  6> *xyz  0  1
|  7>     C       14.5051923   15.6214159   16.9151394
|  8>     C       15.8228727   14.8530744   16.7190909
|  9>     O       16.6919359   15.6337881   15.8765800
| 10>     C       17.9497153   15.8872025   16.3393208
| 11>     O       18.7563169   14.9762788   16.4051775
| 12>     C       17.9467236   16.9781300   17.3648653
| 13>     C       17.2974785   18.1524989   17.1771728
| 14>     C       16.5321227   18.5836051   15.9432759
| 15>     N       17.3787866   19.1547862   18.1476991
| 16>     C       18.2031569   19.1139584   19.2420960
| 17>     S       18.3291276   20.3914786   20.2845425
| 18>     N       18.9191500   17.9571802   19.4293382
| 19>     C       18.7504927   16.7200351   18.6419748
| 20>     C       18.0878673   15.6323391   19.4820189
| 21>     C       18.6517399   14.3453855   19.5527013
| 22>     C       18.0302016   13.3310399   20.2999656
| 23>     C       16.8319940   13.6038964   20.9814973
| 24>     C       16.2642788   14.8830140   20.9101888
| 25>     O       15.0997868   15.1463346   21.5544438
| 26>     C       16.8851190   15.8906289   20.1656484
| 27>     H       14.6711394   16.5328667   17.5016045
| 28>     H       13.7804104   15.0011314   17.4565156
| 29>     H       14.0668043   15.8967094   15.9478842
| 30>     H       16.2806115   14.6451090   17.6949446
| 31>     H       15.6203861   13.8892297   16.2342834
| 32>     H       15.4894058   18.2494859   15.9897700
| 33>     H       16.9755322   18.1633601   15.0319343
| 34>     H       16.5308234   19.6736099   15.8196465
| 35>     H       16.8657186   20.0133735   18.0243207
| 36>     H       19.5002143   17.9455688   20.2578992
| 37>     H       19.7504555   16.3698260   18.3469910
| 38>     H       19.5672260   14.1257759   19.0078899
| 39>     H       18.4747184   12.3380740   20.3420295
| 40>     H       16.3473264   12.8220582   21.5569628
| 41>     H       14.8652789   14.3568765   22.0655219
| 42>     H       16.4268900   16.8728745   20.1230643
| 43> *
| 44>
| 45>                          ****END OF INPUT****

CARTESIAN COORDINATES (ANGSTROEM)
---------------------------------
  C     14.505192   15.621416   16.915139
  C     15.822873   14.853074   16.719091
  O     16.691936   15.633788   15.876580
  C     17.949715   15.887203   16.339321
  O     18.756317   14.976279   16.405178
  C     17.946724   16.978130   17.364865
  C     17.297478   18.152499   17.177173
  C     16.532123   18.583605   15.943276
  N     17.378787   19.154786   18.147699
  C     18.203157   19.113958   19.242096
  S     18.329128   20.391479   20.284542
  N     18.919150   17.957180   19.429338
  C     18.750493   16.720035   18.641975
  C     18.087867   15.632339   19.482019
  C     18.651740   14.345385   19.552701
  C     18.030202   13.331040   20.299966
  C     16.831994   13.603896   20.981497
  C     16.264279   14.883014   20.910189
  O     15.099787   15.146335   21.554444
  C     16.885119   15.890629   20.165648
  H     14.671139   16.532867   17.501604
  H     13.780410   15.001131   17.456516
  H     14.066804   15.896709   15.947884
  H     16.280611   14.645109   17.694945
  H     15.620386   13.889230   16.234283
  H     15.489406   18.249486   15.989770
  H     16.975532   18.163360   15.031934
  H     16.530823   19.673610   15.819646
  H     16.865719   20.013374   18.024321
  H     19.500214   17.945569   20.257899
  H     19.750456   16.369826   18.346991
  H     19.567226   14.125776   19.007890
  H     18.474718   12.338074   20.342029
  H     16.347326   12.822058   21.556963
  H     14.865279   14.356877   22.065522
  H     16.426890   16.872875   20.123064

 Total Charge           Charge          ....    0
 Multiplicity           Mult            ....    1
 Number of Electrons    NEL             ....  154
 Basis Dimension        Dim             ....  828

ORBITAL ENERGIES
----------------

  NO   OCC          E(Eh)            E(eV)
   0   2.0000     -91.890240     -2500.4605
   1   2.0000     -20.599143      -560.5312
   2   2.0000     -20.577706      -559.9479
   3   2.0000     -20.558411      -559.4228
   4   2.0000     -15.629275      -425.2942
   5   2.0000     -15.610132      -424.7733
   6   2.0000     -11.393863      -310.0428
   7   2.0000     -11.386003      -309.8289
   8   2.0000     -11.332850      -308.3825
   9   2.0000     -11.315873      -307.9206
  10   2.0000     -11.311567      -307.8034
  11   2.0000     -11.297744      -307.4272
  12   2.0000     -11.261533      -306.4419
  13   2.0000     -11.261148      -306.4314
  14   2.0000     -11.260854      -306.4234
  15   2.0000     -11.256016      -306.2918
  16   2.0000     -11.245681      -306.0105
  17   2.0000     -11.241091      -305.8856
  18   2.0000     -11.238364      -305.8114
  19   2.0000     -11.231356      -305.6207
  20   2.0000      -8.895315      -242.0538
  21   2.0000      -6.576892      -178.9663
  22   2.0000      -6.574882      -178.9116
  23   2.0000      -6.574296      -178.8957
  24   2.0000      -1.451065       -39.4855
  25   2.0000      -1.418947       -38.6115
  26   2.0000      -1.355365       -36.8814
  27   2.0000      -1.340859       -36.4866
  28   2.0000      -1.239440       -33.7269
  29   2.0000      -1.159844       -31.5610
  30   2.0000      -1.123167       -30.5629
  31   2.0000      -1.047114       -28.4934
  32   2.0000      -1.034126       -28.1400
  33   2.0000      -1.017364       -27.6839
  34   2.0000      -1.001409       -27.2497
  35   2.0000      -0.987767       -26.8785
  36   2.0000      -0.925846       -25.1935
  37   2.0000      -0.882705       -24.0196
  38   2.0000      -0.849773       -23.1235
  39   2.0000      -0.841333       -22.8938
  40   2.0000      -0.835879       -22.7454
  41   2.0000      -0.829004       -22.5583
  42   2.0000      -0.756287       -20.5796
  43   2.0000      -0.735580       -20.0161
  44   2.0000      -0.730381       -19.8747
  45   2.0000      -0.697348       -18.9758
  46   2.0000      -0.687576       -18.7099
  47   2.0000      -0.680792       -18.5253
  48   2.0000      -0.675603       -18.3841
  49   2.0000      -0.657604       -17.8943
  50   2.0000      -0.655463       -17.8361
  51   2.0000      -0.644043       -17.5253
  52   2.0000      -0.636465       -17.3191
  53   2.0000      -0.608592       -16.5606
  54   2.0000      -0.608062       -16.5462
  55   2.0000      -0.604204       -16.4412
  56   2.0000      -0.601675       -16.3724
  57   2.0000      -0.579915       -15.7803
  58   2.0000      -0.575920       -15.6716
  59   2.0000      -0.572871       -15.5886
  60   2.0000      -0.562584       -15.3087
  61   2.0000      -0.551508       -15.0073
  62   2.0000      -0.544664       -14.8211
  63   2.0000      -0.524870       -14.2824
  64   2.0000      -0.515866       -14.0374
  65   2.0000      -0.512723       -13.9519
  66   2.0000      -0.503731       -13.7072
  67   2.0000      -0.499315       -13.5870
  68   2.0000      -0.482483       -13.1290
  69   2.0000      -0.467532       -12.7222
  70   2.0000      -0.454224       -12.3601
  71   2.0000      -0.452057       -12.3011
  72   2.0000      -0.356351        -9.6968
  73   2.0000      -0.351027        -9.5519
  74   2.0000      -0.329642        -8.9700
  75   2.0000      -0.323564        -8.8046
  76   2.0000      -0.317543        -8.6408
  77   0.0000       0.069367         1.8876
  78   0.0000       0.100428         2.7328
  79   0.0000       0.118459         3.2234
  80   0.0000       0.128640         3.5005
  81   0.0000       0.132775         3.6130

MULLIKEN ATOMIC CHARGES
-----------------------
   0 C :   -0.301836
   1 C :    0.035011
   2 O :   -0.379840
   3 C :    0.460837
   4 O :   -0.383677
   5 C :   -0.193074
   6 C :    0.112241
   7 C :   -0.286920
   8 N :   -0.124144
   9 C :    0.195673
  10 S :   -0.437946
  11 N :   -0.200952
  12 C :    0.057188
  13 C :    0.008700
  14 C :   -0.157089
  15 C :   -0.137171
  16 C :   -0.275914
  17 C :    0.309262
  18 O :   -0.358984
  19 C :   -0.262745
  20 H :    0.092180
  21 H :    0.114950
  22 H :    0.105382
  23 H :    0.102953
  24 H :    0.119340
  25 H :    0.124843
  26 H :    0.125626
  27 H :    0.112209
  28 H :    0.197787
  29 H :    0.194303
  30 H :    0.158850
  31 H :    0.161826
  32 H :    0.162610
  33 H :    0.132956
  34 H :    0.241609
  35 H :    0.173959
Sum of atomic charges:   -0.0000000

LOEWDIN ATOMIC CHARGES
----------------------
   0 C :    0.104840
   1 C :   -0.009978
   2 O :    0.280050
   3 C :   -0.421204
   4 O :    0.137628
   5 C :   -0.093486
   6 C :   -0.079847
   7 C :    0.127831
   8 N :    0.404071
   9 C :   -0.457825
  10 S :   -0.035298
  11 N :    0.396886
  12 C :   -0.044784
  13 C :   -0.044375
  14 C :    0.020603
  15 C :    0.043118
  16 C :   -0.001297
  17 C :   -0.194997
  18 O :    0.394775
  19 C :    0.028302
  20 H :   -0.032857
  21 H :   -0.021984
  22 H :   -0.027763
  23 H :   -0.027574
  24 H :   -0.026298
  25 H :   -0.012563
  26 H :   -0.007596
  27 H :   -0.017519
  28 H :   -0.058215
  29 H :   -0.064076
  30 H :   -0.003627
  31 H :   -0.023305
  32 H :   -0.019186
  33 H :   -0.034711
  34 H :   -0.153272
  35 H :   -0.024467

  Mayer bond orders larger than 0.100000
B(  0-C ,  1-C ) :   0.9702 B(  0-C , 20-H ) :   0.9760 B(  0-C , 21-H ) :   0.9776
B(  0-C , 22-H ) :   0.9756 B(  1-C ,  2-O ) :   0.8849 B(  1-C , 23-H ) :   0.9648
B(  1-C , 24-H ) :   0.9865 B(  2-O ,  3-C ) :   1.0901 B(  3-C ,  4-O ) :   2.0534
B(  3-C ,  5-C ) :   0.9948 B(  5-C ,  6-C ) :   1.6758 B(  5-C , 12-C ) :   0.9588
B(  6-C ,  7-C ) :   0.9549 B(  6-C ,  8-N ) :   1.1273 B(  7-C , 25-H ) :   0.9620
B(  7-C , 26-H ) :   0.9715 B(  7-C , 27-H ) :   0.9861 B(  8-N ,  9-C ) :   1.1864
B(  8-N , 28-H ) :   0.9504 B(  9-C , 10-S ) :   1.6142 B(  9-C , 11-N ) :   1.2950
B( 11-N , 12-C ) :   0.9936 B( 11-N , 29-H ) :   0.9518 B( 12-C , 13-C ) :   0.9466
B( 12-C , 30-H ) :   0.9973 B( 13-C , 14-C ) :   1.3877 B( 13-C , 19-C ) :   1.3567
B( 14-C , 15-C ) :   1.3936 B( 14-C , 31-H ) :   0.9616 B( 15-C , 16-C ) :   1.3648
B( 15-C , 32-H ) :   0.9707 B( 16-C , 17-C ) :   1.3294 B( 16-C , 33-H ) :   0.9841
B( 17-C , 18-O ) :   1.1111 B( 17-C , 19-C ) :   1.3744 B( 18-O , 34-H ) :   0.9794
B( 19-C , 35-H ) :   0.9568

MP2 TOTAL ENERGY:    -1274.318123514 Eh
FINAL SINGLE POINT ENERGY     -1274.318123514443

DIPOLE MOMENT
-------------
                                X             Y             Z
Electronic contribution:     10.66875       6.92846       6.15365
Nuclear contribution   :    -11.84570      -8.16689      -6.59244
                        -----------------------------------------
Total Dipole Moment    :     -1.17696      -1.23843      -0.43879
                        -----------------------------------------
Magnitude (a.u.)       :      1.76394
Magnitude (Debye)      :      4.48357

Rotational constants in cm-1:     0.011930     0.009438     0.007092
Rotational constants in MHz :   357.643588   282.931351   212.610092

                             ****ORCA TERMINATED NORMALLY****
TOTAL RUN TIME: 0 days 2 hours 9 minutes 4 seconds 816 msec
