                         Program Version 5.0.0 -  RELEASE  -
|  1> ! ri-mp2 cc-pvtz cc-pvtz/c TightSCF NoKeepInts
|  2>
|  3> %scf
|  4>   MaxCore 4096
|  5> end
|  6> *xyz  0  1
|  7>     C       14.9131926   14.2908828   16.2048799
|  8>     C       16.3226053   14.0085600   16.7673734
|  9>     O       17.2900916   15.0672949   16.5452941
| 10>     C       16.9708463   16.3918514   16.3999392
| 11>     O       16.1798461   16.7921043   15.5641405
| 12>     C       17.6466866   17.2702689   17.4187549
| 13>     C       17.4774244   18.6175098   17.4433915
| 14>     C       16.6192550   19.4534751   16.5177453
| 15>     N       18.1603818   19.3941288   18.3840402
| 16>     C       19.1019846   18.9203206   19.2573791
| 17>     S       19.9332923   19.9223397   20.2776092
| 18>     N       19.3265231   17.5679028   19.2399188
| 19>     C       18.5521894   16.5869930   18.4586952
| 20>     C       17.7759685   15.6831209   19.4117186
| 21>     C       18.2521494   14.3915128   19.7059667
| 22>     C       17.5414381   13.5486984   20.5769943
| 23>     C       16.3470608   14.0023109   21.1622555
| 24>     C       15.8754285   15.2915691   20.8796748
| 25>     O       14.7243694   15.7336203   21.4454435
| 26>     C       16.5844507   16.1279923   20.0121193
| 27>     H       14.4494330   15.1498420   16.7059504
| 28>     H       14.2615680   13.4229407   16.3610790
| 29>     H       14.9548284   14.4906124   15.1265604
| 30>     H       16.2220243   13.8419626   17.8473130
| 31>     H       16.7078604   13.0780090   16.3314480
| 32>     H       15.5682512   19.1439234   16.5819617
| 33>     H       16.9352646   19.3216250   15.4749737
| 34>     H       16.6624413   20.5255489   16.7426085
| 35>     H       18.0115866   20.3902933   18.4079481
| 36>     H       20.0011924   17.2448258   19.9212091
| 37>     H       19.2727795   15.9666827   17.9070225
| 38>     H       19.1747051   14.0378180   19.2530353
| 39>     H       17.9174734   12.5510520   20.7980492
| 40>     H       15.7952764   13.3557590   21.8369091
| 41>     H       14.4109590   15.0433437   22.0491602
| 42>     H       16.2061719   17.1253045   19.8154377
| 43> *
| 44>
| 45>                          ****END OF INPUT****

CARTESIAN COORDINATES (ANGSTROEM)
---------------------------------
  C     14.913193   14.290883   16.204880
  C     16.322605   14.008560   16.767373
  O     17.290092   15.067295   16.545294
  C     16.970846   16.391851   16.399939
  O     16.179846   16.792104   15.564141
  C     17.646687   17.270269   17.418755
  C     17.477424   18.617510   17.443392
  C     16.619255   19.453475   16.517745
  N     18.160382   19.394129   18.384040
  C     19.101985   18.920321   19.257379
  S     19.933292   19.922340   20.277609
  N     19.326523   17.567903   19.239919
  C     18.552189   16.586993   18.458695
  C     17.775969   15.683121   19.411719
  C     18.252149   14.391513   19.705967
  C     17.541438   13.548698   20.576994
  C     16.347061   14.002311   21.162255
  C     15.875428   15.291569   20.879675
  O     14.724369   15.733620   21.445443
  C     16.584451   16.127992   20.012119
  H     14.449433   15.149842   16.705950
  H     14.261568   13.422941   16.361079
  H     14.954828   14.490612   15.126560
  H     16.222024   13.841963   17.847313
  H     16.707860   13.078009   16.331448
  H     15.568251   19.143923   16.581962
  H     16.935265   19.321625   15.474974
  H     16.662441   20.525549   16.742608
  H     18.011587   20.390293   18.407948
  H     20.001192   17.244826   19.921209
  H     19.272779   15.966683   17.907023
  H     19.174705   14.037818   19.253035
  H     17.917473   12.551052   20.798049
  H     15.795276   13.355759   21.836909
  H     14.410959   15.043344   22.049160
  H     16.206172   17.125304   19.815438

 Total Charge           Charge          ....    0
 Multiplicity           Mult            ....    1
 Number of Electrons    NEL             ....  154
 Basis Dimension        Dim             ....  828

ORBITAL ENERGIES
----------------

  NO   OCC          E(Eh)            E(eV)
   0   2.0000     -91.889203     -2500.4323
   1   2.0000     -20.601165      -560.5862
   2   2.0000     -20.587622      -560.2177
   3   2.0000     -20.542777      -558.9974
   4   2.0000     -15.629387      -425.2972
   5   2.0000     -15.608707      -424.7345
   6   2.0000     -11.394782      -310.0678
   7   2.0000     -11.384258      -309.7814
   8   2.0000     -11.336215      -308.4741
   9   2.0000     -11.318968      -308.0048
  10   2.0000     -11.309736      -307.7536
  11   2.0000     -11.298272      -307.4416
  12   2.0000     -11.263783      -306.5031
  13   2.0000     -11.260144      -306.4041
  14   2.0000     -11.257962      -306.3447
  15   2.0000     -11.252354      -306.1921
  16   2.0000     -11.247562      -306.0617
  17   2.0000     -11.242432      -305.9221
  18   2.0000     -11.242082      -305.9126
  19   2.0000     -11.220921      -305.3368
  20   2.0000      -8.894268      -242.0253
  21   2.0000      -6.575844      -178.9378
  22   2.0000      -6.573838      -178.8832
  23   2.0000      -6.573252      -178.8673
  24   2.0000      -1.441007       -39.2118
  25   2.0000      -1.420812       -38.6623
  26   2.0000      -1.351492       -36.7760
  27   2.0000      -1.340580       -36.4790
  28   2.0000      -1.239330       -33.7239
  29   2.0000      -1.161512       -31.6063
  30   2.0000      -1.120574       -30.4924
  31   2.0000      -1.045186       -28.4410
  32   2.0000      -1.032147       -28.0862
  33   2.0000      -1.019704       -27.7476
  34   2.0000      -0.996593       -27.1187
  35   2.0000      -0.984560       -26.7912
  36   2.0000      -0.924149       -25.1474
  37   2.0000      -0.893143       -24.3037
  38   2.0000      -0.848554       -23.0903
  39   2.0000      -0.841302       -22.8930
  40   2.0000      -0.837711       -22.7953
  41   2.0000      -0.820889       -22.3375
  42   2.0000      -0.745503       -20.2862
  43   2.0000      -0.733785       -19.9673
  44   2.0000      -0.717074       -19.5126
  45   2.0000      -0.699498       -19.0343
  46   2.0000      -0.688958       -18.7475
  47   2.0000      -0.675276       -18.3752
  48   2.0000      -0.667442       -18.1620
  49   2.0000      -0.663600       -18.0575
  50   2.0000      -0.651687       -17.7333
  51   2.0000      -0.645916       -17.5763
  52   2.0000      -0.637645       -17.3512
  53   2.0000      -0.611580       -16.6419
  54   2.0000      -0.610023       -16.5996
  55   2.0000      -0.603035       -16.4094
  56   2.0000      -0.600635       -16.3441
  57   2.0000      -0.580792       -15.8041
  58   2.0000      -0.571569       -15.5532
  59   2.0000      -0.568351       -15.4656
  60   2.0000      -0.557233       -15.1631
  61   2.0000      -0.539318       -14.6756
  62   2.0000      -0.534353       -14.5405
  63   2.0000      -0.528617       -14.3844
  64   2.0000      -0.523091       -14.2340
  65   2.0000      -0.514252       -13.9935
  66   2.0000      -0.503294       -13.6953
  67   2.0000      -0.493771       -13.4362
  68   2.0000      -0.487264       -13.2591
  69   2.0000      -0.463030       -12.5997
  70   2.0000      -0.450853       -12.2683
  71   2.0000      -0.440908       -11.9977
  72   2.0000      -0.355088        -9.6624
  73   2.0000      -0.353274        -9.6131
  74   2.0000      -0.329647        -8.9702
  75   2.0000      -0.325715        -8.8632
  76   2.0000      -0.317000        -8.6260
  77   0.0000       0.073923         2.0116
  78   0.0000       0.101784         2.7697
  79   0.0000       0.122990         3.3467
  80   0.0000       0.130283         3.5452
  81   0.0000       0.133820         3.6414

MULLIKEN ATOMIC CHARGES
-----------------------
   0 C :   -0.287502
   1 C :    0.037200
   2 O :   -0.384589
   3 C :    0.470533
   4 O :   -0.412845
   5 C :   -0.259476
   6 C :    0.166677
   7 C :   -0.268350
   8 N :   -0.124535
   9 C :    0.216314
  10 S :   -0.441574
  11 N :   -0.210614
  12 C :    0.080708
  13 C :    0.033133
  14 C :   -0.188784
  15 C :   -0.130639
  16 C :   -0.277876
  17 C :    0.309439
  18 O :   -0.355788
  19 C :   -0.248611
  20 H :    0.099248
  21 H :    0.097545
  22 H :    0.116635
  23 H :    0.100713
  24 H :    0.105265
  25 H :    0.129475
  26 H :    0.133251
  27 H :    0.095154
  28 H :    0.197297
  29 H :    0.195559
  30 H :    0.149138
  31 H :    0.152109
  32 H :    0.162487
  33 H :    0.132754
  34 H :    0.241778
  35 H :    0.168772
Sum of atomic charges:    0.0000000

LOEWDIN ATOMIC CHARGES
----------------------
   0 C :    0.103638
   1 C :   -0.012405
   2 O :    0.287275
   3 C :   -0.414889
   4 O :    0.114250
   5 C :   -0.097586
   6 C :   -0.058569
   7 C :    0.131193
   8 N :    0.406948
   9 C :   -0.455324
  10 S :   -0.036060
  11 N :    0.396092
  12 C :   -0.052525
  13 C :   -0.036680
  14 C :    0.012997
  15 C :    0.040565
  16 C :   -0.002757
  17 C :   -0.189947
  18 O :    0.396424
  19 C :    0.029665
  20 H :   -0.028422
  21 H :   -0.027290
  22 H :   -0.023811
  23 H :   -0.030737
  24 H :   -0.025589
  25 H :   -0.005426
  26 H :   -0.003371
  27 H :   -0.023472
  28 H :   -0.057526
  29 H :   -0.065181
  30 H :   -0.009994
  31 H :   -0.029453
  32 H :   -0.020100
  33 H :   -0.034786
  34 H :   -0.152841
  35 H :   -0.024306

  Mayer bond orders larger than 0.100000
B(  0-C ,  1-C ) :   0.9802 B(  0-C , 20-H ) :   0.9744 B(  0-C , 21-H ) :   0.9734
B(  0-C , 22-H ) :   0.9734 B(  1-C ,  2-O ) :   0.8936 B(  1-C , 23-H ) :   0.9685
B(  1-C , 24-H ) :   0.9811 B(  2-O ,  3-C ) :   1.1100 B(  3-C ,  4-O ) :   2.0087
B(  3-C ,  5-C ) :   1.0608 B(  5-C ,  6-C ) :   1.6473 B(  5-C , 12-C ) :   0.9721
B(  6-C ,  7-C ) :   0.9657 B(  6-C ,  8-N ) :   1.1609 B(  7-C , 25-H ) :   0.9609
B(  7-C , 26-H ) :   0.9591 B(  7-C , 27-H ) :   0.9906 B(  8-N ,  9-C ) :   1.1848
B(  8-N , 28-H ) :   0.9476 B(  9-C , 10-S ) :   1.6024 B(  9-C , 11-N ) :   1.3089
B( 11-N , 12-C ) :   0.9720 B( 11-N , 29-H ) :   0.9515 B( 12-C , 13-C ) :   0.9397
B( 12-C , 30-H ) :   1.0013 B( 13-C , 14-C ) :   1.3521 B( 13-C , 19-C ) :   1.3776
B( 14-C , 15-C ) :   1.3946 B( 14-C , 31-H ) :   0.9732 B( 15-C , 16-C ) :   1.3605
B( 15-C , 32-H ) :   0.9706 B( 16-C , 17-C ) :   1.3302 B( 16-C , 33-H ) :   0.9845
B( 17-C , 18-O ) :   1.1132 B( 17-C , 19-C ) :   1.3699 B( 18-O , 34-H ) :   0.9790
B( 19-C , 35-H ) :   0.9577

MP2 TOTAL ENERGY:    -1274.335849828 Eh
FINAL SINGLE POINT ENERGY     -1274.335849828192

DIPOLE MOMENT
-------------
                                X             Y             Z
Electronic contribution:     10.21121       9.61760       6.92611
Nuclear contribution   :    -11.20009     -11.32319      -6.89799
                        -----------------------------------------
Total Dipole Moment    :     -0.98889      -1.70559       0.02812
                        -----------------------------------------
Magnitude (a.u.)       :      1.97173
Magnitude (Debye)      :      5.01174

Rotational constants in cm-1:     0.012389     0.008751     0.006353
Rotational constants in MHz :   371.413573   262.335901   190.453928

                             ****ORCA TERMINATED NORMALLY****
TOTAL RUN TIME: 0 days 2 hours 5 minutes 39 seconds 193 msec
