                         Program Version 5.0.0 -  RELEASE  -
|  1> ! ri-mp2 cc-pvtz cc-pvtz/c TightSCF NoKeepInts
|  2>
|  3> %scf
|  4>   MaxCore 4096
|  5> end
|  6> *xyz  0  1
|  7>     C       15.2555117   13.7803242   15.6538556
|  8>     C       15.8323752   14.4345192   16.9215976
|  9>     O       16.9472870   15.2565232   16.5318474
| 10>     C       16.7510909   16.6048995   16.4519919
| 11>     O       15.7963828   17.0636172   15.8492025
| 12>     C       17.5361599   17.3724670   17.4816832
| 13>     C       17.4173759   18.7169930   17.6300466
| 14>     C       16.5186066   19.6513301   16.8482199
| 15>     N       18.2101769   19.3926358   18.5625588
| 16>     C       19.2272434   18.8253870   19.2825500
| 17>     S       20.1960817   19.7180002   20.2827311
| 18>     N       19.4087133   17.4753313   19.1247049
| 19>     C       18.5102457   16.5813736   18.3724158
| 20>     C       17.7913714   15.6533049   19.3472894
| 21>     C       18.2023305   14.3138953   19.4832366
| 22>     C       17.5413123   13.4498453   20.3723557
| 23>     C       16.4635216   13.9298315   21.1357097
| 24>     C       16.0580819   15.2655888   21.0104471
| 25>     O       15.0193383   15.7327646   21.7474276
| 26>     C       16.7168265   16.1228464   20.1238032
| 27>     H       14.8795999   14.5447601   14.9618414
| 28>     H       14.4243282   13.1122622   15.9093707
| 29>     H       16.0241017   13.1931698   15.1363867
| 30>     H       15.0626121   15.0220337   17.4413658
| 31>     H       16.1778328   13.6463630   17.6025330
| 32>     H       15.4632140   19.4061243   17.0235359
| 33>     H       16.7018715   19.5530194   15.7706444
| 34>     H       16.6626281   20.7058295   17.1111914
| 35>     H       18.0938830   20.3856468   18.6873331
| 36>     H       20.1454668   17.0805347   19.6949289
| 37>     H       19.1363253   15.9668217   17.7100398
| 38>     H       19.0337697   13.9393180   18.8918198
| 39>     H       17.8657942   12.4150127   20.4693489
| 40>     H       15.9507446   13.2667632   21.8249535
| 41>     H       14.7326661   15.0177969   22.3355346
| 42>     H       16.3921283   17.1550661   20.0494977
| 43> *
| 44>
| 45>                          ****END OF INPUT****

CARTESIAN COORDINATES (ANGSTROEM)
---------------------------------
  C     15.255512   13.780324   15.653856
  C     15.832375   14.434519   16.921598
  O     16.947287   15.256523   16.531847
  C     16.751091   16.604899   16.451992
  O     15.796383   17.063617   15.849203
  C     17.536160   17.372467   17.481683
  C     17.417376   18.716993   17.630047
  C     16.518607   19.651330   16.848220
  N     18.210177   19.392636   18.562559
  C     19.227243   18.825387   19.282550
  S     20.196082   19.718000   20.282731
  N     19.408713   17.475331   19.124705
  C     18.510246   16.581374   18.372416
  C     17.791371   15.653305   19.347289
  C     18.202330   14.313895   19.483237
  C     17.541312   13.449845   20.372356
  C     16.463522   13.929832   21.135710
  C     16.058082   15.265589   21.010447
  O     15.019338   15.732765   21.747428
  C     16.716826   16.122846   20.123803
  H     14.879600   14.544760   14.961841
  H     14.424328   13.112262   15.909371
  H     16.024102   13.193170   15.136387
  H     15.062612   15.022034   17.441366
  H     16.177833   13.646363   17.602533
  H     15.463214   19.406124   17.023536
  H     16.701871   19.553019   15.770644
  H     16.662628   20.705830   17.111191
  H     18.093883   20.385647   18.687333
  H     20.145467   17.080535   19.694929
  H     19.136325   15.966822   17.710040
  H     19.033770   13.939318   18.891820
  H     17.865794   12.415013   20.469349
  H     15.950745   13.266763   21.824953
  H     14.732666   15.017797   22.335535
  H     16.392128   17.155066   20.049498

 Total Charge           Charge          ....    0
 Multiplicity           Mult            ....    1
 Number of Electrons    NEL             ....  154
 Basis Dimension        Dim             ....  828

ORBITAL ENERGIES
----------------

  NO   OCC          E(Eh)            E(eV)
   0   2.0000     -91.890065     -2500.4558
   1   2.0000     -20.600582      -560.5703
   2   2.0000     -20.586650      -560.1912
   3   2.0000     -20.546377      -559.0954
   4   2.0000     -15.630517      -425.3280
   5   2.0000     -15.609496      -424.7560
   6   2.0000     -11.394265      -310.0537
   7   2.0000     -11.385110      -309.8046
   8   2.0000     -11.337152      -308.4996
   9   2.0000     -11.318193      -307.9837
  10   2.0000     -11.311036      -307.7889
  11   2.0000     -11.294038      -307.3264
  12   2.0000     -11.263389      -306.4924
  13   2.0000     -11.259628      -306.3901
  14   2.0000     -11.259507      -306.3867
  15   2.0000     -11.253459      -306.2222
  16   2.0000     -11.246997      -306.0463
  17   2.0000     -11.241940      -305.9087
  18   2.0000     -11.241744      -305.9034
  19   2.0000     -11.217724      -305.2498
  20   2.0000      -8.895119      -242.0485
  21   2.0000      -6.576691      -178.9609
  22   2.0000      -6.574689      -178.9064
  23   2.0000      -6.574099      -178.8903
  24   2.0000      -1.449498       -39.4428
  25   2.0000      -1.420234       -38.6465
  26   2.0000      -1.353329       -36.8260
  27   2.0000      -1.341554       -36.5055
  28   2.0000      -1.240157       -33.7464
  29   2.0000      -1.161152       -31.5965
  30   2.0000      -1.121433       -30.5157
  31   2.0000      -1.045304       -28.4442
  32   2.0000      -1.031920       -28.0800
  33   2.0000      -1.019242       -27.7350
  34   2.0000      -0.996649       -27.1202
  35   2.0000      -0.985063       -26.8049
  36   2.0000      -0.924742       -25.1635
  37   2.0000      -0.882816       -24.0226
  38   2.0000      -0.849081       -23.1047
  39   2.0000      -0.841221       -22.8908
  40   2.0000      -0.837471       -22.7888
  41   2.0000      -0.825017       -22.4498
  42   2.0000      -0.757965       -20.6253
  43   2.0000      -0.734876       -19.9970
  44   2.0000      -0.723305       -19.6821
  45   2.0000      -0.699442       -19.0328
  46   2.0000      -0.690328       -18.7848
  47   2.0000      -0.679075       -18.4786
  48   2.0000      -0.671223       -18.2649
  49   2.0000      -0.656249       -17.8575
  50   2.0000      -0.648287       -17.6408
  51   2.0000      -0.645801       -17.5731
  52   2.0000      -0.633482       -17.2379
  53   2.0000      -0.611342       -16.6354
  54   2.0000      -0.605872       -16.4866
  55   2.0000      -0.601250       -16.3608
  56   2.0000      -0.598695       -16.2913
  57   2.0000      -0.581973       -15.8363
  58   2.0000      -0.574400       -15.6302
  59   2.0000      -0.570330       -15.5195
  60   2.0000      -0.565853       -15.3977
  61   2.0000      -0.539314       -14.6755
  62   2.0000      -0.534381       -14.5412
  63   2.0000      -0.528421       -14.3791
  64   2.0000      -0.516011       -14.0414
  65   2.0000      -0.511429       -13.9167
  66   2.0000      -0.503460       -13.6999
  67   2.0000      -0.496801       -13.5186
  68   2.0000      -0.489102       -13.3092
  69   2.0000      -0.464007       -12.6263
  70   2.0000      -0.453572       -12.3423
  71   2.0000      -0.444946       -12.1076
  72   2.0000      -0.355689        -9.6788
  73   2.0000      -0.353326        -9.6145
  74   2.0000      -0.329932        -8.9779
  75   2.0000      -0.325351        -8.8532
  76   2.0000      -0.317564        -8.6413
  77   0.0000       0.071094         1.9346
  78   0.0000       0.101819         2.7706
  79   0.0000       0.123107         3.3499
  80   0.0000       0.129967         3.5366
  81   0.0000       0.134032         3.6472

MULLIKEN ATOMIC CHARGES
-----------------------
   0 C :   -0.267382
   1 C :    0.029621
   2 O :   -0.379682
   3 C :    0.471471
   4 O :   -0.417203
   5 C :   -0.251340
   6 C :    0.162231
   7 C :   -0.269605
   8 N :   -0.123475
   9 C :    0.215317
  10 S :   -0.439632
  11 N :   -0.208172
  12 C :    0.070888
  13 C :    0.057343
  14 C :   -0.201175
  15 C :   -0.131461
  16 C :   -0.275898
  17 C :    0.310090
  18 O :   -0.355744
  19 C :   -0.254952
  20 H :    0.112947
  21 H :    0.086836
  22 H :    0.090409
  23 H :    0.095574
  24 H :    0.114746
  25 H :    0.131627
  26 H :    0.130871
  27 H :    0.095639
  28 H :    0.197639
  29 H :    0.195048
  30 H :    0.150051
  31 H :    0.150135
  32 H :    0.164831
  33 H :    0.132841
  34 H :    0.241684
  35 H :    0.167881
Sum of atomic charges:   -0.0000000

LOEWDIN ATOMIC CHARGES
----------------------
   0 C :    0.104848
   1 C :   -0.017644
   2 O :    0.295081
   3 C :   -0.418226
   4 O :    0.111429
   5 C :   -0.097421
   6 C :   -0.058429
   7 C :    0.131431
   8 N :    0.407059
   9 C :   -0.455624
  10 S :   -0.034633
  11 N :    0.396037
  12 C :   -0.052427
  13 C :   -0.036056
  14 C :    0.013725
  15 C :    0.040316
  16 C :   -0.002264
  17 C :   -0.189720
  18 O :    0.396185
  19 C :    0.031449
  20 H :   -0.024153
  21 H :   -0.030173
  22 H :   -0.029035
  23 H :   -0.029449
  24 H :   -0.027016
  25 H :   -0.004888
  26 H :   -0.003745
  27 H :   -0.023113
  28 H :   -0.057331
  29 H :   -0.065034
  30 H :   -0.009124
  31 H :   -0.029649
  32 H :   -0.020322
  33 H :   -0.034853
  34 H :   -0.152897
  35 H :   -0.024334

  Mayer bond orders larger than 0.100000
B(  0-C ,  1-C ) :   0.9845 B(  0-C , 20-H ) :   0.9760 B(  0-C , 21-H ) :   0.9783
B(  0-C , 22-H ) :   0.9782 B(  1-C ,  2-O ) :   0.8718 B(  1-C , 23-H ) :   0.9693
B(  1-C , 24-H ) :   0.9735 B(  2-O ,  3-C ) :   1.1054 B(  3-C ,  4-O ) :   1.9871
B(  3-C ,  5-C ) :   1.0749 B(  5-C ,  6-C ) :   1.6458 B(  5-C , 12-C ) :   0.9705
B(  6-C ,  7-C ) :   0.9666 B(  6-C ,  8-N ) :   1.1614 B(  7-C , 25-H ) :   0.9596
B(  7-C , 26-H ) :   0.9606 B(  7-C , 27-H ) :   0.9905 B(  8-N ,  9-C ) :   1.1825
B(  8-N , 28-H ) :   0.9476 B(  9-C , 10-S ) :   1.6055 B(  9-C , 11-N ) :   1.3076
B( 11-N , 12-C ) :   0.9714 B( 11-N , 29-H ) :   0.9518 B( 12-C , 13-C ) :   0.9410
B( 12-C , 30-H ) :   1.0018 B( 13-C , 14-C ) :   1.3494 B( 13-C , 19-C ) :   1.3710
B( 14-C , 15-C ) :   1.3906 B( 14-C , 31-H ) :   0.9748 B( 15-C , 16-C ) :   1.3612
B( 15-C , 32-H ) :   0.9694 B( 16-C , 17-C ) :   1.3310 B( 16-C , 33-H ) :   0.9840
B( 17-C , 18-O ) :   1.1130 B( 17-C , 19-C ) :   1.3723 B( 18-O , 34-H ) :   0.9790
B( 19-C , 35-H ) :   0.9587

MP2 TOTAL ENERGY:    -1274.335272922 Eh
FINAL SINGLE POINT ENERGY     -1274.335272921741

DIPOLE MOMENT
-------------
                                X             Y             Z
Electronic contribution:     10.15859      10.08701       7.82425
Nuclear contribution   :    -11.11590     -11.60463      -7.83148
                        -----------------------------------------
Total Dipole Moment    :     -0.95731      -1.51762      -0.00723
                        -----------------------------------------
Magnitude (a.u.)       :      1.79434
Magnitude (Debye)      :      4.56086

Rotational constants in cm-1:     0.012257     0.008663     0.006257
Rotational constants in MHz :   367.463090   259.695567   187.590348

                             ****ORCA TERMINATED NORMALLY****
TOTAL RUN TIME: 0 days 1 hours 49 minutes 58 seconds 37 msec
