                         Program Version 5.0.0 -  RELEASE  -
|  1> ! ri-mp2 cc-pvtz cc-pvtz/c TightSCF NoKeepInts
|  2>
|  3> %scf
|  4>   MaxCore 4096
|  5> end
|  6> *xyz  0  1
|  7>     C       15.9241464   14.2397709   14.4377036
|  8>     C       15.0635001   14.9017519   15.5362555
|  9>     O       15.8144248   15.9130068   16.2401209
| 10>     C       16.9256922   15.6076014   16.9760170
| 11>     O       17.3090634   14.4621237   17.1477388
| 12>     C       17.5345515   16.7725597   17.7059869
| 13>     C       17.2711589   18.0827593   17.4546989
| 14>     C       16.3394513   18.6698062   16.4138216
| 15>     N       17.9574325   19.0763420   18.1615113
| 16>     C       19.0149121   18.8524495   19.0028299
| 17>     S       19.8609027   20.0962209   19.6906189
| 18>     N       19.3353286   17.5409815   19.2437400
| 19>     C       18.5320944   16.3847876   18.8045076
| 20>     C       17.8203248   15.7465858   19.9948856
| 21>     C       17.9784742   14.3750999   20.2673419
| 22>     C       17.3254197   13.7813826   21.3604810
| 23>     C       16.5060202   14.5652063   22.1903875
| 24>     C       16.3426163   15.9307162   21.9207043
| 25>     O       15.5473305   16.6891140   22.7168338
| 26>     C       16.9936216   16.5187319   20.8316985
| 27>     H       16.3961818   14.9999767   13.8033699
| 28>     H       15.2984709   13.6049300   13.7988300
| 29>     H       16.7100120   13.6043494   14.8629779
| 30>     H       14.1849553   15.3675495   15.0718538
| 31>     H       14.7085567   14.1363597   16.2397139
| 32>     H       15.2947647   18.4360791   16.6543944
| 33>     H       16.5585849   18.2604803   15.4198454
| 34>     H       16.4218899   19.7607441   16.3373694
| 35>     H       17.7366143   20.0456375   17.9985786
| 36>     H       20.0980806   17.4008725   19.8936971
| 37>     H       19.2248730   15.6431026   18.3812582
| 38>     H       18.5976882   13.7628574   19.6162167
| 39>     H       17.4510742   12.7179971   21.5558068
| 40>     H       15.9981436   14.1103219   23.0341754
| 41>     H       15.2149055   16.1158510   23.4236107
| 42>     H       16.8557382   17.5778931   20.6444182
| 43> *
| 44>
| 45>                          ****END OF INPUT****

CARTESIAN COORDINATES (ANGSTROEM)
---------------------------------
  C     15.924146   14.239771   14.437704
  C     15.063500   14.901752   15.536255
  O     15.814425   15.913007   16.240121
  C     16.925692   15.607601   16.976017
  O     17.309063   14.462124   17.147739
  C     17.534551   16.772560   17.705987
  C     17.271159   18.082759   17.454699
  C     16.339451   18.669806   16.413822
  N     17.957432   19.076342   18.161511
  C     19.014912   18.852449   19.002830
  S     19.860903   20.096221   19.690619
  N     19.335329   17.540981   19.243740
  C     18.532094   16.384788   18.804508
  C     17.820325   15.746586   19.994886
  C     17.978474   14.375100   20.267342
  C     17.325420   13.781383   21.360481
  C     16.506020   14.565206   22.190387
  C     16.342616   15.930716   21.920704
  O     15.547330   16.689114   22.716834
  C     16.993622   16.518732   20.831699
  H     16.396182   14.999977   13.803370
  H     15.298471   13.604930   13.798830
  H     16.710012   13.604349   14.862978
  H     14.184955   15.367549   15.071854
  H     14.708557   14.136360   16.239714
  H     15.294765   18.436079   16.654394
  H     16.558585   18.260480   15.419845
  H     16.421890   19.760744   16.337369
  H     17.736614   20.045638   17.998579
  H     20.098081   17.400872   19.893697
  H     19.224873   15.643103   18.381258
  H     18.597688   13.762857   19.616217
  H     17.451074   12.717997   21.555807
  H     15.998144   14.110322   23.034175
  H     15.214905   16.115851   23.423611
  H     16.855738   17.577893   20.644418

 Total Charge           Charge          ....    0
 Multiplicity           Mult            ....    1
 Number of Electrons    NEL             ....  154
 Basis Dimension        Dim             ....  828

ORBITAL ENERGIES
----------------

  NO   OCC          E(Eh)            E(eV)
   0   2.0000     -91.887824     -2500.3948
   1   2.0000     -20.603918      -560.6611
   2   2.0000     -20.590388      -560.2929
   3   2.0000     -20.545096      -559.0605
   4   2.0000     -15.628202      -425.2650
   5   2.0000     -15.606303      -424.6691
   6   2.0000     -11.397220      -310.1341
   7   2.0000     -11.382584      -309.7358
   8   2.0000     -11.336498      -308.4818
   9   2.0000     -11.306170      -307.6565
  10   2.0000     -11.304878      -307.6214
  11   2.0000     -11.303246      -307.5770
  12   2.0000     -11.260578      -306.4159
  13   2.0000     -11.258678      -306.3642
  14   2.0000     -11.252241      -306.1890
  15   2.0000     -11.246336      -306.0284
  16   2.0000     -11.235974      -305.7464
  17   2.0000     -11.232133      -305.6419
  18   2.0000     -11.229113      -305.5597
  19   2.0000     -11.226267      -305.4823
  20   2.0000      -8.892886      -241.9877
  21   2.0000      -6.574463      -178.9002
  22   2.0000      -6.572457      -178.8456
  23   2.0000      -6.571871      -178.8297
  24   2.0000      -1.452277       -39.5185
  25   2.0000      -1.410118       -38.3713
  26   2.0000      -1.357354       -36.9355
  27   2.0000      -1.339145       -36.4400
  28   2.0000      -1.236624       -33.6502
  29   2.0000      -1.150954       -31.3190
  30   2.0000      -1.118815       -30.4445
  31   2.0000      -1.041478       -28.3401
  32   2.0000      -1.034364       -28.1465
  33   2.0000      -1.008266       -27.4363
  34   2.0000      -0.996679       -27.1210
  35   2.0000      -0.982330       -26.7305
  36   2.0000      -0.920819       -25.0568
  37   2.0000      -0.895834       -24.3769
  38   2.0000      -0.847533       -23.0625
  39   2.0000      -0.834692       -22.7131
  40   2.0000      -0.826617       -22.4934
  41   2.0000      -0.816491       -22.2178
  42   2.0000      -0.750669       -20.4267
  43   2.0000      -0.733311       -19.9544
  44   2.0000      -0.723928       -19.6991
  45   2.0000      -0.689985       -18.7754
  46   2.0000      -0.684463       -18.6252
  47   2.0000      -0.678953       -18.4753
  48   2.0000      -0.670589       -18.2477
  49   2.0000      -0.661369       -17.9968
  50   2.0000      -0.646192       -17.5838
  51   2.0000      -0.641603       -17.4589
  52   2.0000      -0.631391       -17.1810
  53   2.0000      -0.612817       -16.6756
  54   2.0000      -0.599467       -16.3123
  55   2.0000      -0.598333       -16.2815
  56   2.0000      -0.593571       -16.1519
  57   2.0000      -0.584917       -15.9164
  58   2.0000      -0.571947       -15.5635
  59   2.0000      -0.565599       -15.3907
  60   2.0000      -0.559862       -15.2346
  61   2.0000      -0.544992       -14.8300
  62   2.0000      -0.535668       -14.5763
  63   2.0000      -0.525143       -14.2899
  64   2.0000      -0.516042       -14.0422
  65   2.0000      -0.510744       -13.8981
  66   2.0000      -0.500071       -13.6076
  67   2.0000      -0.494729       -13.4623
  68   2.0000      -0.480003       -13.0615
  69   2.0000      -0.463057       -12.6004
  70   2.0000      -0.456322       -12.4171
  71   2.0000      -0.452596       -12.3158
  72   2.0000      -0.354002        -9.6329
  73   2.0000      -0.342860        -9.3297
  74   2.0000      -0.326903        -8.8955
  75   2.0000      -0.315123        -8.5749
  76   2.0000      -0.312582        -8.5058
  77   0.0000       0.076433         2.0798
  78   0.0000       0.114882         3.1261
  79   0.0000       0.120741         3.2855
  80   0.0000       0.136914         3.7256
  81   0.0000       0.140926         3.8348

MULLIKEN ATOMIC CHARGES
-----------------------
   0 C :   -0.305994
   1 C :    0.038921
   2 O :   -0.345810
   3 C :    0.451030
   4 O :   -0.439501
   5 C :   -0.170949
   6 C :    0.148281
   7 C :   -0.285556
   8 N :   -0.120268
   9 C :    0.200781
  10 S :   -0.439377
  11 N :   -0.195767
  12 C :    0.031949
  13 C :    0.058707
  14 C :   -0.159962
  15 C :   -0.133873
  16 C :   -0.278635
  17 C :    0.311642
  18 O :   -0.359226
  19 C :   -0.271226
  20 H :    0.089698
  21 H :    0.097412
  22 H :    0.127709
  23 H :    0.107435
  24 H :    0.101158
  25 H :    0.129959
  26 H :    0.124059
  27 H :    0.101983
  28 H :    0.196630
  29 H :    0.193228
  30 H :    0.153067
  31 H :    0.152519
  32 H :    0.158446
  33 H :    0.127549
  34 H :    0.239870
  35 H :    0.164109
Sum of atomic charges:    0.0000000

LOEWDIN ATOMIC CHARGES
----------------------
   0 C :    0.104548
   1 C :   -0.014113
   2 O :    0.302573
   3 C :   -0.413051
   4 O :    0.104540
   5 C :   -0.090163
   6 C :   -0.064555
   7 C :    0.124690
   8 N :    0.404887
   9 C :   -0.459186
  10 S :   -0.036045
  11 N :    0.397964
  12 C :   -0.046562
  13 C :   -0.038569
  14 C :    0.022071
  15 C :    0.040860
  16 C :   -0.002217
  17 C :   -0.192314
  18 O :    0.392986
  19 C :    0.028754
  20 H :   -0.031185
  21 H :   -0.026932
  22 H :   -0.025294
  23 H :   -0.024883
  24 H :   -0.026878
  25 H :   -0.009024
  26 H :   -0.009576
  27 H :   -0.021274
  28 H :   -0.059275
  29 H :   -0.063621
  30 H :   -0.005321
  31 H :   -0.025589
  32 H :   -0.021417
  33 H :   -0.036522
  34 H :   -0.155056
  35 H :   -0.025252

  Mayer bond orders larger than 0.100000
B(  0-C ,  1-C ) :   0.9643 B(  0-C , 20-H ) :   0.9764 B(  0-C , 21-H ) :   0.9771
B(  0-C , 22-H ) :   0.9714 B(  1-C ,  2-O ) :   0.9037 B(  1-C , 23-H ) :   0.9846
B(  1-C , 24-H ) :   0.9788 B(  2-O ,  3-C ) :   1.1637 B(  3-C ,  4-O ) :   1.9491
B(  3-C ,  5-C ) :   1.0713 B(  5-C ,  6-C ) :   1.6420 B(  5-C , 12-C ) :   0.9674
B(  6-C ,  7-C ) :   0.9552 B(  6-C ,  8-N ) :   1.1539 B(  7-C , 25-H ) :   0.9631
B(  7-C , 26-H ) :   0.9657 B(  7-C , 27-H ) :   0.9918 B(  8-N ,  9-C ) :   1.1770
B(  8-N , 28-H ) :   0.9488 B(  9-C , 10-S ) :   1.6107 B(  9-C , 11-N ) :   1.3048
B( 11-N , 12-C ) :   0.9939 B( 11-N , 29-H ) :   0.9520 B( 12-C , 13-C ) :   0.9472
B( 12-C , 30-H ) :   1.0006 B( 13-C , 14-C ) :   1.3744 B( 13-C , 19-C ) :   1.3702
B( 14-C , 15-C ) :   1.3948 B( 14-C , 31-H ) :   0.9655 B( 15-C , 16-C ) :   1.3626
B( 15-C , 32-H ) :   0.9716 B( 16-C , 17-C ) :   1.3316 B( 16-C , 33-H ) :   0.9862
B( 17-C , 18-O ) :   1.1078 B( 17-C , 19-C ) :   1.3797 B( 18-O , 34-H ) :   0.9808
B( 19-C , 35-H ) :   0.9583

MP2 TOTAL ENERGY:    -1274.347026326 Eh
FINAL SINGLE POINT ENERGY     -1274.347026325545

DIPOLE MOMENT
-------------
                                X             Y             Z
Electronic contribution:      9.22648       9.01429      12.39918
Nuclear contribution   :    -10.89629     -10.08669     -13.39479
                        -----------------------------------------
Total Dipole Moment    :     -1.66981      -1.07240      -0.99561
                        -----------------------------------------
Magnitude (a.u.)       :      2.22026
Magnitude (Debye)      :      5.64345

Rotational constants in cm-1:     0.010571     0.008747     0.005733
Rotational constants in MHz :   316.922072   262.237114   171.885400

                             ****ORCA TERMINATED NORMALLY****
TOTAL RUN TIME: 0 days 1 hours 53 minutes 44 seconds 955 msec
