                         Program Version 5.0.0 -  RELEASE  -
|  1> ! ri-mp2 cc-pvtz cc-pvtz/c TightSCF NoKeepInts
|  2>
|  3> %scf
|  4>   MaxCore 4096
|  5> end
|  6> *xyz  0  1
|  7>     C       15.3959838   14.1724501   16.9671123
|  8>     C       15.4603834   15.0660466   15.7056819
|  9>     O       16.5548824   16.0153001   15.7093696
| 10>     C       17.6580325   15.8872590   16.5042780
| 11>     O       18.2724775   14.8380826   16.5997885
| 12>     C       17.8774091   17.0367735   17.4437438
| 13>     C       17.4058141   18.2963289   17.2544003
| 14>     C       16.6109937   18.8252967   16.0783600
| 15>     N       17.7084745   19.2974220   18.1831829
| 16>     C       18.5740042   19.1552263   19.2356110
| 17>     S       18.9638454   20.4253055   20.2206788
| 18>     N       19.0990899   17.9029806   19.4311175
| 19>     C       18.6900682   16.6915602   18.6956949
| 20>     C       17.9029445   15.7503849   19.6041340
| 21>     C       18.2889968   14.4043407   19.7418599
| 22>     C       17.5560965   13.5285665   20.5600823
| 23>     C       16.4257843   14.0016437   21.2478407
| 24>     C       16.0357074   15.3406505   21.1111265
| 25>     O       14.9390496   15.7982481   21.7660578
| 26>     C       16.7666305   16.2097440   20.2951665
| 27>     H       16.2163194   13.4445459   16.9896941
| 28>     H       14.4578039   13.6050176   16.9790951
| 29>     H       15.4347516   14.7752758   17.8831381
| 30>     H       15.5598479   14.4133616   14.8285295
| 31>     H       14.5155754   15.6144014   15.6002704
| 32>     H       15.5800527   18.4517860   16.1081767
| 33>     H       17.0590918   18.5057780   15.1290620
| 34>     H       16.5667607   19.9209915   16.0575005
| 35>     H       17.3339487   20.2241523   18.0569322
| 36>     H       19.7112072   17.8176135   20.2323744
| 37>     H       19.6045049   16.1742709   18.3706779
| 38>     H       19.1509011   14.0308187   19.1939978
| 39>     H       17.8620373   12.4879664   20.6521611
| 40>     H       15.8555534   13.3279404   21.8786784
| 41>     H       14.6049467   15.0723253   22.3141400
| 42>     H       16.4470291   17.2421441   20.2042847
| 43> *
| 44>
| 45>                          ****END OF INPUT****

CARTESIAN COORDINATES (ANGSTROEM)
---------------------------------
  C     15.395984   14.172450   16.967112
  C     15.460383   15.066047   15.705682
  O     16.554882   16.015300   15.709370
  C     17.658033   15.887259   16.504278
  O     18.272477   14.838083   16.599788
  C     17.877409   17.036773   17.443744
  C     17.405814   18.296329   17.254400
  C     16.610994   18.825297   16.078360
  N     17.708474   19.297422   18.183183
  C     18.574004   19.155226   19.235611
  S     18.963845   20.425306   20.220679
  N     19.099090   17.902981   19.431117
  C     18.690068   16.691560   18.695695
  C     17.902945   15.750385   19.604134
  C     18.288997   14.404341   19.741860
  C     17.556096   13.528567   20.560082
  C     16.425784   14.001644   21.247841
  C     16.035707   15.340650   21.111127
  O     14.939050   15.798248   21.766058
  C     16.766631   16.209744   20.295166
  H     16.216319   13.444546   16.989694
  H     14.457804   13.605018   16.979095
  H     15.434752   14.775276   17.883138
  H     15.559848   14.413362   14.828529
  H     14.515575   15.614401   15.600270
  H     15.580053   18.451786   16.108177
  H     17.059092   18.505778   15.129062
  H     16.566761   19.920991   16.057500
  H     17.333949   20.224152   18.056932
  H     19.711207   17.817614   20.232374
  H     19.604505   16.174271   18.370678
  H     19.150901   14.030819   19.193998
  H     17.862037   12.487966   20.652161
  H     15.855553   13.327940   21.878678
  H     14.604947   15.072325   22.314140
  H     16.447029   17.242144   20.204285

 Total Charge           Charge          ....    0
 Multiplicity           Mult            ....    1
 Number of Electrons    NEL             ....  154
 Basis Dimension        Dim             ....  828

ORBITAL ENERGIES
----------------

  NO   OCC          E(Eh)            E(eV)
   0   2.0000     -91.888756     -2500.4202
   1   2.0000     -20.594783      -560.4125
   2   2.0000     -20.589099      -560.2579
   3   2.0000     -20.549067      -559.1686
   4   2.0000     -15.628761      -425.2802
   5   2.0000     -15.607727      -424.7078
   6   2.0000     -11.395823      -310.0961
   7   2.0000     -11.383850      -309.7703
   8   2.0000     -11.335648      -308.4587
   9   2.0000     -11.310903      -307.7853
  10   2.0000     -11.306900      -307.6764
  11   2.0000     -11.305004      -307.6248
  12   2.0000     -11.259815      -306.3952
  13   2.0000     -11.259214      -306.3788
  14   2.0000     -11.256286      -306.2991
  15   2.0000     -11.250957      -306.1541
  16   2.0000     -11.240679      -305.8744
  17   2.0000     -11.236534      -305.7616
  18   2.0000     -11.233325      -305.6743
  19   2.0000     -11.225060      -305.4494
  20   2.0000      -8.893820      -242.0131
  21   2.0000      -6.575397      -178.9256
  22   2.0000      -6.573389      -178.8710
  23   2.0000      -6.572804      -178.8551
  24   2.0000      -1.446603       -39.3641
  25   2.0000      -1.414596       -38.4931
  26   2.0000      -1.354783       -36.8655
  27   2.0000      -1.339761       -36.4568
  28   2.0000      -1.237682       -33.6790
  29   2.0000      -1.155100       -31.4319
  30   2.0000      -1.120352       -30.4863
  31   2.0000      -1.043132       -28.3851
  32   2.0000      -1.031957       -28.0810
  33   2.0000      -1.012592       -27.5540
  34   2.0000      -0.998929       -27.1822
  35   2.0000      -0.984463       -26.7886
  36   2.0000      -0.923130       -25.1196
  37   2.0000      -0.896393       -24.3921
  38   2.0000      -0.848655       -23.0931
  39   2.0000      -0.837673       -22.7942
  40   2.0000      -0.831029       -22.6135
  41   2.0000      -0.817943       -22.2574
  42   2.0000      -0.743780       -20.2393
  43   2.0000      -0.729798       -19.8588
  44   2.0000      -0.726722       -19.7751
  45   2.0000      -0.692598       -18.8465
  46   2.0000      -0.685703       -18.6589
  47   2.0000      -0.676188       -18.4000
  48   2.0000      -0.672868       -18.3097
  49   2.0000      -0.661365       -17.9967
  50   2.0000      -0.651953       -17.7405
  51   2.0000      -0.645372       -17.5615
  52   2.0000      -0.634092       -17.2545
  53   2.0000      -0.622253       -16.9324
  54   2.0000      -0.603171       -16.4131
  55   2.0000      -0.601588       -16.3700
  56   2.0000      -0.598566       -16.2878
  57   2.0000      -0.577438       -15.7129
  58   2.0000      -0.575097       -15.6492
  59   2.0000      -0.564100       -15.3499
  60   2.0000      -0.551836       -15.0162
  61   2.0000      -0.545891       -14.8545
  62   2.0000      -0.536435       -14.5971
  63   2.0000      -0.526091       -14.3157
  64   2.0000      -0.518596       -14.1117
  65   2.0000      -0.510438       -13.8897
  66   2.0000      -0.500773       -13.6267
  67   2.0000      -0.496261       -13.5039
  68   2.0000      -0.479496       -13.0478
  69   2.0000      -0.464292       -12.6340
  70   2.0000      -0.456104       -12.4112
  71   2.0000      -0.449193       -12.2232
  72   2.0000      -0.354257        -9.6398
  73   2.0000      -0.346867        -9.4387
  74   2.0000      -0.327977        -8.9247
  75   2.0000      -0.318151        -8.6573
  76   2.0000      -0.315594        -8.5878
  77   0.0000       0.073274         1.9939
  78   0.0000       0.108397         2.9496
  79   0.0000       0.120780         3.2866
  80   0.0000       0.133021         3.6197
  81   0.0000       0.139986         3.8092

MULLIKEN ATOMIC CHARGES
-----------------------
   0 C :   -0.327069
   1 C :    0.061810
   2 O :   -0.378072
   3 C :    0.463653
   4 O :   -0.413336
   5 C :   -0.190927
   6 C :    0.140295
   7 C :   -0.282449
   8 N :   -0.122487
   9 C :    0.200996
  10 S :   -0.438928
  11 N :   -0.201255
  12 C :    0.049467
  13 C :    0.039347
  14 C :   -0.160533
  15 C :   -0.137585
  16 C :   -0.274552
  17 C :    0.312586
  18 O :   -0.360533
  19 C :   -0.275076
  20 H :    0.126590
  21 H :    0.106290
  22 H :    0.106006
  23 H :    0.101150
  24 H :    0.094497
  25 H :    0.122656
  26 H :    0.129403
  27 H :    0.103531
  28 H :    0.197059
  29 H :    0.194274
  30 H :    0.154852
  31 H :    0.158717
  32 H :    0.161137
  33 H :    0.130342
  34 H :    0.240461
  35 H :    0.167684
Sum of atomic charges:    0.0000000

LOEWDIN ATOMIC CHARGES
----------------------
   0 C :    0.106083
   1 C :   -0.009992
   2 O :    0.287725
   3 C :   -0.417607
   4 O :    0.117874
   5 C :   -0.093836
   6 C :   -0.068374
   7 C :    0.125625
   8 N :    0.404671
   9 C :   -0.458455
  10 S :   -0.035837
  11 N :    0.397631
  12 C :   -0.045979
  13 C :   -0.040780
  14 C :    0.022872
  15 C :    0.041629
  16 C :   -0.002300
  17 C :   -0.194171
  18 O :    0.393743
  19 C :    0.027280
  20 H :   -0.023906
  21 H :   -0.025432
  22 H :   -0.026412
  23 H :   -0.027968
  24 H :   -0.028449
  25 H :   -0.010408
  26 H :   -0.006924
  27 H :   -0.020591
  28 H :   -0.058929
  29 H :   -0.063869
  30 H :   -0.004750
  31 H :   -0.024615
  32 H :   -0.020613
  33 H :   -0.035862
  34 H :   -0.154321
  35 H :   -0.024754

  Mayer bond orders larger than 0.100000
B(  0-C ,  1-C ) :   0.9633 B(  0-C , 20-H ) :   0.9706 B(  0-C , 21-H ) :   0.9752
B(  0-C , 22-H ) :   0.9672 B(  1-C ,  2-O ) :   0.8991 B(  1-C , 23-H ) :   0.9841
B(  1-C , 24-H ) :   0.9801 B(  2-O ,  3-C ) :   1.1029 B(  3-C ,  4-O ) :   2.0119
B(  3-C ,  5-C ) :   1.0359 B(  5-C ,  6-C ) :   1.6605 B(  5-C , 12-C ) :   0.9607
B(  6-C ,  7-C ) :   0.9530 B(  6-C ,  8-N ) :   1.1464 B(  7-C , 25-H ) :   0.9652
B(  7-C , 26-H ) :   0.9664 B(  7-C , 27-H ) :   0.9901 B(  8-N ,  9-C ) :   1.1810
B(  8-N , 28-H ) :   0.9490 B(  9-C , 10-S ) :   1.6114 B(  9-C , 11-N ) :   1.3025
B( 11-N , 12-C ) :   0.9912 B( 11-N , 29-H ) :   0.9517 B( 12-C , 13-C ) :   0.9447
B( 12-C , 30-H ) :   0.9996 B( 13-C , 14-C ) :   1.3807 B( 13-C , 19-C ) :   1.3651
B( 14-C , 15-C ) :   1.3937 B( 14-C , 31-H ) :   0.9623 B( 15-C , 16-C ) :   1.3622
B( 15-C , 32-H ) :   0.9708 B( 16-C , 17-C ) :   1.3317 B( 16-C , 33-H ) :   0.9849
B( 17-C , 18-O ) :   1.1092 B( 17-C , 19-C ) :   1.3720 B( 18-O , 34-H ) :   0.9802
B( 19-C , 35-H ) :   0.9589

MP2 TOTAL ENERGY:    -1274.334538353 Eh
FINAL SINGLE POINT ENERGY     -1274.334538353077

DIPOLE MOMENT
-------------
                                X             Y             Z
Electronic contribution:      9.77895       9.81868       7.16829
Nuclear contribution   :    -11.29520     -11.07041      -7.96147
                        -----------------------------------------
Total Dipole Moment    :     -1.51625      -1.25173      -0.79318
                        -----------------------------------------
Magnitude (a.u.)       :      2.12013
Magnitude (Debye)      :      5.38895

Rotational constants in cm-1:     0.011738     0.009334     0.006483
Rotational constants in MHz :   351.889400   279.812184   194.362319

                             ****ORCA TERMINATED NORMALLY****
TOTAL RUN TIME: 0 days 2 hours 9 minutes 45 seconds 811 msec
