                         Program Version 5.0.0 -  RELEASE  -
|  1> ! ri-mp2 cc-pvtz cc-pvtz/c TightSCF NoKeepInts
|  2>
|  3> %scf
|  4>   MaxCore 4096
|  5> end
|  6> *xyz  0  1
|  7>     C       15.0317578   15.3270055   17.1709892
|  8>     C       15.7751161   14.8530165   15.9074041
|  9>     O       16.8422113   15.7546379   15.5480760
| 10>     C       17.9522376   15.8368450   16.3392854
| 11>     O       18.6463932   14.8490089   16.5047653
| 12>     C       17.8949343   16.9262568   17.3718993
| 13>     C       17.2871742   18.1224641   17.1646429
| 14>     C       16.5828533   18.5953601   15.9087758
| 15>     N       17.3817381   19.1260268   18.1339669
| 16>     C       18.2304967   19.0912181   19.2092453
| 17>     S       18.4118874   20.3879374   20.2193563
| 18>     N       18.9226502   17.9220008   19.4030458
| 19>     C       18.6660553   16.6649641   18.6732747
| 20>     C       17.9453716   15.6580627   19.5685312
| 21>     C       18.3602330   14.3136220   19.5984598
| 22>     C       17.7010525   13.3758237   20.4104704
| 23>     C       16.6160343   13.7840053   21.2040898
| 24>     C       16.1985257   15.1212368   21.1795406
| 25>     O       15.1452013   15.5170233   21.9375663
| 26>     C       16.8562643   16.0524895   20.3697119
| 27>     H       15.6653779   15.2246435   18.0566344
| 28>     H       14.1387263   14.7120814   17.3358422
| 29>     H       14.7107081   16.3705032   17.0815966
| 30>     H       16.1715868   13.8405342   16.0657586
| 31>     H       15.0604424   14.8042122   15.0758660
| 32>     H       15.5842222   18.1522512   15.8241218
| 33>     H       17.1502923   18.3144725   15.0125994
| 34>     H       16.4656957   19.6855912   15.8796705
| 35>     H       16.8863863   19.9937721   18.0039980
| 36>     H       19.5250154   17.9126320   20.2162361
| 37>     H       19.6424733   16.2367398   18.4034239
| 38>     H       19.1914976   13.9906638   18.9756489
| 39>     H       18.0305611   12.3383051   20.4182274
| 40>     H       16.1029203   13.0625135   21.8311946
| 41>     H       14.8618293   14.7534051   22.4624968
| 42>     H       16.5110768   17.0806738   20.3675875
| 43> *
| 44>
| 45>                          ****END OF INPUT****

CARTESIAN COORDINATES (ANGSTROEM)
---------------------------------
  C     15.031758   15.327006   17.170989
  C     15.775116   14.853017   15.907404
  O     16.842211   15.754638   15.548076
  C     17.952238   15.836845   16.339285
  O     18.646393   14.849009   16.504765
  C     17.894934   16.926257   17.371899
  C     17.287174   18.122464   17.164643
  C     16.582853   18.595360   15.908776
  N     17.381738   19.126027   18.133967
  C     18.230497   19.091218   19.209245
  S     18.411887   20.387937   20.219356
  N     18.922650   17.922001   19.403046
  C     18.666055   16.664964   18.673275
  C     17.945372   15.658063   19.568531
  C     18.360233   14.313622   19.598460
  C     17.701052   13.375824   20.410470
  C     16.616034   13.784005   21.204090
  C     16.198526   15.121237   21.179541
  O     15.145201   15.517023   21.937566
  C     16.856264   16.052490   20.369712
  H     15.665378   15.224643   18.056634
  H     14.138726   14.712081   17.335842
  H     14.710708   16.370503   17.081597
  H     16.171587   13.840534   16.065759
  H     15.060442   14.804212   15.075866
  H     15.584222   18.152251   15.824122
  H     17.150292   18.314473   15.012599
  H     16.465696   19.685591   15.879670
  H     16.886386   19.993772   18.003998
  H     19.525015   17.912632   20.216236
  H     19.642473   16.236740   18.403424
  H     19.191498   13.990664   18.975649
  H     18.030561   12.338305   20.418227
  H     16.102920   13.062513   21.831195
  H     14.861829   14.753405   22.462497
  H     16.511077   17.080674   20.367587

 Total Charge           Charge          ....    0
 Multiplicity           Mult            ....    1
 Number of Electrons    NEL             ....  154
 Basis Dimension        Dim             ....  828

ORBITAL ENERGIES
----------------

  NO   OCC          E(Eh)            E(eV)
   0   2.0000     -91.890620     -2500.4709
   1   2.0000     -20.595349      -560.4279
   2   2.0000     -20.582768      -560.0856
   3   2.0000     -20.554280      -559.3104
   4   2.0000     -15.630709      -425.3332
   5   2.0000     -15.609073      -424.7445
   6   2.0000     -11.395288      -310.0815
   7   2.0000     -11.385557      -309.8168
   8   2.0000     -11.336800      -308.4900
   9   2.0000     -11.311828      -307.8105
  10   2.0000     -11.309583      -307.7494
  11   2.0000     -11.302382      -307.5534
  12   2.0000     -11.262107      -306.4575
  13   2.0000     -11.261463      -306.4400
  14   2.0000     -11.258344      -306.3551
  15   2.0000     -11.252193      -306.1877
  16   2.0000     -11.241693      -305.9020
  17   2.0000     -11.237343      -305.7837
  18   2.0000     -11.234003      -305.6928
  19   2.0000     -11.227309      -305.5106
  20   2.0000      -8.895669      -242.0635
  21   2.0000      -6.577242      -178.9759
  22   2.0000      -6.575237      -178.9213
  23   2.0000      -6.574646      -178.9052
  24   2.0000      -1.450029       -39.4573
  25   2.0000      -1.415187       -38.5092
  26   2.0000      -1.354731       -36.8641
  27   2.0000      -1.341695       -36.5094
  28   2.0000      -1.239264       -33.7221
  29   2.0000      -1.155891       -31.4534
  30   2.0000      -1.121675       -30.5223
  31   2.0000      -1.044245       -28.4153
  32   2.0000      -1.033022       -28.1100
  33   2.0000      -1.013945       -27.5909
  34   2.0000      -1.000865       -27.2349
  35   2.0000      -0.987540       -26.8723
  36   2.0000      -0.924626       -25.1604
  37   2.0000      -0.892820       -24.2949
  38   2.0000      -0.849784       -23.1238
  39   2.0000      -0.839473       -22.8432
  40   2.0000      -0.832027       -22.6406
  41   2.0000      -0.818983       -22.2857
  42   2.0000      -0.751898       -20.4602
  43   2.0000      -0.734428       -19.9848
  44   2.0000      -0.728119       -19.8131
  45   2.0000      -0.694138       -18.8885
  46   2.0000      -0.687223       -18.7003
  47   2.0000      -0.675932       -18.3930
  48   2.0000      -0.673845       -18.3362
  49   2.0000      -0.661261       -17.9938
  50   2.0000      -0.653546       -17.7839
  51   2.0000      -0.646626       -17.5956
  52   2.0000      -0.638647       -17.3785
  53   2.0000      -0.610692       -16.6178
  54   2.0000      -0.602951       -16.4071
  55   2.0000      -0.600534       -16.3414
  56   2.0000      -0.598575       -16.2881
  57   2.0000      -0.584055       -15.8929
  58   2.0000      -0.574940       -15.6449
  59   2.0000      -0.562990       -15.3197
  60   2.0000      -0.561841       -15.2885
  61   2.0000      -0.550592       -14.9824
  62   2.0000      -0.546505       -14.8712
  63   2.0000      -0.524964       -14.2850
  64   2.0000      -0.520109       -14.1529
  65   2.0000      -0.513087       -13.9618
  66   2.0000      -0.499847       -13.6015
  67   2.0000      -0.492508       -13.4018
  68   2.0000      -0.481354       -13.0983
  69   2.0000      -0.464236       -12.6325
  70   2.0000      -0.456691       -12.4272
  71   2.0000      -0.451369       -12.2824
  72   2.0000      -0.356700        -9.7063
  73   2.0000      -0.346906        -9.4398
  74   2.0000      -0.329739        -8.9726
  75   2.0000      -0.320258        -8.7147
  76   2.0000      -0.317471        -8.6388
  77   0.0000       0.068567         1.8658
  78   0.0000       0.106957         2.9105
  79   0.0000       0.119833         3.2608
  80   0.0000       0.132998         3.6191
  81   0.0000       0.133873         3.6429

MULLIKEN ATOMIC CHARGES
-----------------------
   0 C :   -0.332427
   1 C :    0.042906
   2 O :   -0.381615
   3 C :    0.475646
   4 O :   -0.400597
   5 C :   -0.216582
   6 C :    0.154546
   7 C :   -0.283708
   8 N :   -0.125780
   9 C :    0.186946
  10 S :   -0.434464
  11 N :   -0.203215
  12 C :    0.055593
  13 C :    0.025740
  14 C :   -0.179014
  15 C :   -0.141548
  16 C :   -0.273629
  17 C :    0.313148
  18 O :   -0.358834
  19 C :   -0.262881
  20 H :    0.126167
  21 H :    0.117886
  22 H :    0.095671
  23 H :    0.108968
  24 H :    0.110337
  25 H :    0.120643
  26 H :    0.129882
  27 H :    0.106715
  28 H :    0.197573
  29 H :    0.194859
  30 H :    0.159564
  31 H :    0.167127
  32 H :    0.161910
  33 H :    0.131217
  34 H :    0.240475
  35 H :    0.170773
Sum of atomic charges:   -0.0000000

LOEWDIN ATOMIC CHARGES
----------------------
   0 C :    0.106010
   1 C :   -0.016967
   2 O :    0.281820
   3 C :   -0.415926
   4 O :    0.126751
   5 C :   -0.092904
   6 C :   -0.069011
   7 C :    0.126517
   8 N :    0.405940
   9 C :   -0.460123
  10 S :   -0.033638
  11 N :    0.397157
  12 C :   -0.044610
  13 C :   -0.042181
  14 C :    0.019693
  15 C :    0.041284
  16 C :   -0.002141
  17 C :   -0.194122
  18 O :    0.394810
  19 C :    0.028357
  20 H :   -0.027722
  21 H :   -0.023008
  22 H :   -0.032858
  23 H :   -0.026066
  24 H :   -0.023031
  25 H :   -0.014717
  26 H :   -0.006419
  27 H :   -0.019166
  28 H :   -0.058604
  29 H :   -0.063936
  30 H :   -0.002890
  31 H :   -0.023724
  32 H :   -0.019949
  33 H :   -0.035542
  34 H :   -0.154158
  35 H :   -0.024926

  Mayer bond orders larger than 0.100000
B(  0-C ,  1-C ) :   0.9617 B(  0-C , 20-H ) :   0.9650 B(  0-C , 21-H ) :   0.9794
B(  0-C , 22-H ) :   0.9753 B(  1-C ,  2-O ) :   0.8930 B(  1-C , 23-H ) :   0.9803
B(  1-C , 24-H ) :   0.9838 B(  2-O ,  3-C ) :   1.0904 B(  3-C ,  4-O ) :   2.0186
B(  3-C ,  5-C ) :   1.0299 B(  5-C ,  6-C ) :   1.6592 B(  5-C , 12-C ) :   0.9558
B(  6-C ,  7-C ) :   0.9535 B(  6-C ,  8-N ) :   1.1344 B(  7-C , 25-H ) :   0.9638
B(  7-C , 26-H ) :   0.9675 B(  7-C , 27-H ) :   0.9892 B(  8-N ,  9-C ) :   1.1800
B(  8-N , 28-H ) :   0.9494 B(  9-C , 10-S ) :   1.6169 B(  9-C , 11-N ) :   1.2976
B( 11-N , 12-C ) :   0.9827 B( 11-N , 29-H ) :   0.9518 B( 12-C , 13-C ) :   0.9495
B( 12-C , 30-H ) :   0.9978 B( 13-C , 14-C ) :   1.3880 B( 13-C , 19-C ) :   1.3524
B( 14-C , 15-C ) :   1.3973 B( 14-C , 31-H ) :   0.9590 B( 15-C , 16-C ) :   1.3624
B( 15-C , 32-H ) :   0.9709 B( 16-C , 17-C ) :   1.3306 B( 16-C , 33-H ) :   0.9847
B( 17-C , 18-O ) :   1.1111 B( 17-C , 19-C ) :   1.3747 B( 18-O , 34-H ) :   0.9801
B( 19-C , 35-H ) :   0.9596

MP2 TOTAL ENERGY:    -1274.326060989 Eh
FINAL SINGLE POINT ENERGY     -1274.326060989039

DIPOLE MOMENT
-------------
                                X             Y             Z
Electronic contribution:      9.88363       7.65050       6.45325
Nuclear contribution   :    -11.21959      -8.86240      -7.13594
                        -----------------------------------------
Total Dipole Moment    :     -1.33596      -1.21189      -0.68269
                        -----------------------------------------
Magnitude (a.u.)       :      1.92862
Magnitude (Debye)      :      4.90215

Rotational constants in cm-1:     0.011289     0.009945     0.006756
Rotational constants in MHz :   338.426748   298.133650   202.546145

                             ****ORCA TERMINATED NORMALLY****
TOTAL RUN TIME: 0 days 1 hours 39 minutes 24 seconds 199 msec
