                         Program Version 5.0.0 -  RELEASE  -
|  1> ! ri-mp2 cc-pvtz cc-pvtz/c TightSCF NoKeepInts
|  2>
|  3> %scf
|  4>   MaxCore 4096
|  5> end
|  6> *xyz  0  1
|  7>     C       15.0031884   14.6633112   16.7254064
|  8>     C       16.4325750   14.0769341   16.7735852
|  9>     O       17.4666101   15.0015216   16.3462128
| 10>     C       17.2410386   16.3393460   16.1749765
| 11>     O       16.5930437   16.7474239   15.2275171
| 12>     C       17.7065056   17.1957573   17.3226098
| 13>     C       17.4400111   18.5262007   17.3867653
| 14>     C       16.6182966   19.3483512   16.4168904
| 15>     N       17.9819123   19.3003662   18.4173844
| 16>     C       18.9318188   18.8645984   19.3021184
| 17>     S       19.6458694   19.8811344   20.3941995
| 18>     N       19.2737359   17.5388174   19.2243866
| 19>     C       18.5611232   16.5325517   18.4171292
| 20>     C       17.7579599   15.6342949   19.3515205
| 21>     C       18.2923327   14.4014077   19.7716580
| 22>     C       17.5648592   13.5628890   20.6329601
| 23>     C       16.2954903   13.9628734   21.0839314
| 24>     C       15.7673274   15.1968444   20.6810288
| 25>     O       14.5436424   15.5880084   21.1166258
| 26>     C       16.4936576   16.0298825   19.8248033
| 27>     H       14.9067134   15.5413454   17.3756682
| 28>     H       14.2775747   13.9155681   17.0672651
| 29>     H       14.7294237   14.9492614   15.7018185
| 30>     H       16.6356713   13.7432934   17.7970595
| 31>     H       16.4723617   13.1851148   16.1350595
| 32>     H       15.6097528   18.9285289   16.3118297
| 33>     H       17.0794068   19.3429837   15.4208234
| 34>     H       16.5087934   20.3944629   16.7258378
| 35>     H       17.7511332   20.2792317   18.4782520
| 36>     H       19.9583707   17.2411777   19.9072581
| 37>     H       19.3181326   15.9142584   17.9139055
| 38>     H       19.2739192   14.0893869   19.4243567
| 39>     H       17.9856459   12.6100026   20.9502273
| 40>     H       15.7299828   13.3188757   21.7496663
| 41>     H       14.2295634   14.9202050   21.7450379
| 42>     H       16.0695564   16.9857890   19.5382248
| 43> *
| 44>
| 45>                          ****END OF INPUT****

CARTESIAN COORDINATES (ANGSTROEM)
---------------------------------
  C     15.003188   14.663311   16.725406
  C     16.432575   14.076934   16.773585
  O     17.466610   15.001522   16.346213
  C     17.241039   16.339346   16.174976
  O     16.593044   16.747424   15.227517
  C     17.706506   17.195757   17.322610
  C     17.440011   18.526201   17.386765
  C     16.618297   19.348351   16.416890
  N     17.981912   19.300366   18.417384
  C     18.931819   18.864598   19.302118
  S     19.645869   19.881134   20.394199
  N     19.273736   17.538817   19.224387
  C     18.561123   16.532552   18.417129
  C     17.757960   15.634295   19.351520
  C     18.292333   14.401408   19.771658
  C     17.564859   13.562889   20.632960
  C     16.295490   13.962873   21.083931
  C     15.767327   15.196844   20.681029
  O     14.543642   15.588008   21.116626
  C     16.493658   16.029882   19.824803
  H     14.906713   15.541345   17.375668
  H     14.277575   13.915568   17.067265
  H     14.729424   14.949261   15.701818
  H     16.635671   13.743293   17.797059
  H     16.472362   13.185115   16.135060
  H     15.609753   18.928529   16.311830
  H     17.079407   19.342984   15.420823
  H     16.508793   20.394463   16.725838
  H     17.751133   20.279232   18.478252
  H     19.958371   17.241178   19.907258
  H     19.318133   15.914258   17.913905
  H     19.273919   14.089387   19.424357
  H     17.985646   12.610003   20.950227
  H     15.729983   13.318876   21.749666
  H     14.229563   14.920205   21.745038
  H     16.069556   16.985789   19.538225

 Total Charge           Charge          ....    0
 Multiplicity           Mult            ....    1
 Number of Electrons    NEL             ....  154
 Basis Dimension        Dim             ....  828

ORBITAL ENERGIES
----------------

  NO   OCC          E(Eh)            E(eV)
   0   2.0000     -91.890445     -2500.4661
   1   2.0000     -20.603355      -560.6458
   2   2.0000     -20.581011      -560.0378
   3   2.0000     -20.544550      -559.0456
   4   2.0000     -15.630983      -425.3407
   5   2.0000     -15.609699      -424.7615
   6   2.0000     -11.393000      -310.0193
   7   2.0000     -11.385224      -309.8077
   8   2.0000     -11.337597      -308.5117
   9   2.0000     -11.320889      -308.0571
  10   2.0000     -11.311652      -307.8057
  11   2.0000     -11.297191      -307.4122
  12   2.0000     -11.265560      -306.5515
  13   2.0000     -11.262241      -306.4612
  14   2.0000     -11.258874      -306.3695
  15   2.0000     -11.253368      -306.2197
  16   2.0000     -11.249589      -306.1169
  17   2.0000     -11.244160      -305.9691
  18   2.0000     -11.244116      -305.9680
  19   2.0000     -11.224454      -305.4329
  20   2.0000      -8.895484      -242.0584
  21   2.0000      -6.577053      -178.9707
  22   2.0000      -6.575054      -178.9163
  23   2.0000      -6.574463      -178.9002
  24   2.0000      -1.440707       -39.2036
  25   2.0000      -1.422956       -38.7206
  26   2.0000      -1.349174       -36.7129
  27   2.0000      -1.342150       -36.5218
  28   2.0000      -1.240773       -33.7632
  29   2.0000      -1.163468       -31.6596
  30   2.0000      -1.121579       -30.5197
  31   2.0000      -1.046916       -28.4880
  32   2.0000      -1.030339       -28.0369
  33   2.0000      -1.021920       -27.8079
  34   2.0000      -0.998789       -27.1784
  35   2.0000      -0.986253       -26.8373
  36   2.0000      -0.925807       -25.1925
  37   2.0000      -0.894296       -24.3350
  38   2.0000      -0.849800       -23.1242
  39   2.0000      -0.843941       -22.9648
  40   2.0000      -0.839451       -22.8426
  41   2.0000      -0.821834       -22.3632
  42   2.0000      -0.745323       -20.2813
  43   2.0000      -0.735716       -20.0199
  44   2.0000      -0.717137       -19.5143
  45   2.0000      -0.701758       -19.0958
  46   2.0000      -0.691427       -18.8147
  47   2.0000      -0.673515       -18.3273
  48   2.0000      -0.669731       -18.2243
  49   2.0000      -0.660746       -17.9798
  50   2.0000      -0.654538       -17.8109
  51   2.0000      -0.646326       -17.5874
  52   2.0000      -0.638585       -17.3768
  53   2.0000      -0.623318       -16.9613
  54   2.0000      -0.613927       -16.7058
  55   2.0000      -0.604884       -16.4597
  56   2.0000      -0.601904       -16.3786
  57   2.0000      -0.582972       -15.8635
  58   2.0000      -0.572400       -15.5758
  59   2.0000      -0.567526       -15.4432
  60   2.0000      -0.546387       -14.8680
  61   2.0000      -0.540697       -14.7131
  62   2.0000      -0.535769       -14.5790
  63   2.0000      -0.531519       -14.4634
  64   2.0000      -0.524928       -14.2840
  65   2.0000      -0.515665       -14.0320
  66   2.0000      -0.505813       -13.7639
  67   2.0000      -0.492921       -13.4131
  68   2.0000      -0.486588       -13.2407
  69   2.0000      -0.463367       -12.6088
  70   2.0000      -0.453535       -12.3413
  71   2.0000      -0.440914       -11.9979
  72   2.0000      -0.357152        -9.7186
  73   2.0000      -0.355853        -9.6833
  74   2.0000      -0.331408        -9.0181
  75   2.0000      -0.327166        -8.9026
  76   2.0000      -0.317901        -8.6505
  77   0.0000       0.071045         1.9332
  78   0.0000       0.100930         2.7465
  79   0.0000       0.120787         3.2868
  80   0.0000       0.127323         3.4646
  81   0.0000       0.130805         3.5594

MULLIKEN ATOMIC CHARGES
-----------------------
   0 C :   -0.319548
   1 C :    0.033066
   2 O :   -0.396328
   3 C :    0.501961
   4 O :   -0.409498
   5 C :   -0.285525
   6 C :    0.165280
   7 C :   -0.270450
   8 N :   -0.124127
   9 C :    0.217046
  10 S :   -0.439650
  11 N :   -0.208402
  12 C :    0.065790
  13 C :    0.052209
  14 C :   -0.191383
  15 C :   -0.131326
  16 C :   -0.273688
  17 C :    0.318240
  18 O :   -0.358076
  19 C :   -0.274884
  20 H :    0.098231
  21 H :    0.107384
  22 H :    0.127934
  23 H :    0.107967
  24 H :    0.117261
  25 H :    0.128566
  26 H :    0.136080
  27 H :    0.095129
  28 H :    0.197969
  29 H :    0.193681
  30 H :    0.151415
  31 H :    0.150260
  32 H :    0.163428
  33 H :    0.133662
  34 H :    0.242652
  35 H :    0.177676
Sum of atomic charges:    0.0000000

LOEWDIN ATOMIC CHARGES
----------------------
   0 C :    0.104836
   1 C :   -0.009547
   2 O :    0.279647
   3 C :   -0.420730
   4 O :    0.117268
   5 C :   -0.099484
   6 C :   -0.058009
   7 C :    0.131210
   8 N :    0.407620
   9 C :   -0.454936
  10 S :   -0.034118
  11 N :    0.396199
  12 C :   -0.052825
  13 C :   -0.036303
  14 C :    0.011731
  15 C :    0.041990
  16 C :   -0.001620
  17 C :   -0.189235
  18 O :    0.396682
  19 C :    0.031965
  20 H :   -0.031537
  21 H :   -0.023698
  22 H :   -0.024134
  23 H :   -0.032862
  24 H :   -0.026288
  25 H :   -0.005841
  26 H :   -0.002633
  27 H :   -0.023295
  28 H :   -0.057291
  29 H :   -0.065868
  30 H :   -0.007437
  31 H :   -0.029529
  32 H :   -0.019440
  33 H :   -0.034227
  34 H :   -0.152079
  35 H :   -0.026183

  Mayer bond orders larger than 0.100000
B(  0-C ,  1-C ) :   0.9691 B(  0-C , 20-H ) :   0.9720 B(  0-C , 21-H ) :   0.9744
B(  0-C , 22-H ) :   0.9713 B(  1-C ,  2-O ) :   0.8901 B(  1-C , 23-H ) :   0.9697
B(  1-C , 24-H ) :   0.9839 B(  2-O ,  3-C ) :   1.0968 B(  3-C ,  4-O ) :   2.0131
B(  3-C ,  5-C ) :   1.0611 B(  5-C ,  6-C ) :   1.6446 B(  5-C , 12-C ) :   0.9723
B(  6-C ,  7-C ) :   0.9683 B(  6-C ,  8-N ) :   1.1618 B(  7-C , 25-H ) :   0.9628
B(  7-C , 26-H ) :   0.9572 B(  7-C , 27-H ) :   0.9893 B(  8-N ,  9-C ) :   1.1824
B(  8-N , 28-H ) :   0.9478 B(  9-C , 10-S ) :   1.6049 B(  9-C , 11-N ) :   1.3070
B( 11-N , 12-C ) :   0.9617 B( 11-N , 29-H ) :   0.9528 B( 12-C , 13-C ) :   0.9502
B( 12-C , 30-H ) :   1.0007 B( 13-C , 14-C ) :   1.3455 B( 13-C , 19-C ) :   1.3606
B( 14-C , 15-C ) :   1.3983 B( 14-C , 31-H ) :   0.9745 B( 15-C , 16-C ) :   1.3613
B( 15-C , 32-H ) :   0.9699 B( 16-C , 17-C ) :   1.3317 B( 16-C , 33-H ) :   0.9838
B( 17-C , 18-O ) :   1.1122 B( 17-C , 19-C ) :   1.3653 B( 18-O , 34-H ) :   0.9789
B( 19-C , 35-H ) :   0.9541

MP2 TOTAL ENERGY:    -1274.332618731 Eh
FINAL SINGLE POINT ENERGY     -1274.332618730500

DIPOLE MOMENT
-------------
                                X             Y             Z
Electronic contribution:      9.93517       8.60174       5.51976
Nuclear contribution   :    -10.97454     -10.21116      -5.23188
                        -----------------------------------------
Total Dipole Moment    :     -1.03936      -1.60941       0.28787
                        -----------------------------------------
Magnitude (a.u.)       :      1.93736
Magnitude (Debye)      :      4.92437

Rotational constants in cm-1:     0.012345     0.009197     0.006639
Rotational constants in MHz :   370.085440   275.731879   199.026224

                             ****ORCA TERMINATED NORMALLY****
TOTAL RUN TIME: 0 days 2 hours 24 minutes 38 seconds 271 msec
