                         Program Version 5.0.0 -  RELEASE  -
|  1> ! ri-mp2 cc-pvtz cc-pvtz/c TightSCF NoKeepInts
|  2>
|  3> %scf
|  4>   MaxCore 4096
|  5> end
|  6> *xyz  0  1
|  7>     C       14.7684953   15.7268417   16.5951986
|  8>     C       15.8050750   14.7117802   17.1145873
|  9>     O       17.0349376   14.8142049   16.3648711
| 10>     C       17.8329972   15.9256132   16.2652013
| 11>     O       18.4716285   16.1333342   15.2508599
| 12>     C       17.7898799   16.9324961   17.3687790
| 13>     C       17.3776266   18.1966393   17.1169327
| 14>     C       16.7706036   18.7089015   15.8284791
| 15>     N       17.5489394   19.1968226   18.0756340
| 16>     C       18.2827617   19.0535003   19.2231344
| 17>     S       18.5222830   20.3111781   20.2695949
| 18>     N       18.8163559   17.8109881   19.4604559
| 19>     C       18.5494029   16.5970795   18.6625622
| 20>     C       17.8912140   15.5303790   19.5280402
| 21>     C       18.3308680   14.1950794   19.4563425
| 22>     C       17.7272540   13.2002514   20.2434208
| 23>     C       16.6778216   13.5424896   21.1130104
| 24>     C       16.2397737   14.8712810   21.1914597
| 25>     O       15.2217076   15.2032902   22.0239207
| 26>     C       16.8398788   15.8598801   20.4049727
| 27>     H       14.9804864   16.7371016   16.9595512
| 28>     H       13.7664535   15.4551789   16.9492007
| 29>     H       14.7485544   15.7388281   15.4979650
| 30>     H       15.9491459   14.8476948   18.1860701
| 31>     H       15.4035555   13.7001724   16.9721359
| 32>     H       16.3514216   17.8996902   15.2184542
| 33>     H       17.5374962   19.2026572   15.2179624
| 34>     H       15.9640640   19.4281384   16.0146726
| 35>     H       17.1945110   20.1236874   17.8991755
| 36>     H       19.3414779   17.7349363   20.3226469
| 37>     H       19.5277198   16.2006961   18.3540003
| 38>     H       19.1381459   13.9241638   18.7798530
| 39>     H       18.0734490   12.1698035   20.1777360
| 40>     H       16.2092822   12.7765977   21.7227370
| 41>     H       14.9809606   14.4090963   22.5248111
| 42>     H       16.4807716   16.8815273   20.4795708
| 43> *
| 44>
| 45>                          ****END OF INPUT****

CARTESIAN COORDINATES (ANGSTROEM)
---------------------------------
  C     14.768495   15.726842   16.595199
  C     15.805075   14.711780   17.114587
  O     17.034938   14.814205   16.364871
  C     17.832997   15.925613   16.265201
  O     18.471629   16.133334   15.250860
  C     17.789880   16.932496   17.368779
  C     17.377627   18.196639   17.116933
  C     16.770604   18.708901   15.828479
  N     17.548939   19.196823   18.075634
  C     18.282762   19.053500   19.223134
  S     18.522283   20.311178   20.269595
  N     18.816356   17.810988   19.460456
  C     18.549403   16.597079   18.662562
  C     17.891214   15.530379   19.528040
  C     18.330868   14.195079   19.456342
  C     17.727254   13.200251   20.243421
  C     16.677822   13.542490   21.113010
  C     16.239774   14.871281   21.191460
  O     15.221708   15.203290   22.023921
  C     16.839879   15.859880   20.404973
  H     14.980486   16.737102   16.959551
  H     13.766453   15.455179   16.949201
  H     14.748554   15.738828   15.497965
  H     15.949146   14.847695   18.186070
  H     15.403555   13.700172   16.972136
  H     16.351422   17.899690   15.218454
  H     17.537496   19.202657   15.217962
  H     15.964064   19.428138   16.014673
  H     17.194511   20.123687   17.899175
  H     19.341478   17.734936   20.322647
  H     19.527720   16.200696   18.354000
  H     19.138146   13.924164   18.779853
  H     18.073449   12.169804   20.177736
  H     16.209282   12.776598   21.722737
  H     14.980961   14.409096   22.524811
  H     16.480772   16.881527   20.479571

 Total Charge           Charge          ....    0
 Multiplicity           Mult            ....    1
 Number of Electrons    NEL             ....  154
 Basis Dimension        Dim             ....  828

ORBITAL ENERGIES
----------------

  NO   OCC          E(Eh)            E(eV)
   0   2.0000     -91.889914     -2500.4517
   1   2.0000     -20.604972      -560.6898
   2   2.0000     -20.595909      -560.4432
   3   2.0000     -20.551209      -559.2268
   4   2.0000     -15.625665      -425.1960
   5   2.0000     -15.612103      -424.8269
   6   2.0000     -11.396929      -310.1262
   7   2.0000     -11.386027      -309.8295
   8   2.0000     -11.327436      -308.2352
   9   2.0000     -11.323647      -308.1321
  10   2.0000     -11.320198      -308.0383
  11   2.0000     -11.299928      -307.4867
  12   2.0000     -11.269893      -306.6694
  13   2.0000     -11.264878      -306.5329
  14   2.0000     -11.261506      -306.4411
  15   2.0000     -11.258146      -306.3497
  16   2.0000     -11.253061      -306.2114
  17   2.0000     -11.247725      -306.0662
  18   2.0000     -11.247659      -306.0644
  19   2.0000     -11.232962      -305.6644
  20   2.0000      -8.895011      -242.0456
  21   2.0000      -6.576597      -178.9583
  22   2.0000      -6.574575      -178.9033
  23   2.0000      -6.573998      -178.8876
  24   2.0000      -1.444871       -39.3169
  25   2.0000      -1.424767       -38.7699
  26   2.0000      -1.358056       -36.9546
  27   2.0000      -1.339900       -36.4605
  28   2.0000      -1.240717       -33.7616
  29   2.0000      -1.166725       -31.7482
  30   2.0000      -1.124651       -30.6033
  31   2.0000      -1.051258       -28.6062
  32   2.0000      -1.036922       -28.2161
  33   2.0000      -1.025101       -27.8944
  34   2.0000      -1.003862       -27.3165
  35   2.0000      -0.989355       -26.9217
  36   2.0000      -0.929045       -25.2806
  37   2.0000      -0.896238       -24.3879
  38   2.0000      -0.851984       -23.1837
  39   2.0000      -0.844505       -22.9802
  40   2.0000      -0.843419       -22.9506
  41   2.0000      -0.832906       -22.6645
  42   2.0000      -0.753487       -20.5034
  43   2.0000      -0.738717       -20.1015
  44   2.0000      -0.722774       -19.6677
  45   2.0000      -0.703663       -19.1476
  46   2.0000      -0.693260       -18.8646
  47   2.0000      -0.680932       -18.5291
  48   2.0000      -0.676313       -18.4034
  49   2.0000      -0.665482       -18.1087
  50   2.0000      -0.654130       -17.7998
  51   2.0000      -0.646867       -17.6021
  52   2.0000      -0.636798       -17.3281
  53   2.0000      -0.623701       -16.9718
  54   2.0000      -0.613643       -16.6981
  55   2.0000      -0.608842       -16.5674
  56   2.0000      -0.605460       -16.4754
  57   2.0000      -0.584678       -15.9099
  58   2.0000      -0.578854       -15.7514
  59   2.0000      -0.567753       -15.4493
  60   2.0000      -0.562417       -15.3041
  61   2.0000      -0.551218       -14.9994
  62   2.0000      -0.544146       -14.8070
  63   2.0000      -0.533680       -14.5222
  64   2.0000      -0.529687       -14.4135
  65   2.0000      -0.518269       -14.1028
  66   2.0000      -0.505945       -13.7675
  67   2.0000      -0.504766       -13.7354
  68   2.0000      -0.485961       -13.2237
  69   2.0000      -0.466923       -12.7056
  70   2.0000      -0.453597       -12.3430
  71   2.0000      -0.449141       -12.2217
  72   2.0000      -0.357511        -9.7284
  73   2.0000      -0.355269        -9.6674
  74   2.0000      -0.332556        -9.0493
  75   2.0000      -0.329100        -8.9553
  76   2.0000      -0.318554        -8.6683
  77   0.0000       0.086328         2.3491
  78   0.0000       0.098817         2.6890
  79   0.0000       0.119084         3.2404
  80   0.0000       0.125983         3.4282
  81   0.0000       0.130267         3.5447

MULLIKEN ATOMIC CHARGES
-----------------------
   0 C :   -0.331539
   1 C :    0.039769
   2 O :   -0.323886
   3 C :    0.391212
   4 O :   -0.369444
   5 C :   -0.194754
   6 C :    0.141012
   7 C :   -0.302121
   8 N :   -0.131483
   9 C :    0.204926
  10 S :   -0.440778
  11 N :   -0.214959
  12 C :    0.043166
  13 C :    0.019068
  14 C :   -0.195040
  15 C :   -0.134330
  16 C :   -0.270262
  17 C :    0.302765
  18 O :   -0.354055
  19 C :   -0.243308
  20 H :    0.102693
  21 H :    0.114121
  22 H :    0.114171
  23 H :    0.102191
  24 H :    0.122262
  25 H :    0.121526
  26 H :    0.148278
  27 H :    0.106116
  28 H :    0.197301
  29 H :    0.198583
  30 H :    0.163434
  31 H :    0.154616
  32 H :    0.165196
  33 H :    0.135509
  34 H :    0.241706
  35 H :    0.176336
Sum of atomic charges:   -0.0000000

LOEWDIN ATOMIC CHARGES
----------------------
   0 C :    0.102983
   1 C :   -0.016563
   2 O :    0.300649
   3 C :   -0.419861
   4 O :    0.129341
   5 C :   -0.084803
   6 C :   -0.091815
   7 C :    0.127581
   8 N :    0.404164
   9 C :   -0.456727
  10 S :   -0.037118
  11 N :    0.396880
  12 C :   -0.051124
  13 C :   -0.046701
  14 C :    0.017021
  15 C :    0.045485
  16 C :    0.001102
  17 C :   -0.192348
  18 O :    0.397931
  19 C :    0.029234
  20 H :   -0.034458
  21 H :   -0.023041
  22 H :   -0.025276
  23 H :   -0.038742
  24 H :   -0.019973
  25 H :   -0.009739
  26 H :   -0.005066
  27 H :   -0.019246
  28 H :   -0.057134
  29 H :   -0.064335
  30 H :   -0.006748
  31 H :   -0.026614
  32 H :   -0.017860
  33 H :   -0.033302
  34 H :   -0.152086
  35 H :   -0.021690

  Mayer bond orders larger than 0.100000
B(  0-C ,  1-C ) :   0.9595 B(  0-C , 20-H ) :   0.9755 B(  0-C , 21-H ) :   0.9782
B(  0-C , 22-H ) :   0.9753 B(  1-C ,  2-O ) :   0.8980 B(  1-C , 23-H ) :   0.9605
B(  1-C , 24-H ) :   0.9842 B(  2-O ,  3-C ) :   1.1875 B(  3-C ,  4-O ) :   2.1213
B(  3-C ,  5-C ) :   0.8920 B(  5-C ,  6-C ) :   1.7245 B(  5-C , 12-C ) :   0.9594
B(  6-C ,  7-C ) :   0.9532 B(  6-C ,  8-N ) :   1.1184 B(  7-C , 25-H ) :   0.9760
B(  7-C , 26-H ) :   0.9612 B(  7-C , 27-H ) :   0.9760 B(  8-N ,  9-C ) :   1.2010
B(  8-N , 28-H ) :   0.9508 B(  9-C , 10-S ) :   1.6111 B(  9-C , 11-N ) :   1.2823
B( 11-N , 12-C ) :   0.9936 B( 11-N , 29-H ) :   0.9480 B( 12-C , 13-C ) :   0.9409
B( 12-C , 30-H ) :   1.0058 B( 13-C , 14-C ) :   1.3786 B( 13-C , 19-C ) :   1.3550
B( 14-C , 15-C ) :   1.3942 B( 14-C , 31-H ) :   0.9701 B( 15-C , 16-C ) :   1.3652
B( 15-C , 32-H ) :   0.9692 B( 16-C , 17-C ) :   1.3273 B( 16-C , 33-H ) :   0.9832
B( 17-C , 18-O ) :   1.1145 B( 17-C , 19-C ) :   1.3651 B( 18-O , 34-H ) :   0.9786
B( 19-C , 35-H ) :   0.9583

MP2 TOTAL ENERGY:    -1274.329262872 Eh
FINAL SINGLE POINT ENERGY     -1274.329262872065

DIPOLE MOMENT
-------------
                                X             Y             Z
Electronic contribution:     10.01405       5.97983       6.99157
Nuclear contribution   :    -11.43771      -7.64427      -6.72280
                        -----------------------------------------
Total Dipole Moment    :     -1.42366      -1.66444       0.26878
                        -----------------------------------------
Magnitude (a.u.)       :      2.20668
Magnitude (Debye)      :      5.60893

Rotational constants in cm-1:     0.011726     0.009504     0.006534
Rotational constants in MHz :   351.525653   284.913260   195.878024

                             ****ORCA TERMINATED NORMALLY****
TOTAL RUN TIME: 0 days 2 hours 3 minutes 12 seconds 523 msec
