                         Program Version 5.0.0 -  RELEASE  -
|  1> ! ri-mp2 cc-pvtz cc-pvtz/c TightSCF NoKeepInts
|  2>
|  3> %scf
|  4>   MaxCore 4096
|  5> end
|  6> *xyz  0  1
|  7>     C       14.8112015   14.5157655   17.3546903
|  8>     C       15.5684232   15.5907308   16.5582125
|  9>     O       16.8812030   15.0588299   16.2901359
| 10>     C       18.0808603   15.6996559   16.4849202
| 11>     O       19.1075432   15.0546042   16.3809953
| 12>     C       18.0508243   16.8997672   17.3718698
| 13>     C       17.5613062   18.0910828   16.9587807
| 14>     C       16.9790607   18.4091534   15.5981613
| 15>     N       17.6234496   19.2000098   17.8050485
| 16>     C       18.2580629   19.2160642   19.0203405
| 17>     S       18.3426358   20.5901831   19.9360506
| 18>     N       18.8158399   18.0332607   19.4419123
| 19>     C       18.6946144   16.7356449   18.7465214
| 20>     C       17.9177973   15.7226078   19.5817280
| 21>     C       18.3528161   14.3865599   19.6510791
| 22>     C       17.6384342   13.4384960   20.4022365
| 23>     C       16.4758829   13.8278374   21.0888484
| 24>     C       16.0334187   15.1553899   21.0147261
| 25>     O       14.9015424   15.5307379   21.6615577
| 26>     C       16.7450944   16.0969098   20.2643844
| 27>     H       15.3484861   14.2684386   18.2782364
| 28>     H       14.7090462   13.5976633   16.7627767
| 29>     H       13.8076657   14.8665714   17.6239116
| 30>     H       15.0457587   15.8116727   15.6186428
| 31>     H       15.5890532   16.4965818   17.1723447
| 32>     H       17.1462366   17.6023000   14.8739681
| 33>     H       17.4427624   19.3101315   15.1761511
| 34>     H       15.8983151   18.5852973   15.6623157
| 35>     H       17.2342688   20.0813169   17.5082780
| 36>     H       19.2599818   18.0707118   20.3507823
| 37>     H       19.7108071   16.3428736   18.5932443
| 38>     H       19.2425189   14.0786012   19.1055489
| 39>     H       17.9842203   12.4069675   20.4436325
| 40>     H       15.9199899   13.0975456   21.6675392
| 41>     H       14.5873482   14.7644199   22.1650567
| 42>     H       16.3805303   17.1176161   20.2193715
| 43> *
| 44>
| 45>                          ****END OF INPUT****

CARTESIAN COORDINATES (ANGSTROEM)
---------------------------------
  C     14.811201   14.515766   17.354690
  C     15.568423   15.590731   16.558212
  O     16.881203   15.058830   16.290136
  C     18.080860   15.699656   16.484920
  O     19.107543   15.054604   16.380995
  C     18.050824   16.899767   17.371870
  C     17.561306   18.091083   16.958781
  C     16.979061   18.409153   15.598161
  N     17.623450   19.200010   17.805049
  C     18.258063   19.216064   19.020340
  S     18.342636   20.590183   19.936051
  N     18.815840   18.033261   19.441912
  C     18.694614   16.735645   18.746521
  C     17.917797   15.722608   19.581728
  C     18.352816   14.386560   19.651079
  C     17.638434   13.438496   20.402237
  C     16.475883   13.827837   21.088848
  C     16.033419   15.155390   21.014726
  O     14.901542   15.530738   21.661558
  C     16.745094   16.096910   20.264384
  H     15.348486   14.268439   18.278236
  H     14.709046   13.597663   16.762777
  H     13.807666   14.866571   17.623912
  H     15.045759   15.811673   15.618643
  H     15.589053   16.496582   17.172345
  H     17.146237   17.602300   14.873968
  H     17.442762   19.310132   15.176151
  H     15.898315   18.585297   15.662316
  H     17.234269   20.081317   17.508278
  H     19.259982   18.070712   20.350782
  H     19.710807   16.342874   18.593244
  H     19.242519   14.078601   19.105549
  H     17.984220   12.406968   20.443632
  H     15.919990   13.097546   21.667539
  H     14.587348   14.764420   22.165057
  H     16.380530   17.117616   20.219372

 Total Charge           Charge          ....    0
 Multiplicity           Mult            ....    1
 Number of Electrons    NEL             ....  154
 Basis Dimension        Dim             ....  828

ORBITAL ENERGIES
----------------

  NO   OCC          E(Eh)            E(eV)
   0   2.0000     -91.890066     -2500.4558
   1   2.0000     -20.602745      -560.6292
   2   2.0000     -20.599892      -560.5516
   3   2.0000     -20.549669      -559.1849
   4   2.0000     -15.626930      -425.2304
   5   2.0000     -15.611878      -424.8208
   6   2.0000     -11.398146      -310.1593
   7   2.0000     -11.386933      -309.8542
   8   2.0000     -11.328354      -308.2602
   9   2.0000     -11.316756      -307.9446
  10   2.0000     -11.315483      -307.9099
  11   2.0000     -11.303946      -307.5960
  12   2.0000     -11.270952      -306.6982
  13   2.0000     -11.265266      -306.5435
  14   2.0000     -11.263944      -306.5075
  15   2.0000     -11.257021      -306.3191
  16   2.0000     -11.245988      -306.0189
  17   2.0000     -11.242301      -305.9186
  18   2.0000     -11.239367      -305.8387
  19   2.0000     -11.227135      -305.5059
  20   2.0000      -8.895180      -242.0502
  21   2.0000      -6.576769      -178.9630
  22   2.0000      -6.574742      -178.9078
  23   2.0000      -6.574168      -178.8922
  24   2.0000      -1.448713       -39.4215
  25   2.0000      -1.419679       -38.6314
  26   2.0000      -1.359123       -36.9836
  27   2.0000      -1.340328       -36.4722
  28   2.0000      -1.240097       -33.7448
  29   2.0000      -1.161545       -31.6072
  30   2.0000      -1.126266       -30.6473
  31   2.0000      -1.049526       -28.5590
  32   2.0000      -1.038784       -28.2668
  33   2.0000      -1.019025       -27.7291
  34   2.0000      -1.005684       -27.3661
  35   2.0000      -0.989733       -26.9320
  36   2.0000      -0.928318       -25.2608
  37   2.0000      -0.883057       -24.0292
  38   2.0000      -0.855115       -23.2689
  39   2.0000      -0.841933       -22.9102
  40   2.0000      -0.837098       -22.7786
  41   2.0000      -0.835839       -22.7443
  42   2.0000      -0.756691       -20.5906
  43   2.0000      -0.740260       -20.1435
  44   2.0000      -0.731504       -19.9052
  45   2.0000      -0.698114       -18.9966
  46   2.0000      -0.689348       -18.7581
  47   2.0000      -0.682443       -18.5702
  48   2.0000      -0.676925       -18.4201
  49   2.0000      -0.661567       -18.0021
  50   2.0000      -0.655541       -17.8382
  51   2.0000      -0.645324       -17.5602
  52   2.0000      -0.640029       -17.4161
  53   2.0000      -0.613109       -16.6835
  54   2.0000      -0.608696       -16.5635
  55   2.0000      -0.607316       -16.5259
  56   2.0000      -0.601744       -16.3743
  57   2.0000      -0.586134       -15.9495
  58   2.0000      -0.578578       -15.7439
  59   2.0000      -0.568783       -15.4774
  60   2.0000      -0.560259       -15.2454
  61   2.0000      -0.557129       -15.1602
  62   2.0000      -0.545888       -14.8544
  63   2.0000      -0.530963       -14.4482
  64   2.0000      -0.519632       -14.1399
  65   2.0000      -0.514173       -13.9914
  66   2.0000      -0.502920       -13.6852
  67   2.0000      -0.501982       -13.6596
  68   2.0000      -0.487716       -13.2714
  69   2.0000      -0.470849       -12.8125
  70   2.0000      -0.452077       -12.3017
  71   2.0000      -0.450515       -12.2591
  72   2.0000      -0.357213        -9.7202
  73   2.0000      -0.352396        -9.5892
  74   2.0000      -0.329749        -8.9729
  75   2.0000      -0.324691        -8.8353
  76   2.0000      -0.318379        -8.6635
  77   0.0000       0.086535         2.3547
  78   0.0000       0.104422         2.8415
  79   0.0000       0.109996         2.9932
  80   0.0000       0.127811         3.4779
  81   0.0000       0.132471         3.6047

MULLIKEN ATOMIC CHARGES
-----------------------
   0 C :   -0.263136
   1 C :    0.012570
   2 O :   -0.308874
   3 C :    0.390734
   4 O :   -0.381903
   5 C :   -0.164663
   6 C :    0.120547
   7 C :   -0.321593
   8 N :   -0.136872
   9 C :    0.203892
  10 S :   -0.440875
  11 N :   -0.214729
  12 C :    0.063797
  13 C :    0.024534
  14 C :   -0.195321
  15 C :   -0.128724
  16 C :   -0.277880
  17 C :    0.305507
  18 O :   -0.360571
  19 C :   -0.260412
  20 H :    0.112026
  21 H :    0.105541
  22 H :    0.088855
  23 H :    0.109391
  24 H :    0.091779
  25 H :    0.123231
  26 H :    0.137200
  27 H :    0.123083
  28 H :    0.196427
  29 H :    0.198692
  30 H :    0.166034
  31 H :    0.167959
  32 H :    0.163627
  33 H :    0.132410
  34 H :    0.241717
  35 H :    0.176000
Sum of atomic charges:    0.0000000

LOEWDIN ATOMIC CHARGES
----------------------
   0 C :    0.110579
   1 C :   -0.023080
   2 O :    0.315204
   3 C :   -0.419133
   4 O :    0.124159
   5 C :   -0.081752
   6 C :   -0.106989
   7 C :    0.125276
   8 N :    0.400777
   9 C :   -0.455994
  10 S :   -0.037909
  11 N :    0.397581
  12 C :   -0.043554
  13 C :   -0.042352
  14 C :    0.023125
  15 C :    0.045580
  16 C :   -0.001171
  17 C :   -0.193819
  18 O :    0.395482
  19 C :    0.026643
  20 H :   -0.022427
  21 H :   -0.026259
  22 H :   -0.026206
  23 H :   -0.033399
  24 H :   -0.039957
  25 H :   -0.008390
  26 H :   -0.009748
  27 H :   -0.016229
  28 H :   -0.058217
  29 H :   -0.063579
  30 H :   -0.001939
  31 H :   -0.021633
  32 H :   -0.018337
  33 H :   -0.034816
  34 H :   -0.152902
  35 H :   -0.024616

  Mayer bond orders larger than 0.100000
B(  0-C ,  1-C ) :   0.9783 B(  0-C , 20-H ) :   0.9704 B(  0-C , 21-H ) :   0.9819
B(  0-C , 22-H ) :   0.9753 B(  1-C ,  2-O ) :   0.9153 B(  1-C , 23-H ) :   0.9775
B(  1-C , 24-H ) :   0.9615 B(  2-O ,  3-C ) :   1.1722 B(  3-C ,  4-O ) :   2.0898
B(  3-C ,  5-C ) :   0.9247 B(  5-C ,  6-C ) :   1.6913 B(  5-C , 12-C ) :   0.9610
B(  6-C ,  7-C ) :   0.9474 B(  6-C ,  8-N ) :   1.1103 B(  7-C , 25-H ) :   0.9805
B(  7-C , 26-H ) :   0.9722 B(  7-C , 27-H ) :   0.9651 B(  8-N ,  9-C ) :   1.1956
B(  8-N , 28-H ) :   0.9523 B(  9-C , 10-S ) :   1.6110 B(  9-C , 11-N ) :   1.2870
B( 11-N , 12-C ) :   0.9964 B( 11-N , 29-H ) :   0.9488 B( 12-C , 13-C ) :   0.9460
B( 12-C , 30-H ) :   0.9962 B( 13-C , 14-C ) :   1.3876 B( 13-C , 19-C ) :   1.3501
B( 14-C , 15-C ) :   1.3964 B( 14-C , 31-H ) :   0.9612 B( 15-C , 16-C ) :   1.3598
B( 15-C , 32-H ) :   0.9706 B( 16-C , 17-C ) :   1.3310 B( 16-C , 33-H ) :   0.9854
B( 17-C , 18-O ) :   1.1075 B( 17-C , 19-C ) :   1.3714 B( 18-O , 34-H ) :   0.9791
B( 19-C , 35-H ) :   0.9561

MP2 TOTAL ENERGY:    -1274.331071895 Eh
FINAL SINGLE POINT ENERGY     -1274.331071895043

DIPOLE MOMENT
-------------
                                X             Y             Z
Electronic contribution:     10.24090       7.99812       6.03716
Nuclear contribution   :    -11.79744      -8.96544      -6.55534
                        -----------------------------------------
Total Dipole Moment    :     -1.55654      -0.96732      -0.51818
                        -----------------------------------------
Magnitude (a.u.)       :      1.90448
Magnitude (Debye)      :      4.84080

Rotational constants in cm-1:     0.012387     0.009161     0.006876
Rotational constants in MHz :   371.338224   274.638564   206.128276

                             ****ORCA TERMINATED NORMALLY****
TOTAL RUN TIME: 0 days 1 hours 41 minutes 50 seconds 889 msec
