                         Program Version 5.0.0 -  RELEASE  -
|  1> ! ri-mp2 cc-pvtz cc-pvtz/c TightSCF NoKeepInts
|  2>
|  3> %scf
|  4>   MaxCore 4096
|  5> end
|  6> *xyz  0  1
|  7>     C       15.4167675   13.8552816   16.4453079
|  8>     C       15.3621064   15.1286505   15.5708235
|  9>     O       16.4485077   16.0690047   15.7755536
| 10>     C       17.5232504   15.8739510   16.5992708
| 11>     O       18.1125894   14.8100195   16.6879809
| 12>     C       17.8271110   17.0317206   17.5067489
| 13>     C       17.3984148   18.3079789   17.3211151
| 14>     C       16.5683564   18.8589679   16.1796767
| 15>     N       17.7846546   19.3074789   18.2204609
| 16>     C       18.6910923   19.1443272   19.2343975
| 17>     S       19.1774245   20.4107162   20.1806181
| 18>     N       19.1728904   17.8744447   19.4249810
| 19>     C       18.6815269   16.6716585   18.7271674
| 20>     C       17.9024897   15.7749094   19.6862292
| 21>     C       18.2500052   14.4196175   19.8358861
| 22>     C       17.5276646   13.5862906   20.7062299
| 23>     C       16.4469784   14.1116540   21.4346673
| 24>     C       16.0949244   15.4599528   21.2858838
| 25>     O       15.0469731   15.9684294   21.9819403
| 26>     C       16.8151533   16.2866433   20.4179482
| 27>     H       16.2444866   13.2014273   16.1433356
| 28>     H       14.4890480   13.2811838   16.3352425
| 29>     H       15.5327692   14.1057681   17.5078302
| 30>     H       15.3489337   14.8261298   14.5157145
| 31>     H       14.4149835   15.6465339   15.7691838
| 32>     H       15.5348015   18.4969461   16.2421970
| 33>     H       16.9797569   18.5452347   15.2120373
| 34>     H       16.5344847   19.9551855   16.1718880
| 35>     H       17.4429602   20.2471823   18.0974707
| 36>     H       19.8167243   17.7742269   20.1991670
| 37>     H       19.5592732   16.1140747   18.3692849
| 38>     H       19.0734294   14.0061703   19.2583517
| 39>     H       17.8033336   12.5381404   20.8075824
| 40>     H       15.8852973   13.4711000   22.1063493
| 41>     H       14.7111769   15.2635289   22.5557221
| 42>     H       16.5266598   17.3274700   20.3197560
| 43> *
| 44>
| 45>                          ****END OF INPUT****

CARTESIAN COORDINATES (ANGSTROEM)
---------------------------------
  C     15.416767   13.855282   16.445308
  C     15.362106   15.128650   15.570823
  O     16.448508   16.069005   15.775554
  C     17.523250   15.873951   16.599271
  O     18.112589   14.810019   16.687981
  C     17.827111   17.031721   17.506749
  C     17.398415   18.307979   17.321115
  C     16.568356   18.858968   16.179677
  N     17.784655   19.307479   18.220461
  C     18.691092   19.144327   19.234398
  S     19.177425   20.410716   20.180618
  N     19.172890   17.874445   19.424981
  C     18.681527   16.671658   18.727167
  C     17.902490   15.774909   19.686229
  C     18.250005   14.419617   19.835886
  C     17.527665   13.586291   20.706230
  C     16.446978   14.111654   21.434667
  C     16.094924   15.459953   21.285884
  O     15.046973   15.968429   21.981940
  C     16.815153   16.286643   20.417948
  H     16.244487   13.201427   16.143336
  H     14.489048   13.281184   16.335242
  H     15.532769   14.105768   17.507830
  H     15.348934   14.826130   14.515714
  H     14.414983   15.646534   15.769184
  H     15.534801   18.496946   16.242197
  H     16.979757   18.545235   15.212037
  H     16.534485   19.955185   16.171888
  H     17.442960   20.247182   18.097471
  H     19.816724   17.774227   20.199167
  H     19.559273   16.114075   18.369285
  H     19.073429   14.006170   19.258352
  H     17.803334   12.538140   20.807582
  H     15.885297   13.471100   22.106349
  H     14.711177   15.263529   22.555722
  H     16.526660   17.327470   20.319756

 Total Charge           Charge          ....    0
 Multiplicity           Mult            ....    1
 Number of Electrons    NEL             ....  154
 Basis Dimension        Dim             ....  828

ORBITAL ENERGIES
----------------

  NO   OCC          E(Eh)            E(eV)
   0   2.0000     -91.888035     -2500.4005
   1   2.0000     -20.593473      -560.3769
   2   2.0000     -20.593454      -560.3764
   3   2.0000     -20.546762      -559.1058
   4   2.0000     -15.628044      -425.2607
   5   2.0000     -15.606882      -424.6849
   6   2.0000     -11.396948      -310.1267
   7   2.0000     -11.382985      -309.7468
   8   2.0000     -11.335421      -308.4525
   9   2.0000     -11.309484      -307.7467
  10   2.0000     -11.306777      -307.6730
  11   2.0000     -11.305653      -307.6425
  12   2.0000     -11.259479      -306.3860
  13   2.0000     -11.258564      -306.3611
  14   2.0000     -11.255006      -306.2643
  15   2.0000     -11.249507      -306.1146
  16   2.0000     -11.239274      -305.8362
  17   2.0000     -11.235273      -305.7273
  18   2.0000     -11.232026      -305.6390
  19   2.0000     -11.226028      -305.4758
  20   2.0000      -8.893103      -241.9936
  21   2.0000      -6.574682      -178.9062
  22   2.0000      -6.572674      -178.8516
  23   2.0000      -6.572089      -178.8356
  24   2.0000      -1.445386       -39.3309
  25   2.0000      -1.413239       -38.4562
  26   2.0000      -1.355445       -36.8835
  27   2.0000      -1.339096       -36.4386
  28   2.0000      -1.236942       -33.6589
  29   2.0000      -1.153690       -31.3935
  30   2.0000      -1.119280       -30.4572
  31   2.0000      -1.042379       -28.3646
  32   2.0000      -1.033735       -28.1294
  33   2.0000      -1.011173       -27.5154
  34   2.0000      -0.997910       -27.1545
  35   2.0000      -0.983195       -26.7541
  36   2.0000      -0.922137       -25.0926
  37   2.0000      -0.896885       -24.4055
  38   2.0000      -0.848198       -23.0807
  39   2.0000      -0.836671       -22.7670
  40   2.0000      -0.829645       -22.5758
  41   2.0000      -0.818335       -22.2680
  42   2.0000      -0.742844       -20.2138
  43   2.0000      -0.727445       -19.7948
  44   2.0000      -0.725284       -19.7360
  45   2.0000      -0.691256       -18.8100
  46   2.0000      -0.684610       -18.6292
  47   2.0000      -0.676165       -18.3994
  48   2.0000      -0.674261       -18.3476
  49   2.0000      -0.663994       -18.0682
  50   2.0000      -0.649293       -17.6682
  51   2.0000      -0.644453       -17.5365
  52   2.0000      -0.634269       -17.2593
  53   2.0000      -0.617267       -16.7967
  54   2.0000      -0.601965       -16.3803
  55   2.0000      -0.600602       -16.3432
  56   2.0000      -0.596991       -16.2450
  57   2.0000      -0.575917       -15.6715
  58   2.0000      -0.574447       -15.6315
  59   2.0000      -0.565149       -15.3785
  60   2.0000      -0.554817       -15.0973
  61   2.0000      -0.544305       -14.8113
  62   2.0000      -0.537587       -14.6285
  63   2.0000      -0.525394       -14.2967
  64   2.0000      -0.517435       -14.0801
  65   2.0000      -0.510938       -13.9033
  66   2.0000      -0.500525       -13.6200
  67   2.0000      -0.495688       -13.4884
  68   2.0000      -0.479408       -13.0454
  69   2.0000      -0.463279       -12.6065
  70   2.0000      -0.455173       -12.3859
  71   2.0000      -0.448563       -12.2060
  72   2.0000      -0.353622        -9.6225
  73   2.0000      -0.345637        -9.4053
  74   2.0000      -0.327265        -8.9053
  75   2.0000      -0.316685        -8.6174
  76   2.0000      -0.314749        -8.5647
  77   0.0000       0.074863         2.0371
  78   0.0000       0.110321         3.0020
  79   0.0000       0.121481         3.3057
  80   0.0000       0.134295         3.6543
  81   0.0000       0.139662         3.8004

MULLIKEN ATOMIC CHARGES
-----------------------
   0 C :   -0.307519
   1 C :    0.058631
   2 O :   -0.367211
   3 C :    0.440297
   4 O :   -0.413042
   5 C :   -0.176014
   6 C :    0.143121
   7 C :   -0.282422
   8 N :   -0.122711
   9 C :    0.201919
  10 S :   -0.439922
  11 N :   -0.200636
  12 C :    0.048505
  13 C :    0.046734
  14 C :   -0.166352
  15 C :   -0.134004
  16 C :   -0.280232
  17 C :    0.311249
  18 O :   -0.358674
  19 C :   -0.273100
  20 H :    0.122119
  21 H :    0.099911
  22 H :    0.111030
  23 H :    0.096858
  24 H :    0.087907
  25 H :    0.123506
  26 H :    0.129187
  27 H :    0.102731
  28 H :    0.196835
  29 H :    0.194281
  30 H :    0.154740
  31 H :    0.156228
  32 H :    0.160096
  33 H :    0.129383
  34 H :    0.240284
  35 H :    0.166286
Sum of atomic charges:    0.0000000

LOEWDIN ATOMIC CHARGES
----------------------
   0 C :    0.105251
   1 C :   -0.008900
   2 O :    0.289596
   3 C :   -0.415982
   4 O :    0.117066
   5 C :   -0.092671
   6 C :   -0.067121
   7 C :    0.125038
   8 N :    0.404611
   9 C :   -0.458716
  10 S :   -0.036529
  11 N :    0.397762
  12 C :   -0.046432
  13 C :   -0.040250
  14 C :    0.021860
  15 C :    0.040395
  16 C :   -0.002793
  17 C :   -0.193484
  18 O :    0.393230
  19 C :    0.027618
  20 H :   -0.023598
  21 H :   -0.026301
  22 H :   -0.024110
  23 H :   -0.027554
  24 H :   -0.029969
  25 H :   -0.010437
  26 H :   -0.007286
  27 H :   -0.020989
  28 H :   -0.059186
  29 H :   -0.063789
  30 H :   -0.005208
  31 H :   -0.024816
  32 H :   -0.020925
  33 H :   -0.036125
  34 H :   -0.154638
  35 H :   -0.024617

  Mayer bond orders larger than 0.100000
B(  0-C ,  1-C ) :   0.9723 B(  0-C , 20-H ) :   0.9718 B(  0-C , 21-H ) :   0.9732
B(  0-C , 22-H ) :   0.9704 B(  1-C ,  2-O ) :   0.9029 B(  1-C , 23-H ) :   0.9809
B(  1-C , 24-H ) :   0.9781 B(  2-O ,  3-C ) :   1.1237 B(  3-C ,  4-O ) :   2.0070
B(  3-C ,  5-C ) :   1.0304 B(  5-C ,  6-C ) :   1.6565 B(  5-C , 12-C ) :   0.9622
B(  6-C ,  7-C ) :   0.9533 B(  6-C ,  8-N ) :   1.1459 B(  7-C , 25-H ) :   0.9653
B(  7-C , 26-H ) :   0.9656 B(  7-C , 27-H ) :   0.9911 B(  8-N ,  9-C ) :   1.1809
B(  8-N , 28-H ) :   0.9488 B(  9-C , 10-S ) :   1.6098 B(  9-C , 11-N ) :   1.3036
B( 11-N , 12-C ) :   0.9908 B( 11-N , 29-H ) :   0.9517 B( 12-C , 13-C ) :   0.9439
B( 12-C , 30-H ) :   0.9999 B( 13-C , 14-C ) :   1.3778 B( 13-C , 19-C ) :   1.3684
B( 14-C , 15-C ) :   1.3948 B( 14-C , 31-H ) :   0.9638 B( 15-C , 16-C ) :   1.3618
B( 15-C , 32-H ) :   0.9712 B( 16-C , 17-C ) :   1.3313 B( 16-C , 33-H ) :   0.9855
B( 17-C , 18-O ) :   1.1091 B( 17-C , 19-C ) :   1.3770 B( 18-O , 34-H ) :   0.9803
B( 19-C , 35-H ) :   0.9580

MP2 TOTAL ENERGY:    -1274.334853171 Eh
FINAL SINGLE POINT ENERGY     -1274.334853170715

DIPOLE MOMENT
-------------
                                X             Y             Z
Electronic contribution:      9.99761      10.29919       8.39703
Nuclear contribution   :    -11.59964     -11.55381      -9.29747
                        -----------------------------------------
Total Dipole Moment    :     -1.60203      -1.25462      -0.90044
                        -----------------------------------------
Magnitude (a.u.)       :      2.22516
Magnitude (Debye)      :      5.65592

Rotational constants in cm-1:     0.011311     0.009184     0.006232
Rotational constants in MHz :   339.095691   275.324872   186.825216

                             ****ORCA TERMINATED NORMALLY****
TOTAL RUN TIME: 0 days 1 hours 55 minutes 48 seconds 652 msec
