                         Program Version 5.0.0 -  RELEASE  -
|  1> ! ri-mp2 cc-pvtz cc-pvtz/c TightSCF NoKeepInts
|  2>
|  3> %scf
|  4>   MaxCore 4096
|  5> end
|  6> *xyz  0  1
|  7>     C       15.0641292   14.0118783   15.8469242
|  8>     C       16.0631062   14.3361821   16.9748788
|  9>     O       17.1426698   15.1403038   16.4579750
| 10>     C       16.9583110   16.4865248   16.3169753
| 11>     O       16.1197620   16.9303437   15.5535369
| 12>     C       17.6032970   17.2913398   17.4150423
| 13>     C       17.4154747   18.6309290   17.5400150
| 14>     C       16.5382685   19.5215465   16.6859358
| 15>     N       18.1103766   19.3477034   18.5191916
| 16>     C       19.1232804   18.8391024   19.2875489
| 17>     S       19.9998719   19.7865897   20.3216656
| 18>     N       19.3824350   17.4999366   19.1457558
| 19>     C       18.5440221   16.5553307   18.3861014
| 20>     C       17.7971597   15.6542183   19.3643260
| 21>     C       18.2003470   14.3178200   19.5461464
| 22>     C       17.5136647   13.4792036   20.4401100
| 23>     C       16.4191120   13.9823334   21.1636852
| 24>     C       16.0226001   15.3159124   20.9946750
| 25>     O       14.9677273   15.8055769   21.6929881
| 26>     C       16.7061330   16.1474767   20.1023203
| 27>     H       14.5220979   14.9093164   15.5249447
| 28>     H       14.3243962   13.2789551   16.1904163
| 29>     H       15.5849259   13.5921962   14.9773741
| 30>     H       15.5510083   14.8468853   17.8012925
| 31>     H       16.4733398   13.3942097   17.3606732
| 32>     H       15.4920026   19.1936857   16.7352192
| 33>     H       16.8465667   19.4723894   15.6337315
| 34>     H       16.5692116   20.5743816   16.9899070
| 35>     H       17.9389746   20.3345896   18.6282580
| 36>     H       20.1166431   17.1477785   19.7464251
| 37>     H       19.2165369   15.9284587   17.7834301
| 38>     H       19.0458580   13.9256011   18.9868259
| 39>     H       17.8320128   12.4463488   20.5726256
| 40>     H       15.8868189   13.3390100   21.8569139
| 41>     H       14.6669420   15.1092521   22.2963290
| 42>     H       16.3879166   17.1786898   19.9938363
| 43> *
| 44>
| 45>                          ****END OF INPUT****

CARTESIAN COORDINATES (ANGSTROEM)
---------------------------------
  C     15.064129   14.011878   15.846924
  C     16.063106   14.336182   16.974879
  O     17.142670   15.140304   16.457975
  C     16.958311   16.486525   16.316975
  O     16.119762   16.930344   15.553537
  C     17.603297   17.291340   17.415042
  C     17.415475   18.630929   17.540015
  C     16.538269   19.521546   16.685936
  N     18.110377   19.347703   18.519192
  C     19.123280   18.839102   19.287549
  S     19.999872   19.786590   20.321666
  N     19.382435   17.499937   19.145756
  C     18.544022   16.555331   18.386101
  C     17.797160   15.654218   19.364326
  C     18.200347   14.317820   19.546146
  C     17.513665   13.479204   20.440110
  C     16.419112   13.982333   21.163685
  C     16.022600   15.315912   20.994675
  O     14.967727   15.805577   21.692988
  C     16.706133   16.147477   20.102320
  H     14.522098   14.909316   15.524945
  H     14.324396   13.278955   16.190416
  H     15.584926   13.592196   14.977374
  H     15.551008   14.846885   17.801292
  H     16.473340   13.394210   17.360673
  H     15.492003   19.193686   16.735219
  H     16.846567   19.472389   15.633731
  H     16.569212   20.574382   16.989907
  H     17.938975   20.334590   18.628258
  H     20.116643   17.147779   19.746425
  H     19.216537   15.928459   17.783430
  H     19.045858   13.925601   18.986826
  H     17.832013   12.446349   20.572626
  H     15.886819   13.339010   21.856914
  H     14.666942   15.109252   22.296329
  H     16.387917   17.178690   19.993836

 Total Charge           Charge          ....    0
 Multiplicity           Mult            ....    1
 Number of Electrons    NEL             ....  154
 Basis Dimension        Dim             ....  828

ORBITAL ENERGIES
----------------

  NO   OCC          E(Eh)            E(eV)
   0   2.0000     -91.890603     -2500.4704
   1   2.0000     -20.601478      -560.5947
   2   2.0000     -20.583090      -560.0944
   3   2.0000     -20.547655      -559.1301
   4   2.0000     -15.631190      -425.3463
   5   2.0000     -15.609737      -424.7625
   6   2.0000     -11.394355      -310.0562
   7   2.0000     -11.385392      -309.8123
   8   2.0000     -11.337845      -308.5184
   9   2.0000     -11.319202      -308.0111
  10   2.0000     -11.311450      -307.8002
  11   2.0000     -11.295948      -307.3784
  12   2.0000     -11.263947      -306.5076
  13   2.0000     -11.260552      -306.4152
  14   2.0000     -11.259592      -306.3891
  15   2.0000     -11.253681      -306.2282
  16   2.0000     -11.248280      -306.0813
  17   2.0000     -11.242850      -305.9335
  18   2.0000     -11.242794      -305.9320
  19   2.0000     -11.215522      -305.1899
  20   2.0000      -8.895645      -242.0628
  21   2.0000      -6.577214      -178.9751
  22   2.0000      -6.575215      -178.9207
  23   2.0000      -6.574623      -178.9046
  24   2.0000      -1.446768       -39.3686
  25   2.0000      -1.421172       -38.6721
  26   2.0000      -1.353593       -36.8331
  27   2.0000      -1.342240       -36.5242
  28   2.0000      -1.240667       -33.7603
  29   2.0000      -1.162060       -31.6213
  30   2.0000      -1.121496       -30.5175
  31   2.0000      -1.046021       -28.4637
  32   2.0000      -1.029961       -28.0267
  33   2.0000      -1.020326       -27.7645
  34   2.0000      -0.997147       -27.1338
  35   2.0000      -0.985530       -26.8176
  36   2.0000      -0.925337       -25.1797
  37   2.0000      -0.883708       -24.0469
  38   2.0000      -0.849674       -23.1208
  39   2.0000      -0.842688       -22.9307
  40   2.0000      -0.838602       -22.8195
  41   2.0000      -0.826646       -22.4942
  42   2.0000      -0.754010       -20.5177
  43   2.0000      -0.735144       -20.0043
  44   2.0000      -0.720255       -19.5991
  45   2.0000      -0.700412       -19.0592
  46   2.0000      -0.691329       -18.8120
  47   2.0000      -0.679852       -18.4997
  48   2.0000      -0.669541       -18.2191
  49   2.0000      -0.659706       -17.9515
  50   2.0000      -0.649355       -17.6699
  51   2.0000      -0.647961       -17.6319
  52   2.0000      -0.637827       -17.3561
  53   2.0000      -0.612101       -16.6561
  54   2.0000      -0.605635       -16.4802
  55   2.0000      -0.601567       -16.3695
  56   2.0000      -0.590332       -16.0638
  57   2.0000      -0.582627       -15.8541
  58   2.0000      -0.576653       -15.6915
  59   2.0000      -0.571823       -15.5601
  60   2.0000      -0.564742       -15.3674
  61   2.0000      -0.540319       -14.7028
  62   2.0000      -0.535239       -14.5646
  63   2.0000      -0.528797       -14.3893
  64   2.0000      -0.517229       -14.0745
  65   2.0000      -0.513708       -13.9787
  66   2.0000      -0.504421       -13.7260
  67   2.0000      -0.497712       -13.5434
  68   2.0000      -0.484593       -13.1864
  69   2.0000      -0.463680       -12.6174
  70   2.0000      -0.455081       -12.3834
  71   2.0000      -0.441377       -12.0105
  72   2.0000      -0.356882        -9.7113
  73   2.0000      -0.354118        -9.6360
  74   2.0000      -0.330522        -8.9940
  75   2.0000      -0.326407        -8.8820
  76   2.0000      -0.317842        -8.6489
  77   0.0000       0.069800         1.8994
  78   0.0000       0.100176         2.7259
  79   0.0000       0.122516         3.3338
  80   0.0000       0.129057         3.5118
  81   0.0000       0.133231         3.6254

MULLIKEN ATOMIC CHARGES
-----------------------
   0 C :   -0.268705
   1 C :    0.025396
   2 O :   -0.387572
   3 C :    0.499921
   4 O :   -0.412842
   5 C :   -0.267712
   6 C :    0.160129
   7 C :   -0.270204
   8 N :   -0.123688
   9 C :    0.213741
  10 S :   -0.437848
  11 N :   -0.203820
  12 C :    0.057418
  13 C :    0.050152
  14 C :   -0.187919
  15 C :   -0.127417
  16 C :   -0.276061
  17 C :    0.315868
  18 O :   -0.356301
  19 C :   -0.264904
  20 H :    0.112438
  21 H :    0.087376
  22 H :    0.095191
  23 H :    0.098447
  24 H :    0.108374
  25 H :    0.129984
  26 H :    0.133273
  27 H :    0.095371
  28 H :    0.198062
  29 H :    0.193869
  30 H :    0.151167
  31 H :    0.149464
  32 H :    0.165044
  33 H :    0.133381
  34 H :    0.241836
  35 H :    0.169093
Sum of atomic charges:    0.0000000

LOEWDIN ATOMIC CHARGES
----------------------
   0 C :    0.105397
   1 C :   -0.020251
   2 O :    0.285635
   3 C :   -0.416494
   4 O :    0.120011
   5 C :   -0.098579
   6 C :   -0.057574
   7 C :    0.131166
   8 N :    0.407107
   9 C :   -0.456436
  10 S :   -0.033482
  11 N :    0.396270
  12 C :   -0.052864
  13 C :   -0.037396
  14 C :    0.015857
  15 C :    0.041647
  16 C :   -0.001488
  17 C :   -0.190828
  18 O :    0.396425
  19 C :    0.030279
  20 H :   -0.027798
  21 H :   -0.030960
  22 H :   -0.026505
  23 H :   -0.031097
  24 H :   -0.024663
  25 H :   -0.005238
  26 H :   -0.003291
  27 H :   -0.023198
  28 H :   -0.057310
  29 H :   -0.065074
  30 H :   -0.008149
  31 H :   -0.029317
  32 H :   -0.020084
  33 H :   -0.034478
  34 H :   -0.152680
  35 H :   -0.024561

  Mayer bond orders larger than 0.100000
B(  0-C ,  1-C ) :   0.9856 B(  0-C , 20-H ) :   0.9722 B(  0-C , 21-H ) :   0.9773
B(  0-C , 22-H ) :   0.9783 B(  1-C ,  2-O ) :   0.8767 B(  1-C , 23-H ) :   0.9660
B(  1-C , 24-H ) :   0.9790 B(  2-O ,  3-C ) :   1.0873 B(  3-C ,  4-O ) :   1.9980
B(  3-C ,  5-C ) :   1.0772 B(  5-C ,  6-C ) :   1.6475 B(  5-C , 12-C ) :   0.9697
B(  6-C ,  7-C ) :   0.9681 B(  6-C ,  8-N ) :   1.1605 B(  7-C , 25-H ) :   0.9608
B(  7-C , 26-H ) :   0.9588 B(  7-C , 27-H ) :   0.9902 B(  8-N ,  9-C ) :   1.1802
B(  8-N , 28-H ) :   0.9477 B(  9-C , 10-S ) :   1.6090 B(  9-C , 11-N ) :   1.3059
B( 11-N , 12-C ) :   0.9723 B( 11-N , 29-H ) :   0.9528 B( 12-C , 13-C ) :   0.9464
B( 12-C , 30-H ) :   1.0009 B( 13-C , 14-C ) :   1.3402 B( 13-C , 19-C ) :   1.3740
B( 14-C , 15-C ) :   1.3872 B( 14-C , 31-H ) :   0.9774 B( 15-C , 16-C ) :   1.3657
B( 15-C , 32-H ) :   0.9691 B( 16-C , 17-C ) :   1.3285 B( 16-C , 33-H ) :   0.9837
B( 17-C , 18-O ) :   1.1137 B( 17-C , 19-C ) :   1.3702 B( 18-O , 34-H ) :   0.9789
B( 19-C , 35-H ) :   0.9579

MP2 TOTAL ENERGY:    -1274.332496965 Eh
FINAL SINGLE POINT ENERGY     -1274.332496965405

DIPOLE MOMENT
-------------
                                X             Y             Z
Electronic contribution:     10.45042       9.72316       7.25373
Nuclear contribution   :    -11.42332     -11.24883      -7.10119
                        -----------------------------------------
Total Dipole Moment    :     -0.97290      -1.52567       0.15254
                        -----------------------------------------
Magnitude (a.u.)       :      1.81589
Magnitude (Debye)      :      4.61563

Rotational constants in cm-1:     0.012106     0.008943     0.006334
Rotational constants in MHz :   362.934838   268.089467   189.893476

                             ****ORCA TERMINATED NORMALLY****
TOTAL RUN TIME: 0 days 2 hours 11 minutes 46 seconds 764 msec
