                         Program Version 5.0.0 -  RELEASE  -
|  1> ! ri-mp2 cc-pvtz cc-pvtz/c TightSCF NoKeepInts
|  2>
|  3> %scf
|  4>   MaxCore 4096
|  5> end
|  6> *xyz  0  1
|  7>     C       14.7812934   16.1793095   17.1366184
|  8>     C       15.6447863   14.9104964   16.9993648
|  9>     O       16.7928859   15.0548883   16.1282603
| 10>     C       17.9515317   15.7476326   16.3900741
| 11>     O       19.0209811   15.2276470   16.1318312
| 12>     C       17.8871748   16.8728314   17.3637584
| 13>     C       17.3688901   18.0736187   17.0203010
| 14>     C       16.7750485   18.4566600   15.6818679
| 15>     N       17.4329477   19.1420906   17.9168017
| 16>     C       18.0892783   19.1108308   19.1198356
| 17>     S       18.1535061   20.4342450   20.1090233
| 18>     N       18.6909178   17.9251047   19.4651349
| 19>     C       18.6150747   16.6688093   18.6921149
| 20>     C       17.9731110   15.5484429   19.5027503
| 21>     C       18.4829159   14.2399288   19.4167949
| 22>     C       17.8854501   13.1901023   20.1337792
| 23>     C       16.7661544   13.4491518   20.9428831
| 24>     C       16.2517455   14.7498378   21.0277079
| 25>     O       15.1620827   15.0006703   21.7955952
| 26>     C       16.8470628   15.7930877   20.3114328
| 27>     H       15.2024019   16.8849588   17.8593694
| 28>     H       13.7868986   15.9060377   17.5105849
| 29>     H       14.6438433   16.6712416   16.1671705
| 30>     H       15.9557212   14.5551847   17.9889948
| 31>     H       15.0086080   14.1248965   16.5715502
| 32>     H       16.6368956   17.5928739   15.0204524
| 33>     H       17.4330876   19.1607901   15.1569195
| 34>     H       15.7956744   18.9353519   15.8038556
| 35>     H       17.0199253   20.0280301   17.6706523
| 36>     H       19.1547954   17.9285475   20.3648699
| 37>     H       19.6454344   16.3631113   18.4565489
| 38>     H       19.3393275   14.0337685   18.7775295
| 39>     H       18.2885676   12.1814956   20.0563914
| 40>     H       16.3009572   12.6402508   21.4968559
| 41>     H       14.9362128   14.1798099   22.2591106
| 42>     H       16.4258103   16.7902652   20.3872144
| 43> *
| 44>
| 45>                          ****END OF INPUT****

CARTESIAN COORDINATES (ANGSTROEM)
---------------------------------
  C     14.781293   16.179309   17.136618
  C     15.644786   14.910496   16.999365
  O     16.792886   15.054888   16.128260
  C     17.951532   15.747633   16.390074
  O     19.020981   15.227647   16.131831
  C     17.887175   16.872831   17.363758
  C     17.368890   18.073619   17.020301
  C     16.775049   18.456660   15.681868
  N     17.432948   19.142091   17.916802
  C     18.089278   19.110831   19.119836
  S     18.153506   20.434245   20.109023
  N     18.690918   17.925105   19.465135
  C     18.615075   16.668809   18.692115
  C     17.973111   15.548443   19.502750
  C     18.482916   14.239929   19.416795
  C     17.885450   13.190102   20.133779
  C     16.766154   13.449152   20.942883
  C     16.251745   14.749838   21.027708
  O     15.162083   15.000670   21.795595
  C     16.847063   15.793088   20.311433
  H     15.202402   16.884959   17.859369
  H     13.786899   15.906038   17.510585
  H     14.643843   16.671242   16.167171
  H     15.955721   14.555185   17.988995
  H     15.008608   14.124897   16.571550
  H     16.636896   17.592874   15.020452
  H     17.433088   19.160790   15.156920
  H     15.795674   18.935352   15.803856
  H     17.019925   20.028030   17.670652
  H     19.154795   17.928548   20.364870
  H     19.645434   16.363111   18.456549
  H     19.339327   14.033769   18.777529
  H     18.288568   12.181496   20.056391
  H     16.300957   12.640251   21.496856
  H     14.936213   14.179810   22.259111
  H     16.425810   16.790265   20.387214

 Total Charge           Charge          ....    0
 Multiplicity           Mult            ....    1
 Number of Electrons    NEL             ....  154
 Basis Dimension        Dim             ....  828

ORBITAL ENERGIES
----------------

  NO   OCC          E(Eh)            E(eV)
   0   2.0000     -91.890271     -2500.4614
   1   2.0000     -20.602955      -560.6349
   2   2.0000     -20.591530      -560.3240
   3   2.0000     -20.551995      -559.2482
   4   2.0000     -15.626572      -425.2206
   5   2.0000     -15.612364      -424.8340
   6   2.0000     -11.397400      -310.1390
   7   2.0000     -11.387128      -309.8595
   8   2.0000     -11.327275      -308.2308
   9   2.0000     -11.320669      -308.0511
  10   2.0000     -11.316385      -307.9345
  11   2.0000     -11.303122      -307.5736
  12   2.0000     -11.267030      -306.5915
  13   2.0000     -11.265693      -306.5551
  14   2.0000     -11.262055      -306.4561
  15   2.0000     -11.261078      -306.4295
  16   2.0000     -11.250019      -306.1286
  17   2.0000     -11.245259      -305.9991
  18   2.0000     -11.242922      -305.9355
  19   2.0000     -11.233311      -305.6739
  20   2.0000      -8.895380      -242.0556
  21   2.0000      -6.576967      -178.9684
  22   2.0000      -6.574942      -178.9133
  23   2.0000      -6.574366      -178.8976
  24   2.0000      -1.443392       -39.2767
  25   2.0000      -1.422776       -38.7157
  26   2.0000      -1.355118       -36.8746
  27   2.0000      -1.340182       -36.4682
  28   2.0000      -1.240410       -33.7533
  29   2.0000      -1.164675       -31.6924
  30   2.0000      -1.126188       -30.6451
  31   2.0000      -1.050863       -28.5954
  32   2.0000      -1.037333       -28.2273
  33   2.0000      -1.022282       -27.8177
  34   2.0000      -1.005451       -27.3597
  35   2.0000      -0.990656       -26.9571
  36   2.0000      -0.929052       -25.2808
  37   2.0000      -0.894324       -24.3358
  38   2.0000      -0.852814       -23.2062
  39   2.0000      -0.843012       -22.9395
  40   2.0000      -0.840271       -22.8649
  41   2.0000      -0.832247       -22.6466
  42   2.0000      -0.751973       -20.4622
  43   2.0000      -0.736135       -20.0313
  44   2.0000      -0.729923       -19.8622
  45   2.0000      -0.700664       -19.0660
  46   2.0000      -0.690173       -18.7806
  47   2.0000      -0.678729       -18.4692
  48   2.0000      -0.675817       -18.3899
  49   2.0000      -0.663247       -18.0479
  50   2.0000      -0.655545       -17.8383
  51   2.0000      -0.642825       -17.4922
  52   2.0000      -0.640765       -17.4361
  53   2.0000      -0.615041       -16.7361
  54   2.0000      -0.609038       -16.5728
  55   2.0000      -0.608075       -16.5466
  56   2.0000      -0.605122       -16.4662
  57   2.0000      -0.588541       -16.0150
  58   2.0000      -0.583585       -15.8802
  59   2.0000      -0.578938       -15.7537
  60   2.0000      -0.567405       -15.4399
  61   2.0000      -0.556548       -15.1444
  62   2.0000      -0.539004       -14.6670
  63   2.0000      -0.532756       -14.4970
  64   2.0000      -0.523973       -14.2580
  65   2.0000      -0.515037       -14.0149
  66   2.0000      -0.504356       -13.7242
  67   2.0000      -0.495885       -13.4937
  68   2.0000      -0.490560       -13.3488
  69   2.0000      -0.463927       -12.6241
  70   2.0000      -0.455364       -12.3911
  71   2.0000      -0.448329       -12.1997
  72   2.0000      -0.355674        -9.6784
  73   2.0000      -0.355239        -9.6665
  74   2.0000      -0.330314        -8.9883
  75   2.0000      -0.328624        -8.9423
  76   2.0000      -0.318887        -8.6774
  77   0.0000       0.087673         2.3857
  78   0.0000       0.101099         2.7511
  79   0.0000       0.117833         3.2064
  80   0.0000       0.124565         3.3896
  81   0.0000       0.128001         3.4831

MULLIKEN ATOMIC CHARGES
-----------------------
   0 C :   -0.334528
   1 C :    0.036817
   2 O :   -0.340660
   3 C :    0.394923
   4 O :   -0.373396
   5 C :   -0.168713
   6 C :    0.119398
   7 C :   -0.331013
   8 N :   -0.133823
   9 C :    0.206493
  10 S :   -0.441064
  11 N :   -0.220948
  12 C :    0.084992
  13 C :   -0.001180
  14 C :   -0.198313
  15 C :   -0.133442
  16 C :   -0.274645
  17 C :    0.313204
  18 O :   -0.356542
  19 C :   -0.265086
  20 H :    0.107766
  21 H :    0.123871
  22 H :    0.106947
  23 H :    0.103973
  24 H :    0.126350
  25 H :    0.123486
  26 H :    0.150526
  27 H :    0.116990
  28 H :    0.197090
  29 H :    0.200364
  30 H :    0.165630
  31 H :    0.171025
  32 H :    0.165440
  33 H :    0.134228
  34 H :    0.242085
  35 H :    0.181753
Sum of atomic charges:   -0.0000000

LOEWDIN ATOMIC CHARGES
----------------------
   0 C :    0.102977
   1 C :   -0.013012
   2 O :    0.287349
   3 C :   -0.416481
   4 O :    0.129581
   5 C :   -0.082714
   6 C :   -0.099533
   7 C :    0.125152
   8 N :    0.402740
   9 C :   -0.455697
  10 S :   -0.037694
  11 N :    0.397653
  12 C :   -0.044804
  13 C :   -0.045487
  14 C :    0.019945
  15 C :    0.045280
  16 C :   -0.000504
  17 C :   -0.194241
  18 O :    0.396469
  19 C :    0.027609
  20 H :   -0.035227
  21 H :   -0.021185
  22 H :   -0.029462
  23 H :   -0.030298
  24 H :   -0.019272
  25 H :   -0.010206
  26 H :   -0.008576
  27 H :   -0.016904
  28 H :   -0.057341
  29 H :   -0.064018
  30 H :   -0.002653
  31 H :   -0.021366
  32 H :   -0.017622
  33 H :   -0.033859
  34 H :   -0.152386
  35 H :   -0.024213

  Mayer bond orders larger than 0.100000
B(  0-C ,  1-C ) :   0.9551 B(  0-C , 20-H ) :   0.9730 B(  0-C , 21-H ) :   0.9786
B(  0-C , 22-H ) :   0.9745 B(  1-C ,  2-O ) :   0.9011 B(  1-C , 23-H ) :   0.9691
B(  1-C , 24-H ) :   0.9851 B(  2-O ,  3-C ) :   1.1668 B(  3-C ,  4-O ) :   2.1073
B(  3-C ,  5-C ) :   0.9113 B(  5-C ,  6-C ) :   1.7064 B(  5-C , 12-C ) :   0.9480
B(  6-C ,  7-C ) :   0.9523 B(  6-C ,  8-N ) :   1.1059 B(  7-C , 25-H ) :   0.9790
B(  7-C , 26-H ) :   0.9657 B(  7-C , 27-H ) :   0.9684 B(  8-N ,  9-C ) :   1.1977
B(  8-N , 28-H ) :   0.9516 B(  9-C , 10-S ) :   1.6114 B(  9-C , 11-N ) :   1.2841
B( 11-N , 12-C ) :   0.9963 B( 11-N , 29-H ) :   0.9479 B( 12-C , 13-C ) :   0.9410
B( 12-C , 30-H ) :   0.9975 B( 13-C , 14-C ) :   1.3918 B( 13-C , 19-C ) :   1.3428
B( 14-C , 15-C ) :   1.3969 B( 14-C , 31-H ) :   0.9609 B( 15-C , 16-C ) :   1.3609
B( 15-C , 32-H ) :   0.9697 B( 16-C , 17-C ) :   1.3288 B( 16-C , 33-H ) :   0.9840
B( 17-C , 18-O ) :   1.1134 B( 17-C , 19-C ) :   1.3676 B( 18-O , 34-H ) :   0.9786
B( 19-C , 35-H ) :   0.9541

MP2 TOTAL ENERGY:    -1274.325675500 Eh
FINAL SINGLE POINT ENERGY     -1274.325675500438

DIPOLE MOMENT
-------------
                                X             Y             Z
Electronic contribution:      9.73603       5.22233       6.01126
Nuclear contribution   :    -11.18073      -6.49233      -6.20836
                        -----------------------------------------
Total Dipole Moment    :     -1.44470      -1.27000      -0.19711
                        -----------------------------------------
Magnitude (a.u.)       :      1.93363
Magnitude (Debye)      :      4.91489

Rotational constants in cm-1:     0.012364     0.009303     0.006979
Rotational constants in MHz :   370.664198   278.887417   209.232416

                             ****ORCA TERMINATED NORMALLY****
TOTAL RUN TIME: 0 days 1 hours 56 minutes 0 seconds 8 msec
