                         Program Version 5.0.0 -  RELEASE  -
|  1> ! ri-mp2 cc-pvtz cc-pvtz/c TightSCF NoKeepInts
|  2>
|  3> %scf
|  4>   MaxCore 4096
|  5> end
|  6> *xyz  0  1
|  7>     C       15.1416942   13.9370209   15.9894390
|  8>     C       15.6443881   15.0612366   15.0546393
|  9>     O       16.3852691   16.0839563   15.7598307
| 10>     C       17.3275369   15.8135037   16.7127944
| 11>     O       17.8778168   14.7289181   16.8064069
| 12>     C       17.7054866   16.9790029   17.5857747
| 13>     C       17.2778065   18.2607837   17.4286047
| 14>     C       16.3415825   18.8193223   16.3760510
| 15>     N       17.7577512   19.2616180   18.2807810
| 16>     C       18.7570991   19.0966227   19.2026735
| 17>     S       19.3552267   20.3665508   20.0774618
| 18>     N       19.2340631   17.8211738   19.3628150
| 19>     C       18.6469424   16.6194394   18.7420264
| 20>     C       17.9291239   15.7725420   19.7901581
| 21>     C       18.2545010   14.4130925   19.9519652
| 22>     C       17.5941664   13.6271357   20.9111770
| 23>     C       16.5985798   14.2045552   21.7173563
| 24>     C       16.2686446   15.5571524   21.5572172
| 25>     O       15.3031909   16.1161479   22.3297513
| 26>     C       16.9272201   16.3367216   20.6011529
| 27>     H       15.9502154   13.2544134   16.2773171
| 28>     H       14.3771982   13.3376515   15.4806959
| 29>     H       14.6943699   14.3549553   16.8998993
| 30>     H       16.2826935   14.6149601   14.2805847
| 31>     H       14.7873980   15.5272646   14.5517658
| 32>     H       15.3494784   18.3578369   16.4559162
| 33>     H       16.7284762   18.6224171   15.3684299
| 34>     H       16.2031161   19.9037994   16.4625164
| 35>     H       17.4207112   20.2054362   18.1788455
| 36>     H       19.9486100   17.7186646   20.0718734
| 37>     H       19.4743131   16.0251500   18.3277688
| 38>     H       19.0117854   13.9596318   19.3169315
| 39>     H       17.8512171   12.5752015   21.0213605
| 40>     H       16.0847557   13.6007398   22.4578096
| 41>     H       14.9963031   15.4352651   22.9469783
| 42>     H       16.6582685   17.3821159   20.4972303
| 43> *
| 44>
| 45>                          ****END OF INPUT****

CARTESIAN COORDINATES (ANGSTROEM)
---------------------------------
  C     15.141694   13.937021   15.989439
  C     15.644388   15.061237   15.054639
  O     16.385269   16.083956   15.759831
  C     17.327537   15.813504   16.712794
  O     17.877817   14.728918   16.806407
  C     17.705487   16.979003   17.585775
  C     17.277807   18.260784   17.428605
  C     16.341583   18.819322   16.376051
  N     17.757751   19.261618   18.280781
  C     18.757099   19.096623   19.202673
  S     19.355227   20.366551   20.077462
  N     19.234063   17.821174   19.362815
  C     18.646942   16.619439   18.742026
  C     17.929124   15.772542   19.790158
  C     18.254501   14.413092   19.951965
  C     17.594166   13.627136   20.911177
  C     16.598580   14.204555   21.717356
  C     16.268645   15.557152   21.557217
  O     15.303191   16.116148   22.329751
  C     16.927220   16.336722   20.601153
  H     15.950215   13.254413   16.277317
  H     14.377198   13.337651   15.480696
  H     14.694370   14.354955   16.899899
  H     16.282694   14.614960   14.280585
  H     14.787398   15.527265   14.551766
  H     15.349478   18.357837   16.455916
  H     16.728476   18.622417   15.368430
  H     16.203116   19.903799   16.462516
  H     17.420711   20.205436   18.178846
  H     19.948610   17.718665   20.071873
  H     19.474313   16.025150   18.327769
  H     19.011785   13.959632   19.316931
  H     17.851217   12.575202   21.021361
  H     16.084756   13.600740   22.457810
  H     14.996303   15.435265   22.946978
  H     16.658268   17.382116   20.497230

 Total Charge           Charge          ....    0
 Multiplicity           Mult            ....    1
 Number of Electrons    NEL             ....  154
 Basis Dimension        Dim             ....  828

ORBITAL ENERGIES
----------------

  NO   OCC          E(Eh)            E(eV)
   0   2.0000     -91.887876     -2500.3962
   1   2.0000     -20.601324      -560.5905
   2   2.0000     -20.591352      -560.3192
   3   2.0000     -20.544055      -559.0322
   4   2.0000     -15.628343      -425.2688
   5   2.0000     -15.606365      -424.6708
   6   2.0000     -11.397075      -310.1302
   7   2.0000     -11.382537      -309.7346
   8   2.0000     -11.336963      -308.4944
   9   2.0000     -11.307115      -307.6822
  10   2.0000     -11.304876      -307.6213
  11   2.0000     -11.304616      -307.6142
  12   2.0000     -11.260609      -306.4167
  13   2.0000     -11.258360      -306.3556
  14   2.0000     -11.252948      -306.2083
  15   2.0000     -11.247186      -306.0515
  16   2.0000     -11.236880      -305.7711
  17   2.0000     -11.233058      -305.6671
  18   2.0000     -11.229822      -305.5790
  19   2.0000     -11.225938      -305.4733
  20   2.0000      -8.892937      -241.9891
  21   2.0000      -6.574515      -178.9016
  22   2.0000      -6.572509      -178.8471
  23   2.0000      -6.571923      -178.8311
  24   2.0000      -1.449834       -39.4520
  25   2.0000      -1.411095       -38.3978
  26   2.0000      -1.356124       -36.9020
  27   2.0000      -1.339255       -36.4430
  28   2.0000      -1.236737       -33.6533
  29   2.0000      -1.151638       -31.3377
  30   2.0000      -1.118658       -30.4402
  31   2.0000      -1.041478       -28.3401
  32   2.0000      -1.033934       -28.1348
  33   2.0000      -1.009062       -27.4580
  34   2.0000      -0.997034       -27.1307
  35   2.0000      -0.982416       -26.7329
  36   2.0000      -0.921138       -25.0654
  37   2.0000      -0.897209       -24.4143
  38   2.0000      -0.847760       -23.0687
  39   2.0000      -0.835278       -22.7291
  40   2.0000      -0.827431       -22.5156
  41   2.0000      -0.816186       -22.2096
  42   2.0000      -0.746409       -20.3108
  43   2.0000      -0.732566       -19.9341
  44   2.0000      -0.724303       -19.7093
  45   2.0000      -0.690004       -18.7760
  46   2.0000      -0.684958       -18.6387
  47   2.0000      -0.678208       -18.4550
  48   2.0000      -0.671163       -18.2633
  49   2.0000      -0.658439       -17.9170
  50   2.0000      -0.650052       -17.6888
  51   2.0000      -0.643829       -17.5195
  52   2.0000      -0.631799       -17.1921
  53   2.0000      -0.615107       -16.7379
  54   2.0000      -0.600105       -16.3297
  55   2.0000      -0.599139       -16.3034
  56   2.0000      -0.594821       -16.1859
  57   2.0000      -0.580271       -15.7900
  58   2.0000      -0.573075       -15.5942
  59   2.0000      -0.565086       -15.3768
  60   2.0000      -0.557478       -15.1698
  61   2.0000      -0.542292       -14.7565
  62   2.0000      -0.538411       -14.6509
  63   2.0000      -0.524441       -14.2708
  64   2.0000      -0.516120       -14.0443
  65   2.0000      -0.510312       -13.8863
  66   2.0000      -0.501646       -13.6505
  67   2.0000      -0.495061       -13.4713
  68   2.0000      -0.479008       -13.0345
  69   2.0000      -0.463365       -12.6088
  70   2.0000      -0.456490       -12.4217
  71   2.0000      -0.449720       -12.2375
  72   2.0000      -0.353914        -9.6305
  73   2.0000      -0.343661        -9.3515
  74   2.0000      -0.326987        -8.8978
  75   2.0000      -0.315421        -8.5830
  76   2.0000      -0.313192        -8.5224
  77   0.0000       0.075612         2.0575
  78   0.0000       0.113551         3.0899
  79   0.0000       0.121788         3.3140
  80   0.0000       0.136314         3.7093
  81   0.0000       0.140786         3.8310

MULLIKEN ATOMIC CHARGES
-----------------------
   0 C :   -0.310467
   1 C :    0.044246
   2 O :   -0.350598
   3 C :    0.457972
   4 O :   -0.435382
   5 C :   -0.180296
   6 C :    0.143549
   7 C :   -0.281392
   8 N :   -0.120413
   9 C :    0.201169
  10 S :   -0.439196
  11 N :   -0.197262
  12 C :    0.036698
  13 C :    0.058814
  14 C :   -0.162938
  15 C :   -0.133825
  16 C :   -0.279074
  17 C :    0.311686
  18 O :   -0.359235
  19 C :   -0.275095
  20 H :    0.130429
  21 H :    0.096926
  22 H :    0.097522
  23 H :    0.097723
  24 H :    0.103832
  25 H :    0.124464
  26 H :    0.128791
  27 H :    0.101407
  28 H :    0.196626
  29 H :    0.193648
  30 H :    0.154156
  31 H :    0.153887
  32 H :    0.158932
  33 H :    0.127925
  34 H :    0.240042
  35 H :    0.164732
Sum of atomic charges:   -0.0000000

LOEWDIN ATOMIC CHARGES
----------------------
   0 C :    0.105173
   1 C :   -0.011906
   2 O :    0.298532
   3 C :   -0.414670
   4 O :    0.106508
   5 C :   -0.090918
   6 C :   -0.063596
   7 C :    0.124767
   8 N :    0.405006
   9 C :   -0.459336
  10 S :   -0.035982
  11 N :    0.398201
  12 C :   -0.046806
  13 C :   -0.038857
  14 C :    0.022272
  15 C :    0.040582
  16 C :   -0.002476
  17 C :   -0.192901
  18 O :    0.392877
  19 C :    0.027929
  20 H :   -0.024336
  21 H :   -0.027217
  22 H :   -0.027679
  23 H :   -0.028476
  24 H :   -0.025420
  25 H :   -0.010154
  26 H :   -0.007961
  27 H :   -0.021607
  28 H :   -0.059355
  29 H :   -0.063555
  30 H :   -0.005434
  31 H :   -0.025263
  32 H :   -0.021330
  33 H :   -0.036469
  34 H :   -0.154936
  35 H :   -0.025209

  Mayer bond orders larger than 0.100000
B(  0-C ,  1-C ) :   0.9610 B(  0-C , 20-H ) :   0.9714 B(  0-C , 21-H ) :   0.9764
B(  0-C , 22-H ) :   0.9750 B(  1-C ,  2-O ) :   0.9015 B(  1-C , 23-H ) :   0.9820
B(  1-C , 24-H ) :   0.9839 B(  2-O ,  3-C ) :   1.1602 B(  3-C ,  4-O ) :   1.9659
B(  3-C ,  5-C ) :   1.0590 B(  5-C ,  6-C ) :   1.6412 B(  5-C , 12-C ) :   0.9664
B(  6-C ,  7-C ) :   0.9571 B(  6-C ,  8-N ) :   1.1531 B(  7-C , 25-H ) :   0.9650
B(  7-C , 26-H ) :   0.9633 B(  7-C , 27-H ) :   0.9919 B(  8-N ,  9-C ) :   1.1769
B(  8-N , 28-H ) :   0.9486 B(  9-C , 10-S ) :   1.6108 B(  9-C , 11-N ) :   1.3055
B( 11-N , 12-C ) :   0.9922 B( 11-N , 29-H ) :   0.9520 B( 12-C , 13-C ) :   0.9460
B( 12-C , 30-H ) :   1.0010 B( 13-C , 14-C ) :   1.3755 B( 13-C , 19-C ) :   1.3684
B( 14-C , 15-C ) :   1.3945 B( 14-C , 31-H ) :   0.9646 B( 15-C , 16-C ) :   1.3621
B( 15-C , 32-H ) :   0.9715 B( 16-C , 17-C ) :   1.3319 B( 16-C , 33-H ) :   0.9860
B( 17-C , 18-O ) :   1.1079 B( 17-C , 19-C ) :   1.3788 B( 18-O , 34-H ) :   0.9806
B( 19-C , 35-H ) :   0.9584

MP2 TOTAL ENERGY:    -1274.343893695 Eh
FINAL SINGLE POINT ENERGY     -1274.343893694537

DIPOLE MOMENT
-------------
                                X             Y             Z
Electronic contribution:     10.31702      10.17624       9.72270
Nuclear contribution   :    -11.90265     -11.39977     -10.80064
                        -----------------------------------------
Total Dipole Moment    :     -1.58563      -1.22354      -1.07795
                        -----------------------------------------
Magnitude (a.u.)       :      2.27447
Magnitude (Debye)      :      5.78125

Rotational constants in cm-1:     0.010665     0.009147     0.005955
Rotational constants in MHz :   319.741872   274.207405   178.524261

                             ****ORCA TERMINATED NORMALLY****
TOTAL RUN TIME: 0 days 2 hours 4 minutes 27 seconds 418 msec
