                         Program Version 5.0.0 -  RELEASE  -
|  1> ! ri-mp2 cc-pvtz cc-pvtz/c TightSCF NoKeepInts
|  2>
|  3> %scf
|  4>   MaxCore 4096
|  5> end
|  6> *xyz  0  1
|  7>     C       14.2090070   15.0484345   15.9313143
|  8>     C       15.6866121   14.6344157   15.8294314
|  9>     O       16.4737220   15.8337632   15.9217227
| 10>     C       17.6553851   15.7919742   16.6012869
| 11>     O       18.2981282   14.7599324   16.7052816
| 12>     C       17.8628889   16.9581933   17.5233408
| 13>     C       17.2975174   18.1826865   17.3604768
| 14>     C       16.3852213   18.6450903   16.2428518
| 15>     N       17.6040087   19.2133418   18.2550253
| 16>     C       18.5628620   19.1444482   19.2311083
| 17>     S       18.9503340   20.4525529   20.1661519
| 18>     N       19.1857212   17.9327337   19.3918348
| 19>     C       18.7915027   16.6848043   18.7114548
| 20>     C       18.1419546   15.7202500   19.7003706
| 21>     C       18.6475220   14.4170318   19.8617311
| 22>     C       18.0495048   13.5232684   20.7658887
| 23>     C       16.9349698   13.9349330   21.5162161
| 24>     C       16.4257258   15.2306838   21.3557092
| 25>     O       15.3452717   15.6289822   22.0735688
| 26>     C       17.0229236   16.1178993   20.4548314
| 27>     H       14.0137496   15.5517779   16.8865421
| 28>     H       13.5583823   14.1676388   15.8687342
| 29>     H       13.9413921   15.7320763   15.1161365
| 30>     H       15.9157099   13.9485501   16.6574008
| 31>     H       15.8865089   14.1167075   14.8822002
| 32>     H       16.7815333   18.3441281   15.2650186
| 33>     H       16.2661628   19.7350676   16.2181403
| 34>     H       15.3864656   18.2041775   16.3516321
| 35>     H       17.1580028   20.1109298   18.1528644
| 36>     H       19.8665384   17.8996750   20.1397233
| 37>     H       19.7059326   16.2149622   18.3212286
| 38>     H       19.4984038   14.0903327   19.2688564
| 39>     H       18.4469622   12.5160001   20.8767496
| 40>     H       16.4689363   13.2472340   22.2139375
| 41>     H       15.1066753   14.9002131   22.6658496
| 42>     H       16.6148611   17.1171098   20.3493886
| 43> *
| 44>
| 45>                          ****END OF INPUT****

CARTESIAN COORDINATES (ANGSTROEM)
---------------------------------
  C     14.209007   15.048434   15.931314
  C     15.686612   14.634416   15.829431
  O     16.473722   15.833763   15.921723
  C     17.655385   15.791974   16.601287
  O     18.298128   14.759932   16.705282
  C     17.862889   16.958193   17.523341
  C     17.297517   18.182686   17.360477
  C     16.385221   18.645090   16.242852
  N     17.604009   19.213342   18.255025
  C     18.562862   19.144448   19.231108
  S     18.950334   20.452553   20.166152
  N     19.185721   17.932734   19.391835
  C     18.791503   16.684804   18.711455
  C     18.141955   15.720250   19.700371
  C     18.647522   14.417032   19.861731
  C     18.049505   13.523268   20.765889
  C     16.934970   13.934933   21.516216
  C     16.425726   15.230684   21.355709
  O     15.345272   15.628982   22.073569
  C     17.022924   16.117899   20.454831
  H     14.013750   15.551778   16.886542
  H     13.558382   14.167639   15.868734
  H     13.941392   15.732076   15.116136
  H     15.915710   13.948550   16.657401
  H     15.886509   14.116708   14.882200
  H     16.781533   18.344128   15.265019
  H     16.266163   19.735068   16.218140
  H     15.386466   18.204178   16.351632
  H     17.158003   20.110930   18.152864
  H     19.866538   17.899675   20.139723
  H     19.705933   16.214962   18.321229
  H     19.498404   14.090333   19.268856
  H     18.446962   12.516000   20.876750
  H     16.468936   13.247234   22.213937
  H     15.106675   14.900213   22.665850
  H     16.614861   17.117110   20.349389

 Total Charge           Charge          ....    0
 Multiplicity           Mult            ....    1
 Number of Electrons    NEL             ....  154
 Basis Dimension        Dim             ....  828

ORBITAL ENERGIES
----------------

  NO   OCC          E(Eh)            E(eV)
   0   2.0000     -91.888260     -2500.4067
   1   2.0000     -20.597953      -560.4988
   2   2.0000     -20.593133      -560.3676
   3   2.0000     -20.548295      -559.1475
   4   2.0000     -15.628373      -425.2697
   5   2.0000     -15.607177      -424.6929
   6   2.0000     -11.394927      -310.0717
   7   2.0000     -11.383331      -309.7562
   8   2.0000     -11.335255      -308.4480
   9   2.0000     -11.309015      -307.7339
  10   2.0000     -11.306549      -307.6668
  11   2.0000     -11.299391      -307.4721
  12   2.0000     -11.260416      -306.4115
  13   2.0000     -11.259198      -306.3783
  14   2.0000     -11.254769      -306.2578
  15   2.0000     -11.249113      -306.1039
  16   2.0000     -11.238746      -305.8218
  17   2.0000     -11.234841      -305.7156
  18   2.0000     -11.234050      -305.6940
  19   2.0000     -11.231848      -305.6341
  20   2.0000      -8.893325      -241.9997
  21   2.0000      -6.574903      -178.9122
  22   2.0000      -6.572895      -178.8576
  23   2.0000      -6.572310      -178.8417
  24   2.0000      -1.454432       -39.5771
  25   2.0000      -1.412877       -38.4463
  26   2.0000      -1.357039       -36.9269
  27   2.0000      -1.339384       -36.4465
  28   2.0000      -1.237219       -33.6665
  29   2.0000      -1.153411       -31.3859
  30   2.0000      -1.120117       -30.4799
  31   2.0000      -1.044451       -28.4210
  32   2.0000      -1.037179       -28.2231
  33   2.0000      -1.010810       -27.5055
  34   2.0000      -0.998284       -27.1647
  35   2.0000      -0.983929       -26.7741
  36   2.0000      -0.921773       -25.0827
  37   2.0000      -0.888303       -24.1720
  38   2.0000      -0.847195       -23.0533
  39   2.0000      -0.835949       -22.7473
  40   2.0000      -0.829236       -22.5647
  41   2.0000      -0.818765       -22.2797
  42   2.0000      -0.760895       -20.7050
  43   2.0000      -0.736028       -20.0283
  44   2.0000      -0.725886       -19.7524
  45   2.0000      -0.691914       -18.8279
  46   2.0000      -0.684264       -18.6198
  47   2.0000      -0.680962       -18.5299
  48   2.0000      -0.676391       -18.4055
  49   2.0000      -0.659970       -17.9587
  50   2.0000      -0.650444       -17.6995
  51   2.0000      -0.644126       -17.5276
  52   2.0000      -0.635487       -17.2925
  53   2.0000      -0.602167       -16.3858
  54   2.0000      -0.601084       -16.3563
  55   2.0000      -0.596777       -16.2391
  56   2.0000      -0.595080       -16.1929
  57   2.0000      -0.578465       -15.7408
  58   2.0000      -0.574407       -15.6304
  59   2.0000      -0.566424       -15.4132
  60   2.0000      -0.560145       -15.2423
  61   2.0000      -0.557394       -15.1675
  62   2.0000      -0.541311       -14.7298
  63   2.0000      -0.518686       -14.1142
  64   2.0000      -0.518594       -14.1117
  65   2.0000      -0.511281       -13.9127
  66   2.0000      -0.502527       -13.6745
  67   2.0000      -0.496484       -13.5100
  68   2.0000      -0.481344       -13.0980
  69   2.0000      -0.462485       -12.5849
  70   2.0000      -0.459898       -12.5145
  71   2.0000      -0.456557       -12.4236
  72   2.0000      -0.354094        -9.6354
  73   2.0000      -0.345242        -9.3945
  74   2.0000      -0.327443        -8.9102
  75   2.0000      -0.316358        -8.6085
  76   2.0000      -0.314788        -8.5658
  77   0.0000       0.074865         2.0372
  78   0.0000       0.109887         2.9902
  79   0.0000       0.119756         3.2587
  80   0.0000       0.134999         3.6735
  81   0.0000       0.139522         3.7966

MULLIKEN ATOMIC CHARGES
-----------------------
   0 C :   -0.283190
   1 C :    0.048910
   2 O :   -0.348992
   3 C :    0.433651
   4 O :   -0.415225
   5 C :   -0.174642
   6 C :    0.142438
   7 C :   -0.286858
   8 N :   -0.123798
   9 C :    0.202319
  10 S :   -0.439633
  11 N :   -0.198588
  12 C :    0.043179
  13 C :    0.053989
  14 C :   -0.161545
  15 C :   -0.133761
  16 C :   -0.279953
  17 C :    0.311359
  18 O :   -0.359072
  19 C :   -0.274889
  20 H :    0.099037
  21 H :    0.104549
  22 H :    0.094318
  23 H :    0.098112
  24 H :    0.097703
  25 H :    0.126805
  26 H :    0.104964
  27 H :    0.125705
  28 H :    0.197020
  29 H :    0.193893
  30 H :    0.153852
  31 H :    0.154056
  32 H :    0.159841
  33 H :    0.128726
  34 H :    0.240345
  35 H :    0.165376
Sum of atomic charges:   -0.0000000

LOEWDIN ATOMIC CHARGES
----------------------
   0 C :    0.105086
   1 C :   -0.014516
   2 O :    0.303127
   3 C :   -0.416327
   4 O :    0.110841
   5 C :   -0.092429
   6 C :   -0.068883
   7 C :    0.125313
   8 N :    0.404534
   9 C :   -0.458375
  10 S :   -0.036227
  11 N :    0.397568
  12 C :   -0.046057
  13 C :   -0.039183
  14 C :    0.021936
  15 C :    0.040893
  16 C :   -0.002451
  17 C :   -0.193106
  18 O :    0.392959
  19 C :    0.027860
  20 H :   -0.026820
  21 H :   -0.023154
  22 H :   -0.029393
  23 H :   -0.025085
  24 H :   -0.029685
  25 H :   -0.008116
  26 H :   -0.020485
  27 H :   -0.010295
  28 H :   -0.059018
  29 H :   -0.063814
  30 H :   -0.004770
  31 H :   -0.025067
  32 H :   -0.020969
  33 H :   -0.036243
  34 H :   -0.154709
  35 H :   -0.024943

  Mayer bond orders larger than 0.100000
B(  0-C ,  1-C ) :   0.9702 B(  0-C , 20-H ) :   0.9765 B(  0-C , 21-H ) :   0.9786
B(  0-C , 22-H ) :   0.9775 B(  1-C ,  2-O ) :   0.9015 B(  1-C , 23-H ) :   0.9720
B(  1-C , 24-H ) :   0.9831 B(  2-O ,  3-C ) :   1.1369 B(  3-C ,  4-O ) :   2.0064
B(  3-C ,  5-C ) :   1.0411 B(  5-C ,  6-C ) :   1.6556 B(  5-C , 12-C ) :   0.9659
B(  6-C ,  7-C ) :   0.9540 B(  6-C ,  8-N ) :   1.1430 B(  7-C , 25-H ) :   0.9674
B(  7-C , 26-H ) :   0.9903 B(  7-C , 27-H ) :   0.9640 B(  8-N ,  9-C ) :   1.1811
B(  8-N , 28-H ) :   0.9491 B(  9-C , 10-S ) :   1.6104 B(  9-C , 11-N ) :   1.3029
B( 11-N , 12-C ) :   0.9913 B( 11-N , 29-H ) :   0.9519 B( 12-C , 13-C ) :   0.9460
B( 12-C , 30-H ) :   0.9989 B( 13-C , 14-C ) :   1.3762 B( 13-C , 19-C ) :   1.3693
B( 14-C , 15-C ) :   1.3943 B( 14-C , 31-H ) :   0.9646 B( 15-C , 16-C ) :   1.3628
B( 15-C , 32-H ) :   0.9712 B( 16-C , 17-C ) :   1.3313 B( 16-C , 33-H ) :   0.9858
B( 17-C , 18-O ) :   1.1083 B( 17-C , 19-C ) :   1.3779 B( 18-O , 34-H ) :   0.9804
B( 19-C , 35-H ) :   0.9585

MP2 TOTAL ENERGY:    -1274.340517311 Eh
FINAL SINGLE POINT ENERGY     -1274.340517310642

DIPOLE MOMENT
-------------
                                X             Y             Z
Electronic contribution:     11.93558       8.49185       9.02788
Nuclear contribution   :    -13.36760      -9.82684      -9.89744
                        -----------------------------------------
Total Dipole Moment    :     -1.43202      -1.33499      -0.86956
                        -----------------------------------------
Magnitude (a.u.)       :      2.14219
Magnitude (Debye)      :      5.44503

Rotational constants in cm-1:     0.010573     0.009222     0.006285
Rotational constants in MHz :   316.960410   276.476955   188.412761

                             ****ORCA TERMINATED NORMALLY****
TOTAL RUN TIME: 0 days 1 hours 47 minutes 25 seconds 610 msec
