                         Program Version 5.0.0 -  RELEASE  -
|  1> ! ri-mp2 cc-pvtz cc-pvtz/c TightSCF NoKeepInts
|  2>
|  3> %scf
|  4>   MaxCore 4096
|  5> end
|  6> *xyz  0  1
|  7>     C       14.7095639   14.4833196   17.3167319
|  8>     C       15.5992749   15.5451551   16.6506212
|  9>     O       16.9203338   14.9830181   16.5582632
| 10>     C       18.0710985   15.7235469   16.4821791
| 11>     O       19.1184753   15.1341360   16.2927073
| 12>     C       18.0722506   16.9210472   17.3699547
| 13>     C       17.5848378   18.1134869   16.9618833
| 14>     C       16.9782180   18.4254015   15.6109505
| 15>     N       17.6556241   19.2203064   17.8102192
| 16>     C       18.2862731   19.2270459   19.0279239
| 17>     S       18.3754770   20.5968472   19.9497429
| 18>     N       18.8335170   18.0384815   19.4480526
| 19>     C       18.7112011   16.7448631   18.7451907
| 20>     C       17.9317494   15.7290313   19.5742310
| 21>     C       18.3757168   14.3965706   19.6544506
| 22>     C       17.6557622   13.4452102   20.3960625
| 23>     C       16.4788105   13.8276666   21.0616805
| 24>     C       16.0279824   15.1517246   20.9765087
| 25>     O       14.8822054   15.5201435   21.6026112
| 26>     C       16.7455787   16.0967628   20.2365143
| 27>     H       15.1053112   14.2125975   18.3034502
| 28>     H       14.6679476   13.5747077   16.7032120
| 29>     H       13.6877313   14.8593443   17.4472785
| 30>     H       15.2177126   15.8064934   15.6551383
| 31>     H       15.5772920   16.4366290   17.2883162
| 32>     H       17.1922589   17.6459110   14.8693169
| 33>     H       17.3833090   19.3618599   15.2062078
| 34>     H       15.8890994   18.5335196   15.6834386
| 35>     H       17.2711883   20.1047525   17.5167494
| 36>     H       19.2728195   18.0692984   20.3594747
| 37>     H       19.7267496   16.3514532   18.5898908
| 38>     H       19.2751494   14.0934906   19.1226851
| 39>     H       18.0076231   12.4161408   20.4450387
| 40>     H       15.9182012   13.0945751   21.6321357
| 41>     H       14.5657494   14.7527296   22.1029880
| 42>     H       16.3749071   17.1147322   20.1821999
| 43> *
| 44>
| 45>                          ****END OF INPUT****

CARTESIAN COORDINATES (ANGSTROEM)
---------------------------------
  C     14.709564   14.483320   17.316732
  C     15.599275   15.545155   16.650621
  O     16.920334   14.983018   16.558263
  C     18.071099   15.723547   16.482179
  O     19.118475   15.134136   16.292707
  C     18.072251   16.921047   17.369955
  C     17.584838   18.113487   16.961883
  C     16.978218   18.425401   15.610950
  N     17.655624   19.220306   17.810219
  C     18.286273   19.227046   19.027924
  S     18.375477   20.596847   19.949743
  N     18.833517   18.038481   19.448053
  C     18.711201   16.744863   18.745191
  C     17.931749   15.729031   19.574231
  C     18.375717   14.396571   19.654451
  C     17.655762   13.445210   20.396062
  C     16.478811   13.827667   21.061681
  C     16.027982   15.151725   20.976509
  O     14.882205   15.520143   21.602611
  C     16.745579   16.096763   20.236514
  H     15.105311   14.212597   18.303450
  H     14.667948   13.574708   16.703212
  H     13.687731   14.859344   17.447278
  H     15.217713   15.806493   15.655138
  H     15.577292   16.436629   17.288316
  H     17.192259   17.645911   14.869317
  H     17.383309   19.361860   15.206208
  H     15.889099   18.533520   15.683439
  H     17.271188   20.104752   17.516749
  H     19.272820   18.069298   20.359475
  H     19.726750   16.351453   18.589891
  H     19.275149   14.093491   19.122685
  H     18.007623   12.416141   20.445039
  H     15.918201   13.094575   21.632136
  H     14.565749   14.752730   22.102988
  H     16.374907   17.114732   20.182200

 Total Charge           Charge          ....    0
 Multiplicity           Mult            ....    1
 Number of Electrons    NEL             ....  154
 Basis Dimension        Dim             ....  828

ORBITAL ENERGIES
----------------

  NO   OCC          E(Eh)            E(eV)
   0   2.0000     -91.888599     -2500.4159
   1   2.0000     -20.602992      -560.6359
   2   2.0000     -20.599563      -560.5426
   3   2.0000     -20.554361      -559.3126
   4   2.0000     -15.624411      -425.1618
   5   2.0000     -15.611145      -424.8009
   6   2.0000     -11.396386      -310.1114
   7   2.0000     -11.385610      -309.8182
   8   2.0000     -11.323992      -308.1415
   9   2.0000     -11.316180      -307.9289
  10   2.0000     -11.316011      -307.9243
  11   2.0000     -11.303705      -307.5894
  12   2.0000     -11.270431      -306.6840
  13   2.0000     -11.264128      -306.5125
  14   2.0000     -11.263215      -306.4877
  15   2.0000     -11.256363      -306.3012
  16   2.0000     -11.245349      -306.0015
  17   2.0000     -11.241584      -305.8990
  18   2.0000     -11.238875      -305.8253
  19   2.0000     -11.229299      -305.5648
  20   2.0000      -8.893732      -242.0108
  21   2.0000      -6.575326      -178.9237
  22   2.0000      -6.573294      -178.8684
  23   2.0000      -6.572726      -178.8530
  24   2.0000      -1.452968       -39.5373
  25   2.0000      -1.419361       -38.6228
  26   2.0000      -1.361590       -37.0507
  27   2.0000      -1.338388       -36.4194
  28   2.0000      -1.238704       -33.7068
  29   2.0000      -1.160709       -31.5845
  30   2.0000      -1.125193       -30.6180
  31   2.0000      -1.048837       -28.5403
  32   2.0000      -1.039750       -28.2930
  33   2.0000      -1.018268       -27.7085
  34   2.0000      -1.004663       -27.3383
  35   2.0000      -0.988437       -26.8967
  36   2.0000      -0.927507       -25.2387
  37   2.0000      -0.881628       -23.9903
  38   2.0000      -0.854035       -23.2395
  39   2.0000      -0.840914       -22.8824
  40   2.0000      -0.836578       -22.7644
  41   2.0000      -0.836014       -22.7491
  42   2.0000      -0.758336       -20.6354
  43   2.0000      -0.738486       -20.0952
  44   2.0000      -0.731094       -19.8941
  45   2.0000      -0.697976       -18.9929
  46   2.0000      -0.689718       -18.7682
  47   2.0000      -0.683394       -18.5961
  48   2.0000      -0.676797       -18.4166
  49   2.0000      -0.661347       -17.9962
  50   2.0000      -0.655815       -17.8456
  51   2.0000      -0.646676       -17.5969
  52   2.0000      -0.639249       -17.3948
  53   2.0000      -0.611912       -16.6510
  54   2.0000      -0.609821       -16.5941
  55   2.0000      -0.606207       -16.4957
  56   2.0000      -0.601576       -16.3697
  57   2.0000      -0.586744       -15.9661
  58   2.0000      -0.577812       -15.7231
  59   2.0000      -0.567326       -15.4377
  60   2.0000      -0.560528       -15.2527
  61   2.0000      -0.554592       -15.0912
  62   2.0000      -0.545261       -14.8373
  63   2.0000      -0.530356       -14.4317
  64   2.0000      -0.520282       -14.1576
  65   2.0000      -0.513924       -13.9846
  66   2.0000      -0.502827       -13.6826
  67   2.0000      -0.501786       -13.6543
  68   2.0000      -0.488823       -13.3016
  69   2.0000      -0.469039       -12.7632
  70   2.0000      -0.455224       -12.3873
  71   2.0000      -0.451683       -12.2909
  72   2.0000      -0.355731        -9.6799
  73   2.0000      -0.351404        -9.5622
  74   2.0000      -0.328447        -8.9375
  75   2.0000      -0.323818        -8.8115
  76   2.0000      -0.316798        -8.6205
  77   0.0000       0.090244         2.4557
  78   0.0000       0.102432         2.7873
  79   0.0000       0.107489         2.9249
  80   0.0000       0.127336         3.4650
  81   0.0000       0.129991         3.5372

MULLIKEN ATOMIC CHARGES
-----------------------
   0 C :   -0.265301
   1 C :    0.005907
   2 O :   -0.303618
   3 C :    0.381943
   4 O :   -0.370786
   5 C :   -0.146892
   6 C :    0.112271
   7 C :   -0.320593
   8 N :   -0.135665
   9 C :    0.206318
  10 S :   -0.443522
  11 N :   -0.214012
  12 C :    0.053286
  13 C :    0.034449
  14 C :   -0.187985
  15 C :   -0.127927
  16 C :   -0.278366
  17 C :    0.297573
  18 O :   -0.361559
  19 C :   -0.258626
  20 H :    0.114037
  21 H :    0.104251
  22 H :    0.088286
  23 H :    0.108971
  24 H :    0.092539
  25 H :    0.120740
  26 H :    0.133511
  27 H :    0.123416
  28 H :    0.195356
  29 H :    0.198334
  30 H :    0.166193
  31 H :    0.162898
  32 H :    0.162948
  33 H :    0.132862
  34 H :    0.241737
  35 H :    0.177028
Sum of atomic charges:    0.0000000

LOEWDIN ATOMIC CHARGES
----------------------
   0 C :    0.112546
   1 C :   -0.028169
   2 O :    0.321958
   3 C :   -0.422102
   4 O :    0.133473
   5 C :   -0.080173
   6 C :   -0.112603
   7 C :    0.124248
   8 N :    0.399668
   9 C :   -0.455276
  10 S :   -0.040039
  11 N :    0.397541
  12 C :   -0.042515
  13 C :   -0.040487
  14 C :    0.024559
  15 C :    0.046065
  16 C :   -0.001364
  17 C :   -0.194292
  18 O :    0.395113
  19 C :    0.027288
  20 H :   -0.022205
  21 H :   -0.026112
  22 H :   -0.025700
  23 H :   -0.036094
  24 H :   -0.039270
  25 H :   -0.010013
  26 H :   -0.010431
  27 H :   -0.016508
  28 H :   -0.059284
  29 H :   -0.063718
  30 H :   -0.002193
  31 H :   -0.022523
  32 H :   -0.018619
  33 H :   -0.035048
  34 H :   -0.153047
  35 H :   -0.024673

  Mayer bond orders larger than 0.100000
B(  0-C ,  1-C ) :   0.9801 B(  0-C , 20-H ) :   0.9717 B(  0-C , 21-H ) :   0.9815
B(  0-C , 22-H ) :   0.9759 B(  1-C ,  2-O ) :   0.9224 B(  1-C , 23-H ) :   0.9761
B(  1-C , 24-H ) :   0.9619 B(  2-O ,  3-C ) :   1.1384 B(  3-C ,  4-O ) :   2.0987
B(  3-C ,  5-C ) :   0.9226 B(  5-C ,  6-C ) :   1.7047 B(  5-C , 12-C ) :   0.9655
B(  6-C ,  7-C ) :   0.9424 B(  6-C ,  8-N ) :   1.1055 B(  7-C , 25-H ) :   0.9819
B(  7-C , 26-H ) :   0.9740 B(  7-C , 27-H ) :   0.9650 B(  8-N ,  9-C ) :   1.1993
B(  8-N , 28-H ) :   0.9532 B(  9-C , 10-S ) :   1.6082 B(  9-C , 11-N ) :   1.2852
B( 11-N , 12-C ) :   0.9968 B( 11-N , 29-H ) :   0.9486 B( 12-C , 13-C ) :   0.9469
B( 12-C , 30-H ) :   0.9972 B( 13-C , 14-C ) :   1.3852 B( 13-C , 19-C ) :   1.3472
B( 14-C , 15-C ) :   1.3977 B( 14-C , 31-H ) :   0.9636 B( 15-C , 16-C ) :   1.3597
B( 15-C , 32-H ) :   0.9705 B( 16-C , 17-C ) :   1.3309 B( 16-C , 33-H ) :   0.9852
B( 17-C , 18-O ) :   1.1054 B( 17-C , 19-C ) :   1.3721 B( 18-O , 34-H ) :   0.9791
B( 19-C , 35-H ) :   0.9561

MP2 TOTAL ENERGY:    -1274.324906836 Eh
FINAL SINGLE POINT ENERGY     -1274.324906836005

DIPOLE MOMENT
-------------
                                X             Y             Z
Electronic contribution:     10.51554       8.00482       6.16075
Nuclear contribution   :    -12.10458      -9.07968      -6.76585
                        -----------------------------------------
Total Dipole Moment    :     -1.58904      -1.07486      -0.60510
                        -----------------------------------------
Magnitude (a.u.)       :      2.01159
Magnitude (Debye)      :      5.11306

Rotational constants in cm-1:     0.012585     0.009060     0.006903
Rotational constants in MHz :   377.303540   271.626677   206.934436

                             ****ORCA TERMINATED NORMALLY****
TOTAL RUN TIME: 0 days 2 hours 14 minutes 22 seconds 697 msec
