                         Program Version 5.0.0 -  RELEASE  -
|  1> ! ri-mp2 cc-pvtz cc-pvtz/c TightSCF NoKeepInts
|  2>
|  3> %scf
|  4>   MaxCore 4096
|  5> end
|  6> *xyz  0  1
|  7>     C       14.9392966   14.1125077   16.4646323
|  8>     C       16.4322025   13.9655310   16.0924984
|  9>     O       17.2351487   15.0529246   16.6029767
| 10>     C       16.8581999   16.3677154   16.5309270
| 11>     O       16.0566297   16.7791994   15.7100362
| 12>     C       17.6436705   17.2403372   17.4705886
| 13>     C       17.5629595   18.5950473   17.4493287
| 14>     C       16.7259303   19.4494485   16.5215017
| 15>     N       18.3281219   19.3574054   18.3369410
| 16>     C       19.2452079   18.8508159   19.2184126
| 17>     S       20.1606697   19.8300960   20.1873918
| 18>     N       19.3666887   17.4854295   19.2589958
| 19>     C       18.5270402   16.5322041   18.5106994
| 20>     C       17.6953718   15.6994284   19.4822336
| 21>     C       17.9346116   14.3198334   19.6261603
| 22>     C       17.1622281   13.5487741   20.5110435
| 23>     C       16.1439624   14.1622963   21.2604789
| 24>     C       15.9062078   15.5367714   21.1231035
| 25>     O       14.9239867   16.1320454   21.8454437
| 26>     C       16.6762799   16.3014233   20.2414454
| 27>     H       14.8263629   14.3624048   17.5273135
| 28>     H       14.4106093   13.1696186   16.2807448
| 29>     H       14.4432684   14.8858874   15.8662455
| 30>     H       16.8172195   13.0201084   16.4954421
| 31>     H       16.5211230   13.9253072   14.9988259
| 32>     H       16.9836838   19.2479160   15.4739444
| 33>     H       16.8561874   20.5243282   16.6929645
| 34>     H       15.6596114   19.2208407   16.6453344
| 35>     H       18.2522914   20.3619137   18.3220641
| 36>     H       20.0220133   17.1402981   19.9483858
| 37>     H       19.2058649   15.8595337   17.9678643
| 38>     H       18.7172116   13.8421404   19.0428844
| 39>     H       17.3533790   12.4820441   20.6138162
| 40>     H       15.5448414   13.5711976   21.9452792
| 41>     H       14.5287585   15.4545319   22.4142858
| 42>     H       16.4801600   17.3646949   20.1537661
| 43> *
| 44>
| 45>                          ****END OF INPUT****

CARTESIAN COORDINATES (ANGSTROEM)
---------------------------------
  C     14.939297   14.112508   16.464632
  C     16.432202   13.965531   16.092498
  O     17.235149   15.052925   16.602977
  C     16.858200   16.367715   16.530927
  O     16.056630   16.779199   15.710036
  C     17.643670   17.240337   17.470589
  C     17.562960   18.595047   17.449329
  C     16.725930   19.449448   16.521502
  N     18.328122   19.357405   18.336941
  C     19.245208   18.850816   19.218413
  S     20.160670   19.830096   20.187392
  N     19.366689   17.485429   19.258996
  C     18.527040   16.532204   18.510699
  C     17.695372   15.699428   19.482234
  C     17.934612   14.319833   19.626160
  C     17.162228   13.548774   20.511043
  C     16.143962   14.162296   21.260479
  C     15.906208   15.536771   21.123103
  O     14.923987   16.132045   21.845444
  C     16.676280   16.301423   20.241445
  H     14.826363   14.362405   17.527313
  H     14.410609   13.169619   16.280745
  H     14.443268   14.885887   15.866245
  H     16.817220   13.020108   16.495442
  H     16.521123   13.925307   14.998826
  H     16.983684   19.247916   15.473944
  H     16.856187   20.524328   16.692964
  H     15.659611   19.220841   16.645334
  H     18.252291   20.361914   18.322064
  H     20.022013   17.140298   19.948386
  H     19.205865   15.859534   17.967864
  H     18.717212   13.842140   19.042884
  H     17.353379   12.482044   20.613816
  H     15.544841   13.571198   21.945279
  H     14.528759   15.454532   22.414286
  H     16.480160   17.364695   20.153766

 Total Charge           Charge          ....    0
 Multiplicity           Mult            ....    1
 Number of Electrons    NEL             ....  154
 Basis Dimension        Dim             ....  828

ORBITAL ENERGIES
----------------

  NO   OCC          E(Eh)            E(eV)
   0   2.0000     -91.888405     -2500.4106
   1   2.0000     -20.597951      -560.4987
   2   2.0000     -20.597104      -560.4757
   3   2.0000     -20.541221      -558.9550
   4   2.0000     -15.628429      -425.2712
   5   2.0000     -15.607840      -424.7109
   6   2.0000     -11.395575      -310.0894
   7   2.0000     -11.383583      -309.7630
   8   2.0000     -11.335319      -308.4497
   9   2.0000     -11.314372      -307.8797
  10   2.0000     -11.308136      -307.7100
  11   2.0000     -11.300605      -307.5051
  12   2.0000     -11.260036      -306.4012
  13   2.0000     -11.258318      -306.3544
  14   2.0000     -11.255777      -306.2853
  15   2.0000     -11.251600      -306.1716
  16   2.0000     -11.243730      -305.9574
  17   2.0000     -11.239035      -305.8297
  18   2.0000     -11.238715      -305.8210
  19   2.0000     -11.222498      -305.3797
  20   2.0000      -8.893475      -242.0038
  21   2.0000      -6.575052      -178.9163
  22   2.0000      -6.573045      -178.8617
  23   2.0000      -6.572460      -178.8457
  24   2.0000      -1.446913       -39.3725
  25   2.0000      -1.416787       -38.5527
  26   2.0000      -1.353548       -36.8319
  27   2.0000      -1.339445       -36.4482
  28   2.0000      -1.238016       -33.6881
  29   2.0000      -1.158096       -31.5134
  30   2.0000      -1.120008       -30.4770
  31   2.0000      -1.042772       -28.3753
  32   2.0000      -1.034965       -28.1628
  33   2.0000      -1.015580       -27.6353
  34   2.0000      -0.995139       -27.0791
  35   2.0000      -0.983762       -26.7695
  36   2.0000      -0.922282       -25.0966
  37   2.0000      -0.897449       -24.4208
  38   2.0000      -0.846820       -23.0431
  39   2.0000      -0.837995       -22.8030
  40   2.0000      -0.834560       -22.7095
  41   2.0000      -0.816859       -22.2279
  42   2.0000      -0.748109       -20.3571
  43   2.0000      -0.732151       -19.9228
  44   2.0000      -0.721925       -19.6446
  45   2.0000      -0.696029       -18.9399
  46   2.0000      -0.688175       -18.7262
  47   2.0000      -0.677190       -18.4273
  48   2.0000      -0.670895       -18.2560
  49   2.0000      -0.658297       -17.9132
  50   2.0000      -0.650270       -17.6947
  51   2.0000      -0.641219       -17.4485
  52   2.0000      -0.634193       -17.2573
  53   2.0000      -0.614842       -16.7307
  54   2.0000      -0.607031       -16.5182
  55   2.0000      -0.600325       -16.3357
  56   2.0000      -0.598754       -16.2929
  57   2.0000      -0.577681       -15.7195
  58   2.0000      -0.570537       -15.5251
  59   2.0000      -0.568803       -15.4779
  60   2.0000      -0.559281       -15.2188
  61   2.0000      -0.542127       -14.7520
  62   2.0000      -0.535028       -14.5588
  63   2.0000      -0.525350       -14.2955
  64   2.0000      -0.521332       -14.1862
  65   2.0000      -0.513240       -13.9660
  66   2.0000      -0.501983       -13.6597
  67   2.0000      -0.499688       -13.5972
  68   2.0000      -0.484756       -13.1909
  69   2.0000      -0.463774       -12.6199
  70   2.0000      -0.454544       -12.3688
  71   2.0000      -0.443351       -12.0642
  72   2.0000      -0.353533        -9.6201
  73   2.0000      -0.349833        -9.5195
  74   2.0000      -0.327918        -8.9231
  75   2.0000      -0.321878        -8.7587
  76   2.0000      -0.315764        -8.5924
  77   0.0000       0.076605         2.0845
  78   0.0000       0.105760         2.8779
  79   0.0000       0.124951         3.4001
  80   0.0000       0.132529         3.6063
  81   0.0000       0.137490         3.7413

MULLIKEN ATOMIC CHARGES
-----------------------
   0 C :   -0.315888
   1 C :    0.035988
   2 O :   -0.361708
   3 C :    0.468700
   4 O :   -0.434364
   5 C :   -0.224298
   6 C :    0.152321
   7 C :   -0.273304
   8 N :   -0.119940
   9 C :    0.211827
  10 S :   -0.441071
  11 N :   -0.206215
  12 C :    0.066219
  13 C :    0.055608
  14 C :   -0.187532
  15 C :   -0.130927
  16 C :   -0.279059
  17 C :    0.315996
  18 O :   -0.356479
  19 C :   -0.269003
  20 H :    0.105503
  21 H :    0.096130
  22 H :    0.127380
  23 H :    0.107103
  24 H :    0.107911
  25 H :    0.131580
  26 H :    0.095051
  27 H :    0.130998
  28 H :    0.196871
  29 H :    0.195143
  30 H :    0.150403
  31 H :    0.151846
  32 H :    0.160385
  33 H :    0.130453
  34 H :    0.240735
  35 H :    0.165635
Sum of atomic charges:    0.0000000

LOEWDIN ATOMIC CHARGES
----------------------
   0 C :    0.104823
   1 C :   -0.013092
   2 O :    0.300594
   3 C :   -0.413274
   4 O :    0.100654
   5 C :   -0.093971
   6 C :   -0.059416
   7 C :    0.131340
   8 N :    0.406443
   9 C :   -0.456322
  10 S :   -0.036353
  11 N :    0.396469
  12 C :   -0.052176
  13 C :   -0.039425
  14 C :    0.014685
  15 C :    0.038715
  16 C :   -0.001902
  17 C :   -0.190268
  18 O :    0.395464
  19 C :    0.031043
  20 H :   -0.026454
  21 H :   -0.027524
  22 H :   -0.025956
  23 H :   -0.025592
  24 H :   -0.028311
  25 H :   -0.003898
  26 H :   -0.023529
  27 H :   -0.004868
  28 H :   -0.057680
  29 H :   -0.064586
  30 H :   -0.011601
  31 H :   -0.029941
  32 H :   -0.021386
  33 H :   -0.035453
  34 H :   -0.153821
  35 H :   -0.023431

  Mayer bond orders larger than 0.100000
B(  0-C ,  1-C ) :   0.9591 B(  0-C , 20-H ) :   0.9733 B(  0-C , 21-H ) :   0.9775
B(  0-C , 22-H ) :   0.9724 B(  1-C ,  2-O ) :   0.8984 B(  1-C , 23-H ) :   0.9836
B(  1-C , 24-H ) :   0.9842 B(  2-O ,  3-C ) :   1.1604 B(  3-C ,  4-O ) :   1.9700
B(  3-C ,  5-C ) :   1.0527 B(  5-C ,  6-C ) :   1.6540 B(  5-C , 12-C ) :   0.9702
B(  6-C ,  7-C ) :   0.9667 B(  6-C ,  8-N ) :   1.1646 B(  7-C , 25-H ) :   0.9604
B(  7-C , 26-H ) :   0.9903 B(  7-C , 27-H ) :   0.9607 B(  8-N ,  9-C ) :   1.1842
B(  8-N , 28-H ) :   0.9479 B(  9-C , 10-S ) :   1.6060 B(  9-C , 11-N ) :   1.3057
B( 11-N , 12-C ) :   0.9891 B( 11-N , 29-H ) :   0.9512 B( 12-C , 13-C ) :   0.9343
B( 12-C , 30-H ) :   1.0023 B( 13-C , 14-C ) :   1.3555 B( 13-C , 19-C ) :   1.3825
B( 14-C , 15-C ) :   1.3909 B( 14-C , 31-H ) :   0.9710 B( 15-C , 16-C ) :   1.3631
B( 15-C , 32-H ) :   0.9707 B( 16-C , 17-C ) :   1.3315 B( 16-C , 33-H ) :   0.9849
B( 17-C , 18-O ) :   1.1105 B( 17-C , 19-C ) :   1.3703 B( 18-O , 34-H ) :   0.9798
B( 19-C , 35-H ) :   0.9584

MP2 TOTAL ENERGY:    -1274.345965920 Eh
FINAL SINGLE POINT ENERGY     -1274.345965920385

DIPOLE MOMENT
-------------
                                X             Y             Z
Electronic contribution:     10.31160       9.90650       7.70136
Nuclear contribution   :    -11.35899     -11.67068      -8.07494
                        -----------------------------------------
Total Dipole Moment    :     -1.04739      -1.76418      -0.37358
                        -----------------------------------------
Magnitude (a.u.)       :      2.08540
Magnitude (Debye)      :      5.30068

Rotational constants in cm-1:     0.012119     0.008671     0.006243
Rotational constants in MHz :   363.332149   259.960469   187.171331

                             ****ORCA TERMINATED NORMALLY****
TOTAL RUN TIME: 0 days 2 hours 1 minutes 43 seconds 607 msec
