                         Program Version 5.0.0 -  RELEASE  -
|  1> ! ri-mp2 cc-pvtz cc-pvtz/c TightSCF NoKeepInts
|  2>
|  3> %scf
|  4>   MaxCore 4096
|  5> end
|  6> *xyz  0  1
|  7>     C       14.6924732   15.9225894   17.2223042
|  8>     C       15.7432797   14.8801644   16.7972142
|  9>     O       16.6910719   15.4531498   15.8719224
| 10>     C       17.9397947   15.7824307   16.3215561
| 11>     O       18.7936258   14.9150241   16.3672347
| 12>     C       17.9379806   16.8973415   17.3187876
| 13>     C       17.3378789   18.0865710   17.0737322
| 14>     C       16.6191360   18.5070739   15.8087471
| 15>     N       17.4247651   19.1162360   18.0138499
| 16>     C       18.2078609   19.0805667   19.1382236
| 17>     S       18.3347086   20.3815249   20.1510026
| 18>     N       18.8812867   17.9088511   19.3822923
| 19>     C       18.7153815   16.6580450   18.6157140
| 20>     C       18.0345737   15.5865754   19.4623414
| 21>     C       18.5553055   14.2803366   19.5069937
| 22>     C       17.9168770   13.2795399   20.2581693
| 23>     C       16.7449766   13.5855296   20.9705570
| 24>     C       16.2208905   14.8842954   20.9267742
| 25>     O       15.0817678   15.1803824   21.6013308
| 26>     C       16.8588932   15.8784748   20.1787025
| 27>     H       15.1296322   16.6980758   17.8596524
| 28>     H       13.8947641   15.4372186   17.7979249
| 29>     H       14.2361353   16.3950070   16.3441449
| 30>     H       16.2482323   14.4568075   17.6758315
| 31>     H       15.2240607   14.0552632   16.2924900
| 32>     H       16.8938293   17.8819602   14.9505569
| 33>     H       16.8663019   19.5401218   15.5337853
| 34>     H       15.5321366   18.4435292   15.9334727
| 35>     H       16.9457621   19.9872413   17.8470612
| 36>     H       19.4336019   17.9037474   20.2304346
| 37>     H       19.7181345   16.2963292   18.3446720
| 38>     H       19.4503031   14.0355437   18.9389672
| 39>     H       18.3281198   12.2716256   20.2795686
| 40>     H       16.2470857   12.8142963   21.5490873
| 41>     H       14.8322969   14.3941139   22.1103120
| 42>     H       16.4340759   16.8764165   20.1585886
| 43> *
| 44>
| 45>                          ****END OF INPUT****

CARTESIAN COORDINATES (ANGSTROEM)
---------------------------------
  C     14.692473   15.922589   17.222304
  C     15.743280   14.880164   16.797214
  O     16.691072   15.453150   15.871922
  C     17.939795   15.782431   16.321556
  O     18.793626   14.915024   16.367235
  C     17.937981   16.897341   17.318788
  C     17.337879   18.086571   17.073732
  C     16.619136   18.507074   15.808747
  N     17.424765   19.116236   18.013850
  C     18.207861   19.080567   19.138224
  S     18.334709   20.381525   20.151003
  N     18.881287   17.908851   19.382292
  C     18.715381   16.658045   18.615714
  C     18.034574   15.586575   19.462341
  C     18.555305   14.280337   19.506994
  C     17.916877   13.279540   20.258169
  C     16.744977   13.585530   20.970557
  C     16.220890   14.884295   20.926774
  O     15.081768   15.180382   21.601331
  C     16.858893   15.878475   20.178702
  H     15.129632   16.698076   17.859652
  H     13.894764   15.437219   17.797925
  H     14.236135   16.395007   16.344145
  H     16.248232   14.456808   17.675832
  H     15.224061   14.055263   16.292490
  H     16.893829   17.881960   14.950557
  H     16.866302   19.540122   15.533785
  H     15.532137   18.443529   15.933473
  H     16.945762   19.987241   17.847061
  H     19.433602   17.903747   20.230435
  H     19.718135   16.296329   18.344672
  H     19.450303   14.035544   18.938967
  H     18.328120   12.271626   20.279569
  H     16.247086   12.814296   21.549087
  H     14.832297   14.394114   22.110312
  H     16.434076   16.876417   20.158589

 Total Charge           Charge          ....    0
 Multiplicity           Mult            ....    1
 Number of Electrons    NEL             ....  154
 Basis Dimension        Dim             ....  828

ORBITAL ENERGIES
----------------

  NO   OCC          E(Eh)            E(eV)
   0   2.0000     -91.890807     -2500.4760
   1   2.0000     -20.600029      -560.5553
   2   2.0000     -20.578133      -559.9595
   3   2.0000     -20.557850      -559.4075
   4   2.0000     -15.629358      -425.2964
   5   2.0000     -15.611049      -424.7982
   6   2.0000     -11.394368      -310.0565
   7   2.0000     -11.386890      -309.8530
   8   2.0000     -11.332724      -308.3791
   9   2.0000     -11.316782      -307.9453
  10   2.0000     -11.312886      -307.8393
  11   2.0000     -11.299938      -307.4870
  12   2.0000     -11.262730      -306.4745
  13   2.0000     -11.262416      -306.4659
  14   2.0000     -11.261958      -306.4535
  15   2.0000     -11.256858      -306.3147
  16   2.0000     -11.246631      -306.0364
  17   2.0000     -11.242090      -305.9128
  18   2.0000     -11.239088      -305.8311
  19   2.0000     -11.229891      -305.5809
  20   2.0000      -8.895885      -242.0693
  21   2.0000      -6.577464      -178.9819
  22   2.0000      -6.575451      -178.9271
  23   2.0000      -6.574866      -178.9112
  24   2.0000      -1.448530       -39.4165
  25   2.0000      -1.419815       -38.6351
  26   2.0000      -1.354426       -36.8558
  27   2.0000      -1.341483       -36.5036
  28   2.0000      -1.240279       -33.7497
  29   2.0000      -1.160917       -31.5902
  30   2.0000      -1.124154       -30.5898
  31   2.0000      -1.047871       -28.5140
  32   2.0000      -1.033407       -28.1204
  33   2.0000      -1.018388       -27.7118
  34   2.0000      -1.002925       -27.2910
  35   2.0000      -0.989204       -26.9176
  36   2.0000      -0.927041       -25.2261
  37   2.0000      -0.885660       -24.1000
  38   2.0000      -0.850975       -23.1562
  39   2.0000      -0.841909       -22.9095
  40   2.0000      -0.837012       -22.7763
  41   2.0000      -0.829256       -22.5652
  42   2.0000      -0.754804       -20.5393
  43   2.0000      -0.735650       -20.0181
  44   2.0000      -0.730767       -19.8852
  45   2.0000      -0.698331       -19.0026
  46   2.0000      -0.688300       -18.7296
  47   2.0000      -0.679331       -18.4855
  48   2.0000      -0.675150       -18.3718
  49   2.0000      -0.660190       -17.9647
  50   2.0000      -0.655362       -17.8333
  51   2.0000      -0.644728       -17.5439
  52   2.0000      -0.638004       -17.3610
  53   2.0000      -0.610307       -16.6073
  54   2.0000      -0.608004       -16.5446
  55   2.0000      -0.604247       -16.4424
  56   2.0000      -0.599300       -16.3078
  57   2.0000      -0.583996       -15.8913
  58   2.0000      -0.579335       -15.7645
  59   2.0000      -0.575299       -15.6547
  60   2.0000      -0.564539       -15.3619
  61   2.0000      -0.553514       -15.0619
  62   2.0000      -0.542151       -14.7527
  63   2.0000      -0.525873       -14.3097
  64   2.0000      -0.518732       -14.1154
  65   2.0000      -0.512205       -13.9378
  66   2.0000      -0.503196       -13.6927
  67   2.0000      -0.497104       -13.5269
  68   2.0000      -0.484491       -13.1837
  69   2.0000      -0.467281       -12.7154
  70   2.0000      -0.454488       -12.3673
  71   2.0000      -0.450801       -12.2669
  72   2.0000      -0.356676        -9.7056
  73   2.0000      -0.352165        -9.5829
  74   2.0000      -0.330222        -8.9858
  75   2.0000      -0.324615        -8.8332
  76   2.0000      -0.318790        -8.6747
  77   0.0000       0.072404         1.9702
  78   0.0000       0.100828         2.7437
  79   0.0000       0.118569         3.2264
  80   0.0000       0.127717         3.4753
  81   0.0000       0.131539         3.5794

MULLIKEN ATOMIC CHARGES
-----------------------
   0 C :   -0.327308
   1 C :    0.034547
   2 O :   -0.375246
   3 C :    0.443741
   4 O :   -0.377349
   5 C :   -0.185145
   6 C :    0.108477
   7 C :   -0.297878
   8 N :   -0.125101
   9 C :    0.194147
  10 S :   -0.437565
  11 N :   -0.205343
  12 C :    0.061431
  13 C :    0.016861
  14 C :   -0.172495
  15 C :   -0.134636
  16 C :   -0.277578
  17 C :    0.316875
  18 O :   -0.359059
  19 C :   -0.280939
  20 H :    0.100408
  21 H :    0.123653
  22 H :    0.108800
  23 H :    0.105817
  24 H :    0.124068
  25 H :    0.128898
  26 H :    0.123927
  27 H :    0.123391
  28 H :    0.198334
  29 H :    0.195511
  30 H :    0.161850
  31 H :    0.165264
  32 H :    0.163421
  33 H :    0.133216
  34 H :    0.241644
  35 H :    0.181365
Sum of atomic charges:    0.0000000

LOEWDIN ATOMIC CHARGES
----------------------
   0 C :    0.103392
   1 C :   -0.009689
   2 O :    0.275083
   3 C :   -0.419995
   4 O :    0.138852
   5 C :   -0.090657
   6 C :   -0.084061
   7 C :    0.128211
   8 N :    0.404109
   9 C :   -0.457707
  10 S :   -0.035127
  11 N :    0.397071
  12 C :   -0.044486
  13 C :   -0.044761
  14 C :    0.020249
  15 C :    0.042703
  16 C :   -0.001194
  17 C :   -0.194572
  18 O :    0.395111
  19 C :    0.029671
  20 H :   -0.036094
  21 H :   -0.021415
  22 H :   -0.030387
  23 H :   -0.026732
  24 H :   -0.022504
  25 H :   -0.008187
  26 H :   -0.014691
  27 H :   -0.014219
  28 H :   -0.056985
  29 H :   -0.063810
  30 H :   -0.003345
  31 H :   -0.022747
  32 H :   -0.018914
  33 H :   -0.034502
  34 H :   -0.153014
  35 H :   -0.024656

  Mayer bond orders larger than 0.100000
B(  0-C ,  1-C ) :   0.9643 B(  0-C , 20-H ) :   0.9737 B(  0-C , 21-H ) :   0.9771
B(  0-C , 22-H ) :   0.9752 B(  1-C ,  2-O ) :   0.8867 B(  1-C , 23-H ) :   0.9685
B(  1-C , 24-H ) :   0.9851 B(  2-O ,  3-C ) :   1.1040 B(  3-C ,  4-O ) :   2.0712
B(  3-C ,  5-C ) :   0.9682 B(  5-C ,  6-C ) :   1.6787 B(  5-C , 12-C ) :   0.9560
B(  6-C ,  7-C ) :   0.9580 B(  6-C ,  8-N ) :   1.1199 B(  7-C , 25-H ) :   0.9726
B(  7-C , 26-H ) :   0.9792 B(  7-C , 27-H ) :   0.9615 B(  8-N ,  9-C ) :   1.1878
B(  8-N , 28-H ) :   0.9512 B(  9-C , 10-S ) :   1.6159 B(  9-C , 11-N ) :   1.2913
B( 11-N , 12-C ) :   0.9931 B( 11-N , 29-H ) :   0.9512 B( 12-C , 13-C ) :   0.9446
B( 12-C , 30-H ) :   0.9977 B( 13-C , 14-C ) :   1.3875 B( 13-C , 19-C ) :   1.3471
B( 14-C , 15-C ) :   1.3962 B( 14-C , 31-H ) :   0.9609 B( 15-C , 16-C ) :   1.3626
B( 15-C , 32-H ) :   0.9705 B( 16-C , 17-C ) :   1.3303 B( 16-C , 33-H ) :   0.9839
B( 17-C , 18-O ) :   1.1097 B( 17-C , 19-C ) :   1.3713 B( 18-O , 34-H ) :   0.9794
B( 19-C , 35-H ) :   0.9528

MP2 TOTAL ENERGY:    -1274.319683150 Eh
FINAL SINGLE POINT ENERGY     -1274.319683150349

DIPOLE MOMENT
-------------
                                X             Y             Z
Electronic contribution:     10.31393       6.04097       5.41451
Nuclear contribution   :    -11.55279      -7.21885      -5.76434
                        -----------------------------------------
Total Dipole Moment    :     -1.23886      -1.17787      -0.34983
                        -----------------------------------------
Magnitude (a.u.)       :      1.74486
Magnitude (Debye)      :      4.43508

Rotational constants in cm-1:     0.012226     0.009485     0.007155
Rotational constants in MHz :   366.539772   284.343246   214.506823

                             ****ORCA TERMINATED NORMALLY****
TOTAL RUN TIME: 0 days 2 hours 53 minutes 6 seconds 953 msec
