                         Program Version 5.0.0 -  RELEASE  -
|  1> ! ri-mp2 cc-pvtz cc-pvtz/c TightSCF NoKeepInts
|  2>
|  3> %scf
|  4>   MaxCore 4096
|  5> end
|  6> *xyz  0  1
|  7>     C       14.7222239   15.4237914   17.0858564
|  8>     C       15.8018637   14.7468174   16.2224945
|  9>     O       16.7105181   15.7606973   15.7548226
| 10>     C       17.9172496   15.8684404   16.3810327
| 11>     O       18.6420060   14.8946552   16.4969772
| 12>     C       17.9450750   16.9831654   17.3824234
| 13>     C       17.3332729   18.1787353   17.1926427
| 14>     C       16.5624587   18.6325596   15.9706574
| 15>     N       17.4564115   19.1829099   18.1576206
| 16>     C       18.2888646   19.1228693   19.2446713
| 17>     S       18.4711525   20.4045192   20.2738038
| 18>     N       18.9624981   17.9422760   19.4365374
| 19>     C       18.7342170   16.7048075   18.6654571
| 20>     C       18.0240044   15.6575149   19.5204991
| 21>     C       18.5209220   14.3431515   19.5945662
| 22>     C       17.8619804   13.3691530   20.3631608
| 23>     C       16.6936830   13.7105497   21.0651407
| 24>     C       16.1937444   15.0175752   20.9931690
| 25>     O       15.0596008   15.3483532   21.6603025
| 26>     C       16.8525729   15.9849889   20.2281803
| 27>     H       15.1701977   15.9296250   17.9488880
| 28>     H       14.0116747   14.6780179   17.4625176
| 29>     H       14.1628303   16.1627705   16.4997445
| 30>     H       16.3224761   13.9712590   16.8021704
| 31>     H       15.3219717   14.2624333   15.3624151
| 32>     H       15.5444218   18.2254028   15.9802099
| 33>     H       17.0502465   18.2923639   15.0485931
| 34>     H       16.4864215   19.7248653   15.9061704
| 35>     H       16.9718241   20.0575070   18.0328248
| 36>     H       19.5487919   17.9153273   20.2609618
| 37>     H       19.7172608   16.3052604   18.3766345
| 38>     H       19.4138925   14.0711071   19.0364338
| 39>     H       18.2547518   12.3547816   20.4063368
| 40>     H       16.1799107   12.9605646   21.6573142
| 41>     H       14.7889280   14.5730220   22.1748149
| 42>     H       16.4470804   16.9901623   20.1879545
| 43> *
| 44>
| 45>                          ****END OF INPUT****

CARTESIAN COORDINATES (ANGSTROEM)
---------------------------------
  C     14.722224   15.423791   17.085856
  C     15.801864   14.746817   16.222494
  O     16.710518   15.760697   15.754823
  C     17.917250   15.868440   16.381033
  O     18.642006   14.894655   16.496977
  C     17.945075   16.983165   17.382423
  C     17.333273   18.178735   17.192643
  C     16.562459   18.632560   15.970657
  N     17.456412   19.182910   18.157621
  C     18.288865   19.122869   19.244671
  S     18.471152   20.404519   20.273804
  N     18.962498   17.942276   19.436537
  C     18.734217   16.704808   18.665457
  C     18.024004   15.657515   19.520499
  C     18.520922   14.343151   19.594566
  C     17.861980   13.369153   20.363161
  C     16.693683   13.710550   21.065141
  C     16.193744   15.017575   20.993169
  O     15.059601   15.348353   21.660303
  C     16.852573   15.984989   20.228180
  H     15.170198   15.929625   17.948888
  H     14.011675   14.678018   17.462518
  H     14.162830   16.162771   16.499744
  H     16.322476   13.971259   16.802170
  H     15.321972   14.262433   15.362415
  H     15.544422   18.225403   15.980210
  H     17.050246   18.292364   15.048593
  H     16.486421   19.724865   15.906170
  H     16.971824   20.057507   18.032825
  H     19.548792   17.915327   20.260962
  H     19.717261   16.305260   18.376635
  H     19.413892   14.071107   19.036434
  H     18.254752   12.354782   20.406337
  H     16.179911   12.960565   21.657314
  H     14.788928   14.573022   22.174815
  H     16.447080   16.990162   20.187955

 Total Charge           Charge          ....    0
 Multiplicity           Mult            ....    1
 Number of Electrons    NEL             ....  154
 Basis Dimension        Dim             ....  828

ORBITAL ENERGIES
----------------

  NO   OCC          E(Eh)            E(eV)
   0   2.0000     -91.889814     -2500.4490
   1   2.0000     -20.596495      -560.4591
   2   2.0000     -20.584835      -560.1418
   3   2.0000     -20.554714      -559.3222
   4   2.0000     -15.629449      -425.2989
   5   2.0000     -15.609120      -424.7458
   6   2.0000     -11.395029      -310.0745
   7   2.0000     -11.385191      -309.8068
   8   2.0000     -11.334339      -308.4230
   9   2.0000     -11.312685      -307.8338
  10   2.0000     -11.309638      -307.7509
  11   2.0000     -11.299446      -307.4736
  12   2.0000     -11.260583      -306.4160
  13   2.0000     -11.260446      -306.4123
  14   2.0000     -11.258747      -306.3661
  15   2.0000     -11.252853      -306.2057
  16   2.0000     -11.242457      -305.9228
  17   2.0000     -11.238436      -305.8134
  18   2.0000     -11.235245      -305.7266
  19   2.0000     -11.227904      -305.5268
  20   2.0000      -8.894879      -242.0420
  21   2.0000      -6.576454      -178.9544
  22   2.0000      -6.574447      -178.8998
  23   2.0000      -6.573860      -178.8838
  24   2.0000      -1.452388       -39.5215
  25   2.0000      -1.416277       -38.5389
  26   2.0000      -1.356436       -36.9105
  27   2.0000      -1.340585       -36.4792
  28   2.0000      -1.238713       -33.7071
  29   2.0000      -1.156899       -31.4808
  30   2.0000      -1.121975       -30.5305
  31   2.0000      -1.044932       -28.4340
  32   2.0000      -1.033819       -28.1316
  33   2.0000      -1.014585       -27.6083
  34   2.0000      -1.000222       -27.2174
  35   2.0000      -0.986643       -26.8479
  36   2.0000      -0.924319       -25.1520
  37   2.0000      -0.888042       -24.1649
  38   2.0000      -0.848676       -23.0936
  39   2.0000      -0.839123       -22.8337
  40   2.0000      -0.833087       -22.6694
  41   2.0000      -0.821151       -22.3447
  42   2.0000      -0.756751       -20.5922
  43   2.0000      -0.736226       -20.0337
  44   2.0000      -0.728641       -19.8273
  45   2.0000      -0.695134       -18.9155
  46   2.0000      -0.686334       -18.6761
  47   2.0000      -0.678104       -18.4522
  48   2.0000      -0.676361       -18.4047
  49   2.0000      -0.660423       -17.9710
  50   2.0000      -0.653826       -17.7915
  51   2.0000      -0.645794       -17.5730
  52   2.0000      -0.637379       -17.3440
  53   2.0000      -0.606620       -16.5070
  54   2.0000      -0.603607       -16.4250
  55   2.0000      -0.600307       -16.3352
  56   2.0000      -0.590305       -16.0630
  57   2.0000      -0.584835       -15.9142
  58   2.0000      -0.576095       -15.6763
  59   2.0000      -0.570150       -15.5146
  60   2.0000      -0.562431       -15.3045
  61   2.0000      -0.551569       -15.0090
  62   2.0000      -0.544980       -14.8297
  63   2.0000      -0.521842       -14.2000
  64   2.0000      -0.517229       -14.0745
  65   2.0000      -0.512403       -13.9432
  66   2.0000      -0.501338       -13.6421
  67   2.0000      -0.498068       -13.5531
  68   2.0000      -0.483021       -13.1437
  69   2.0000      -0.464450       -12.6383
  70   2.0000      -0.457911       -12.4604
  71   2.0000      -0.451927       -12.2975
  72   2.0000      -0.354887        -9.6570
  73   2.0000      -0.348376        -9.4798
  74   2.0000      -0.329035        -8.9535
  75   2.0000      -0.320138        -8.7114
  76   2.0000      -0.316819        -8.6211
  77   0.0000       0.069940         1.9032
  78   0.0000       0.104953         2.8559
  79   0.0000       0.119898         3.2626
  80   0.0000       0.131465         3.5773
  81   0.0000       0.136226         3.7069

MULLIKEN ATOMIC CHARGES
-----------------------
   0 C :   -0.308312
   1 C :    0.043268
   2 O :   -0.377373
   3 C :    0.472608
   4 O :   -0.402836
   5 C :   -0.214507
   6 C :    0.150816
   7 C :   -0.283395
   8 N :   -0.123577
   9 C :    0.194074
  10 S :   -0.437311
  11 N :   -0.202450
  12 C :    0.053580
  13 C :    0.061318
  14 C :   -0.178858
  15 C :   -0.134769
  16 C :   -0.278778
  17 C :    0.329472
  18 O :   -0.360156
  19 C :   -0.318951
  20 H :    0.109142
  21 H :    0.112421
  22 H :    0.094843
  23 H :    0.107780
  24 H :    0.108543
  25 H :    0.125783
  26 H :    0.125540
  27 H :    0.106927
  28 H :    0.197698
  29 H :    0.194432
  30 H :    0.157909
  31 H :    0.162310
  32 H :    0.162306
  33 H :    0.131135
  34 H :    0.240769
  35 H :    0.178599
Sum of atomic charges:   -0.0000000

LOEWDIN ATOMIC CHARGES
----------------------
   0 C :    0.103875
   1 C :   -0.012589
   2 O :    0.289262
   3 C :   -0.416951
   4 O :    0.126930
   5 C :   -0.094287
   6 C :   -0.073197
   7 C :    0.126932
   8 N :    0.404944
   9 C :   -0.458499
  10 S :   -0.035018
  11 N :    0.397120
  12 C :   -0.045265
  13 C :   -0.041621
  14 C :    0.021254
  15 C :    0.041037
  16 C :   -0.002335
  17 C :   -0.193799
  18 O :    0.394190
  19 C :    0.028911
  20 H :   -0.030633
  21 H :   -0.023501
  22 H :   -0.032737
  23 H :   -0.025190
  24 H :   -0.025711
  25 H :   -0.011689
  26 H :   -0.007415
  27 H :   -0.019145
  28 H :   -0.058490
  29 H :   -0.063994
  30 H :   -0.003848
  31 H :   -0.023902
  32 H :   -0.020129
  33 H :   -0.035549
  34 H :   -0.153850
  35 H :   -0.025111

  Mayer bond orders larger than 0.100000
B(  0-C ,  1-C ) :   0.9641 B(  0-C , 20-H ) :   0.9712 B(  0-C , 21-H ) :   0.9790
B(  0-C , 22-H ) :   0.9793 B(  1-C ,  2-O ) :   0.8861 B(  1-C , 23-H ) :   0.9705
B(  1-C , 24-H ) :   0.9857 B(  2-O ,  3-C ) :   1.0993 B(  3-C ,  4-O ) :   2.0273
B(  3-C ,  5-C ) :   1.0171 B(  5-C ,  6-C ) :   1.6658 B(  5-C , 12-C ) :   0.9600
B(  6-C ,  7-C ) :   0.9548 B(  6-C ,  8-N ) :   1.1378 B(  7-C , 25-H ) :   0.9630
B(  7-C , 26-H ) :   0.9696 B(  7-C , 27-H ) :   0.9876 B(  8-N ,  9-C ) :   1.1831
B(  8-N , 28-H ) :   0.9495 B(  9-C , 10-S ) :   1.6150 B(  9-C , 11-N ) :   1.2973
B( 11-N , 12-C ) :   0.9904 B( 11-N , 29-H ) :   0.9516 B( 12-C , 13-C ) :   0.9468
B( 12-C , 30-H ) :   0.9984 B( 13-C , 14-C ) :   1.3815 B( 13-C , 19-C ) :   1.3438
B( 14-C , 15-C ) :   1.3965 B( 14-C , 31-H ) :   0.9611 B( 15-C , 16-C ) :   1.3628
B( 15-C , 32-H ) :   0.9705 B( 16-C , 17-C ) :   1.3314 B( 16-C , 33-H ) :   0.9846
B( 17-C , 18-O ) :   1.1093 B( 17-C , 19-C ) :   1.3645 B( 18-O , 34-H ) :   0.9804
B( 19-C , 35-H ) :   0.9563

MP2 TOTAL ENERGY:    -1274.326897520 Eh
FINAL SINGLE POINT ENERGY     -1274.326897520353

DIPOLE MOMENT
-------------
                                X             Y             Z
Electronic contribution:     10.45365       7.57239       6.32702
Nuclear contribution   :    -11.71181      -8.86299      -6.98414
                        -----------------------------------------
Total Dipole Moment    :     -1.25816      -1.29060      -0.65713
                        -----------------------------------------
Magnitude (a.u.)       :      1.91845
Magnitude (Debye)      :      4.87631

Rotational constants in cm-1:     0.011773     0.009527     0.006913
Rotational constants in MHz :   352.954856   285.619740   207.255961

                             ****ORCA TERMINATED NORMALLY****
TOTAL RUN TIME: 0 days 1 hours 56 minutes 19 seconds 12 msec
