                         Program Version 5.0.0 -  RELEASE  -
|  1> ! ri-mp2 cc-pvtz cc-pvtz/c TightSCF NoKeepInts
|  2>
|  3> %scf
|  4>   MaxCore 4096
|  5> end
|  6> *xyz  0  1
|  7>     C       14.5681044   14.4200210   16.2635365
|  8>     C       15.6130478   15.3592375   16.8866704
|  9>     O       16.7867307   15.3059689   16.0542320
| 10>     C       18.0038396   15.5877922   16.6078625
| 11>     O       18.8453119   14.7150046   16.7176249
| 12>     C       18.0483666   16.8405403   17.4269101
| 13>     C       17.5201115   18.0179001   17.0130277
| 14>     C       16.8602413   18.3105968   15.6812753
| 15>     N       17.6418248   19.1541497   17.8169385
| 16>     C       18.3833296   19.2197027   18.9679289
| 17>     S       18.5510971   20.6302851   19.8140902
| 18>     N       18.9766860   18.0536583   19.3851230
| 19>     C       18.7699866   16.7276594   18.7701331
| 20>     C       17.9982759   15.8024323   19.7064656
| 21>     C       18.4377166   14.4834296   19.9211657
| 22>     C       17.7165394   13.6150273   20.7573191
| 23>     C       16.5427734   14.0673988   21.3834565
| 24>     C       16.0979269   15.3784467   21.1678614
| 25>     O       14.9570527   15.8145091   21.7582397
| 26>     C       16.8171367   16.2405115   20.3340718
| 27>     H       14.9607598   13.3972923   16.1979769
| 28>     H       14.3012721   14.7530363   15.2528921
| 29>     H       13.6561012   14.3991334   16.8723973
| 30>     H       15.2166473   16.3784395   16.9641090
| 31>     H       15.8474440   14.9959692   17.8969641
| 32>     H       17.1699787   17.5981995   14.9065006
| 33>     H       17.1315527   19.3071760   15.3106209
| 34>     H       15.7676133   18.2690907   15.7599754
| 35>     H       17.2229350   20.0225851   17.5229062
| 36>     H       19.4993886   18.1265220   20.2489200
| 37>     H       19.7600540   16.2852475   18.5850851
| 38>     H       19.3343911   14.1237907   19.4208105
| 39>     H       18.0653712   12.5950433   20.9102920
| 40>     H       15.9813976   13.3982508   22.0272590
| 41>     H       14.6431053   15.1070309   22.3418537
| 42>     H       16.4528887   17.2509209   20.1815042
| 43> *
| 44>
| 45>                          ****END OF INPUT****

CARTESIAN COORDINATES (ANGSTROEM)
---------------------------------
  C     14.568104   14.420021   16.263537
  C     15.613048   15.359237   16.886670
  O     16.786731   15.305969   16.054232
  C     18.003840   15.587792   16.607862
  O     18.845312   14.715005   16.717625
  C     18.048367   16.840540   17.426910
  C     17.520111   18.017900   17.013028
  C     16.860241   18.310597   15.681275
  N     17.641825   19.154150   17.816938
  C     18.383330   19.219703   18.967929
  S     18.551097   20.630285   19.814090
  N     18.976686   18.053658   19.385123
  C     18.769987   16.727659   18.770133
  C     17.998276   15.802432   19.706466
  C     18.437717   14.483430   19.921166
  C     17.716539   13.615027   20.757319
  C     16.542773   14.067399   21.383456
  C     16.097927   15.378447   21.167861
  O     14.957053   15.814509   21.758240
  C     16.817137   16.240512   20.334072
  H     14.960760   13.397292   16.197977
  H     14.301272   14.753036   15.252892
  H     13.656101   14.399133   16.872397
  H     15.216647   16.378439   16.964109
  H     15.847444   14.995969   17.896964
  H     17.169979   17.598199   14.906501
  H     17.131553   19.307176   15.310621
  H     15.767613   18.269091   15.759975
  H     17.222935   20.022585   17.522906
  H     19.499389   18.126522   20.248920
  H     19.760054   16.285248   18.585085
  H     19.334391   14.123791   19.420810
  H     18.065371   12.595043   20.910292
  H     15.981398   13.398251   22.027259
  H     14.643105   15.107031   22.341854
  H     16.452889   17.250921   20.181504

 Total Charge           Charge          ....    0
 Multiplicity           Mult            ....    1
 Number of Electrons    NEL             ....  154
 Basis Dimension        Dim             ....  828

ORBITAL ENERGIES
----------------

  NO   OCC          E(Eh)            E(eV)
   0   2.0000     -91.890927     -2500.4793
   1   2.0000     -20.599019      -560.5278
   2   2.0000     -20.590104      -560.2852
   3   2.0000     -20.554655      -559.3206
   4   2.0000     -15.629790      -425.3082
   5   2.0000     -15.610968      -424.7960
   6   2.0000     -11.395194      -310.0790
   7   2.0000     -11.387021      -309.8566
   8   2.0000     -11.334829      -308.4364
   9   2.0000     -11.315636      -307.9141
  10   2.0000     -11.311983      -307.8147
  11   2.0000     -11.302750      -307.5635
  12   2.0000     -11.265988      -306.5631
  13   2.0000     -11.262959      -306.4807
  14   2.0000     -11.261474      -306.4403
  15   2.0000     -11.255661      -306.2821
  16   2.0000     -11.245308      -306.0004
  17   2.0000     -11.241091      -305.8856
  18   2.0000     -11.238054      -305.8030
  19   2.0000     -11.231634      -305.6283
  20   2.0000      -8.896014      -242.0729
  21   2.0000      -6.577593      -178.9854
  22   2.0000      -6.575579      -178.9306
  23   2.0000      -6.574995      -178.9147
  24   2.0000      -1.450051       -39.4579
  25   2.0000      -1.418851       -38.6089
  26   2.0000      -1.359917       -37.0052
  27   2.0000      -1.341746       -36.5108
  28   2.0000      -1.240360       -33.7519
  29   2.0000      -1.160151       -31.5693
  30   2.0000      -1.124581       -30.6014
  31   2.0000      -1.047744       -28.5106
  32   2.0000      -1.037391       -28.2288
  33   2.0000      -1.017569       -27.6895
  34   2.0000      -1.003927       -27.3183
  35   2.0000      -0.988764       -26.9056
  36   2.0000      -0.926945       -25.2235
  37   2.0000      -0.877682       -23.8829
  38   2.0000      -0.854968       -23.2649
  39   2.0000      -0.842965       -22.9382
  40   2.0000      -0.836249       -22.7555
  41   2.0000      -0.835115       -22.7246
  42   2.0000      -0.756808       -20.5938
  43   2.0000      -0.738159       -20.0863
  44   2.0000      -0.731426       -19.9031
  45   2.0000      -0.696791       -18.9607
  46   2.0000      -0.688306       -18.7298
  47   2.0000      -0.682184       -18.5632
  48   2.0000      -0.676476       -18.4079
  49   2.0000      -0.662575       -18.0296
  50   2.0000      -0.652272       -17.7492
  51   2.0000      -0.648887       -17.6571
  52   2.0000      -0.641535       -17.4570
  53   2.0000      -0.610993       -16.6260
  54   2.0000      -0.607309       -16.5257
  55   2.0000      -0.603083       -16.4107
  56   2.0000      -0.601933       -16.3794
  57   2.0000      -0.584259       -15.8985
  58   2.0000      -0.577366       -15.7109
  59   2.0000      -0.566222       -15.4077
  60   2.0000      -0.559569       -15.2267
  61   2.0000      -0.558396       -15.1947
  62   2.0000      -0.544356       -14.8127
  63   2.0000      -0.525114       -14.2891
  64   2.0000      -0.517761       -14.0890
  65   2.0000      -0.515518       -14.0280
  66   2.0000      -0.502356       -13.6698
  67   2.0000      -0.498176       -13.5561
  68   2.0000      -0.490146       -13.3375
  69   2.0000      -0.468526       -12.7493
  70   2.0000      -0.459234       -12.4964
  71   2.0000      -0.452267       -12.3068
  72   2.0000      -0.358136        -9.7454
  73   2.0000      -0.350932        -9.5494
  74   2.0000      -0.330332        -8.9888
  75   2.0000      -0.323440        -8.8013
  76   2.0000      -0.318991        -8.6802
  77   0.0000       0.074815         2.0358
  78   0.0000       0.104335         2.8391
  79   0.0000       0.115686         3.1480
  80   0.0000       0.129713         3.5297
  81   0.0000       0.133579         3.6349

MULLIKEN ATOMIC CHARGES
-----------------------
   0 C :   -0.257674
   1 C :    0.021776
   2 O :   -0.340262
   3 C :    0.428358
   4 O :   -0.378051
   5 C :   -0.196129
   6 C :    0.126377
   7 C :   -0.306227
   8 N :   -0.130420
   9 C :    0.198115
  10 S :   -0.437638
  11 N :   -0.205470
  12 C :    0.059946
  13 C :    0.019942
  14 C :   -0.174118
  15 C :   -0.135183
  16 C :   -0.276977
  17 C :    0.317455
  18 O :   -0.358758
  19 C :   -0.276443
  20 H :    0.107893
  21 H :    0.096095
  22 H :    0.089746
  23 H :    0.086538
  24 H :    0.112013
  25 H :    0.136624
  26 H :    0.123156
  27 H :    0.119919
  28 H :    0.197184
  29 H :    0.195834
  30 H :    0.160921
  31 H :    0.166073
  32 H :    0.163115
  33 H :    0.132496
  34 H :    0.241559
  35 H :    0.172216
Sum of atomic charges:    0.0000000

LOEWDIN ATOMIC CHARGES
----------------------
   0 C :    0.112221
   1 C :   -0.023549
   2 O :    0.293721
   3 C :   -0.419747
   4 O :    0.131348
   5 C :   -0.089345
   6 C :   -0.085311
   7 C :    0.127485
   8 N :    0.403333
   9 C :   -0.457599
  10 S :   -0.034970
  11 N :    0.397073
  12 C :   -0.045207
  13 C :   -0.044586
  14 C :    0.021275
  15 C :    0.043711
  16 C :   -0.001141
  17 C :   -0.195440
  18 O :    0.394240
  19 C :    0.027418
  20 H :   -0.021257
  21 H :   -0.027785
  22 H :   -0.025083
  23 H :   -0.039318
  24 H :   -0.025936
  25 H :   -0.006956
  26 H :   -0.013947
  27 H :   -0.016738
  28 H :   -0.057486
  29 H :   -0.063667
  30 H :   -0.003050
  31 H :   -0.022455
  32 H :   -0.018924
  33 H :   -0.034760
  34 H :   -0.153138
  35 H :   -0.024430

  Mayer bond orders larger than 0.100000
B(  0-C ,  1-C ) :   0.9841 B(  0-C , 20-H ) :   0.9778 B(  0-C , 21-H ) :   0.9798
B(  0-C , 22-H ) :   0.9762 B(  1-C ,  2-O ) :   0.8960 B(  1-C , 23-H ) :   0.9701
B(  1-C , 24-H ) :   0.9700 B(  2-O ,  3-C ) :   1.1483 B(  3-C ,  4-O ) :   2.0889
B(  3-C ,  5-C ) :   0.9557 B(  5-C ,  6-C ) :   1.6667 B(  5-C , 12-C ) :   0.9621
B(  6-C ,  7-C ) :   0.9459 B(  6-C ,  8-N ) :   1.1298 B(  7-C , 25-H ) :   0.9726
B(  7-C , 26-H ) :   0.9797 B(  7-C , 27-H ) :   0.9645 B(  8-N ,  9-C ) :   1.1870
B(  8-N , 28-H ) :   0.9511 B(  9-C , 10-S ) :   1.6140 B(  9-C , 11-N ) :   1.2943
B( 11-N , 12-C ) :   0.9952 B( 11-N , 29-H ) :   0.9510 B( 12-C , 13-C ) :   0.9408
B( 12-C , 30-H ) :   0.9980 B( 13-C , 14-C ) :   1.3868 B( 13-C , 19-C ) :   1.3554
B( 14-C , 15-C ) :   1.3956 B( 14-C , 31-H ) :   0.9602 B( 15-C , 16-C ) :   1.3644
B( 15-C , 32-H ) :   0.9704 B( 16-C , 17-C ) :   1.3285 B( 16-C , 33-H ) :   0.9844
B( 17-C , 18-O ) :   1.1111 B( 17-C , 19-C ) :   1.3697 B( 18-O , 34-H ) :   0.9792
B( 19-C , 35-H ) :   0.9588

MP2 TOTAL ENERGY:    -1274.331933327 Eh
FINAL SINGLE POINT ENERGY     -1274.331933326554

DIPOLE MOMENT
-------------
                                X             Y             Z
Electronic contribution:     10.99695       8.75491       7.36476
Nuclear contribution   :    -12.42388      -9.78039      -7.69523
                        -----------------------------------------
Total Dipole Moment    :     -1.42693      -1.02548      -0.33047
                        -----------------------------------------
Magnitude (a.u.)       :      1.78800
Magnitude (Debye)      :      4.54474

Rotational constants in cm-1:     0.011513     0.009237     0.006708
Rotational constants in MHz :   345.150023   276.914466   201.097305

                             ****ORCA TERMINATED NORMALLY****
TOTAL RUN TIME: 0 days 2 hours 7 minutes 22 seconds 9 msec
