                         Program Version 5.0.0 -  RELEASE  -
|  1> ! ri-mp2 cc-pvtz cc-pvtz/c TightSCF NoKeepInts
|  2>
|  3> %scf
|  4>   MaxCore 4096
|  5> end
|  6> *xyz  0  1
|  7>     C       14.1760867   15.1298843   16.2781572
|  8>     C       15.4585123   15.4748524   17.0521800
|  9>     O       16.5539317   15.3983257   16.1182022
| 10>     C       17.8253201   15.7479326   16.4877704
| 11>     O       18.7446724   14.9658649   16.3305053
| 12>     C       17.9392255   16.9148955   17.4165025
| 13>     C       17.3473865   18.1091408   17.1765732
| 14>     C       16.5288224   18.4937858   15.9618262
| 15>     N       17.5310337   19.1673296   18.0696201
| 16>     C       18.3733202   19.1376365   19.1508725
| 17>     S       18.5864861   20.4590381   20.1215743
| 18>     N       19.0267689   17.9536345   19.3916524
| 19>     C       18.8106520   16.6945585   18.6513805
| 20>     C       18.1853311   15.6280115   19.5449127
| 21>     C       18.6984451   14.3182675   19.5509462
| 22>     C       18.1074261   13.3212878   20.3447648
| 23>     C       16.9901776   13.6344836   21.1373808
| 24>     C       16.4712597   14.9359953   21.1285973
| 25>     O       15.3828237   15.2387113   21.8795434
| 26>     C       17.0610775   15.9264665   20.3369985
| 27>     H       13.3058248   15.1492766   16.9454560
| 28>     H       14.2496793   14.1266752   15.8394361
| 29>     H       14.0061427   15.8495346   15.4678423
| 30>     H       15.3511469   16.4714041   17.4941203
| 31>     H       15.6100812   14.7520339   17.8657322
| 32>     H       16.7278192   17.8338267   15.1081563
| 33>     H       16.7639680   19.5126112   15.6288054
| 34>     H       15.4543999   18.4496444   16.1765397
| 35>     H       17.0695562   20.0482797   17.9047644
| 36>     H       19.6241536   17.9548348   20.2088858
| 37>     H       19.7915988   16.3307521   18.3112536
| 38>     H       19.5494097   14.0676244   18.9210118
| 39>     H       18.5116581   12.3103388   20.3361834
| 40>     H       16.5288560   12.8658181   21.7487319
| 41>     H       15.1622600   14.4522832   22.4017311
| 42>     H       16.6416865   16.9269596   20.3453891
| 43> *
| 44>
| 45>                          ****END OF INPUT****

CARTESIAN COORDINATES (ANGSTROEM)
---------------------------------
  C     14.176087   15.129884   16.278157
  C     15.458512   15.474852   17.052180
  O     16.553932   15.398326   16.118202
  C     17.825320   15.747933   16.487770
  O     18.744672   14.965865   16.330505
  C     17.939225   16.914896   17.416502
  C     17.347386   18.109141   17.176573
  C     16.528822   18.493786   15.961826
  N     17.531034   19.167330   18.069620
  C     18.373320   19.137636   19.150872
  S     18.586486   20.459038   20.121574
  N     19.026769   17.953634   19.391652
  C     18.810652   16.694558   18.651380
  C     18.185331   15.628011   19.544913
  C     18.698445   14.318267   19.550946
  C     18.107426   13.321288   20.344765
  C     16.990178   13.634484   21.137381
  C     16.471260   14.935995   21.128597
  O     15.382824   15.238711   21.879543
  C     17.061077   15.926467   20.336998
  H     13.305825   15.149277   16.945456
  H     14.249679   14.126675   15.839436
  H     14.006143   15.849535   15.467842
  H     15.351147   16.471404   17.494120
  H     15.610081   14.752034   17.865732
  H     16.727819   17.833827   15.108156
  H     16.763968   19.512611   15.628805
  H     15.454400   18.449644   16.176540
  H     17.069556   20.048280   17.904764
  H     19.624154   17.954835   20.208886
  H     19.791599   16.330752   18.311254
  H     19.549410   14.067624   18.921012
  H     18.511658   12.310339   20.336183
  H     16.528856   12.865818   21.748732
  H     15.162260   14.452283   22.401731
  H     16.641686   16.926960   20.345389

 Total Charge           Charge          ....    0
 Multiplicity           Mult            ....    1
 Number of Electrons    NEL             ....  154
 Basis Dimension        Dim             ....  828

ORBITAL ENERGIES
----------------

  NO   OCC          E(Eh)            E(eV)
   0   2.0000     -91.890841     -2500.4769
   1   2.0000     -20.599571      -560.5428
   2   2.0000     -20.594897      -560.4156
   3   2.0000     -20.552763      -559.2691
   4   2.0000     -15.629308      -425.2951
   5   2.0000     -15.611390      -424.8075
   6   2.0000     -11.395826      -310.0962
   7   2.0000     -11.387247      -309.8627
   8   2.0000     -11.333013      -308.3870
   9   2.0000     -11.316086      -307.9263
  10   2.0000     -11.312793      -307.8367
  11   2.0000     -11.303174      -307.5750
  12   2.0000     -11.267417      -306.6020
  13   2.0000     -11.263166      -306.4863
  14   2.0000     -11.262093      -306.4571
  15   2.0000     -11.256092      -306.2938
  16   2.0000     -11.245760      -306.0127
  17   2.0000     -11.241660      -305.9011
  18   2.0000     -11.238688      -305.8203
  19   2.0000     -11.234445      -305.7048
  20   2.0000      -8.895936      -242.0707
  21   2.0000      -6.577517      -178.9833
  22   2.0000      -6.575500      -178.9284
  23   2.0000      -6.574918      -178.9126
  24   2.0000      -1.448839       -39.4249
  25   2.0000      -1.419389       -38.6235
  26   2.0000      -1.359789       -37.0017
  27   2.0000      -1.341462       -36.5030
  28   2.0000      -1.240402       -33.7530
  29   2.0000      -1.160817       -31.5874
  30   2.0000      -1.125325       -30.6217
  31   2.0000      -1.048381       -28.5279
  32   2.0000      -1.039944       -28.2983
  33   2.0000      -1.018092       -27.7037
  34   2.0000      -1.004524       -27.3345
  35   2.0000      -0.989440       -26.9240
  36   2.0000      -0.927422       -25.2364
  37   2.0000      -0.879703       -23.9379
  38   2.0000      -0.855062       -23.2674
  39   2.0000      -0.842894       -22.9363
  40   2.0000      -0.836753       -22.7692
  41   2.0000      -0.835814       -22.7437
  42   2.0000      -0.757749       -20.6194
  43   2.0000      -0.739488       -20.1225
  44   2.0000      -0.731878       -19.9154
  45   2.0000      -0.697232       -18.9726
  46   2.0000      -0.688072       -18.7234
  47   2.0000      -0.683120       -18.5886
  48   2.0000      -0.676518       -18.4090
  49   2.0000      -0.662903       -18.0385
  50   2.0000      -0.652427       -17.7534
  51   2.0000      -0.646588       -17.5946
  52   2.0000      -0.641289       -17.4504
  53   2.0000      -0.613019       -16.6811
  54   2.0000      -0.607862       -16.5408
  55   2.0000      -0.605610       -16.4795
  56   2.0000      -0.603291       -16.4164
  57   2.0000      -0.585245       -15.9253
  58   2.0000      -0.577913       -15.7258
  59   2.0000      -0.567466       -15.4415
  60   2.0000      -0.560330       -15.2474
  61   2.0000      -0.556944       -15.1552
  62   2.0000      -0.542590       -14.7646
  63   2.0000      -0.527985       -14.3672
  64   2.0000      -0.524980       -14.2854
  65   2.0000      -0.515973       -14.0403
  66   2.0000      -0.502509       -13.6740
  67   2.0000      -0.499082       -13.5807
  68   2.0000      -0.490444       -13.3457
  69   2.0000      -0.468974       -12.7614
  70   2.0000      -0.459627       -12.5071
  71   2.0000      -0.450545       -12.2600
  72   2.0000      -0.357611        -9.7311
  73   2.0000      -0.351532        -9.5657
  74   2.0000      -0.330322        -8.9885
  75   2.0000      -0.323919        -8.8143
  76   2.0000      -0.318818        -8.6755
  77   0.0000       0.077199         2.1007
  78   0.0000       0.104238         2.8365
  79   0.0000       0.114847         3.1251
  80   0.0000       0.129091         3.5127
  81   0.0000       0.132921         3.6170

MULLIKEN ATOMIC CHARGES
-----------------------
   0 C :   -0.261221
   1 C :    0.012129
   2 O :   -0.330953
   3 C :    0.422864
   4 O :   -0.379894
   5 C :   -0.212009
   6 C :    0.140247
   7 C :   -0.311864
   8 N :   -0.131445
   9 C :    0.201854
  10 S :   -0.438543
  11 N :   -0.207319
  12 C :    0.058198
  13 C :    0.029936
  14 C :   -0.181881
  15 C :   -0.132311
  16 C :   -0.277828
  17 C :    0.315156
  18 O :   -0.358822
  19 C :   -0.280119
  20 H :    0.092092
  21 H :    0.108718
  22 H :    0.093082
  23 H :    0.092454
  24 H :    0.123440
  25 H :    0.136356
  26 H :    0.127887
  27 H :    0.119074
  28 H :    0.197151
  29 H :    0.196408
  30 H :    0.161606
  31 H :    0.165841
  32 H :    0.163292
  33 H :    0.132519
  34 H :    0.241826
  35 H :    0.172078
Sum of atomic charges:   -0.0000000

LOEWDIN ATOMIC CHARGES
----------------------
   0 C :    0.111091
   1 C :   -0.022661
   2 O :    0.297948
   3 C :   -0.416975
   4 O :    0.129251
   5 C :   -0.088420
   6 C :   -0.092214
   7 C :    0.127471
   8 N :    0.402548
   9 C :   -0.456704
  10 S :   -0.035664
  11 N :    0.397120
  12 C :   -0.045390
  13 C :   -0.044233
  14 C :    0.022128
  15 C :    0.044360
  16 C :   -0.000972
  17 C :   -0.195221
  18 O :    0.394068
  19 C :    0.028121
  20 H :   -0.024014
  21 H :   -0.022526
  22 H :   -0.029237
  23 H :   -0.040395
  24 H :   -0.025928
  25 H :   -0.006800
  26 H :   -0.012781
  27 H :   -0.016364
  28 H :   -0.057638
  29 H :   -0.063628
  30 H :   -0.003010
  31 H :   -0.022232
  32 H :   -0.018757
  33 H :   -0.034669
  34 H :   -0.152976
  35 H :   -0.024698

  Mayer bond orders larger than 0.100000
B(  0-C ,  1-C ) :   0.9795 B(  0-C , 20-H ) :   0.9764 B(  0-C , 21-H ) :   0.9791
B(  0-C , 22-H ) :   0.9782 B(  1-C ,  2-O ) :   0.8977 B(  1-C , 23-H ) :   0.9665
B(  1-C , 24-H ) :   0.9736 B(  2-O ,  3-C ) :   1.1643 B(  3-C ,  4-O ) :   2.0992
B(  3-C ,  5-C ) :   0.9369 B(  5-C ,  6-C ) :   1.6768 B(  5-C , 12-C ) :   0.9627
B(  6-C ,  7-C ) :   0.9457 B(  6-C ,  8-N ) :   1.1241 B(  7-C , 25-H ) :   0.9745
B(  7-C , 26-H ) :   0.9786 B(  7-C , 27-H ) :   0.9636 B(  8-N ,  9-C ) :   1.1883
B(  8-N , 28-H ) :   0.9510 B(  9-C , 10-S ) :   1.6133 B(  9-C , 11-N ) :   1.2923
B( 11-N , 12-C ) :   0.9991 B( 11-N , 29-H ) :   0.9505 B( 12-C , 13-C ) :   0.9431
B( 12-C , 30-H ) :   0.9978 B( 13-C , 14-C ) :   1.3858 B( 13-C , 19-C ) :   1.3527
B( 14-C , 15-C ) :   1.3951 B( 14-C , 31-H ) :   0.9609 B( 15-C , 16-C ) :   1.3644
B( 15-C , 32-H ) :   0.9703 B( 16-C , 17-C ) :   1.3276 B( 16-C , 33-H ) :   0.9844
B( 17-C , 18-O ) :   1.1108 B( 17-C , 19-C ) :   1.3716 B( 18-O , 34-H ) :   0.9791
B( 19-C , 35-H ) :   0.9588

MP2 TOTAL ENERGY:    -1274.333902184 Eh
FINAL SINGLE POINT ENERGY     -1274.333902183613

DIPOLE MOMENT
-------------
                                X             Y             Z
Electronic contribution:     11.98607       6.89834       7.29619
Nuclear contribution   :    -13.46980      -7.90037      -7.55078
                        -----------------------------------------
Total Dipole Moment    :     -1.48372      -1.00203      -0.25459
                        -----------------------------------------
Magnitude (a.u.)       :      1.80840
Magnitude (Debye)      :      4.59659

Rotational constants in cm-1:     0.011333     0.009244     0.006796
Rotational constants in MHz :   339.753157   277.133169   203.729298

                             ****ORCA TERMINATED NORMALLY****
TOTAL RUN TIME: 0 days 2 hours 11 minutes 4 seconds 461 msec
