                         Program Version 5.0.0 -  RELEASE  -
|  1> ! ri-mp2 cc-pvtz cc-pvtz/c TightSCF NoKeepInts
|  2>
|  3> %scf
|  4>   MaxCore 4096
|  5> end
|  6> *xyz  0  1
|  7>     C       15.6112388   13.8672693   14.9523535
|  8>     C       15.0646821   14.9290244   15.9321225
|  9>     O       16.0281596   15.9767539   16.1765011
| 10>     C       17.2317175   15.7469494   16.7864875
| 11>     O       17.6900874   14.6287921   16.9490307
| 12>     C       17.7057109   16.9102891   17.6100921
| 13>     C       17.3756177   18.2076457   17.3773839
| 14>     C       16.5095350   18.7630866   16.2652048
| 15>     N       17.9245216   19.2178912   18.1740989
| 16>     C       18.9140430   19.0324051   19.1031307
| 17>     S       19.6011641   20.3020991   19.9102653
| 18>     N       19.3060988   17.7371909   19.3276515
| 19>     C       18.6367901   16.5457241   18.7724721
| 20>     C       17.8795316   15.8001585   19.8685674
| 21>     C       18.1253377   14.4343646   20.1016249
| 22>     C       17.4295703   13.7421391   21.1069378
| 23>     C       16.4784328   14.4206910   21.8876389
| 24>     C       16.2275350   15.7799809   21.6563935
| 25>     O       15.3050742   16.4364829   22.4043917
| 26>     C       16.9212815   16.4661198   20.6546971
| 27>     H       16.0922485   14.3442608   14.0896167
| 28>     H       14.7927239   13.2390312   14.5810822
| 29>     H       16.3382246   13.2034963   15.4348984
| 30>     H       14.1605743   15.3769497   15.5003773
| 31>     H       14.7825577   14.4473365   16.8780511
| 32>     H       15.4512399   18.5428582   16.4528904
| 33>     H       16.7808415   18.3188379   15.2994198
| 34>     H       16.6082007   19.8499398   16.1559706
| 35>     H       17.6497669   20.1754449   18.0239119
| 36>     H       20.0151933   17.6241226   20.0405799
| 37>     H       19.4181442   15.8790589   18.3797873
| 38>     H       18.8478025   13.9030384   19.4868177
| 39>     H       17.6250286   12.6842349   21.2724859
| 40>     H       15.9375605   13.8895278   22.6636503
| 41>     H       14.9668471   15.8102023   23.0617339
| 42>     H       16.7139163   17.5186020   20.4956807
| 43> *
| 44>
| 45>                          ****END OF INPUT****

CARTESIAN COORDINATES (ANGSTROEM)
---------------------------------
  C     15.611239   13.867269   14.952353
  C     15.064682   14.929024   15.932123
  O     16.028160   15.976754   16.176501
  C     17.231717   15.746949   16.786487
  O     17.690087   14.628792   16.949031
  C     17.705711   16.910289   17.610092
  C     17.375618   18.207646   17.377384
  C     16.509535   18.763087   16.265205
  N     17.924522   19.217891   18.174099
  C     18.914043   19.032405   19.103131
  S     19.601164   20.302099   19.910265
  N     19.306099   17.737191   19.327652
  C     18.636790   16.545724   18.772472
  C     17.879532   15.800159   19.868567
  C     18.125338   14.434365   20.101625
  C     17.429570   13.742139   21.106938
  C     16.478433   14.420691   21.887639
  C     16.227535   15.779981   21.656394
  O     15.305074   16.436483   22.404392
  C     16.921281   16.466120   20.654697
  H     16.092249   14.344261   14.089617
  H     14.792724   13.239031   14.581082
  H     16.338225   13.203496   15.434898
  H     14.160574   15.376950   15.500377
  H     14.782558   14.447336   16.878051
  H     15.451240   18.542858   16.452890
  H     16.780842   18.318838   15.299420
  H     16.608201   19.849940   16.155971
  H     17.649767   20.175445   18.023912
  H     20.015193   17.624123   20.040580
  H     19.418144   15.879059   18.379787
  H     18.847803   13.903038   19.486818
  H     17.625029   12.684235   21.272486
  H     15.937560   13.889528   22.663650
  H     14.966847   15.810202   23.061734
  H     16.713916   17.518602   20.495681

 Total Charge           Charge          ....    0
 Multiplicity           Mult            ....    1
 Number of Electrons    NEL             ....  154
 Basis Dimension        Dim             ....  828

ORBITAL ENERGIES
----------------

  NO   OCC          E(Eh)            E(eV)
   0   2.0000     -91.887415     -2500.3837
   1   2.0000     -20.599532      -560.5418
   2   2.0000     -20.591770      -560.3305
   3   2.0000     -20.548276      -559.1470
   4   2.0000     -15.627200      -425.2377
   5   2.0000     -15.606316      -424.6695
   6   2.0000     -11.397608      -310.1447
   7   2.0000     -11.382408      -309.7311
   8   2.0000     -11.333862      -308.4101
   9   2.0000     -11.307657      -307.6970
  10   2.0000     -11.305731      -307.6446
  11   2.0000     -11.303473      -307.5831
  12   2.0000     -11.259670      -306.3912
  13   2.0000     -11.258280      -306.3534
  14   2.0000     -11.253574      -306.2253
  15   2.0000     -11.247921      -306.0715
  16   2.0000     -11.237503      -305.7880
  17   2.0000     -11.233455      -305.6778
  18   2.0000     -11.230673      -305.6021
  19   2.0000     -11.222530      -305.3806
  20   2.0000      -8.892487      -241.9769
  21   2.0000      -6.574067      -178.8895
  22   2.0000      -6.572058      -178.8348
  23   2.0000      -6.571474      -178.8189
  24   2.0000      -1.450910       -39.4813
  25   2.0000      -1.411506       -38.4090
  26   2.0000      -1.358106       -36.9559
  27   2.0000      -1.338399       -36.4197
  28   2.0000      -1.236257       -33.6403
  29   2.0000      -1.152082       -31.3497
  30   2.0000      -1.118943       -30.4480
  31   2.0000      -1.041733       -28.3470
  32   2.0000      -1.033303       -28.1176
  33   2.0000      -1.009511       -27.4702
  34   2.0000      -0.996491       -27.1159
  35   2.0000      -0.981948       -26.7202
  36   2.0000      -0.921044       -25.0629
  37   2.0000      -0.893131       -24.3033
  38   2.0000      -0.847200       -23.0535
  39   2.0000      -0.835561       -22.7368
  40   2.0000      -0.828050       -22.5324
  41   2.0000      -0.818507       -22.2727
  42   2.0000      -0.748514       -20.3681
  43   2.0000      -0.731446       -19.9036
  44   2.0000      -0.724871       -19.7247
  45   2.0000      -0.690877       -18.7997
  46   2.0000      -0.684594       -18.6288
  47   2.0000      -0.679923       -18.5016
  48   2.0000      -0.670569       -18.2471
  49   2.0000      -0.663159       -18.0455
  50   2.0000      -0.645323       -17.5601
  51   2.0000      -0.641341       -17.4518
  52   2.0000      -0.632874       -17.2214
  53   2.0000      -0.605589       -16.4789
  54   2.0000      -0.599739       -16.3197
  55   2.0000      -0.598406       -16.2834
  56   2.0000      -0.594803       -16.1854
  57   2.0000      -0.586812       -15.9680
  58   2.0000      -0.572827       -15.5874
  59   2.0000      -0.568264       -15.4632
  60   2.0000      -0.559748       -15.2315
  61   2.0000      -0.544948       -14.8288
  62   2.0000      -0.535743       -14.5783
  63   2.0000      -0.519875       -14.1465
  64   2.0000      -0.517206       -14.0739
  65   2.0000      -0.510811       -13.8999
  66   2.0000      -0.501685       -13.6516
  67   2.0000      -0.495286       -13.4774
  68   2.0000      -0.479533       -13.0487
  69   2.0000      -0.461152       -12.5486
  70   2.0000      -0.457788       -12.4571
  71   2.0000      -0.449797       -12.2396
  72   2.0000      -0.353144        -9.6095
  73   2.0000      -0.343954        -9.3595
  74   2.0000      -0.326619        -8.8878
  75   2.0000      -0.315269        -8.5789
  76   2.0000      -0.313764        -8.5379
  77   0.0000       0.076588         2.0841
  78   0.0000       0.112344         3.0570
  79   0.0000       0.121564         3.3079
  80   0.0000       0.135967         3.6999
  81   0.0000       0.140739         3.8297

MULLIKEN ATOMIC CHARGES
-----------------------
   0 C :   -0.301757
   1 C :    0.048638
   2 O :   -0.354077
   3 C :    0.436675
   4 O :   -0.426545
   5 C :   -0.146746
   6 C :    0.136876
   7 C :   -0.285357
   8 N :   -0.122049
   9 C :    0.201896
  10 S :   -0.440724
  11 N :   -0.197439
  12 C :    0.036397
  13 C :    0.055083
  14 C :   -0.162959
  15 C :   -0.134275
  16 C :   -0.279432
  17 C :    0.311240
  18 O :   -0.358841
  19 C :   -0.270398
  20 H :    0.091438
  21 H :    0.094802
  22 H :    0.128437
  23 H :    0.100931
  24 H :    0.094850
  25 H :    0.127776
  26 H :    0.123577
  27 H :    0.101895
  28 H :    0.196687
  29 H :    0.193367
  30 H :    0.154115
  31 H :    0.153700
  32 H :    0.159137
  33 H :    0.128165
  34 H :    0.239974
  35 H :    0.164943
Sum of atomic charges:   -0.0000000

LOEWDIN ATOMIC CHARGES
----------------------
   0 C :    0.103974
   1 C :   -0.012231
   2 O :    0.296410
   3 C :   -0.411413
   4 O :    0.114854
   5 C :   -0.090209
   6 C :   -0.068818
   7 C :    0.124865
   8 N :    0.404323
   9 C :   -0.458642
  10 S :   -0.037116
  11 N :    0.397590
  12 C :   -0.045979
  13 C :   -0.038814
  14 C :    0.021248
  15 C :    0.040478
  16 C :   -0.002507
  17 C :   -0.192587
  18 O :    0.393113
  19 C :    0.028980
  20 H :   -0.028988
  21 H :   -0.029235
  22 H :   -0.026246
  23 H :   -0.024795
  24 H :   -0.027496
  25 H :   -0.009636
  26 H :   -0.009160
  27 H :   -0.020745
  28 H :   -0.059198
  29 H :   -0.063868
  30 H :   -0.005199
  31 H :   -0.025483
  32 H :   -0.021312
  33 H :   -0.036420
  34 H :   -0.154941
  35 H :   -0.024793

  Mayer bond orders larger than 0.100000
B(  0-C ,  1-C ) :   0.9683 B(  0-C , 20-H ) :   0.9756 B(  0-C , 21-H ) :   0.9773
B(  0-C , 22-H ) :   0.9710 B(  1-C ,  2-O ) :   0.9079 B(  1-C , 23-H ) :   0.9843
B(  1-C , 24-H ) :   0.9786 B(  2-O ,  3-C ) :   1.1304 B(  3-C ,  4-O ) :   1.9685
B(  3-C ,  5-C ) :   1.0517 B(  5-C ,  6-C ) :   1.6526 B(  5-C , 12-C ) :   0.9644
B(  6-C ,  7-C ) :   0.9552 B(  6-C ,  8-N ) :   1.1427 B(  7-C , 25-H ) :   0.9628
B(  7-C , 26-H ) :   0.9678 B(  7-C , 27-H ) :   0.9908 B(  8-N ,  9-C ) :   1.1810
B(  8-N , 28-H ) :   0.9494 B(  9-C , 10-S ) :   1.6096 B(  9-C , 11-N ) :   1.3026
B( 11-N , 12-C ) :   0.9936 B( 11-N , 29-H ) :   0.9519 B( 12-C , 13-C ) :   0.9465
B( 12-C , 30-H ) :   0.9992 B( 13-C , 14-C ) :   1.3758 B( 13-C , 19-C ) :   1.3702
B( 14-C , 15-C ) :   1.3947 B( 14-C , 31-H ) :   0.9650 B( 15-C , 16-C ) :   1.3629
B( 15-C , 32-H ) :   0.9714 B( 16-C , 17-C ) :   1.3312 B( 16-C , 33-H ) :   0.9860
B( 17-C , 18-O ) :   1.1082 B( 17-C , 19-C ) :   1.3787 B( 18-O , 34-H ) :   0.9806
B( 19-C , 35-H ) :   0.9583

MP2 TOTAL ENERGY:    -1274.338318752 Eh
FINAL SINGLE POINT ENERGY     -1274.338318751857

DIPOLE MOMENT
-------------
                                X             Y             Z
Electronic contribution:      9.89906      10.24586      11.00431
Nuclear contribution   :    -11.53882     -11.44367     -11.90192
                        -----------------------------------------
Total Dipole Moment    :     -1.63976      -1.19781      -0.89761
                        -----------------------------------------
Magnitude (a.u.)       :      2.22020
Magnitude (Debye)      :      5.64329

Rotational constants in cm-1:     0.010732     0.008939     0.005899
Rotational constants in MHz :   321.740805   267.978735   176.850303

                             ****ORCA TERMINATED NORMALLY****
TOTAL RUN TIME: 0 days 1 hours 52 minutes 27 seconds 974 msec
