                         Program Version 5.0.0 -  RELEASE  -
|  1> ! ri-mp2 cc-pvtz cc-pvtz/c TightSCF NoKeepInts
|  2>
|  3> %scf
|  4>   MaxCore 4096
|  5> end
|  6> *xyz  0  1
|  7>     C       15.3308204   13.5091790   16.7318170
|  8>     C       15.6922115   14.9927236   16.9094072
|  9>     O       16.9699192   15.2016602   16.2800707
| 10>     C       17.3627644   16.4852906   16.0448676
| 11>     O       17.0443754   17.0096021   14.9937343
| 12>     C       17.6847217   17.2694216   17.2880835
| 13>     C       17.4011124   18.5914584   17.4061664
| 14>     C       16.5907823   19.4445147   16.4543307
| 15>     N       17.9220249   19.3235616   18.4774797
| 16>     C       18.9165693   18.8760740   19.3072140
| 17>     S       19.6330476   19.8596893   20.4268748
| 18>     N       19.2930576   17.5648620   19.1545241
| 19>     C       18.5559368   16.5723277   18.3496129
| 20>     C       17.7872078   15.6455997   19.2847544
| 21>     C       18.0324199   14.2593863   19.2692328
| 22>     C       17.3253313   13.3982687   20.1249922
| 23>     C       16.3687083   13.9267607   21.0081741
| 24>     C       16.1279728   15.3070454   21.0336114
| 25>     O       15.2025925   15.8202985   21.8822642
| 26>     C       16.8314723   16.1619522   20.1794377
| 27>     H       14.3438786   13.2992662   17.1613210
| 28>     H       16.0672687   12.8703868   17.2345673
| 29>     H       15.3081118   13.2417464   15.6678666
| 30>     H       14.9290952   15.6026826   16.4068538
| 31>     H       15.6929811   15.2604351   17.9689398
| 32>     H       15.6649992   18.9324465   16.1635171
| 33>     H       17.1586507   19.6377837   15.5349194
| 34>     H       16.3078088   20.4120759   16.8851719
| 35>     H       17.6714226   20.2935840   18.5860382
| 36>     H       20.0134543   17.2560657   19.7949401
| 37>     H       19.3004852   15.9671245   17.8131539
| 38>     H       18.7664318   13.8452045   18.5826112
| 39>     H       17.5197658   12.3271627   20.1018595
| 40>     H       15.8202184   13.2650835   21.6707850
| 41>     H       14.8769830   15.0937525   22.4350415
| 42>     H       16.6323967   17.2275232   20.2197639
| 43> *
| 44>
| 45>                          ****END OF INPUT****

CARTESIAN COORDINATES (ANGSTROEM)
---------------------------------
  C     15.330820   13.509179   16.731817
  C     15.692211   14.992724   16.909407
  O     16.969919   15.201660   16.280071
  C     17.362764   16.485291   16.044868
  O     17.044375   17.009602   14.993734
  C     17.684722   17.269422   17.288083
  C     17.401112   18.591458   17.406166
  C     16.590782   19.444515   16.454331
  N     17.922025   19.323562   18.477480
  C     18.916569   18.876074   19.307214
  S     19.633048   19.859689   20.426875
  N     19.293058   17.564862   19.154524
  C     18.555937   16.572328   18.349613
  C     17.787208   15.645600   19.284754
  C     18.032420   14.259386   19.269233
  C     17.325331   13.398269   20.124992
  C     16.368708   13.926761   21.008174
  C     16.127973   15.307045   21.033611
  O     15.202592   15.820298   21.882264
  C     16.831472   16.161952   20.179438
  H     14.343879   13.299266   17.161321
  H     16.067269   12.870387   17.234567
  H     15.308112   13.241746   15.667867
  H     14.929095   15.602683   16.406854
  H     15.692981   15.260435   17.968940
  H     15.664999   18.932446   16.163517
  H     17.158651   19.637784   15.534919
  H     16.307809   20.412076   16.885172
  H     17.671423   20.293584   18.586038
  H     20.013454   17.256066   19.794940
  H     19.300485   15.967124   17.813154
  H     18.766432   13.845204   18.582611
  H     17.519766   12.327163   20.101859
  H     15.820218   13.265083   21.670785
  H     14.876983   15.093752   22.435042
  H     16.632397   17.227523   20.219764

 Total Charge           Charge          ....    0
 Multiplicity           Mult            ....    1
 Number of Electrons    NEL             ....  154
 Basis Dimension        Dim             ....  828

ORBITAL ENERGIES
----------------

  NO   OCC          E(Eh)            E(eV)
   0   2.0000     -91.891851     -2500.5044
   1   2.0000     -20.602051      -560.6103
   2   2.0000     -20.580887      -560.0344
   3   2.0000     -20.553641      -559.2930
   4   2.0000     -15.631149      -425.3452
   5   2.0000     -15.611071      -424.7989
   6   2.0000     -11.392534      -310.0066
   7   2.0000     -11.386501      -309.8424
   8   2.0000     -11.336489      -308.4816
   9   2.0000     -11.320143      -308.0367
  10   2.0000     -11.315382      -307.9072
  11   2.0000     -11.294791      -307.3469
  12   2.0000     -11.265221      -306.5422
  13   2.0000     -11.261285      -306.4351
  14   2.0000     -11.260280      -306.4078
  15   2.0000     -11.254764      -306.2577
  16   2.0000     -11.249446      -306.1130
  17   2.0000     -11.243966      -305.9639
  18   2.0000     -11.243683      -305.9562
  19   2.0000     -11.226199      -305.4804
  20   2.0000      -8.896870      -242.0961
  21   2.0000      -6.578434      -179.0083
  22   2.0000      -6.576440      -178.9540
  23   2.0000      -6.575842      -178.9378
  24   2.0000      -1.449210       -39.4350
  25   2.0000      -1.421816       -38.6896
  26   2.0000      -1.354264       -36.8514
  27   2.0000      -1.342785       -36.5390
  28   2.0000      -1.241540       -33.7840
  29   2.0000      -1.162943       -31.6453
  30   2.0000      -1.122195       -30.5365
  31   2.0000      -1.047412       -28.5015
  32   2.0000      -1.033613       -28.1260
  33   2.0000      -1.021494       -27.7963
  34   2.0000      -1.000043       -27.2126
  35   2.0000      -0.987216       -26.8635
  36   2.0000      -0.926919       -25.2227
  37   2.0000      -0.875900       -23.8345
  38   2.0000      -0.850640       -23.1471
  39   2.0000      -0.844368       -22.9764
  40   2.0000      -0.839970       -22.8568
  41   2.0000      -0.833488       -22.6804
  42   2.0000      -0.760627       -20.6977
  43   2.0000      -0.736700       -20.0466
  44   2.0000      -0.726305       -19.7638
  45   2.0000      -0.701307       -19.0835
  46   2.0000      -0.692078       -18.8324
  47   2.0000      -0.681708       -18.5502
  48   2.0000      -0.673923       -18.3384
  49   2.0000      -0.658296       -17.9132
  50   2.0000      -0.649628       -17.6773
  51   2.0000      -0.644436       -17.5360
  52   2.0000      -0.638352       -17.3704
  53   2.0000      -0.617537       -16.8040
  54   2.0000      -0.611107       -16.6291
  55   2.0000      -0.604149       -16.4397
  56   2.0000      -0.601454       -16.3664
  57   2.0000      -0.582230       -15.8433
  58   2.0000      -0.574266       -15.6266
  59   2.0000      -0.565527       -15.3888
  60   2.0000      -0.554443       -15.0872
  61   2.0000      -0.545050       -14.8316
  62   2.0000      -0.536919       -14.6103
  63   2.0000      -0.530076       -14.4241
  64   2.0000      -0.518324       -14.1043
  65   2.0000      -0.515976       -14.0404
  66   2.0000      -0.506718       -13.7885
  67   2.0000      -0.500601       -13.6220
  68   2.0000      -0.481702       -13.1078
  69   2.0000      -0.468957       -12.7610
  70   2.0000      -0.457747       -12.4559
  71   2.0000      -0.446583       -12.1522
  72   2.0000      -0.359063        -9.7706
  73   2.0000      -0.353678        -9.6241
  74   2.0000      -0.331393        -9.0177
  75   2.0000      -0.327904        -8.9227
  76   2.0000      -0.319105        -8.6833
  77   0.0000       0.069157         1.8819
  78   0.0000       0.100846         2.7441
  79   0.0000       0.119237         3.2446
  80   0.0000       0.126148         3.4327
  81   0.0000       0.130239         3.5440

MULLIKEN ATOMIC CHARGES
-----------------------
   0 C :   -0.265703
   1 C :    0.020666
   2 O :   -0.362783
   3 C :    0.452150
   4 O :   -0.377592
   5 C :   -0.251845
   6 C :    0.151876
   7 C :   -0.272659
   8 N :   -0.125089
   9 C :    0.198448
  10 S :   -0.432409
  11 N :   -0.189297
  12 C :    0.034082
  13 C :    0.026973
  14 C :   -0.156306
  15 C :   -0.148601
  16 C :   -0.265718
  17 C :    0.299809
  18 O :   -0.355641
  19 C :   -0.252118
  20 H :    0.088540
  21 H :    0.092782
  22 H :    0.108446
  23 H :    0.104613
  24 H :    0.116106
  25 H :    0.124345
  26 H :    0.139534
  27 H :    0.094307
  28 H :    0.198368
  29 H :    0.190741
  30 H :    0.148002
  31 H :    0.151738
  32 H :    0.167379
  33 H :    0.134403
  34 H :    0.241487
  35 H :    0.170967
Sum of atomic charges:    0.0000000

LOEWDIN ATOMIC CHARGES
----------------------
   0 C :    0.111335
   1 C :   -0.018395
   2 O :    0.287135
   3 C :   -0.424460
   4 O :    0.134305
   5 C :   -0.098013
   6 C :   -0.064723
   7 C :    0.129836
   8 N :    0.406038
   9 C :   -0.458579
  10 S :   -0.030857
  11 N :    0.396406
  12 C :   -0.052611
  13 C :   -0.042110
  14 C :    0.016881
  15 C :    0.043979
  16 C :   -0.000371
  17 C :   -0.191998
  18 O :    0.396930
  19 C :    0.030532
  20 H :   -0.025622
  21 H :   -0.030245
  22 H :   -0.024133
  23 H :   -0.032222
  24 H :   -0.038358
  25 H :   -0.007248
  26 H :   -0.003132
  27 H :   -0.022647
  28 H :   -0.057484
  29 H :   -0.064895
  30 H :   -0.006633
  31 H :   -0.028707
  32 H :   -0.019697
  33 H :   -0.034071
  34 H :   -0.152625
  35 H :   -0.023545

  Mayer bond orders larger than 0.100000
B(  0-C ,  1-C ) :   0.9830 B(  0-C , 20-H ) :   0.9759 B(  0-C , 21-H ) :   0.9776
B(  0-C , 22-H ) :   0.9785 B(  1-C ,  2-O ) :   0.8766 B(  1-C , 23-H ) :   0.9796
B(  1-C , 24-H ) :   0.9587 B(  2-O ,  3-C ) :   1.1323 B(  3-C ,  4-O ) :   2.0747
B(  3-C ,  5-C ) :   1.0001 B(  5-C ,  6-C ) :   1.6779 B(  5-C , 12-C ) :   0.9661
B(  6-C ,  7-C ) :   0.9654 B(  6-C ,  8-N ) :   1.1399 B(  7-C , 25-H ) :   0.9687
B(  7-C , 26-H ) :   0.9561 B(  7-C , 27-H ) :   0.9865 B(  8-N ,  9-C ) :   1.1801
B(  8-N , 28-H ) :   0.9491 B(  9-C , 10-S ) :   1.6215 B(  9-C , 11-N ) :   1.2936
B( 11-N , 12-C ) :   0.9914 B( 11-N , 29-H ) :   0.9538 B( 12-C , 13-C ) :   0.9429
B( 12-C , 30-H ) :   1.0078 B( 13-C , 14-C ) :   1.3670 B( 13-C , 19-C ) :   1.3656
B( 14-C , 15-C ) :   1.3831 B( 14-C , 31-H ) :   0.9701 B( 15-C , 16-C ) :   1.3668
B( 15-C , 32-H ) :   0.9686 B( 16-C , 17-C ) :   1.3272 B( 16-C , 33-H ) :   0.9831
B( 17-C , 18-O ) :   1.1152 B( 17-C , 19-C ) :   1.3798 B( 18-O , 34-H ) :   0.9790
B( 19-C , 35-H ) :   0.9564

MP2 TOTAL ENERGY:    -1274.323472592 Eh
FINAL SINGLE POINT ENERGY     -1274.323472592199

DIPOLE MOMENT
-------------
                                X             Y             Z
Electronic contribution:     10.51588      10.10501       5.66259
Nuclear contribution   :    -11.76877     -11.56956      -5.37669
                        -----------------------------------------
Total Dipole Moment    :     -1.25289      -1.46455       0.28590
                        -----------------------------------------
Magnitude (a.u.)       :      1.94843
Magnitude (Debye)      :      4.95252

Rotational constants in cm-1:     0.012125     0.009351     0.006330
Rotational constants in MHz :   363.509028   280.346007   189.770860

                             ****ORCA TERMINATED NORMALLY****
TOTAL RUN TIME: 0 days 2 hours 10 minutes 15 seconds 3 msec
