                         Program Version 5.0.0 -  RELEASE  -
|  1> ! ri-mp2 cc-pvtz cc-pvtz/c TightSCF NoKeepInts
|  2>
|  3> %scf
|  4>   MaxCore 4096
|  5> end
|  6> *xyz  0  1
|  7>     C       14.3254743   15.7088370   16.2114981
|  8>     C       15.4562905   15.3817882   17.2035158
|  9>     O       16.6447074   15.0708970   16.4451019
| 10>     C       17.8451163   15.7382097   16.5056059
| 11>     O       18.8612237   15.1623946   16.1639847
| 12>     C       17.9210327   16.8958651   17.4440917
| 13>     C       17.3450883   18.0900018   17.1808244
| 14>     C       16.5850468   18.4755213   15.9328778
| 15>     N       17.4901581   19.1457931   18.0830922
| 16>     C       18.2627935   19.1029325   19.2149110
| 17>     S       18.4149460   20.4133125   20.2116690
| 18>     N       18.8985790   17.9152884   19.4848519
| 19>     C       18.7495343   16.6690136   18.7065450
| 20>     C       18.1409990   15.5504720   19.5466644
| 21>     C       18.6467441   14.2414175   19.4484567
| 22>     C       18.0737039   13.1946733   20.1894933
| 23>     C       16.9818264   13.4569746   21.0341237
| 24>     C       16.4700035   14.7578256   21.1292154
| 25>     O       15.4053553   15.0120425   21.9305153
| 26>     C       17.0419546   15.7982822   20.3902694
| 27>     H       14.5884833   16.5435110   15.5549790
| 28>     H       13.4065369   15.9703067   16.7502913
| 29>     H       14.1118027   14.8371177   15.5801053
| 30>     H       15.5917726   16.2181116   17.8979607
| 31>     H       15.1719508   14.5054446   17.8009403
| 32>     H       16.6400501   17.7013090   15.1578551
| 33>     H       17.0002865   19.3906133   15.4915606
| 34>     H       15.5275143   18.6600930   16.1570145
| 35>     H       17.0444099   20.0304093   17.8959202
| 36>     H       19.4455143   17.9079324   20.3366954
| 37>     H       19.7541973   16.3508930   18.3904076
| 38>     H       19.4781166   14.0313264   18.7785247
| 39>     H       18.4719508   12.1852506   20.1001162
| 40>     H       16.5342280   12.6499422   21.6048804
| 41>     H       15.1938129   14.1917202   22.4018039
| 42>     H       16.6257953   16.7964763   20.4776372
| 43> *
| 44>
| 45>                          ****END OF INPUT****

CARTESIAN COORDINATES (ANGSTROEM)
---------------------------------
  C     14.325474   15.708837   16.211498
  C     15.456290   15.381788   17.203516
  O     16.644707   15.070897   16.445102
  C     17.845116   15.738210   16.505606
  O     18.861224   15.162395   16.163985
  C     17.921033   16.895865   17.444092
  C     17.345088   18.090002   17.180824
  C     16.585047   18.475521   15.932878
  N     17.490158   19.145793   18.083092
  C     18.262794   19.102933   19.214911
  S     18.414946   20.413312   20.211669
  N     18.898579   17.915288   19.484852
  C     18.749534   16.669014   18.706545
  C     18.140999   15.550472   19.546664
  C     18.646744   14.241417   19.448457
  C     18.073704   13.194673   20.189493
  C     16.981826   13.456975   21.034124
  C     16.470004   14.757826   21.129215
  O     15.405355   15.012042   21.930515
  C     17.041955   15.798282   20.390269
  H     14.588483   16.543511   15.554979
  H     13.406537   15.970307   16.750291
  H     14.111803   14.837118   15.580105
  H     15.591773   16.218112   17.897961
  H     15.171951   14.505445   17.800940
  H     16.640050   17.701309   15.157855
  H     17.000286   19.390613   15.491561
  H     15.527514   18.660093   16.157014
  H     17.044410   20.030409   17.895920
  H     19.445514   17.907932   20.336695
  H     19.754197   16.350893   18.390408
  H     19.478117   14.031326   18.778525
  H     18.471951   12.185251   20.100116
  H     16.534228   12.649942   21.604880
  H     15.193813   14.191720   22.401804
  H     16.625795   16.796476   20.477637

 Total Charge           Charge          ....    0
 Multiplicity           Mult            ....    1
 Number of Electrons    NEL             ....  154
 Basis Dimension        Dim             ....  828

ORBITAL ENERGIES
----------------

  NO   OCC          E(Eh)            E(eV)
   0   2.0000     -91.890047     -2500.4553
   1   2.0000     -20.600633      -560.5717
   2   2.0000     -20.600631      -560.5717
   3   2.0000     -20.550550      -559.2089
   4   2.0000     -15.626535      -425.2196
   5   2.0000     -15.612116      -424.8273
   6   2.0000     -11.398687      -310.1740
   7   2.0000     -11.387006      -309.8562
   8   2.0000     -11.327706      -308.2425
   9   2.0000     -11.317377      -307.9615
  10   2.0000     -11.315997      -307.9239
  11   2.0000     -11.303444      -307.5824
  12   2.0000     -11.269295      -306.6531
  13   2.0000     -11.265072      -306.5382
  14   2.0000     -11.264228      -306.5152
  15   2.0000     -11.257379      -306.3289
  16   2.0000     -11.246742      -306.0394
  17   2.0000     -11.242923      -305.9355
  18   2.0000     -11.240016      -305.8564
  19   2.0000     -11.235068      -305.7217
  20   2.0000      -8.895168      -242.0498
  21   2.0000      -6.576757      -178.9627
  22   2.0000      -6.574729      -178.9075
  23   2.0000      -6.574156      -178.8919
  24   2.0000      -1.447163       -39.3793
  25   2.0000      -1.420442       -38.6522
  26   2.0000      -1.358803       -36.9749
  27   2.0000      -1.340257       -36.4703
  28   2.0000      -1.240248       -33.7489
  29   2.0000      -1.162162       -31.6240
  30   2.0000      -1.126384       -30.6505
  31   2.0000      -1.049841       -28.5676
  32   2.0000      -1.040857       -28.3231
  33   2.0000      -1.019561       -27.7437
  34   2.0000      -1.005739       -27.3675
  35   2.0000      -0.990020       -26.9398
  36   2.0000      -0.928392       -25.2628
  37   2.0000      -0.888882       -24.1877
  38   2.0000      -0.853980       -23.2380
  39   2.0000      -0.842248       -22.9187
  40   2.0000      -0.837602       -22.7923
  41   2.0000      -0.836735       -22.7687
  42   2.0000      -0.756645       -20.5894
  43   2.0000      -0.737573       -20.0704
  44   2.0000      -0.732750       -19.9392
  45   2.0000      -0.698281       -19.0012
  46   2.0000      -0.688998       -18.7486
  47   2.0000      -0.680272       -18.5111
  48   2.0000      -0.677271       -18.4295
  49   2.0000      -0.667368       -18.1600
  50   2.0000      -0.653606       -17.7855
  51   2.0000      -0.640729       -17.4351
  52   2.0000      -0.639055       -17.3896
  53   2.0000      -0.616552       -16.7772
  54   2.0000      -0.609160       -16.5761
  55   2.0000      -0.607061       -16.5190
  56   2.0000      -0.604034       -16.4366
  57   2.0000      -0.589428       -16.0392
  58   2.0000      -0.578998       -15.7553
  59   2.0000      -0.570462       -15.5231
  60   2.0000      -0.566495       -15.4151
  61   2.0000      -0.559937       -15.2367
  62   2.0000      -0.540875       -14.7180
  63   2.0000      -0.536212       -14.5911
  64   2.0000      -0.523508       -14.2454
  65   2.0000      -0.516472       -14.0539
  66   2.0000      -0.503012       -13.6876
  67   2.0000      -0.500676       -13.6241
  68   2.0000      -0.488965       -13.3054
  69   2.0000      -0.471211       -12.8223
  70   2.0000      -0.453267       -12.3340
  71   2.0000      -0.448704       -12.2099
  72   2.0000      -0.356817        -9.7095
  73   2.0000      -0.352425        -9.5900
  74   2.0000      -0.329779        -8.9738
  75   2.0000      -0.325219        -8.8496
  76   2.0000      -0.318625        -8.6702
  77   0.0000       0.086972         2.3666
  78   0.0000       0.104408         2.8411
  79   0.0000       0.113870         3.0986
  80   0.0000       0.127607         3.4724
  81   0.0000       0.129684         3.5289

MULLIKEN ATOMIC CHARGES
-----------------------
   0 C :   -0.270743
   1 C :    0.016124
   2 O :   -0.317148
   3 C :    0.392154
   4 O :   -0.380386
   5 C :   -0.174502
   6 C :    0.131823
   7 C :   -0.337881
   8 N :   -0.137140
   9 C :    0.205041
  10 S :   -0.441410
  11 N :   -0.215807
  12 C :    0.072934
  13 C :    0.025698
  14 C :   -0.191740
  15 C :   -0.129790
  16 C :   -0.277216
  17 C :    0.314627
  18 O :   -0.357511
  19 C :   -0.284696
  20 H :    0.087502
  21 H :    0.094918
  22 H :    0.111491
  23 H :    0.098565
  24 H :    0.128281
  25 H :    0.124425
  26 H :    0.144595
  27 H :    0.124117
  28 H :    0.196272
  29 H :    0.199220
  30 H :    0.164447
  31 H :    0.166652
  32 H :    0.163807
  33 H :    0.132930
  34 H :    0.241978
  35 H :    0.178368
Sum of atomic charges:   -0.0000000

LOEWDIN ATOMIC CHARGES
----------------------
   0 C :    0.104749
   1 C :   -0.016417
   2 O :    0.308329
   3 C :   -0.417130
   4 O :    0.125144
   5 C :   -0.081516
   6 C :   -0.105954
   7 C :    0.124743
   8 N :    0.401051
   9 C :   -0.455778
  10 S :   -0.038191
  11 N :    0.397339
  12 C :   -0.044281
  13 C :   -0.043430
  14 C :    0.023570
  15 C :    0.046227
  16 C :   -0.000149
  17 C :   -0.194126
  18 O :    0.394538
  19 C :    0.027744
  20 H :   -0.034688
  21 H :   -0.025062
  22 H :   -0.023396
  23 H :   -0.040874
  24 H :   -0.021525
  25 H :   -0.009405
  26 H :   -0.009314
  27 H :   -0.016216
  28 H :   -0.057993
  29 H :   -0.063626
  30 H :   -0.002199
  31 H :   -0.021755
  32 H :   -0.018229
  33 H :   -0.034490
  34 H :   -0.152746
  35 H :   -0.024946

  Mayer bond orders larger than 0.100000
B(  0-C ,  1-C ) :   0.9721 B(  0-C , 20-H ) :   0.9777 B(  0-C , 21-H ) :   0.9755
B(  0-C , 22-H ) :   0.9799 B(  1-C ,  2-O ) :   0.8980 B(  1-C , 23-H ) :   0.9604
B(  1-C , 24-H ) :   0.9787 B(  2-O ,  3-C ) :   1.1854 B(  3-C ,  4-O ) :   2.0945
B(  3-C ,  5-C ) :   0.9203 B(  5-C ,  6-C ) :   1.6941 B(  5-C , 12-C ) :   0.9599
B(  6-C ,  7-C ) :   0.9440 B(  6-C ,  8-N ) :   1.1116 B(  7-C , 25-H ) :   0.9817
B(  7-C , 26-H ) :   0.9705 B(  7-C , 27-H ) :   0.9656 B(  8-N ,  9-C ) :   1.1969
B(  8-N , 28-H ) :   0.9524 B(  9-C , 10-S ) :   1.6111 B(  9-C , 11-N ) :   1.2863
B( 11-N , 12-C ) :   0.9971 B( 11-N , 29-H ) :   0.9485 B( 12-C , 13-C ) :   0.9425
B( 12-C , 30-H ) :   0.9972 B( 13-C , 14-C ) :   1.3875 B( 13-C , 19-C ) :   1.3420
B( 14-C , 15-C ) :   1.3974 B( 14-C , 31-H ) :   0.9618 B( 15-C , 16-C ) :   1.3637
B( 15-C , 32-H ) :   0.9699 B( 16-C , 17-C ) :   1.3287 B( 16-C , 33-H ) :   0.9842
B( 17-C , 18-O ) :   1.1109 B( 17-C , 19-C ) :   1.3700 B( 18-O , 34-H ) :   0.9789
B( 19-C , 35-H ) :   0.9567

MP2 TOTAL ENERGY:    -1274.329937336 Eh
FINAL SINGLE POINT ENERGY     -1274.329937335862

DIPOLE MOMENT
-------------
                                X             Y             Z
Electronic contribution:     11.41157       5.41796       7.90090
Nuclear contribution   :    -12.95701      -6.47160      -8.18925
                        -----------------------------------------
Total Dipole Moment    :     -1.54544      -1.05364      -0.28835
                        -----------------------------------------
Magnitude (a.u.)       :      1.89253
Magnitude (Debye)      :      4.81044

Rotational constants in cm-1:     0.011570     0.009244     0.006863
Rotational constants in MHz :   346.871846   277.123490   205.736644

                             ****ORCA TERMINATED NORMALLY****
TOTAL RUN TIME: 0 days 2 hours 7 minutes 9 seconds 5 msec
