                         Program Version 5.0.0 -  RELEASE  -
|  1> ! ri-mp2 cc-pvtz cc-pvtz/c TightSCF NoKeepInts
|  2>
|  3> %scf
|  4>   MaxCore 4096
|  5> end
|  6> *xyz  0  1
|  7>     C       15.4684055   14.3959820   17.1080226
|  8>     C       15.5109126   15.2836003   15.8444382
|  9>     O       16.8264100   15.8097363   15.5410286
| 10>     C       17.8563571   15.7865193   16.4373521
| 11>     O       18.5297854   14.7823509   16.5902848
| 12>     C       17.9014234   16.9422932   17.3965729
| 13>     C       17.3702554   18.1690267   17.1545581
| 14>     C       16.6589036   18.6494404   15.9060749
| 15>     N       17.5423138   19.1959639   18.0885500
| 16>     C       18.3749342   19.1338743   19.1746713
| 17>     S       18.6349380   20.4442077   20.1494234
| 18>     N       18.9801405   17.9257508   19.4112821
| 19>     C       18.6601372   16.6722795   18.7020919
| 20>     C       17.8811050   15.7236287   19.6101183
| 21>     C       18.2650220   14.3745654   19.7230766
| 22>     C       17.5455053   13.4898957   20.5434455
| 23>     C       16.4309883   13.9568968   21.2602628
| 24>     C       16.0435635   15.2990171   21.1505703
| 25>     O       14.9616629   15.7509061   21.8332422
| 26>     C       16.7607702   16.1771427   20.3319056
| 27>     H       16.1841609   13.5668989   17.0362122
| 28>     H       14.4688137   13.9626562   17.2324527
| 29>     H       15.6896058   14.9763775   18.0097773
| 30>     H       15.1579732   14.6999904   14.9842522
| 31>     H       14.8094759   16.1155061   15.9829697
| 32>     H       15.6193531   18.3039973   15.8885717
| 33>     H       17.1575496   18.2808115   15.0007739
| 34>     H       16.6448933   19.7437233   15.8296756
| 35>     H       17.1107272   20.0924029   17.9291828
| 36>     H       19.5704594   17.8976335   20.2328467
| 37>     H       19.6129567   16.1884109   18.4417623
| 38>     H       19.1165476   14.0057170   19.1555668
| 39>     H       17.8504236   12.4473453   20.6155634
| 40>     H       15.8712488   13.2762535   21.8931190
| 41>     H       14.6385286   15.0200754   22.3814976
| 42>     H       16.4407489   17.2111227   20.2628039
| 43> *
| 44>
| 45>                          ****END OF INPUT****

CARTESIAN COORDINATES (ANGSTROEM)
---------------------------------
  C     15.468405   14.395982   17.108023
  C     15.510913   15.283600   15.844438
  O     16.826410   15.809736   15.541029
  C     17.856357   15.786519   16.437352
  O     18.529785   14.782351   16.590285
  C     17.901423   16.942293   17.396573
  C     17.370255   18.169027   17.154558
  C     16.658904   18.649440   15.906075
  N     17.542314   19.195964   18.088550
  C     18.374934   19.133874   19.174671
  S     18.634938   20.444208   20.149423
  N     18.980141   17.925751   19.411282
  C     18.660137   16.672279   18.702092
  C     17.881105   15.723629   19.610118
  C     18.265022   14.374565   19.723077
  C     17.545505   13.489896   20.543446
  C     16.430988   13.956897   21.260263
  C     16.043564   15.299017   21.150570
  O     14.961663   15.750906   21.833242
  C     16.760770   16.177143   20.331906
  H     16.184161   13.566899   17.036212
  H     14.468814   13.962656   17.232453
  H     15.689606   14.976377   18.009777
  H     15.157973   14.699990   14.984252
  H     14.809476   16.115506   15.982970
  H     15.619353   18.303997   15.888572
  H     17.157550   18.280811   15.000774
  H     16.644893   19.743723   15.829676
  H     17.110727   20.092403   17.929183
  H     19.570459   17.897633   20.232847
  H     19.612957   16.188411   18.441762
  H     19.116548   14.005717   19.155567
  H     17.850424   12.447345   20.615563
  H     15.871249   13.276253   21.893119
  H     14.638529   15.020075   22.381498
  H     16.440749   17.211123   20.262804

 Total Charge           Charge          ....    0
 Multiplicity           Mult            ....    1
 Number of Electrons    NEL             ....  154
 Basis Dimension        Dim             ....  828

ORBITAL ENERGIES
----------------

  NO   OCC          E(Eh)            E(eV)
   0   2.0000     -91.890607     -2500.4706
   1   2.0000     -20.595866      -560.4420
   2   2.0000     -20.583253      -560.0988
   3   2.0000     -20.552691      -559.2672
   4   2.0000     -15.631022      -425.3417
   5   2.0000     -15.609046      -424.7437
   6   2.0000     -11.396006      -310.1011
   7   2.0000     -11.385552      -309.8166
   8   2.0000     -11.339001      -308.5499
   9   2.0000     -11.312273      -307.8226
  10   2.0000     -11.308348      -307.7158
  11   2.0000     -11.307667      -307.6973
  12   2.0000     -11.262511      -306.4685
  13   2.0000     -11.262443      -306.4666
  14   2.0000     -11.257900      -306.3430
  15   2.0000     -11.252215      -306.1883
  16   2.0000     -11.241896      -305.9075
  17   2.0000     -11.237712      -305.7937
  18   2.0000     -11.233930      -305.6908
  19   2.0000     -11.226278      -305.4826
  20   2.0000      -8.895660      -242.0632
  21   2.0000      -6.577234      -178.9756
  22   2.0000      -6.575228      -178.9211
  23   2.0000      -6.574638      -178.9050
  24   2.0000      -1.445707       -39.3397
  25   2.0000      -1.415693       -38.5230
  26   2.0000      -1.355107       -36.8743
  27   2.0000      -1.342112       -36.5207
  28   2.0000      -1.239597       -33.7312
  29   2.0000      -1.156275       -31.4638
  30   2.0000      -1.121744       -30.5242
  31   2.0000      -1.044326       -28.4176
  32   2.0000      -1.032866       -28.1057
  33   2.0000      -1.014205       -27.5979
  34   2.0000      -1.001708       -27.2578
  35   2.0000      -0.986992       -26.8574
  36   2.0000      -0.925072       -25.1725
  37   2.0000      -0.895891       -24.3784
  38   2.0000      -0.851664       -23.1750
  39   2.0000      -0.839951       -22.8562
  40   2.0000      -0.832254       -22.6468
  41   2.0000      -0.822449       -22.3800
  42   2.0000      -0.743859       -20.2414
  43   2.0000      -0.728834       -19.8326
  44   2.0000      -0.727472       -19.7955
  45   2.0000      -0.693695       -18.8764
  46   2.0000      -0.686929       -18.6923
  47   2.0000      -0.678674       -18.4676
  48   2.0000      -0.675233       -18.3740
  49   2.0000      -0.663578       -18.0569
  50   2.0000      -0.650626       -17.7044
  51   2.0000      -0.648850       -17.6561
  52   2.0000      -0.636851       -17.3296
  53   2.0000      -0.626776       -17.0554
  54   2.0000      -0.605005       -16.4630
  55   2.0000      -0.603534       -16.4230
  56   2.0000      -0.599825       -16.3221
  57   2.0000      -0.579702       -15.7745
  58   2.0000      -0.574997       -15.6465
  59   2.0000      -0.564805       -15.3691
  60   2.0000      -0.553335       -15.0570
  61   2.0000      -0.545618       -14.8470
  62   2.0000      -0.538026       -14.6404
  63   2.0000      -0.530395       -14.4328
  64   2.0000      -0.519616       -14.1395
  65   2.0000      -0.512062       -13.9339
  66   2.0000      -0.500030       -13.6065
  67   2.0000      -0.492874       -13.4118
  68   2.0000      -0.483539       -13.1578
  69   2.0000      -0.467375       -12.7179
  70   2.0000      -0.456000       -12.4084
  71   2.0000      -0.449178       -12.2227
  72   2.0000      -0.357300        -9.7226
  73   2.0000      -0.347788        -9.4638
  74   2.0000      -0.329744        -8.9728
  75   2.0000      -0.320106        -8.7105
  76   2.0000      -0.317637        -8.6433
  77   0.0000       0.069934         1.9030
  78   0.0000       0.106971         2.9108
  79   0.0000       0.119690         3.2569
  80   0.0000       0.132271         3.5993
  81   0.0000       0.137330         3.7369

MULLIKEN ATOMIC CHARGES
-----------------------
   0 C :   -0.324827
   1 C :    0.051275
   2 O :   -0.387975
   3 C :    0.500282
   4 O :   -0.399119
   5 C :   -0.226404
   6 C :    0.145286
   7 C :   -0.302164
   8 N :   -0.122524
   9 C :    0.191040
  10 S :   -0.435574
  11 N :   -0.201128
  12 C :    0.048820
  13 C :    0.021550
  14 C :   -0.166990
  15 C :   -0.141520
  16 C :   -0.270666
  17 C :    0.307118
  18 O :   -0.359543
  19 C :   -0.255062
  20 H :    0.122634
  21 H :    0.110896
  22 H :    0.108995
  23 H :    0.114227
  24 H :    0.081836
  25 H :    0.120359
  26 H :    0.138542
  27 H :    0.111442
  28 H :    0.197586
  29 H :    0.194525
  30 H :    0.158358
  31 H :    0.164924
  32 H :    0.162157
  33 H :    0.131247
  34 H :    0.240553
  35 H :    0.169846
Sum of atomic charges:   -0.0000000

LOEWDIN ATOMIC CHARGES
----------------------
   0 C :    0.108745
   1 C :   -0.013177
   2 O :    0.281677
   3 C :   -0.420875
   4 O :    0.126574
   5 C :   -0.094662
   6 C :   -0.068707
   7 C :    0.127494
   8 N :    0.405199
   9 C :   -0.460212
  10 S :   -0.033704
  11 N :    0.397633
  12 C :   -0.045719
  13 C :   -0.042110
  14 C :    0.022546
  15 C :    0.042537
  16 C :   -0.001841
  17 C :   -0.194162
  18 O :    0.394339
  19 C :    0.026140
  20 H :   -0.021682
  21 H :   -0.023664
  22 H :   -0.028720
  23 H :   -0.023417
  24 H :   -0.037608
  25 H :   -0.014530
  26 H :   -0.005795
  27 H :   -0.018352
  28 H :   -0.058420
  29 H :   -0.063618
  30 H :   -0.003446
  31 H :   -0.023862
  32 H :   -0.020003
  33 H :   -0.035528
  34 H :   -0.154009
  35 H :   -0.025063

  Mayer bond orders larger than 0.100000
B(  0-C ,  1-C ) :   0.9684 B(  0-C , 20-H ) :   0.9687 B(  0-C , 21-H ) :   0.9750
B(  0-C , 22-H ) :   0.9674 B(  1-C ,  2-O ) :   0.8982 B(  1-C , 23-H ) :   0.9819
B(  1-C , 24-H ) :   0.9757 B(  2-O ,  3-C ) :   1.0911 B(  3-C ,  4-O ) :   2.0372
B(  3-C ,  5-C ) :   1.0205 B(  5-C ,  6-C ) :   1.6599 B(  5-C , 12-C ) :   0.9584
B(  6-C ,  7-C ) :   0.9497 B(  6-C ,  8-N ) :   1.1414 B(  7-C , 25-H ) :   0.9678
B(  7-C , 26-H ) :   0.9648 B(  7-C , 27-H ) :   0.9885 B(  8-N ,  9-C ) :   1.1796
B(  8-N , 28-H ) :   0.9492 B(  9-C , 10-S ) :   1.6157 B(  9-C , 11-N ) :   1.3009
B( 11-N , 12-C ) :   0.9887 B( 11-N , 29-H ) :   0.9520 B( 12-C , 13-C ) :   0.9473
B( 12-C , 30-H ) :   0.9990 B( 13-C , 14-C ) :   1.3865 B( 13-C , 19-C ) :   1.3569
B( 14-C , 15-C ) :   1.3952 B( 14-C , 31-H ) :   0.9597 B( 15-C , 16-C ) :   1.3625
B( 15-C , 32-H ) :   0.9705 B( 16-C , 17-C ) :   1.3314 B( 16-C , 33-H ) :   0.9846
B( 17-C , 18-O ) :   1.1113 B( 17-C , 19-C ) :   1.3730 B( 18-O , 34-H ) :   0.9801
B( 19-C , 35-H ) :   0.9592

MP2 TOTAL ENERGY:    -1274.329637020 Eh
FINAL SINGLE POINT ENERGY     -1274.329637020055

DIPOLE MOMENT
-------------
                                X             Y             Z
Electronic contribution:      9.54812       8.89209       6.63291
Nuclear contribution   :    -11.04912     -10.00045      -7.25463
                        -----------------------------------------
Total Dipole Moment    :     -1.50100      -1.10836      -0.62172
                        -----------------------------------------
Magnitude (a.u.)       :      1.96672
Magnitude (Debye)      :      4.99902

Rotational constants in cm-1:     0.011489     0.009732     0.006630
Rotational constants in MHz :   344.422884   291.754194   198.765581

                             ****ORCA TERMINATED NORMALLY****
TOTAL RUN TIME: 0 days 2 hours 8 minutes 29 seconds 429 msec
