                         Program Version 5.0.0 -  RELEASE  -
|  1> ! ri-mp2 cc-pvtz cc-pvtz/c TightSCF NoKeepInts
|  2>
|  3> %scf
|  4>   MaxCore 4096
|  5> end
|  6> *xyz  0  1
|  7>     C       14.9971424   14.7999493   17.4275996
|  8>     C       15.5486859   15.5207606   16.1866234
|  9>     O       16.9096242   15.0919396   15.9761406
| 10>     C       18.0619617   15.6817226   16.4421833
| 11>     O       19.0970090   15.0421091   16.4113796
| 12>     C       17.9313467   16.8492207   17.3687793
| 13>     C       17.4631345   18.0519423   16.9561424
| 14>     C       17.0140321   18.4324842   15.5596346
| 15>     N       17.4988904   19.1493206   17.8191328
| 16>     C       18.1472020   19.1696573   19.0258348
| 17>     S       18.2327891   20.5424703   19.9434284
| 18>     N       18.7313346   17.9948185   19.4291273
| 19>     C       18.5869548   16.6931703   18.7461917
| 20>     C       17.8513939   15.6787098   19.6189940
| 21>     C       18.2017867   14.3172105   19.5533620
| 22>     C       17.5336138   13.3643931   20.3398171
| 23>     C       16.5051685   13.7743082   21.2045653
| 24>     C       16.1517592   15.1282360   21.2753866
| 25>     O       15.1519120   15.5257376   22.1016636
| 26>     C       16.8167311   16.0752473   20.4894889
| 27>     H       15.4746494   15.1684636   18.3384454
| 28>     H       15.1726425   13.7188006   17.3597095
| 29>     H       13.9174663   14.9669972   17.5224390
| 30>     H       14.9497300   15.2142373   15.3192253
| 31>     H       15.4362269   16.6001279   16.3016101
| 32>     H       17.1305700   17.6121815   14.8410281
| 33>     H       17.6140043   19.2683902   15.1769097
| 34>     H       15.9624840   18.7447758   15.5497371
| 35>     H       17.1019158   20.0289285   17.5280085
| 36>     H       19.1971407   18.0355597   20.3269517
| 37>     H       19.6018863   16.3015116   18.5812999
| 38>     H       18.9924367   13.9937380   18.8791888
| 39>     H       17.8135400   12.3143042   20.2740705
| 40>     H       15.9857925   13.0410488   21.8126750
| 41>     H       14.8490841   14.7444334   22.5885607
| 42>     H       16.5149580   17.1150938   20.5586655
| 43> *
| 44>
| 45>                          ****END OF INPUT****

CARTESIAN COORDINATES (ANGSTROEM)
---------------------------------
  C     14.997142   14.799949   17.427600
  C     15.548686   15.520761   16.186623
  O     16.909624   15.091940   15.976141
  C     18.061962   15.681723   16.442183
  O     19.097009   15.042109   16.411380
  C     17.931347   16.849221   17.368779
  C     17.463134   18.051942   16.956142
  C     17.014032   18.432484   15.559635
  N     17.498890   19.149321   17.819133
  C     18.147202   19.169657   19.025835
  S     18.232789   20.542470   19.943428
  N     18.731335   17.994819   19.429127
  C     18.586955   16.693170   18.746192
  C     17.851394   15.678710   19.618994
  C     18.201787   14.317210   19.553362
  C     17.533614   13.364393   20.339817
  C     16.505168   13.774308   21.204565
  C     16.151759   15.128236   21.275387
  O     15.151912   15.525738   22.101664
  C     16.816731   16.075247   20.489489
  H     15.474649   15.168464   18.338445
  H     15.172642   13.718801   17.359710
  H     13.917466   14.966997   17.522439
  H     14.949730   15.214237   15.319225
  H     15.436227   16.600128   16.301610
  H     17.130570   17.612181   14.841028
  H     17.614004   19.268390   15.176910
  H     15.962484   18.744776   15.549737
  H     17.101916   20.028928   17.528008
  H     19.197141   18.035560   20.326952
  H     19.601886   16.301512   18.581300
  H     18.992437   13.993738   18.879189
  H     17.813540   12.314304   20.274071
  H     15.985793   13.041049   21.812675
  H     14.849084   14.744433   22.588561
  H     16.514958   17.115094   20.558666

 Total Charge           Charge          ....    0
 Multiplicity           Mult            ....    1
 Number of Electrons    NEL             ....  154
 Basis Dimension        Dim             ....  828

ORBITAL ENERGIES
----------------

  NO   OCC          E(Eh)            E(eV)
   0   2.0000     -91.890804     -2500.4759
   1   2.0000     -20.601822      -560.6041
   2   2.0000     -20.598158      -560.5044
   3   2.0000     -20.549378      -559.1770
   4   2.0000     -15.628216      -425.2654
   5   2.0000     -15.611677      -424.8153
   6   2.0000     -11.400862      -310.2332
   7   2.0000     -11.387213      -309.8618
   8   2.0000     -11.333144      -308.3905
   9   2.0000     -11.315319      -307.9055
  10   2.0000     -11.315104      -307.8996
  11   2.0000     -11.305990      -307.6516
  12   2.0000     -11.271937      -306.7250
  13   2.0000     -11.268788      -306.6393
  14   2.0000     -11.263148      -306.4858
  15   2.0000     -11.255648      -306.2817
  16   2.0000     -11.244362      -305.9746
  17   2.0000     -11.240308      -305.8643
  18   2.0000     -11.236753      -305.7676
  19   2.0000     -11.225060      -305.4494
  20   2.0000      -8.895905      -242.0699
  21   2.0000      -6.577493      -178.9827
  22   2.0000      -6.575466      -178.9275
  23   2.0000      -6.574890      -178.9118
  24   2.0000      -1.447593       -39.3910
  25   2.0000      -1.417967       -38.5848
  26   2.0000      -1.359146       -36.9843
  27   2.0000      -1.341859       -36.5139
  28   2.0000      -1.240955       -33.7681
  29   2.0000      -1.159753       -31.5585
  30   2.0000      -1.126020       -30.6406
  31   2.0000      -1.048523       -28.5318
  32   2.0000      -1.038211       -28.2512
  33   2.0000      -1.018192       -27.7064
  34   2.0000      -1.005849       -27.3705
  35   2.0000      -0.990277       -26.9468
  36   2.0000      -0.928228       -25.2584
  37   2.0000      -0.890068       -24.2200
  38   2.0000      -0.855859       -23.2891
  39   2.0000      -0.841834       -22.9075
  40   2.0000      -0.835039       -22.7226
  41   2.0000      -0.832874       -22.6637
  42   2.0000      -0.752987       -20.4898
  43   2.0000      -0.740998       -20.1636
  44   2.0000      -0.730670       -19.8825
  45   2.0000      -0.696029       -18.9399
  46   2.0000      -0.688751       -18.7419
  47   2.0000      -0.681467       -18.5437
  48   2.0000      -0.675708       -18.3870
  49   2.0000      -0.663202       -18.0466
  50   2.0000      -0.653704       -17.7882
  51   2.0000      -0.641687       -17.4612
  52   2.0000      -0.638181       -17.3658
  53   2.0000      -0.621572       -16.9138
  54   2.0000      -0.611290       -16.6340
  55   2.0000      -0.606512       -16.5040
  56   2.0000      -0.601932       -16.3794
  57   2.0000      -0.588995       -16.0274
  58   2.0000      -0.577743       -15.7212
  59   2.0000      -0.568095       -15.4586
  60   2.0000      -0.565610       -15.3910
  61   2.0000      -0.554009       -15.0753
  62   2.0000      -0.540722       -14.7138
  63   2.0000      -0.534731       -14.5508
  64   2.0000      -0.518351       -14.1050
  65   2.0000      -0.512874       -13.9560
  66   2.0000      -0.504757       -13.7351
  67   2.0000      -0.501809       -13.6549
  68   2.0000      -0.482854       -13.1391
  69   2.0000      -0.469522       -12.7764
  70   2.0000      -0.454034       -12.3549
  71   2.0000      -0.448694       -12.2096
  72   2.0000      -0.359417        -9.7802
  73   2.0000      -0.349988        -9.5237
  74   2.0000      -0.330423        -8.9913
  75   2.0000      -0.323703        -8.8084
  76   2.0000      -0.319583        -8.6963
  77   0.0000       0.084855         2.3090
  78   0.0000       0.106629         2.9015
  79   0.0000       0.112027         3.0484
  80   0.0000       0.128442         3.4951
  81   0.0000       0.130852         3.5607

MULLIKEN ATOMIC CHARGES
-----------------------
   0 C :   -0.280734
   1 C :    0.017816
   2 O :   -0.317117
   3 C :    0.411567
   4 O :   -0.384536
   5 C :   -0.196547
   6 C :    0.131269
   7 C :   -0.322199
   8 N :   -0.136944
   9 C :    0.203107
  10 S :   -0.439945
  11 N :   -0.228109
  12 C :    0.081028
  13 C :    0.006874
  14 C :   -0.203529
  15 C :   -0.142991
  16 C :   -0.265407
  17 C :    0.307314
  18 O :   -0.357932
  19 C :   -0.249300
  20 H :    0.105756
  21 H :    0.108610
  22 H :    0.097258
  23 H :    0.119298
  24 H :    0.088273
  25 H :    0.125436
  26 H :    0.142583
  27 H :    0.120073
  28 H :    0.195704
  29 H :    0.203101
  30 H :    0.168600
  31 H :    0.177050
  32 H :    0.164623
  33 H :    0.132498
  34 H :    0.240775
  35 H :    0.176679
Sum of atomic charges:   -0.0000000

LOEWDIN ATOMIC CHARGES
----------------------
   0 C :    0.109444
   1 C :   -0.022960
   2 O :    0.307894
   3 C :   -0.415157
   4 O :    0.121590
   5 C :   -0.079456
   6 C :   -0.101902
   7 C :    0.121962
   8 N :    0.402172
   9 C :   -0.457970
  10 S :   -0.036995
  11 N :    0.398086
  12 C :   -0.042284
  13 C :   -0.043738
  14 C :    0.020533
  15 C :    0.045688
  16 C :   -0.000862
  17 C :   -0.192771
  18 O :    0.396012
  19 C :    0.024494
  20 H :   -0.030373
  21 H :   -0.022584
  22 H :   -0.026906
  23 H :   -0.023521
  24 H :   -0.039940
  25 H :   -0.008461
  26 H :   -0.008178
  27 H :   -0.017840
  28 H :   -0.057440
  29 H :   -0.063353
  30 H :   -0.001576
  31 H :   -0.021931
  32 H :   -0.018398
  33 H :   -0.034920
  34 H :   -0.153301
  35 H :   -0.025058

  Mayer bond orders larger than 0.100000
B(  0-C ,  1-C ) :   0.9742 B(  0-C , 20-H ) :   0.9697 B(  0-C , 21-H ) :   0.9763
B(  0-C , 22-H ) :   0.9772 B(  1-C ,  2-O ) :   0.9035 B(  1-C , 23-H ) :   0.9835
B(  1-C , 24-H ) :   0.9656 B(  2-O ,  3-C ) :   1.1759 B(  3-C ,  4-O ) :   2.0778
B(  3-C ,  5-C ) :   0.9226 B(  5-C ,  6-C ) :   1.6992 B(  5-C , 12-C ) :   0.9502
B(  6-C ,  7-C ) :   0.9411 B(  6-C ,  8-N ) :   1.1086 B(  7-C , 25-H ) :   0.9807
B(  7-C , 26-H ) :   0.9683 B(  7-C , 27-H ) :   0.9672 B(  8-N ,  9-C ) :   1.1964
B(  8-N , 28-H ) :   0.9523 B(  9-C , 10-S ) :   1.6093 B(  9-C , 11-N ) :   1.2892
B( 11-N , 12-C ) :   0.9830 B( 11-N , 29-H ) :   0.9473 B( 12-C , 13-C ) :   0.9537
B( 12-C , 30-H ) :   0.9940 B( 13-C , 14-C ) :   1.3924 B( 13-C , 19-C ) :   1.3445
B( 14-C , 15-C ) :   1.3996 B( 14-C , 31-H ) :   0.9570 B( 15-C , 16-C ) :   1.3582
B( 15-C , 32-H ) :   0.9697 B( 16-C , 17-C ) :   1.3328 B( 16-C , 33-H ) :   0.9844
B( 17-C , 18-O ) :   1.1101 B( 17-C , 19-C ) :   1.3668 B( 18-O , 34-H ) :   0.9797
B( 19-C , 35-H ) :   0.9589

MP2 TOTAL ENERGY:    -1274.331720919 Eh
FINAL SINGLE POINT ENERGY     -1274.331720918729

DIPOLE MOMENT
-------------
                                X             Y             Z
Electronic contribution:      9.53971       7.40993       6.35516
Nuclear contribution   :    -11.09874      -8.35282      -6.98907
                        -----------------------------------------
Total Dipole Moment    :     -1.55904      -0.94289      -0.63391
                        -----------------------------------------
Magnitude (a.u.)       :      1.92911
Magnitude (Debye)      :      4.90341

Rotational constants in cm-1:     0.011734     0.009514     0.006652
Rotational constants in MHz :   351.787649   285.229744   199.421070

                             ****ORCA TERMINATED NORMALLY****
TOTAL RUN TIME: 0 days 2 hours 10 minutes 12 seconds 87 msec
