                         Program Version 5.0.0 -  RELEASE  -
|  1> ! ri-mp2 cc-pvtz cc-pvtz/c TightSCF NoKeepInts
|  2>
|  3> %scf
|  4>   MaxCore 4096
|  5> end
|  6> *xyz  0  1
|  7>     C       15.0188737   15.8518640   17.3532131
|  8>     C       15.5300527   15.2008485   16.0506689
|  9>     O       16.9632167   14.9861503   15.9400508
| 10>     C       18.0718589   15.5979589   16.4858424
| 11>     O       19.1287852   14.9945066   16.4624995
| 12>     C       17.9108911   16.7602864   17.4082465
| 13>     C       17.4090731   17.9408470   16.9748935
| 14>     C       16.9026688   18.2618726   15.5831573
| 15>     N       17.4121369   19.0530039   17.8193759
| 16>     C       18.0457977   19.1063262   19.0330940
| 17>     S       18.0744274   20.4901757   19.9377087
| 18>     N       18.6614464   17.9547584   19.4576536
| 19>     C       18.5811155   16.6437720   18.7815282
| 20>     C       17.8987494   15.5969872   19.6598535
| 21>     C       18.3245750   14.2566387   19.6087214
| 22>     C       17.7051220   13.2750641   20.3997485
| 23>     C       16.6485505   13.6344507   21.2530325
| 24>     C       16.2192082   14.9669798   21.3081347
| 25>     O       15.1922947   15.3155475   22.1233289
| 26>     C       16.8374035   15.9426586   20.5194323
| 27>     H       15.5175535   15.4164226   18.2245574
| 28>     H       13.9476144   15.6441617   17.4645480
| 29>     H       15.1216420   16.9382967   17.3696808
| 30>     H       15.0394324   14.2252773   15.9367802
| 31>     H       15.1963183   15.8176764   15.2066005
| 32>     H       17.1668203   17.4871264   14.8534413
| 33>     H       17.3426437   19.1972828   15.2142247
| 34>     H       15.8124903   18.3781499   15.5722019
| 35>     H       16.9869424   19.9147668   17.5153505
| 36>     H       19.1128475   18.0201310   20.3612994
| 37>     H       19.6133461   16.3023354   18.6128534
| 38>     H       19.1366422   13.9719834   18.9425736
| 39>     H       18.0437224   12.2417275   20.3458051
| 40>     H       16.1661939   12.8787576   21.8641408
| 41>     H       14.9284473   14.5223730   22.6136698
| 42>     H       16.4780957   16.9648342   20.5760883
| 43> *
| 44>
| 45>                          ****END OF INPUT****

CARTESIAN COORDINATES (ANGSTROEM)
---------------------------------
  C     15.018874   15.851864   17.353213
  C     15.530053   15.200848   16.050669
  O     16.963217   14.986150   15.940051
  C     18.071859   15.597959   16.485842
  O     19.128785   14.994507   16.462499
  C     17.910891   16.760286   17.408247
  C     17.409073   17.940847   16.974894
  C     16.902669   18.261873   15.583157
  N     17.412137   19.053004   17.819376
  C     18.045798   19.106326   19.033094
  S     18.074427   20.490176   19.937709
  N     18.661446   17.954758   19.457654
  C     18.581115   16.643772   18.781528
  C     17.898749   15.596987   19.659854
  C     18.324575   14.256639   19.608721
  C     17.705122   13.275064   20.399748
  C     16.648550   13.634451   21.253032
  C     16.219208   14.966980   21.308135
  O     15.192295   15.315547   22.123329
  C     16.837404   15.942659   20.519432
  H     15.517553   15.416423   18.224557
  H     13.947614   15.644162   17.464548
  H     15.121642   16.938297   17.369681
  H     15.039432   14.225277   15.936780
  H     15.196318   15.817676   15.206600
  H     17.166820   17.487126   14.853441
  H     17.342644   19.197283   15.214225
  H     15.812490   18.378150   15.572202
  H     16.986942   19.914767   17.515350
  H     19.112847   18.020131   20.361299
  H     19.613346   16.302335   18.612853
  H     19.136642   13.971983   18.942574
  H     18.043722   12.241727   20.345805
  H     16.166194   12.878758   21.864141
  H     14.928447   14.522373   22.613670
  H     16.478096   16.964834   20.576088

 Total Charge           Charge          ....    0
 Multiplicity           Mult            ....    1
 Number of Electrons    NEL             ....  154
 Basis Dimension        Dim             ....  828

ORBITAL ENERGIES
----------------

  NO   OCC          E(Eh)            E(eV)
   0   2.0000     -91.890475     -2500.4669
   1   2.0000     -20.597903      -560.4974
   2   2.0000     -20.597131      -560.4764
   3   2.0000     -20.546124      -559.0885
   4   2.0000     -15.628255      -425.2664
   5   2.0000     -15.611179      -424.8018
   6   2.0000     -11.400588      -310.2258
   7   2.0000     -11.386969      -309.8552
   8   2.0000     -11.330766      -308.3258
   9   2.0000     -11.314755      -307.8901
  10   2.0000     -11.313753      -307.8629
  11   2.0000     -11.313615      -307.8591
  12   2.0000     -11.270364      -306.6822
  13   2.0000     -11.264959      -306.5351
  14   2.0000     -11.262488      -306.4679
  15   2.0000     -11.255081      -306.2663
  16   2.0000     -11.243992      -305.9646
  17   2.0000     -11.239847      -305.8518
  18   2.0000     -11.236430      -305.7588
  19   2.0000     -11.234785      -305.7140
  20   2.0000      -8.895574      -242.0609
  21   2.0000      -6.577161      -178.9737
  22   2.0000      -6.575137      -178.9186
  23   2.0000      -6.574560      -178.9029
  24   2.0000      -1.441322       -39.2204
  25   2.0000      -1.417716       -38.5780
  26   2.0000      -1.353357       -36.8267
  27   2.0000      -1.341052       -36.4919
  28   2.0000      -1.240175       -33.7469
  29   2.0000      -1.159205       -31.5436
  30   2.0000      -1.125220       -30.6188
  31   2.0000      -1.047764       -28.5111
  32   2.0000      -1.041715       -28.3465
  33   2.0000      -1.017574       -27.6896
  34   2.0000      -1.005322       -27.3562
  35   2.0000      -0.990521       -26.9535
  36   2.0000      -0.928036       -25.2532
  37   2.0000      -0.901867       -24.5410
  38   2.0000      -0.854261       -23.2456
  39   2.0000      -0.840700       -22.8766
  40   2.0000      -0.834535       -22.7089
  41   2.0000      -0.828245       -22.5377
  42   2.0000      -0.745054       -20.2740
  43   2.0000      -0.734958       -19.9992
  44   2.0000      -0.730731       -19.8842
  45   2.0000      -0.694944       -18.9104
  46   2.0000      -0.686542       -18.6818
  47   2.0000      -0.677950       -18.4480
  48   2.0000      -0.674250       -18.3473
  49   2.0000      -0.661450       -17.9990
  50   2.0000      -0.657756       -17.8984
  51   2.0000      -0.652114       -17.7449
  52   2.0000      -0.641545       -17.4573
  53   2.0000      -0.614639       -16.7252
  54   2.0000      -0.607798       -16.5390
  55   2.0000      -0.604720       -16.4553
  56   2.0000      -0.602022       -16.3819
  57   2.0000      -0.593100       -16.1391
  58   2.0000      -0.577937       -15.7265
  59   2.0000      -0.574005       -15.6195
  60   2.0000      -0.565572       -15.3900
  61   2.0000      -0.558113       -15.1870
  62   2.0000      -0.543128       -14.7793
  63   2.0000      -0.529861       -14.4183
  64   2.0000      -0.519776       -14.1438
  65   2.0000      -0.513949       -13.9853
  66   2.0000      -0.501307       -13.6413
  67   2.0000      -0.498250       -13.5581
  68   2.0000      -0.483721       -13.1627
  69   2.0000      -0.466919       -12.7055
  70   2.0000      -0.453940       -12.3523
  71   2.0000      -0.448846       -12.2137
  72   2.0000      -0.356284        -9.6950
  73   2.0000      -0.348866        -9.4931
  74   2.0000      -0.330050        -8.9811
  75   2.0000      -0.323184        -8.7943
  76   2.0000      -0.318850        -8.6764
  77   0.0000       0.084647         2.3034
  78   0.0000       0.107434         2.9234
  79   0.0000       0.113712         3.0943
  80   0.0000       0.128765         3.5039
  81   0.0000       0.131136         3.5684

MULLIKEN ATOMIC CHARGES
-----------------------
   0 C :   -0.348064
   1 C :    0.049394
   2 O :   -0.334131
   3 C :    0.419047
   4 O :   -0.385430
   5 C :   -0.201581
   6 C :    0.137534
   7 C :   -0.329630
   8 N :   -0.140620
   9 C :    0.204073
  10 S :   -0.440548
  11 N :   -0.228308
  12 C :    0.095859
  13 C :    0.015174
  14 C :   -0.215502
  15 C :   -0.135587
  16 C :   -0.275743
  17 C :    0.321971
  18 O :   -0.357685
  19 C :   -0.276540
  20 H :    0.135395
  21 H :    0.121129
  22 H :    0.104977
  23 H :    0.129419
  24 H :    0.084846
  25 H :    0.130017
  26 H :    0.138791
  27 H :    0.121757
  28 H :    0.196970
  29 H :    0.202952
  30 H :    0.167586
  31 H :    0.177734
  32 H :    0.164095
  33 H :    0.132015
  34 H :    0.241049
  35 H :    0.177586
Sum of atomic charges:    0.0000000

LOEWDIN ATOMIC CHARGES
----------------------
   0 C :    0.105309
   1 C :   -0.014214
   2 O :    0.292258
   3 C :   -0.417358
   4 O :    0.120359
   5 C :   -0.080552
   6 C :   -0.097827
   7 C :    0.126440
   8 N :    0.402757
   9 C :   -0.456831
  10 S :   -0.037247
  11 N :    0.398237
  12 C :   -0.041996
  13 C :   -0.043343
  14 C :    0.020022
  15 C :    0.044409
  16 C :   -0.001535
  17 C :   -0.193815
  18 O :    0.395327
  19 C :    0.026416
  20 H :   -0.023560
  21 H :   -0.021413
  22 H :   -0.036514
  23 H :   -0.016950
  24 H :   -0.035459
  25 H :   -0.007948
  26 H :   -0.009531
  27 H :   -0.018296
  28 H :   -0.057804
  29 H :   -0.063622
  30 H :   -0.001933
  31 H :   -0.021575
  32 H :   -0.018487
  33 H :   -0.035058
  34 H :   -0.153524
  35 H :   -0.025141

  Mayer bond orders larger than 0.100000
B(  0-C ,  1-C ) :   0.9554 B(  0-C , 20-H ) :   0.9632 B(  0-C , 21-H ) :   0.9791
B(  0-C , 22-H ) :   0.9748 B(  1-C ,  2-O ) :   0.9088 B(  1-C , 23-H ) :   0.9783
B(  1-C , 24-H ) :   0.9760 B(  2-O ,  3-C ) :   1.1728 B(  3-C ,  4-O ) :   2.0731
B(  3-C ,  5-C ) :   0.9323 B(  5-C ,  6-C ) :   1.6983 B(  5-C , 12-C ) :   0.9499
B(  6-C ,  7-C ) :   0.9426 B(  6-C ,  8-N ) :   1.0989 B(  7-C , 25-H ) :   0.9783
B(  7-C , 26-H ) :   0.9734 B(  7-C , 27-H ) :   0.9643 B(  8-N ,  9-C ) :   1.1964
B(  8-N , 28-H ) :   0.9518 B(  9-C , 10-S ) :   1.6087 B(  9-C , 11-N ) :   1.2891
B( 11-N , 12-C ) :   0.9860 B( 11-N , 29-H ) :   0.9473 B( 12-C , 13-C ) :   0.9509
B( 12-C , 30-H ) :   0.9934 B( 13-C , 14-C ) :   1.3906 B( 13-C , 19-C ) :   1.3418
B( 14-C , 15-C ) :   1.4015 B( 14-C , 31-H ) :   0.9571 B( 15-C , 16-C ) :   1.3595
B( 15-C , 32-H ) :   0.9700 B( 16-C , 17-C ) :   1.3313 B( 16-C , 33-H ) :   0.9847
B( 17-C , 18-O ) :   1.1093 B( 17-C , 19-C ) :   1.3657 B( 18-O , 34-H ) :   0.9795
B( 19-C , 35-H ) :   0.9585

MP2 TOTAL ENERGY:    -1274.322951753 Eh
FINAL SINGLE POINT ENERGY     -1274.322951753173

DIPOLE MOMENT
-------------
                                X             Y             Z
Electronic contribution:      9.46828       5.57237       6.78513
Nuclear contribution   :    -11.09566      -6.63152      -7.42102
                        -----------------------------------------
Total Dipole Moment    :     -1.62738      -1.05916      -0.63589
                        -----------------------------------------
Magnitude (a.u.)       :      2.04317
Magnitude (Debye)      :      5.19332

Rotational constants in cm-1:     0.011541     0.009584     0.006746
Rotational constants in MHz :   345.991358   287.330392   202.248718

                             ****ORCA TERMINATED NORMALLY****
TOTAL RUN TIME: 0 days 2 hours 17 minutes 34 seconds 589 msec
