                         Program Version 5.0.0 -  RELEASE  -
|  1> ! ri-mp2 cc-pvtz cc-pvtz/c TightSCF NoKeepInts
|  2>
|  3> %scf
|  4>   MaxCore 4096
|  5> end
|  6> *xyz  0  1
|  7>     C       14.6425892   14.2991554   16.3400513
|  8>     C       15.5723042   15.4302693   16.8075446
|  9>     O       16.7682727   15.3558523   16.0087768
| 10>     C       17.9777258   15.6133885   16.5907311
| 11>     O       18.8147160   14.7345087   16.6850499
| 12>     C       18.0336244   16.8575840   17.4230292
| 13>     C       17.5177052   18.0465623   17.0259660
| 14>     C       16.8632391   18.3713120   15.6990174
| 15>     N       17.6546774   19.1706480   17.8445007
| 16>     C       18.4029119   19.2144013   18.9920077
| 17>     S       18.5906204   20.6127708   19.8540985
| 18>     N       18.9860536   18.0372207   19.3912631
| 19>     C       18.7596211   16.7211320   18.7623164
| 20>     C       17.9838262   15.7937647   19.6934547
| 21>     C       18.4033841   14.4640681   19.8804746
| 22>     C       17.6794121   13.5943797   20.7128477
| 23>     C       16.5228693   14.0563258   21.3635049
| 24>     C       16.0978635   15.3782167   21.1759422
| 25>     O       14.9737112   15.8240243   21.7906613
| 26>     C       16.8198555   16.2416156   20.3459027
| 27>     H       15.1326153   13.3244808   16.4602454
| 28>     H       14.3798970   14.4254417   15.2823901
| 29>     H       13.7165559   14.2925436   16.9276459
| 30>     H       15.0780340   16.4025559   16.6978713
| 31>     H       15.8033442   15.2690675   17.8693623
| 32>     H       17.1294278   17.6461103   14.9202057
| 33>     H       17.1840068   19.3527418   15.3272635
| 34>     H       15.7707673   18.3889374   15.7869247
| 35>     H       17.2442234   20.0472777   17.5631684
| 36>     H       19.5146279   18.0937200   20.2527126
| 37>     H       19.7436895   16.2696119   18.5674171
| 38>     H       19.2867797   14.0975334   19.3617945
| 39>     H       18.0128102   12.5662593   20.8441497
| 40>     H       15.9593621   13.3863664   22.0045721
| 41>     H       14.6550843   15.1117055   22.3657445
| 42>     H       16.4707916   17.2604464   20.2153914
| 43> *
| 44>
| 45>                          ****END OF INPUT****

CARTESIAN COORDINATES (ANGSTROEM)
---------------------------------
  C     14.642589   14.299155   16.340051
  C     15.572304   15.430269   16.807545
  O     16.768273   15.355852   16.008777
  C     17.977726   15.613388   16.590731
  O     18.814716   14.734509   16.685050
  C     18.033624   16.857584   17.423029
  C     17.517705   18.046562   17.025966
  C     16.863239   18.371312   15.699017
  N     17.654677   19.170648   17.844501
  C     18.402912   19.214401   18.992008
  S     18.590620   20.612771   19.854098
  N     18.986054   18.037221   19.391263
  C     18.759621   16.721132   18.762316
  C     17.983826   15.793765   19.693455
  C     18.403384   14.464068   19.880475
  C     17.679412   13.594380   20.712848
  C     16.522869   14.056326   21.363505
  C     16.097863   15.378217   21.175942
  O     14.973711   15.824024   21.790661
  C     16.819855   16.241616   20.345903
  H     15.132615   13.324481   16.460245
  H     14.379897   14.425442   15.282390
  H     13.716556   14.292544   16.927646
  H     15.078034   16.402556   16.697871
  H     15.803344   15.269068   17.869362
  H     17.129428   17.646110   14.920206
  H     17.184007   19.352742   15.327263
  H     15.770767   18.388937   15.786925
  H     17.244223   20.047278   17.563168
  H     19.514628   18.093720   20.252713
  H     19.743689   16.269612   18.567417
  H     19.286780   14.097533   19.361794
  H     18.012810   12.566259   20.844150
  H     15.959362   13.386366   22.004572
  H     14.655084   15.111705   22.365745
  H     16.470792   17.260446   20.215391

 Total Charge           Charge          ....    0
 Multiplicity           Mult            ....    1
 Number of Electrons    NEL             ....  154
 Basis Dimension        Dim             ....  828

ORBITAL ENERGIES
----------------

  NO   OCC          E(Eh)            E(eV)
   0   2.0000     -91.890943     -2500.4797
   1   2.0000     -20.599016      -560.5277
   2   2.0000     -20.590816      -560.3046
   3   2.0000     -20.553992      -559.3026
   4   2.0000     -15.629738      -425.3068
   5   2.0000     -15.610958      -424.7958
   6   2.0000     -11.395595      -310.0899
   7   2.0000     -11.387006      -309.8562
   8   2.0000     -11.335320      -308.4497
   9   2.0000     -11.315739      -307.9169
  10   2.0000     -11.311967      -307.8143
  11   2.0000     -11.303031      -307.5711
  12   2.0000     -11.265875      -306.5601
  13   2.0000     -11.263604      -306.4982
  14   2.0000     -11.261685      -306.4460
  15   2.0000     -11.255674      -306.2825
  16   2.0000     -11.245261      -305.9991
  17   2.0000     -11.241233      -305.8895
  18   2.0000     -11.238008      -305.8017
  19   2.0000     -11.230499      -305.5974
  20   2.0000      -8.896030      -242.0733
  21   2.0000      -6.577610      -178.9859
  22   2.0000      -6.575595      -178.9310
  23   2.0000      -6.575011      -178.9151
  24   2.0000      -1.449887       -39.4534
  25   2.0000      -1.418851       -38.6089
  26   2.0000      -1.360021       -37.0081
  27   2.0000      -1.341866       -36.5140
  28   2.0000      -1.240464       -33.7547
  29   2.0000      -1.160165       -31.5697
  30   2.0000      -1.124515       -30.5996
  31   2.0000      -1.047694       -28.5092
  32   2.0000      -1.037109       -28.2212
  33   2.0000      -1.017678       -27.6924
  34   2.0000      -1.004133       -27.3239
  35   2.0000      -0.988711       -26.9042
  36   2.0000      -0.927009       -25.2252
  37   2.0000      -0.878172       -23.8963
  38   2.0000      -0.855303       -23.2740
  39   2.0000      -0.842993       -22.9390
  40   2.0000      -0.836260       -22.7558
  41   2.0000      -0.835143       -22.7254
  42   2.0000      -0.756303       -20.5801
  43   2.0000      -0.738211       -20.0877
  44   2.0000      -0.731304       -19.8998
  45   2.0000      -0.696865       -18.9627
  46   2.0000      -0.688333       -18.7305
  47   2.0000      -0.681365       -18.5409
  48   2.0000      -0.676865       -18.4184
  49   2.0000      -0.662947       -18.0397
  50   2.0000      -0.653481       -17.7821
  51   2.0000      -0.649549       -17.6751
  52   2.0000      -0.641577       -17.4582
  53   2.0000      -0.610572       -16.6145
  54   2.0000      -0.607263       -16.5245
  55   2.0000      -0.602995       -16.4083
  56   2.0000      -0.598122       -16.2757
  57   2.0000      -0.584611       -15.9081
  58   2.0000      -0.577408       -15.7121
  59   2.0000      -0.566450       -15.4139
  60   2.0000      -0.562628       -15.3099
  61   2.0000      -0.558495       -15.1974
  62   2.0000      -0.545101       -14.8330
  63   2.0000      -0.525182       -14.2909
  64   2.0000      -0.515937       -14.0394
  65   2.0000      -0.515463       -14.0265
  66   2.0000      -0.502319       -13.6688
  67   2.0000      -0.498339       -13.5605
  68   2.0000      -0.489542       -13.3211
  69   2.0000      -0.469672       -12.7804
  70   2.0000      -0.458156       -12.4671
  71   2.0000      -0.452386       -12.3101
  72   2.0000      -0.358281        -9.7493
  73   2.0000      -0.350992        -9.5510
  74   2.0000      -0.330356        -8.9894
  75   2.0000      -0.323451        -8.8016
  76   2.0000      -0.319183        -8.6854
  77   0.0000       0.075312         2.0494
  78   0.0000       0.104531         2.8444
  79   0.0000       0.116576         3.1722
  80   0.0000       0.129814         3.5324
  81   0.0000       0.134031         3.6472

MULLIKEN ATOMIC CHARGES
-----------------------
   0 C :   -0.256678
   1 C :    0.023375
   2 O :   -0.340088
   3 C :    0.432559
   4 O :   -0.379923
   5 C :   -0.207045
   6 C :    0.138978
   7 C :   -0.314553
   8 N :   -0.132396
   9 C :    0.197784
  10 S :   -0.437646
  11 N :   -0.206338
  12 C :    0.065101
  13 C :    0.019881
  14 C :   -0.176913
  15 C :   -0.135046
  16 C :   -0.276154
  17 C :    0.320566
  18 O :   -0.358794
  19 C :   -0.281352
  20 H :    0.108107
  21 H :    0.097915
  22 H :    0.088699
  23 H :    0.084903
  24 H :    0.109871
  25 H :    0.137760
  26 H :    0.125033
  27 H :    0.120713
  28 H :    0.197378
  29 H :    0.196118
  30 H :    0.161365
  31 H :    0.167035
  32 H :    0.163256
  33 H :    0.132472
  34 H :    0.241466
  35 H :    0.172591
Sum of atomic charges:   -0.0000000

LOEWDIN ATOMIC CHARGES
----------------------
   0 C :    0.111451
   1 C :   -0.022024
   2 O :    0.294911
   3 C :   -0.419920
   4 O :    0.129795
   5 C :   -0.089259
   6 C :   -0.084219
   7 C :    0.127033
   8 N :    0.403439
   9 C :   -0.457915
  10 S :   -0.034999
  11 N :    0.397078
  12 C :   -0.045178
  13 C :   -0.044705
  14 C :    0.021380
  15 C :    0.043987
  16 C :   -0.000872
  17 C :   -0.195254
  18 O :    0.394317
  19 C :    0.026700
  20 H :   -0.021038
  21 H :   -0.027201
  22 H :   -0.025881
  23 H :   -0.038384
  24 H :   -0.027574
  25 H :   -0.007224
  26 H :   -0.013482
  27 H :   -0.017640
  28 H :   -0.057242
  29 H :   -0.063619
  30 H :   -0.002962
  31 H :   -0.022329
  32 H :   -0.018903
  33 H :   -0.034776
  34 H :   -0.153139
  35 H :   -0.024350

  Mayer bond orders larger than 0.100000
B(  0-C ,  1-C ) :   0.9869 B(  0-C , 20-H ) :   0.9774 B(  0-C , 21-H ) :   0.9799
B(  0-C , 22-H ) :   0.9761 B(  1-C ,  2-O ) :   0.8942 B(  1-C , 23-H ) :   0.9725
B(  1-C , 24-H ) :   0.9671 B(  2-O ,  3-C ) :   1.1514 B(  3-C ,  4-O ) :   2.0841
B(  3-C ,  5-C ) :   0.9601 B(  5-C ,  6-C ) :   1.6619 B(  5-C , 12-C ) :   0.9586
B(  6-C ,  7-C ) :   0.9464 B(  6-C ,  8-N ) :   1.1317 B(  7-C , 25-H ) :   0.9725
B(  7-C , 26-H ) :   0.9784 B(  7-C , 27-H ) :   0.9652 B(  8-N ,  9-C ) :   1.1875
B(  8-N , 28-H ) :   0.9513 B(  9-C , 10-S ) :   1.6139 B(  9-C , 11-N ) :   1.2942
B( 11-N , 12-C ) :   0.9947 B( 11-N , 29-H ) :   0.9509 B( 12-C , 13-C ) :   0.9413
B( 12-C , 30-H ) :   0.9979 B( 13-C , 14-C ) :   1.3869 B( 13-C , 19-C ) :   1.3523
B( 14-C , 15-C ) :   1.3964 B( 14-C , 31-H ) :   0.9597 B( 15-C , 16-C ) :   1.3643
B( 15-C , 32-H ) :   0.9703 B( 16-C , 17-C ) :   1.3294 B( 16-C , 33-H ) :   0.9843
B( 17-C , 18-O ) :   1.1106 B( 17-C , 19-C ) :   1.3677 B( 18-O , 34-H ) :   0.9793
B( 19-C , 35-H ) :   0.9596

MP2 TOTAL ENERGY:    -1274.332772217 Eh
FINAL SINGLE POINT ENERGY     -1274.332772216642

DIPOLE MOMENT
-------------
                                X             Y             Z
Electronic contribution:     10.90603       8.88353       7.32186
Nuclear contribution   :    -12.35481      -9.88654      -7.66186
                        -----------------------------------------
Total Dipole Moment    :     -1.44878      -1.00301      -0.34000
                        -----------------------------------------
Magnitude (a.u.)       :      1.79460
Magnitude (Debye)      :      4.56152

Rotational constants in cm-1:     0.011553     0.009235     0.006666
Rotational constants in MHz :   346.345616   276.860296   199.849711

                             ****ORCA TERMINATED NORMALLY****
TOTAL RUN TIME: 0 days 1 hours 51 minutes 32 seconds 458 msec
