                         Program Version 5.0.0 -  RELEASE  -
|  1> ! ri-mp2 cc-pvtz cc-pvtz/c TightSCF NoKeepInts
|  2>
|  3> %scf
|  4>   MaxCore 4096
|  5> end
|  6> *xyz  0  1
|  7>     C       15.1669853   15.3807743   17.4865884
|  8>     C       15.5254254   15.3910009   15.9861135
|  9>     O       16.9381846   15.2002559   15.7211893
| 10>     C       18.0212278   15.5772602   16.4813168
| 11>     O       18.9930250   14.8458462   16.5342403
| 12>     C       17.9177991   16.7799117   17.3714535
| 13>     C       17.3904899   17.9663783   16.9784884
| 14>     C       16.8625322   18.3444178   15.6109980
| 15>     N       17.4210501   19.0631745   17.8434426
| 16>     C       18.1053328   19.1052060   19.0291170
| 17>     S       18.1755582   20.4805946   19.9441851
| 18>     N       18.7334187   17.9483249   19.4155675
| 19>     C       18.6024113   16.6434244   18.7380024
| 20>     C       17.8911634   15.6274286   19.6297067
| 21>     C       18.3297545   14.2905979   19.6620445
| 22>     C       17.6784808   13.3400229   20.4653785
| 23>     C       16.5773693   13.7274441   21.2471462
| 24>     C       16.1365848   15.0570892   21.2202433
| 25>     O       15.0674765   15.4328239   21.9661337
| 26>     C       16.7869460   16.0015711   20.4197664
| 27>     H       15.7038801   14.5808010   18.0122241
| 28>     H       14.0934658   15.1948339   17.6124784
| 29>     H       15.3822630   16.3392108   17.9693715
| 30>     H       14.9809767   14.5746615   15.4936726
| 31>     H       15.1650655   16.3204725   15.5339192
| 32>     H       17.1138601   17.6013529   14.8450594
| 33>     H       17.3043049   19.2903361   15.2719777
| 34>     H       15.7741371   18.4752143   15.6270452
| 35>     H       16.9846322   19.9288293   17.5676550
| 36>     H       19.2198822   18.0018003   20.3016441
| 37>     H       19.6210581   16.2684399   18.5587088
| 38>     H       19.1748634   13.9833064   19.0493852
| 39>     H       18.0265501   12.3084653   20.4753110
| 40>     H       16.0700690   12.9955303   21.8669542
| 41>     H       14.7886424   14.6619452   22.4830828
| 42>     H       16.4221335   17.0232528   20.4143887
| 43> *
| 44>
| 45>                          ****END OF INPUT****

CARTESIAN COORDINATES (ANGSTROEM)
---------------------------------
  C     15.166985   15.380774   17.486588
  C     15.525425   15.391001   15.986113
  O     16.938185   15.200256   15.721189
  C     18.021228   15.577260   16.481317
  O     18.993025   14.845846   16.534240
  C     17.917799   16.779912   17.371453
  C     17.390490   17.966378   16.978488
  C     16.862532   18.344418   15.610998
  N     17.421050   19.063174   17.843443
  C     18.105333   19.105206   19.029117
  S     18.175558   20.480595   19.944185
  N     18.733419   17.948325   19.415567
  C     18.602411   16.643424   18.738002
  C     17.891163   15.627429   19.629707
  C     18.329754   14.290598   19.662044
  C     17.678481   13.340023   20.465378
  C     16.577369   13.727444   21.247146
  C     16.136585   15.057089   21.220243
  O     15.067476   15.432824   21.966134
  C     16.786946   16.001571   20.419766
  H     15.703880   14.580801   18.012224
  H     14.093466   15.194834   17.612478
  H     15.382263   16.339211   17.969372
  H     14.980977   14.574661   15.493673
  H     15.165066   16.320473   15.533919
  H     17.113860   17.601353   14.845059
  H     17.304305   19.290336   15.271978
  H     15.774137   18.475214   15.627045
  H     16.984632   19.928829   17.567655
  H     19.219882   18.001800   20.301644
  H     19.621058   16.268440   18.558709
  H     19.174863   13.983306   19.049385
  H     18.026550   12.308465   20.475311
  H     16.070069   12.995530   21.866954
  H     14.788642   14.661945   22.483083
  H     16.422134   17.023253   20.414389

 Total Charge           Charge          ....    0
 Multiplicity           Mult            ....    1
 Number of Electrons    NEL             ....  154
 Basis Dimension        Dim             ....  828

ORBITAL ENERGIES
----------------

  NO   OCC          E(Eh)            E(eV)
   0   2.0000     -91.891017     -2500.4817
   1   2.0000     -20.597438      -560.4848
   2   2.0000     -20.596589      -560.4617
   3   2.0000     -20.548100      -559.1422
   4   2.0000     -15.629645      -425.3043
   5   2.0000     -15.610897      -424.7941
   6   2.0000     -11.400079      -310.2119
   7   2.0000     -11.386974      -309.8553
   8   2.0000     -11.335324      -308.4498
   9   2.0000     -11.313892      -307.8667
  10   2.0000     -11.312296      -307.8232
  11   2.0000     -11.310466      -307.7734
  12   2.0000     -11.268646      -306.6354
  13   2.0000     -11.267568      -306.6061
  14   2.0000     -11.260762      -306.4209
  15   2.0000     -11.254231      -306.2432
  16   2.0000     -11.243779      -305.9588
  17   2.0000     -11.239195      -305.8340
  18   2.0000     -11.235823      -305.7423
  19   2.0000     -11.232159      -305.6426
  20   2.0000      -8.896109      -242.0754
  21   2.0000      -6.577694      -178.9881
  22   2.0000      -6.575672      -178.9331
  23   2.0000      -6.575091      -178.9173
  24   2.0000      -1.443456       -39.2784
  25   2.0000      -1.417258       -38.5656
  26   2.0000      -1.356122       -36.9019
  27   2.0000      -1.342576       -36.5333
  28   2.0000      -1.240997       -33.7693
  29   2.0000      -1.158600       -31.5271
  30   2.0000      -1.124560       -30.6008
  31   2.0000      -1.046965       -28.4894
  32   2.0000      -1.038866       -28.2690
  33   2.0000      -1.016828       -27.6693
  34   2.0000      -1.005931       -27.3728
  35   2.0000      -0.989910       -26.9368
  36   2.0000      -0.927934       -25.2504
  37   2.0000      -0.899292       -24.4710
  38   2.0000      -0.855032       -23.2666
  39   2.0000      -0.840969       -22.8839
  40   2.0000      -0.834289       -22.7022
  41   2.0000      -0.827691       -22.5226
  42   2.0000      -0.745082       -20.2747
  43   2.0000      -0.736409       -20.0387
  44   2.0000      -0.730377       -19.8746
  45   2.0000      -0.695176       -18.9167
  46   2.0000      -0.686647       -18.6846
  47   2.0000      -0.680276       -18.5112
  48   2.0000      -0.674950       -18.3663
  49   2.0000      -0.659432       -17.9441
  50   2.0000      -0.658480       -17.9182
  51   2.0000      -0.651612       -17.7313
  52   2.0000      -0.640555       -17.4304
  53   2.0000      -0.621150       -16.9023
  54   2.0000      -0.609538       -16.5864
  55   2.0000      -0.605502       -16.4765
  56   2.0000      -0.601781       -16.3753
  57   2.0000      -0.588414       -16.0115
  58   2.0000      -0.576480       -15.6868
  59   2.0000      -0.566524       -15.4159
  60   2.0000      -0.565500       -15.3880
  61   2.0000      -0.553522       -15.0621
  62   2.0000      -0.541858       -14.7447
  63   2.0000      -0.533527       -14.5180
  64   2.0000      -0.521920       -14.2022
  65   2.0000      -0.513162       -13.9638
  66   2.0000      -0.501027       -13.6336
  67   2.0000      -0.496018       -13.4973
  68   2.0000      -0.483214       -13.1489
  69   2.0000      -0.470039       -12.7904
  70   2.0000      -0.456455       -12.4208
  71   2.0000      -0.448988       -12.2176
  72   2.0000      -0.357784        -9.7358
  73   2.0000      -0.348407        -9.4806
  74   2.0000      -0.330479        -8.9928
  75   2.0000      -0.322705        -8.7813
  76   2.0000      -0.319367        -8.6904
  77   0.0000       0.077885         2.1194
  78   0.0000       0.107786         2.9330
  79   0.0000       0.114539         3.1168
  80   0.0000       0.130950         3.5633
  81   0.0000       0.132348         3.6014

MULLIKEN ATOMIC CHARGES
-----------------------
   0 C :   -0.340654
   1 C :    0.032429
   2 O :   -0.335833
   3 C :    0.437527
   4 O :   -0.387004
   5 C :   -0.230999
   6 C :    0.166008
   7 C :   -0.342592
   8 N :   -0.134871
   9 C :    0.196124
  10 S :   -0.438565
  11 N :   -0.216417
  12 C :    0.073378
  13 C :    0.023139
  14 C :   -0.205498
  15 C :   -0.134644
  16 C :   -0.278844
  17 C :    0.319510
  18 O :   -0.358670
  19 C :   -0.272535
  20 H :    0.131004
  21 H :    0.119416
  22 H :    0.111101
  23 H :    0.130805
  24 H :    0.086627
  25 H :    0.139489
  26 H :    0.137261
  27 H :    0.121172
  28 H :    0.197584
  29 H :    0.199949
  30 H :    0.165495
  31 H :    0.175150
  32 H :    0.163753
  33 H :    0.131804
  34 H :    0.241012
  35 H :    0.177387
Sum of atomic charges:    0.0000000

LOEWDIN ATOMIC CHARGES
----------------------
   0 C :    0.103652
   1 C :   -0.016421
   2 O :    0.291015
   3 C :   -0.415152
   4 O :    0.122052
   5 C :   -0.082396
   6 C :   -0.088678
   7 C :    0.123829
   8 N :    0.403445
   9 C :   -0.459594
  10 S :   -0.035984
  11 N :    0.398184
  12 C :   -0.043543
  13 C :   -0.043220
  14 C :    0.019719
  15 C :    0.042231
  16 C :   -0.001663
  17 C :   -0.193670
  18 O :    0.394953
  19 C :    0.029141
  20 H :   -0.018337
  21 H :   -0.022914
  22 H :   -0.035305
  23 H :   -0.018807
  24 H :   -0.038935
  25 H :   -0.007354
  26 H :   -0.009847
  27 H :   -0.018915
  28 H :   -0.056927
  29 H :   -0.063024
  30 H :   -0.002130
  31 H :   -0.022147
  32 H :   -0.018937
  33 H :   -0.035053
  34 H :   -0.153626
  35 H :   -0.025644

  Mayer bond orders larger than 0.100000
B(  0-C ,  1-C ) :   0.9572 B(  0-C , 20-H ) :   0.9668 B(  0-C , 21-H ) :   0.9765
B(  0-C , 22-H ) :   0.9719 B(  1-C ,  2-O ) :   0.9030 B(  1-C , 23-H ) :   0.9813
B(  1-C , 24-H ) :   0.9735 B(  2-O ,  3-C ) :   1.1752 B(  3-C ,  4-O ) :   2.0742
B(  3-C ,  5-C ) :   0.9376 B(  5-C ,  6-C ) :   1.6821 B(  5-C , 12-C ) :   0.9573
B(  6-C ,  7-C ) :   0.9438 B(  6-C ,  8-N ) :   1.1152 B(  7-C , 25-H ) :   0.9765
B(  7-C , 26-H ) :   0.9729 B(  7-C , 27-H ) :   0.9653 B(  8-N ,  9-C ) :   1.1902
B(  8-N , 28-H ) :   0.9516 B(  9-C , 10-S ) :   1.6123 B(  9-C , 11-N ) :   1.2920
B( 11-N , 12-C ) :   0.9896 B( 11-N , 29-H ) :   0.9495 B( 12-C , 13-C ) :   0.9480
B( 12-C , 30-H ) :   0.9966 B( 13-C , 14-C ) :   1.3909 B( 13-C , 19-C ) :   1.3404
B( 14-C , 15-C ) :   1.3984 B( 14-C , 31-H ) :   0.9576 B( 15-C , 16-C ) :   1.3597
B( 15-C , 32-H ) :   0.9704 B( 16-C , 17-C ) :   1.3304 B( 16-C , 33-H ) :   0.9848
B( 17-C , 18-O ) :   1.1098 B( 17-C , 19-C ) :   1.3702 B( 18-O , 34-H ) :   0.9797
B( 19-C , 35-H ) :   0.9569

MP2 TOTAL ENERGY:    -1274.330984303 Eh
FINAL SINGLE POINT ENERGY     -1274.330984303100

DIPOLE MOMENT
-------------
                                X             Y             Z
Electronic contribution:      9.24899       6.24760       6.17928
Nuclear contribution   :    -10.83294      -7.21732      -6.75294
                        -----------------------------------------
Total Dipole Moment    :     -1.58395      -0.96971      -0.57366
                        -----------------------------------------
Magnitude (a.u.)       :      1.94379
Magnitude (Debye)      :      4.94072

Rotational constants in cm-1:     0.011604     0.009697     0.006799
Rotational constants in MHz :   347.889835   290.705579   203.825933

                             ****ORCA TERMINATED NORMALLY****
TOTAL RUN TIME: 0 days 2 hours 14 minutes 29 seconds 624 msec
