                         Program Version 5.0.0 -  RELEASE  -
|  1> ! ri-mp2 cc-pvtz cc-pvtz/c TightSCF NoKeepInts
|  2>
|  3> %scf
|  4>   MaxCore 4096
|  5> end
|  6> *xyz  0  1
|  7>     C       14.9796773   14.1579563   15.8995176
|  8>     C       16.4413195   13.9036306   16.3275721
|  9>     O       17.2225002   15.0843843   16.6494217
| 10>     C       16.8263025   16.3955523   16.5582549
| 11>     O       15.9966483   16.8008084   15.7636914
| 12>     C       17.5811392   17.2800206   17.5141764
| 13>     C       17.4432284   18.6308303   17.5233588
| 14>     C       16.5600466   19.4708174   16.6253087
| 15>     N       18.1875445   19.4066366   18.4171002
| 16>     C       19.1448104   18.9233796   19.2681214
| 17>     S       20.0360126   19.9216014   20.2404186
| 18>     N       19.3292878   17.5647256   19.2735615
| 19>     C       18.5126845   16.5911718   18.5263251
| 20>     C       17.7411757   15.7093194   19.5041648
| 21>     C       18.0800062   14.3519375   19.6595806
| 22>     C       17.3676824   13.5351186   20.5537691
| 23>     C       16.3099064   14.0804619   21.3012241
| 24>     C       15.9737500   15.4331853   21.1532660
| 25>     O       14.9542974   15.9630263   21.8750000
| 26>     C       16.6843178   16.2434816   20.2624505
| 27>     H       14.4497219   14.7666174   16.6430048
| 28>     H       14.4435831   13.2064825   15.8013248
| 29>     H       14.9336651   14.6637364   14.9269186
| 30>     H       16.4328580   13.2495671   17.2091864
| 31>     H       16.9480475   13.3530273   15.5246448
| 32>     H       15.5057730   19.1946572   16.7551597
| 33>     H       16.8136120   19.3050047   15.5704825
| 34>     H       16.6469227   20.5459843   16.8207241
| 35>     H       18.0663213   20.4067339   18.4266686
| 36>     H       20.0145039   17.2349360   19.9410012
| 37>     H       19.2062648   15.9554562   17.9581862
| 38>     H       18.8953088   13.9274536   19.0798924
| 39>     H       17.6365453   12.4862741   20.6667183
| 40>     H       15.7572500   13.4541906   21.9938357
| 41>     H       14.6111187   15.2643229   22.4519350
| 42>     H       16.4131661   17.2895100   20.1680334
| 43> *
| 44>
| 45>                          ****END OF INPUT****

CARTESIAN COORDINATES (ANGSTROEM)
---------------------------------
  C     14.979677   14.157956   15.899518
  C     16.441319   13.903631   16.327572
  O     17.222500   15.084384   16.649422
  C     16.826303   16.395552   16.558255
  O     15.996648   16.800808   15.763691
  C     17.581139   17.280021   17.514176
  C     17.443228   18.630830   17.523359
  C     16.560047   19.470817   16.625309
  N     18.187544   19.406637   18.417100
  C     19.144810   18.923380   19.268121
  S     20.036013   19.921601   20.240419
  N     19.329288   17.564726   19.273561
  C     18.512684   16.591172   18.526325
  C     17.741176   15.709319   19.504165
  C     18.080006   14.351937   19.659581
  C     17.367682   13.535119   20.553769
  C     16.309906   14.080462   21.301224
  C     15.973750   15.433185   21.153266
  O     14.954297   15.963026   21.875000
  C     16.684318   16.243482   20.262450
  H     14.449722   14.766617   16.643005
  H     14.443583   13.206482   15.801325
  H     14.933665   14.663736   14.926919
  H     16.432858   13.249567   17.209186
  H     16.948048   13.353027   15.524645
  H     15.505773   19.194657   16.755160
  H     16.813612   19.305005   15.570483
  H     16.646923   20.545984   16.820724
  H     18.066321   20.406734   18.426669
  H     20.014504   17.234936   19.941001
  H     19.206265   15.955456   17.958186
  H     18.895309   13.927454   19.079892
  H     17.636545   12.486274   20.666718
  H     15.757250   13.454191   21.993836
  H     14.611119   15.264323   22.451935
  H     16.413166   17.289510   20.168033

 Total Charge           Charge          ....    0
 Multiplicity           Mult            ....    1
 Number of Electrons    NEL             ....  154
 Basis Dimension        Dim             ....  828

ORBITAL ENERGIES
----------------

  NO   OCC          E(Eh)            E(eV)
   0   2.0000     -91.888055     -2500.4011
   1   2.0000     -20.597388      -560.4834
   2   2.0000     -20.595927      -560.4437
   3   2.0000     -20.540218      -558.9278
   4   2.0000     -15.628029      -425.2603
   5   2.0000     -15.607414      -424.6993
   6   2.0000     -11.396856      -310.1242
   7   2.0000     -11.383129      -309.7507
   8   2.0000     -11.334852      -308.4370
   9   2.0000     -11.314662      -307.8876
  10   2.0000     -11.307780      -307.7003
  11   2.0000     -11.301966      -307.5421
  12   2.0000     -11.260345      -306.4096
  13   2.0000     -11.257727      -306.3383
  14   2.0000     -11.256261      -306.2984
  15   2.0000     -11.251197      -306.1606
  16   2.0000     -11.243844      -305.9605
  17   2.0000     -11.239003      -305.8288
  18   2.0000     -11.238942      -305.8272
  19   2.0000     -11.223084      -305.3956
  20   2.0000      -8.893130      -241.9944
  21   2.0000      -6.574708      -178.9069
  22   2.0000      -6.572701      -178.8523
  23   2.0000      -6.572117      -178.8364
  24   2.0000      -1.441973       -39.2381
  25   2.0000      -1.417033       -38.5594
  26   2.0000      -1.353076       -36.8191
  27   2.0000      -1.339155       -36.4403
  28   2.0000      -1.237749       -33.6808
  29   2.0000      -1.158062       -31.5125
  30   2.0000      -1.119250       -30.4563
  31   2.0000      -1.042580       -28.3700
  32   2.0000      -1.035573       -28.1794
  33   2.0000      -1.015871       -27.6433
  34   2.0000      -0.994978       -27.0747
  35   2.0000      -0.983208       -26.7544
  36   2.0000      -0.922042       -25.0900
  37   2.0000      -0.897801       -24.4304
  38   2.0000      -0.846743       -23.0411
  39   2.0000      -0.838239       -22.8096
  40   2.0000      -0.834720       -22.7139
  41   2.0000      -0.817987       -22.2586
  42   2.0000      -0.743906       -20.2427
  43   2.0000      -0.730903       -19.8889
  44   2.0000      -0.718172       -19.5424
  45   2.0000      -0.696170       -18.9437
  46   2.0000      -0.687379       -18.7045
  47   2.0000      -0.673728       -18.3331
  48   2.0000      -0.670738       -18.2517
  49   2.0000      -0.661090       -17.9892
  50   2.0000      -0.651267       -17.7219
  51   2.0000      -0.643517       -17.5110
  52   2.0000      -0.635633       -17.2965
  53   2.0000      -0.608422       -16.5560
  54   2.0000      -0.606834       -16.5128
  55   2.0000      -0.600560       -16.3421
  56   2.0000      -0.598481       -16.2855
  57   2.0000      -0.577858       -15.7243
  58   2.0000      -0.571286       -15.5455
  59   2.0000      -0.569891       -15.5075
  60   2.0000      -0.559994       -15.2382
  61   2.0000      -0.539535       -14.6815
  62   2.0000      -0.535215       -14.5640
  63   2.0000      -0.525841       -14.3089
  64   2.0000      -0.522055       -14.2058
  65   2.0000      -0.512976       -13.9588
  66   2.0000      -0.501205       -13.6385
  67   2.0000      -0.497878       -13.5480
  68   2.0000      -0.486093       -13.2273
  69   2.0000      -0.462908       -12.5964
  70   2.0000      -0.451714       -12.2918
  71   2.0000      -0.440354       -11.9826
  72   2.0000      -0.353038        -9.6066
  73   2.0000      -0.349908        -9.5215
  74   2.0000      -0.327685        -8.9168
  75   2.0000      -0.322243        -8.7687
  76   2.0000      -0.315495        -8.5851
  77   0.0000       0.077245         2.1020
  78   0.0000       0.104966         2.8563
  79   0.0000       0.125114         3.4045
  80   0.0000       0.132764         3.6127
  81   0.0000       0.138743         3.7754

MULLIKEN ATOMIC CHARGES
-----------------------
   0 C :   -0.295908
   1 C :    0.051074
   2 O :   -0.367847
   3 C :    0.457625
   4 O :   -0.425902
   5 C :   -0.220270
   6 C :    0.154562
   7 C :   -0.271264
   8 N :   -0.121355
   9 C :    0.212934
  10 S :   -0.441974
  11 N :   -0.206701
  12 C :    0.065627
  13 C :    0.067906
  14 C :   -0.202141
  15 C :   -0.126516
  16 C :   -0.281024
  17 C :    0.317449
  18 O :   -0.356334
  19 C :   -0.271091
  20 H :    0.102614
  21 H :    0.096874
  22 H :    0.120017
  23 H :    0.095434
  24 H :    0.095796
  25 H :    0.130434
  26 H :    0.131554
  27 H :    0.094851
  28 H :    0.197025
  29 H :    0.195163
  30 H :    0.149298
  31 H :    0.152674
  32 H :    0.162353
  33 H :    0.130535
  34 H :    0.240833
  35 H :    0.165695
Sum of atomic charges:   -0.0000000

LOEWDIN ATOMIC CHARGES
----------------------
   0 C :    0.103280
   1 C :   -0.008823
   2 O :    0.295027
   3 C :   -0.413683
   4 O :    0.107097
   5 C :   -0.094433
   6 C :   -0.059429
   7 C :    0.130847
   8 N :    0.406408
   9 C :   -0.456324
  10 S :   -0.036915
  11 N :    0.396350
  12 C :   -0.052623
  13 C :   -0.037979
  14 C :    0.014769
  15 C :    0.038325
  16 C :   -0.002305
  17 C :   -0.189550
  18 O :    0.395389
  19 C :    0.031047
  20 H :   -0.026243
  21 H :   -0.027333
  22 H :   -0.024626
  23 H :   -0.028751
  24 H :   -0.028382
  25 H :   -0.005126
  26 H :   -0.004001
  27 H :   -0.023690
  28 H :   -0.057760
  29 H :   -0.064768
  30 H :   -0.011527
  31 H :   -0.029950
  32 H :   -0.021363
  33 H :   -0.035547
  34 H :   -0.153789
  35 H :   -0.023617

  Mayer bond orders larger than 0.100000
B(  0-C ,  1-C ) :   0.9771 B(  0-C , 20-H ) :   0.9755 B(  0-C , 21-H ) :   0.9733
B(  0-C , 22-H ) :   0.9725 B(  1-C ,  2-O ) :   0.8982 B(  1-C , 23-H ) :   0.9738
B(  1-C , 24-H ) :   0.9806 B(  2-O ,  3-C ) :   1.1479 B(  3-C ,  4-O ) :   1.9853
B(  3-C ,  5-C ) :   1.0525 B(  5-C ,  6-C ) :   1.6539 B(  5-C , 12-C ) :   0.9734
B(  6-C ,  7-C ) :   0.9666 B(  6-C ,  8-N ) :   1.1615 B(  7-C , 25-H ) :   0.9606
B(  7-C , 26-H ) :   0.9602 B(  7-C , 27-H ) :   0.9908 B(  8-N ,  9-C ) :   1.1848
B(  8-N , 28-H ) :   0.9479 B(  9-C , 10-S ) :   1.6046 B(  9-C , 11-N ) :   1.3068
B( 11-N , 12-C ) :   0.9844 B( 11-N , 29-H ) :   0.9514 B( 12-C , 13-C ) :   0.9358
B( 12-C , 30-H ) :   1.0024 B( 13-C , 14-C ) :   1.3497 B( 13-C , 19-C ) :   1.3824
B( 14-C , 15-C ) :   1.3870 B( 14-C , 31-H ) :   0.9718 B( 15-C , 16-C ) :   1.3638
B( 15-C , 32-H ) :   0.9701 B( 16-C , 17-C ) :   1.3311 B( 16-C , 33-H ) :   0.9849
B( 17-C , 18-O ) :   1.1102 B( 17-C , 19-C ) :   1.3697 B( 18-O , 34-H ) :   0.9797
B( 19-C , 35-H ) :   0.9585

MP2 TOTAL ENERGY:    -1274.339111404 Eh
FINAL SINGLE POINT ENERGY     -1274.339111403843

DIPOLE MOMENT
-------------
                                X             Y             Z
Electronic contribution:      9.97462      10.13073       8.50366
Nuclear contribution   :    -10.97275     -11.95186      -8.84406
                        -----------------------------------------
Total Dipole Moment    :     -0.99812      -1.82113      -0.34040
                        -----------------------------------------
Magnitude (a.u.)       :      2.10443
Magnitude (Debye)      :      5.34903

Rotational constants in cm-1:     0.011882     0.008658     0.006177
Rotational constants in MHz :   356.198633   259.550850   185.171701

                             ****ORCA TERMINATED NORMALLY****
TOTAL RUN TIME: 0 days 2 hours 0 minutes 4 seconds 688 msec
