                         Program Version 5.0.0 -  RELEASE  -
|  1> ! ri-mp2 cc-pvtz cc-pvtz/c TightSCF NoKeepInts
|  2>
|  3> %scf
|  4>   MaxCore 4096
|  5> end
|  6> *xyz  0  1
|  7>     C       14.7220902   14.5000614   17.3337277
|  8>     C       15.6095224   15.4824847   16.5525886
|  9>     O       16.9504324   14.9672759   16.6033089
| 10>     C       18.0608751   15.7536605   16.4574359
| 11>     O       19.1216047   15.2006052   16.2359670
| 12>     C       18.0539738   16.9321862   17.3695306
| 13>     C       17.5722097   18.1318265   16.9765491
| 14>     C       16.9721346   18.4649814   15.6274903
| 15>     N       17.6462803   19.2273515   17.8391845
| 16>     C       18.2859878   19.2190705   19.0520684
| 17>     S       18.3865217   20.5785824   19.9879608
| 18>     N       18.8340880   18.0247419   19.4541481
| 19>     C       18.6958492   16.7378392   18.7417353
| 20>     C       17.9181365   15.7209531   19.5714090
| 21>     C       18.3480084   14.3825367   19.6266131
| 22>     C       17.6352717   13.4314767   20.3755364
| 23>     C       16.4806560   13.8206222   21.0754746
| 24>     C       16.0441730   15.1509263   21.0164158
| 25>     O       14.9200834   15.5260667   21.6769546
| 26>     C       16.7535017   16.0953204   20.2675389
| 27>     H       15.0734604   14.4000438   18.3677018
| 28>     H       14.7435220   13.5070713   16.8676208
| 29>     H       13.6826441   14.8487750   17.3557847
| 30>     H       15.2693523   15.5751640   15.5129764
| 31>     H       15.5304711   16.4596367   17.0424217
| 32>     H       17.1902674   17.6980806   14.8741569
| 33>     H       17.3791071   19.4079394   15.2400342
| 34>     H       15.8826758   18.5722737   15.6961473
| 35>     H       17.2618191   20.1158710   17.5585126
| 36>     H       19.2811781   18.0443745   20.3620348
| 37>     H       19.7075455   16.3382339   18.5774883
| 38>     H       19.2310549   14.0752363   19.0704092
| 39>     H       17.9759572   12.3979396   20.4047439
| 40>     H       15.9261042   13.0881443   21.6525582
| 41>     H       14.6067212   14.7565654   22.1759578
| 42>     H       16.3937191   17.1180811   20.2338139
| 43> *
| 44>
| 45>                          ****END OF INPUT****

CARTESIAN COORDINATES (ANGSTROEM)
---------------------------------
  C     14.722090   14.500061   17.333728
  C     15.609522   15.482485   16.552589
  O     16.950432   14.967276   16.603309
  C     18.060875   15.753661   16.457436
  O     19.121605   15.200605   16.235967
  C     18.053974   16.932186   17.369531
  C     17.572210   18.131826   16.976549
  C     16.972135   18.464981   15.627490
  N     17.646280   19.227351   17.839185
  C     18.285988   19.219071   19.052068
  S     18.386522   20.578582   19.987961
  N     18.834088   18.024742   19.454148
  C     18.695849   16.737839   18.741735
  C     17.918136   15.720953   19.571409
  C     18.348008   14.382537   19.626613
  C     17.635272   13.431477   20.375536
  C     16.480656   13.820622   21.075475
  C     16.044173   15.150926   21.016416
  O     14.920083   15.526067   21.676955
  C     16.753502   16.095320   20.267539
  H     15.073460   14.400044   18.367702
  H     14.743522   13.507071   16.867621
  H     13.682644   14.848775   17.355785
  H     15.269352   15.575164   15.512976
  H     15.530471   16.459637   17.042422
  H     17.190267   17.698081   14.874157
  H     17.379107   19.407939   15.240034
  H     15.882676   18.572274   15.696147
  H     17.261819   20.115871   17.558513
  H     19.281178   18.044374   20.362035
  H     19.707545   16.338234   18.577488
  H     19.231055   14.075236   19.070409
  H     17.975957   12.397940   20.404744
  H     15.926104   13.088144   21.652558
  H     14.606721   14.756565   22.175958
  H     16.393719   17.118081   20.233814

 Total Charge           Charge          ....    0
 Multiplicity           Mult            ....    1
 Number of Electrons    NEL             ....  154
 Basis Dimension        Dim             ....  828

ORBITAL ENERGIES
----------------

  NO   OCC          E(Eh)            E(eV)
   0   2.0000     -91.887867     -2500.3960
   1   2.0000     -20.602419      -560.6203
   2   2.0000     -20.598824      -560.5225
   3   2.0000     -20.557305      -559.3927
   4   2.0000     -15.623286      -425.1312
   5   2.0000     -15.610576      -424.7854
   6   2.0000     -11.395969      -310.1001
   7   2.0000     -11.384848      -309.7975
   8   2.0000     -11.322563      -308.1026
   9   2.0000     -11.315962      -307.9230
  10   2.0000     -11.315371      -307.9069
  11   2.0000     -11.304155      -307.6017
  12   2.0000     -11.270108      -306.6752
  13   2.0000     -11.264268      -306.5163
  14   2.0000     -11.262568      -306.4701
  15   2.0000     -11.255704      -306.2833
  16   2.0000     -11.244634      -305.9820
  17   2.0000     -11.240731      -305.8758
  18   2.0000     -11.238222      -305.8076
  19   2.0000     -11.229295      -305.5646
  20   2.0000      -8.893005      -241.9910
  21   2.0000      -6.574602      -178.9040
  22   2.0000      -6.572568      -178.8487
  23   2.0000      -6.572001      -178.8332
  24   2.0000      -1.455337       -39.6017
  25   2.0000      -1.418631       -38.6029
  26   2.0000      -1.363069       -37.0910
  27   2.0000      -1.337566       -36.3970
  28   2.0000      -1.238003       -33.6878
  29   2.0000      -1.159821       -31.5603
  30   2.0000      -1.124537       -30.6002
  31   2.0000      -1.048163       -28.5220
  32   2.0000      -1.039993       -28.2996
  33   2.0000      -1.017560       -27.6892
  34   2.0000      -1.004062       -27.3219
  35   2.0000      -0.987717       -26.8772
  36   2.0000      -0.926922       -25.2228
  37   2.0000      -0.882158       -24.0047
  38   2.0000      -0.853253       -23.2182
  39   2.0000      -0.840284       -22.8653
  40   2.0000      -0.835937       -22.7470
  41   2.0000      -0.835312       -22.7300
  42   2.0000      -0.759120       -20.6567
  43   2.0000      -0.737504       -20.0685
  44   2.0000      -0.730563       -19.8796
  45   2.0000      -0.697333       -18.9754
  46   2.0000      -0.690335       -18.7850
  47   2.0000      -0.683829       -18.6079
  48   2.0000      -0.676574       -18.4105
  49   2.0000      -0.661904       -18.0113
  50   2.0000      -0.654493       -17.8097
  51   2.0000      -0.644849       -17.5472
  52   2.0000      -0.638390       -17.3715
  53   2.0000      -0.613610       -16.6972
  54   2.0000      -0.611210       -16.6319
  55   2.0000      -0.606023       -16.4907
  56   2.0000      -0.601956       -16.3800
  57   2.0000      -0.587345       -15.9825
  58   2.0000      -0.577122       -15.7043
  59   2.0000      -0.566374       -15.4118
  60   2.0000      -0.560801       -15.2602
  61   2.0000      -0.553973       -15.0744
  62   2.0000      -0.541266       -14.7286
  63   2.0000      -0.531409       -14.4604
  64   2.0000      -0.520363       -14.1598
  65   2.0000      -0.513242       -13.9660
  66   2.0000      -0.502037       -13.6611
  67   2.0000      -0.500999       -13.6329
  68   2.0000      -0.489377       -13.3166
  69   2.0000      -0.467715       -12.7272
  70   2.0000      -0.457202       -12.4411
  71   2.0000      -0.452489       -12.3129
  72   2.0000      -0.355392        -9.6707
  73   2.0000      -0.350474        -9.5369
  74   2.0000      -0.327758        -8.9187
  75   2.0000      -0.322982        -8.7888
  76   2.0000      -0.316087        -8.6012
  77   0.0000       0.091619         2.4931
  78   0.0000       0.099998         2.7211
  79   0.0000       0.107678         2.9301
  80   0.0000       0.127553         3.4709
  81   0.0000       0.128578         3.4988

MULLIKEN ATOMIC CHARGES
-----------------------
   0 C :   -0.266542
   1 C :    0.009177
   2 O :   -0.303761
   3 C :    0.380772
   4 O :   -0.365187
   5 C :   -0.139932
   6 C :    0.111582
   7 C :   -0.319327
   8 N :   -0.134858
   9 C :    0.206949
  10 S :   -0.444629
  11 N :   -0.214759
  12 C :    0.045981
  13 C :    0.034182
  14 C :   -0.186368
  15 C :   -0.132205
  16 C :   -0.272915
  17 C :    0.295213
  18 O :   -0.362401
  19 C :   -0.253189
  20 H :    0.117300
  21 H :    0.102850
  22 H :    0.087901
  23 H :    0.109817
  24 H :    0.086264
  25 H :    0.118717
  26 H :    0.132017
  27 H :    0.122788
  28 H :    0.194875
  29 H :    0.198498
  30 H :    0.167215
  31 H :    0.161657
  32 H :    0.162513
  33 H :    0.132415
  34 H :    0.241374
  35 H :    0.176016
Sum of atomic charges:    0.0000000

LOEWDIN ATOMIC CHARGES
----------------------
   0 C :    0.112684
   1 C :   -0.029294
   2 O :    0.324857
   3 C :   -0.423745
   4 O :    0.138798
   5 C :   -0.079229
   6 C :   -0.115179
   7 C :    0.123444
   8 N :    0.399376
   9 C :   -0.455312
  10 S :   -0.041007
  11 N :    0.397679
  12 C :   -0.041752
  13 C :   -0.040162
  14 C :    0.024406
  15 C :    0.045749
  16 C :   -0.001716
  17 C :   -0.194621
  18 O :    0.395145
  19 C :    0.026791
  20 H :   -0.022377
  21 H :   -0.025743
  22 H :   -0.026164
  23 H :   -0.034833
  24 H :   -0.039215
  25 H :   -0.010667
  26 H :   -0.010676
  27 H :   -0.017004
  28 H :   -0.059627
  29 H :   -0.063769
  30 H :   -0.002254
  31 H :   -0.022918
  32 H :   -0.018835
  33 H :   -0.035206
  34 H :   -0.153237
  35 H :   -0.024387

  Mayer bond orders larger than 0.100000
B(  0-C ,  1-C ) :   0.9804 B(  0-C , 20-H ) :   0.9712 B(  0-C , 21-H ) :   0.9817
B(  0-C , 22-H ) :   0.9760 B(  1-C ,  2-O ) :   0.9270 B(  1-C , 23-H ) :   0.9773
B(  1-C , 24-H ) :   0.9625 B(  2-O ,  3-C ) :   1.1193 B(  3-C ,  4-O ) :   2.1015
B(  3-C ,  5-C ) :   0.9257 B(  5-C ,  6-C ) :   1.7106 B(  5-C , 12-C ) :   0.9663
B(  6-C ,  7-C ) :   0.9435 B(  6-C ,  8-N ) :   1.1039 B(  7-C , 25-H ) :   0.9816
B(  7-C , 26-H ) :   0.9742 B(  7-C , 27-H ) :   0.9655 B(  8-N ,  9-C ) :   1.2006
B(  8-N , 28-H ) :   0.9536 B(  9-C , 10-S ) :   1.6067 B(  9-C , 11-N ) :   1.2848
B( 11-N , 12-C ) :   0.9949 B( 11-N , 29-H ) :   0.9483 B( 12-C , 13-C ) :   0.9472
B( 12-C , 30-H ) :   0.9979 B( 13-C , 14-C ) :   1.3837 B( 13-C , 19-C ) :   1.3524
B( 14-C , 15-C ) :   1.3979 B( 14-C , 31-H ) :   0.9644 B( 15-C , 16-C ) :   1.3591
B( 15-C , 32-H ) :   0.9707 B( 16-C , 17-C ) :   1.3326 B( 16-C , 33-H ) :   0.9852
B( 17-C , 18-O ) :   1.1052 B( 17-C , 19-C ) :   1.3702 B( 18-O , 34-H ) :   0.9794
B( 19-C , 35-H ) :   0.9559

MP2 TOTAL ENERGY:    -1274.320967807 Eh
FINAL SINGLE POINT ENERGY     -1274.320967806615

DIPOLE MOMENT
-------------
                                X             Y             Z
Electronic contribution:     10.51543       7.97401       6.30531
Nuclear contribution   :    -12.12513      -9.10775      -6.99491
                        -----------------------------------------
Total Dipole Moment    :     -1.60970      -1.13374      -0.68960
                        -----------------------------------------
Magnitude (a.u.)       :      2.08616
Magnitude (Debye)      :      5.30260

Rotational constants in cm-1:     0.012476     0.009106     0.006852
Rotational constants in MHz :   374.024713   272.987832   205.411962

                             ****ORCA TERMINATED NORMALLY****
TOTAL RUN TIME: 0 days 2 hours 10 minutes 34 seconds 0 msec
