                         Program Version 5.0.0 -  RELEASE  -
|  1> ! ri-mp2 cc-pvtz cc-pvtz/c TightSCF NoKeepInts
|  2>
|  3> %scf
|  4>   MaxCore 4096
|  5> end
|  6> *xyz  0  1
|  7>     C       15.9655540   13.4746461   15.2813816
|  8>     C       15.4629737   14.4239330   16.3818794
|  9>     O       16.5447093   15.3170556   16.7033237
| 10>     C       16.3453169   16.6697669   16.7255698
| 11>     O       15.3968030   17.2020641   16.1745739
| 12>     C       17.3405155   17.3857100   17.5968884
| 13>     C       17.3585365   18.7370322   17.7229303
| 14>     C       16.4352305   19.7325200   17.0536100
| 15>     N       18.3315408   19.3545280   18.5146185
| 16>     C       19.3762070   18.7079152   19.1193182
| 17>     S       20.5423485   19.5256293   19.9603554
| 18>     N       19.4086747   17.3429326   18.9895874
| 19>     C       18.3511036   16.5228593   18.3707687
| 20>     C       17.6702996   15.6687227   19.4368507
| 21>     C       17.8013532   14.2672704   19.4193630
| 22>     C       17.1719194   13.4778867   20.3965014
| 23>     C       16.4075336   14.0945755   21.4016689
| 24>     C       16.2784564   15.4901046   21.4247037
| 25>     O       15.5418067   16.0884686   22.3943938
| 26>     C       16.9053534   16.2729409   20.4503923
| 27>     H       15.1847581   12.7541843   15.0090494
| 28>     H       16.8456922   12.9161919   15.6232053
| 29>     H       16.2397972   14.0395111   14.3815487
| 30>     H       14.5755715   14.9592591   16.0182176
| 31>     H       15.1759578   13.8519147   17.2738592
| 32>     H       15.3967569   19.5642375   17.3665949
| 33>     H       16.4701770   19.6191794   15.9626139
| 34>     H       16.6865155   20.7741374   17.2853031
| 35>     H       18.3243014   20.3564926   18.6198424
| 36>     H       20.1702910   16.8906791   19.4787155
| 37>     H       18.8392526   15.8533088   17.6486338
| 38>     H       18.3870893   13.7878024   18.6395967
| 39>     H       17.2777844   12.3946998   20.3732677
| 40>     H       15.9201064   13.4894821   22.1590129
| 41>     H       15.2183028   15.3927274   22.9860508
| 42>     H       16.7984096   17.3516307   20.4898088
| 43> *
| 44>
| 45>                          ****END OF INPUT****

CARTESIAN COORDINATES (ANGSTROEM)
---------------------------------
  C     15.965554   13.474646   15.281382
  C     15.462974   14.423933   16.381879
  O     16.544709   15.317056   16.703324
  C     16.345317   16.669767   16.725570
  O     15.396803   17.202064   16.174574
  C     17.340515   17.385710   17.596888
  C     17.358536   18.737032   17.722930
  C     16.435230   19.732520   17.053610
  N     18.331541   19.354528   18.514619
  C     19.376207   18.707915   19.119318
  S     20.542348   19.525629   19.960355
  N     19.408675   17.342933   18.989587
  C     18.351104   16.522859   18.370769
  C     17.670300   15.668723   19.436851
  C     17.801353   14.267270   19.419363
  C     17.171919   13.477887   20.396501
  C     16.407534   14.094575   21.401669
  C     16.278456   15.490105   21.424704
  O     15.541807   16.088469   22.394394
  C     16.905353   16.272941   20.450392
  H     15.184758   12.754184   15.009049
  H     16.845692   12.916192   15.623205
  H     16.239797   14.039511   14.381549
  H     14.575571   14.959259   16.018218
  H     15.175958   13.851915   17.273859
  H     15.396757   19.564238   17.366595
  H     16.470177   19.619179   15.962614
  H     16.686515   20.774137   17.285303
  H     18.324301   20.356493   18.619842
  H     20.170291   16.890679   19.478715
  H     18.839253   15.853309   17.648634
  H     18.387089   13.787802   18.639597
  H     17.277784   12.394700   20.373268
  H     15.920106   13.489482   22.159013
  H     15.218303   15.392727   22.986051
  H     16.798410   17.351631   20.489809

 Total Charge           Charge          ....    0
 Multiplicity           Mult            ....    1
 Number of Electrons    NEL             ....  154
 Basis Dimension        Dim             ....  828

ORBITAL ENERGIES
----------------

  NO   OCC          E(Eh)            E(eV)
   0   2.0000     -91.888876     -2500.4234
   1   2.0000     -20.600283      -560.5622
   2   2.0000     -20.596296      -560.4537
   3   2.0000     -20.541802      -558.9709
   4   2.0000     -15.629042      -425.2879
   5   2.0000     -15.608218      -424.7212
   6   2.0000     -11.395279      -310.0813
   7   2.0000     -11.383971      -309.7736
   8   2.0000     -11.335859      -308.4644
   9   2.0000     -11.313520      -307.8565
  10   2.0000     -11.308949      -307.7321
  11   2.0000     -11.294837      -307.3481
  12   2.0000     -11.259485      -306.3862
  13   2.0000     -11.258709      -306.3651
  14   2.0000     -11.255084      -306.2664
  15   2.0000     -11.251919      -306.1803
  16   2.0000     -11.242869      -305.9340
  17   2.0000     -11.238267      -305.8088
  18   2.0000     -11.238083      -305.8038
  19   2.0000     -11.228767      -305.5503
  20   2.0000      -8.893936      -242.0163
  21   2.0000      -6.575510      -178.9287
  22   2.0000      -6.573506      -178.8742
  23   2.0000      -6.572918      -178.8582
  24   2.0000      -1.450653       -39.4743
  25   2.0000      -1.415950       -38.5300
  26   2.0000      -1.354836       -36.8670
  27   2.0000      -1.339991       -36.4630
  28   2.0000      -1.238441       -33.6997
  29   2.0000      -1.157423       -31.4951
  30   2.0000      -1.120268       -30.4840
  31   2.0000      -1.043066       -28.3833
  32   2.0000      -1.039140       -28.2764
  33   2.0000      -1.014905       -27.6170
  34   2.0000      -0.995594       -27.0915
  35   2.0000      -0.984184       -26.7810
  36   2.0000      -0.922414       -25.1002
  37   2.0000      -0.889219       -24.1969
  38   2.0000      -0.846786       -23.0422
  39   2.0000      -0.837485       -22.7891
  40   2.0000      -0.833858       -22.6904
  41   2.0000      -0.818384       -22.2694
  42   2.0000      -0.763799       -20.7840
  43   2.0000      -0.732427       -19.9304
  44   2.0000      -0.722657       -19.6645
  45   2.0000      -0.695341       -18.9212
  46   2.0000      -0.687381       -18.7046
  47   2.0000      -0.679917       -18.5015
  48   2.0000      -0.673267       -18.3205
  49   2.0000      -0.656152       -17.8548
  50   2.0000      -0.646268       -17.5859
  51   2.0000      -0.643580       -17.5127
  52   2.0000      -0.632600       -17.2139
  53   2.0000      -0.610325       -16.6078
  54   2.0000      -0.606506       -16.5039
  55   2.0000      -0.599377       -16.3099
  56   2.0000      -0.598332       -16.2814
  57   2.0000      -0.577990       -15.7279
  58   2.0000      -0.570783       -15.5318
  59   2.0000      -0.566951       -15.4275
  60   2.0000      -0.563142       -15.3239
  61   2.0000      -0.540117       -14.6973
  62   2.0000      -0.538169       -14.6443
  63   2.0000      -0.529642       -14.4123
  64   2.0000      -0.524869       -14.2824
  65   2.0000      -0.513415       -13.9707
  66   2.0000      -0.501452       -13.6452
  67   2.0000      -0.496480       -13.5099
  68   2.0000      -0.486319       -13.2334
  69   2.0000      -0.464616       -12.6428
  70   2.0000      -0.455764       -12.4020
  71   2.0000      -0.448019       -12.1912
  72   2.0000      -0.354262        -9.6400
  73   2.0000      -0.349206        -9.5024
  74   2.0000      -0.328209        -8.9310
  75   2.0000      -0.321245        -8.7415
  76   2.0000      -0.315995        -8.5987
  77   0.0000       0.075934         2.0663
  78   0.0000       0.106497         2.8979
  79   0.0000       0.123944         3.3727
  80   0.0000       0.131992         3.5917
  81   0.0000       0.135738         3.6936

MULLIKEN ATOMIC CHARGES
-----------------------
   0 C :   -0.262954
   1 C :    0.013310
   2 O :   -0.357025
   3 C :    0.473658
   4 O :   -0.432329
   5 C :   -0.230226
   6 C :    0.151339
   7 C :   -0.273333
   8 N :   -0.121080
   9 C :    0.210396
  10 S :   -0.439633
  11 N :   -0.203644
  12 C :    0.053533
  13 C :    0.068019
  14 C :   -0.190164
  15 C :   -0.132150
  16 C :   -0.279589
  17 C :    0.316296
  18 O :   -0.356422
  19 C :   -0.268627
  20 H :    0.089696
  21 H :    0.090041
  22 H :    0.098804
  23 H :    0.126272
  24 H :    0.107183
  25 H :    0.132572
  26 H :    0.130431
  27 H :    0.094938
  28 H :    0.197518
  29 H :    0.194539
  30 H :    0.150538
  31 H :    0.151623
  32 H :    0.160891
  33 H :    0.130053
  34 H :    0.240602
  35 H :    0.164925
Sum of atomic charges:   -0.0000000

LOEWDIN ATOMIC CHARGES
----------------------
   0 C :    0.104868
   1 C :   -0.012361
   2 O :    0.309572
   3 C :   -0.414105
   4 O :    0.096403
   5 C :   -0.095011
   6 C :   -0.058823
   7 C :    0.131533
   8 N :    0.406561
   9 C :   -0.456633
  10 S :   -0.035304
  11 N :    0.396494
  12 C :   -0.052561
  13 C :   -0.038616
  14 C :    0.014187
  15 C :    0.038239
  16 C :   -0.002093
  17 C :   -0.189433
  18 O :    0.395265
  19 C :    0.031644
  20 H :   -0.026036
  21 H :   -0.030358
  22 H :   -0.025329
  23 H :   -0.028124
  24 H :   -0.029943
  25 H :   -0.004440
  26 H :   -0.004037
  27 H :   -0.023432
  28 H :   -0.057563
  29 H :   -0.064563
  30 H :   -0.010909
  31 H :   -0.030414
  32 H :   -0.021505
  33 H :   -0.035637
  34 H :   -0.153944
  35 H :   -0.023591

  Mayer bond orders larger than 0.100000
B(  0-C ,  1-C ) :   0.9745 B(  0-C , 20-H ) :   0.9756 B(  0-C , 21-H ) :   0.9795
B(  0-C , 22-H ) :   0.9788 B(  1-C ,  2-O ) :   0.8774 B(  1-C , 23-H ) :   0.9743
B(  1-C , 24-H ) :   0.9757 B(  2-O ,  3-C ) :   1.1659 B(  3-C ,  4-O ) :   1.9786
B(  3-C ,  5-C ) :   1.0562 B(  5-C ,  6-C ) :   1.6560 B(  5-C , 12-C ) :   0.9720
B(  6-C ,  7-C ) :   0.9671 B(  6-C ,  8-N ) :   1.1640 B(  7-C , 25-H ) :   0.9599
B(  7-C , 26-H ) :   0.9607 B(  7-C , 27-H ) :   0.9904 B(  8-N ,  9-C ) :   1.1828
B(  8-N , 28-H ) :   0.9479 B(  9-C , 10-S ) :   1.6080 B(  9-C , 11-N ) :   1.3046
B( 11-N , 12-C ) :   0.9893 B( 11-N , 29-H ) :   0.9518 B( 12-C , 13-C ) :   0.9350
B( 12-C , 30-H ) :   1.0028 B( 13-C , 14-C ) :   1.3529 B( 13-C , 19-C ) :   1.3836
B( 14-C , 15-C ) :   1.3902 B( 14-C , 31-H ) :   0.9715 B( 15-C , 16-C ) :   1.3628
B( 15-C , 32-H ) :   0.9706 B( 16-C , 17-C ) :   1.3316 B( 16-C , 33-H ) :   0.9851
B( 17-C , 18-O ) :   1.1104 B( 17-C , 19-C ) :   1.3723 B( 18-O , 34-H ) :   0.9799
B( 19-C , 35-H ) :   0.9581

MP2 TOTAL ENERGY:    -1274.348462860 Eh
FINAL SINGLE POINT ENERGY     -1274.348462860142

DIPOLE MOMENT
-------------
                                X             Y             Z
Electronic contribution:      9.11215      10.50684       9.31637
Nuclear contribution   :    -10.29271     -12.11402      -9.65251
                        -----------------------------------------
Total Dipole Moment    :     -1.18056      -1.60719      -0.33614
                        -----------------------------------------
Magnitude (a.u.)       :      2.02232
Magnitude (Debye)      :      5.14033

Rotational constants in cm-1:     0.011361     0.008559     0.006105
Rotational constants in MHz :   340.603239   256.602946   183.030079

                             ****ORCA TERMINATED NORMALLY****
TOTAL RUN TIME: 0 days 2 hours 3 minutes 3 seconds 234 msec
