                         Program Version 5.0.0 -  RELEASE  -
|  1> ! ri-mp2 cc-pvtz cc-pvtz/c TightSCF NoKeepInts
|  2>
|  3> %scf
|  4>   MaxCore 4096
|  5> end
|  6> *xyz  0  1
|  7>     C       15.3244515   13.5433628   15.9871742
|  8>     C       15.8053413   14.6400137   16.9512981
|  9>     O       16.9524108   15.2658273   16.3461713
| 10>     C       16.9378203   16.6239114   16.2242123
| 11>     O       16.1571863   17.1448455   15.4482998
| 12>     C       17.5659907   17.3488299   17.3859661
| 13>     C       17.4019033   18.6829895   17.5854731
| 14>     C       16.5395248   19.6367569   16.7862025
| 15>     N       18.1177880   19.3319982   18.5965827
| 16>     C       19.1575618   18.7748475   19.2924575
| 17>     S       20.0834408   19.6559717   20.3421791
| 18>     N       19.4034349   17.4461743   19.0572004
| 19>     C       18.5050218   16.5500612   18.3077193
| 20>     C       17.7681928   15.6578931   19.3003763
| 21>     C       18.2063229   14.3381591   19.5204495
| 22>     C       17.5383895   13.5060852   20.4345699
| 23>     C       16.4278063   13.9991624   21.1403917
| 24>     C       15.9971921   15.3167635   20.9343086
| 25>     O       14.9270405   15.7970794   21.6156197
| 26>     C       16.6620994   16.1422084   20.0223857
| 27>     H       14.4482763   13.0266559   16.3969754
| 28>     H       16.1151668   12.8019378   15.8185152
| 29>     H       15.0454161   13.9789306   15.0192049
| 30>     H       14.9955255   15.3646709   17.1157386
| 31>     H       16.0664008   14.1863253   17.9135702
| 32>     H       15.4942855   19.3022204   16.7826147
| 33>     H       16.8736325   19.6753390   15.7414070
| 34>     H       16.5559925   20.6610034   17.1767139
| 35>     H       17.9587732   20.3120629   18.7681865
| 36>     H       20.1617067   17.0562668   19.6020176
| 37>     H       19.1293654   15.9096067   17.6684473
| 38>     H       19.0649844   13.9535648   18.9761139
| 39>     H       17.8832048   12.4858470   20.5956269
| 40>     H       15.9097927   13.3605255   21.8486177
| 41>     H       14.6472201   15.1120929   22.2417779
| 42>     H       16.3183369   17.1620090   19.8894346
| 43> *
| 44>
| 45>                          ****END OF INPUT****

CARTESIAN COORDINATES (ANGSTROEM)
---------------------------------
  C     15.324452   13.543363   15.987174
  C     15.805341   14.640014   16.951298
  O     16.952411   15.265827   16.346171
  C     16.937820   16.623911   16.224212
  O     16.157186   17.144845   15.448300
  C     17.565991   17.348830   17.385966
  C     17.401903   18.682990   17.585473
  C     16.539525   19.636757   16.786203
  N     18.117788   19.331998   18.596583
  C     19.157562   18.774847   19.292457
  S     20.083441   19.655972   20.342179
  N     19.403435   17.446174   19.057200
  C     18.505022   16.550061   18.307719
  C     17.768193   15.657893   19.300376
  C     18.206323   14.338159   19.520449
  C     17.538390   13.506085   20.434570
  C     16.427806   13.999162   21.140392
  C     15.997192   15.316764   20.934309
  O     14.927041   15.797079   21.615620
  C     16.662099   16.142208   20.022386
  H     14.448276   13.026656   16.396975
  H     16.115167   12.801938   15.818515
  H     15.045416   13.978931   15.019205
  H     14.995525   15.364671   17.115739
  H     16.066401   14.186325   17.913570
  H     15.494285   19.302220   16.782615
  H     16.873632   19.675339   15.741407
  H     16.555992   20.661003   17.176714
  H     17.958773   20.312063   18.768186
  H     20.161707   17.056267   19.602018
  H     19.129365   15.909607   17.668447
  H     19.064984   13.953565   18.976114
  H     17.883205   12.485847   20.595627
  H     15.909793   13.360525   21.848618
  H     14.647220   15.112093   22.241778
  H     16.318337   17.162009   19.889435

 Total Charge           Charge          ....    0
 Multiplicity           Mult            ....    1
 Number of Electrons    NEL             ....  154
 Basis Dimension        Dim             ....  828

ORBITAL ENERGIES
----------------

  NO   OCC          E(Eh)            E(eV)
   0   2.0000     -91.891079     -2500.4834
   1   2.0000     -20.602534      -560.6235
   2   2.0000     -20.580787      -560.0317
   3   2.0000     -20.547813      -559.1344
   4   2.0000     -15.631808      -425.3631
   5   2.0000     -15.610066      -424.7715
   6   2.0000     -11.392908      -310.0168
   7   2.0000     -11.385696      -309.8205
   8   2.0000     -11.338417      -308.5340
   9   2.0000     -11.320355      -308.0425
  10   2.0000     -11.312400      -307.8261
  11   2.0000     -11.292969      -307.2973
  12   2.0000     -11.264819      -306.5313
  13   2.0000     -11.261826      -306.4499
  14   2.0000     -11.260216      -306.4061
  15   2.0000     -11.253963      -306.2359
  16   2.0000     -11.249159      -306.1052
  17   2.0000     -11.243658      -305.9555
  18   2.0000     -11.243458      -305.9500
  19   2.0000     -11.220715      -305.3312
  20   2.0000      -8.896107      -242.0754
  21   2.0000      -6.577672      -178.9876
  22   2.0000      -6.575677      -178.9333
  23   2.0000      -6.575082      -178.9171
  24   2.0000      -1.448189       -39.4072
  25   2.0000      -1.422174       -38.6993
  26   2.0000      -1.351827       -36.7851
  27   2.0000      -1.342895       -36.5420
  28   2.0000      -1.241295       -33.7774
  29   2.0000      -1.162965       -31.6459
  30   2.0000      -1.121855       -30.5272
  31   2.0000      -1.046734       -28.4831
  32   2.0000      -1.031878       -28.0788
  33   2.0000      -1.021263       -27.7900
  34   2.0000      -0.998386       -27.1675
  35   2.0000      -0.986013       -26.8308
  36   2.0000      -0.926102       -25.2005
  37   2.0000      -0.877627       -23.8814
  38   2.0000      -0.850197       -23.1350
  39   2.0000      -0.843565       -22.9546
  40   2.0000      -0.839057       -22.8319
  41   2.0000      -0.829417       -22.5696
  42   2.0000      -0.759782       -20.6747
  43   2.0000      -0.736536       -20.0422
  44   2.0000      -0.723784       -19.6952
  45   2.0000      -0.701750       -19.0956
  46   2.0000      -0.692256       -18.8372
  47   2.0000      -0.678146       -18.4533
  48   2.0000      -0.671152       -18.2630
  49   2.0000      -0.657809       -17.8999
  50   2.0000      -0.649311       -17.6687
  51   2.0000      -0.646139       -17.5823
  52   2.0000      -0.636110       -17.3094
  53   2.0000      -0.613620       -16.6975
  54   2.0000      -0.609377       -16.5820
  55   2.0000      -0.603129       -16.4120
  56   2.0000      -0.600291       -16.3347
  57   2.0000      -0.582833       -15.8597
  58   2.0000      -0.573197       -15.5975
  59   2.0000      -0.566682       -15.4202
  60   2.0000      -0.564034       -15.3482
  61   2.0000      -0.539790       -14.6884
  62   2.0000      -0.535871       -14.5818
  63   2.0000      -0.530655       -14.4399
  64   2.0000      -0.517472       -14.0811
  65   2.0000      -0.509435       -13.8624
  66   2.0000      -0.505498       -13.7553
  67   2.0000      -0.496556       -13.5120
  68   2.0000      -0.489543       -13.3211
  69   2.0000      -0.465130       -12.6568
  70   2.0000      -0.451727       -12.2921
  71   2.0000      -0.444547       -12.0967
  72   2.0000      -0.358359        -9.7515
  73   2.0000      -0.355357        -9.6697
  74   2.0000      -0.331505        -9.0207
  75   2.0000      -0.327267        -8.9054
  76   2.0000      -0.318205        -8.6588
  77   0.0000       0.068231         1.8567
  78   0.0000       0.101340         2.7576
  79   0.0000       0.121264         3.2998
  80   0.0000       0.127033         3.4568
  81   0.0000       0.131379         3.5750

MULLIKEN ATOMIC CHARGES
-----------------------
   0 C :   -0.259463
   1 C :    0.030568
   2 O :   -0.386904
   3 C :    0.495288
   4 O :   -0.405719
   5 C :   -0.279171
   6 C :    0.156351
   7 C :   -0.268532
   8 N :   -0.123608
   9 C :    0.215768
  10 S :   -0.437432
  11 N :   -0.204400
  12 C :    0.054933
  13 C :    0.023915
  14 C :   -0.179725
  15 C :   -0.134781
  16 C :   -0.273918
  17 C :    0.300998
  18 O :   -0.355923
  19 C :   -0.222155
  20 H :    0.084373
  21 H :    0.091964
  22 H :    0.107040
  23 H :    0.094278
  24 H :    0.119112
  25 H :    0.129106
  26 H :    0.134861
  27 H :    0.094941
  28 H :    0.198474
  29 H :    0.192888
  30 H :    0.149490
  31 H :    0.150175
  32 H :    0.162896
  33 H :    0.133617
  34 H :    0.242304
  35 H :    0.168389
Sum of atomic charges:    0.0000000

LOEWDIN ATOMIC CHARGES
----------------------
   0 C :    0.107156
   1 C :   -0.015927
   2 O :    0.287439
   3 C :   -0.423084
   4 O :    0.119056
   5 C :   -0.099203
   6 C :   -0.057466
   7 C :    0.130912
   8 N :    0.407550
   9 C :   -0.455677
  10 S :   -0.032741
  11 N :    0.396067
  12 C :   -0.053329
  13 C :   -0.037206
  14 C :    0.011122
  15 C :    0.041839
  16 C :   -0.001497
  17 C :   -0.189853
  18 O :    0.396587
  19 C :    0.031707
  20 H :   -0.028789
  21 H :   -0.028308
  22 H :   -0.023275
  23 H :   -0.029959
  24 H :   -0.030846
  25 H :   -0.005513
  26 H :   -0.002950
  27 H :   -0.023180
  28 H :   -0.057279
  29 H :   -0.065718
  30 H :   -0.006806
  31 H :   -0.029540
  32 H :   -0.019378
  33 H :   -0.034192
  34 H :   -0.152283
  35 H :   -0.025439

  Mayer bond orders larger than 0.100000
B(  0-C ,  1-C ) :   0.9870 B(  0-C , 20-H ) :   0.9769 B(  0-C , 21-H ) :   0.9797
B(  0-C , 22-H ) :   0.9795 B(  1-C ,  2-O ) :   0.8688 B(  1-C , 23-H ) :   0.9717
B(  1-C , 24-H ) :   0.9680 B(  2-O ,  3-C ) :   1.0979 B(  3-C ,  4-O ) :   2.0138
B(  3-C ,  5-C ) :   1.0686 B(  5-C ,  6-C ) :   1.6468 B(  5-C , 12-C ) :   0.9706
B(  6-C ,  7-C ) :   0.9701 B(  6-C ,  8-N ) :   1.1583 B(  7-C , 25-H ) :   0.9624
B(  7-C , 26-H ) :   0.9574 B(  7-C , 27-H ) :   0.9893 B(  8-N ,  9-C ) :   1.1800
B(  8-N , 28-H ) :   0.9477 B(  9-C , 10-S ) :   1.6091 B(  9-C , 11-N ) :   1.3051
B( 11-N , 12-C ) :   0.9626 B( 11-N , 29-H ) :   0.9536 B( 12-C , 13-C ) :   0.9521
B( 12-C , 30-H ) :   1.0016 B( 13-C , 14-C ) :   1.3472 B( 13-C , 19-C ) :   1.3741
B( 14-C , 15-C ) :   1.3965 B( 14-C , 31-H ) :   0.9738 B( 15-C , 16-C ) :   1.3633
B( 15-C , 32-H ) :   0.9703 B( 16-C , 17-C ) :   1.3278 B( 16-C , 33-H ) :   0.9839
B( 17-C , 18-O ) :   1.1154 B( 17-C , 19-C ) :   1.3774 B( 18-O , 34-H ) :   0.9786
B( 19-C , 35-H ) :   0.9566

MP2 TOTAL ENERGY:    -1274.328107915 Eh
FINAL SINGLE POINT ENERGY     -1274.328107914832

DIPOLE MOMENT
-------------
                                X             Y             Z
Electronic contribution:     10.13303      10.21305       6.63383
Nuclear contribution   :    -11.15773     -11.65206      -6.34871
                        -----------------------------------------
Total Dipole Moment    :     -1.02470      -1.43902       0.28512
                        -----------------------------------------
Magnitude (a.u.)       :      1.78943
Magnitude (Debye)      :      4.54838

Rotational constants in cm-1:     0.012078     0.008920     0.006346
Rotational constants in MHz :   362.081524   267.407171   190.260126

                             ****ORCA TERMINATED NORMALLY****
TOTAL RUN TIME: 0 days 2 hours 18 minutes 0 seconds 865 msec
