                         Program Version 5.0.0 -  RELEASE  -
|  1> ! ri-mp2 cc-pvtz cc-pvtz/c TightSCF NoKeepInts
|  2>
|  3> %scf
|  4>   MaxCore 4096
|  5> end
|  6> *xyz  0  1
|  7>     C       15.9923269   13.2007246   17.3527099
|  8>     C       15.9943898   14.2837658   16.2621088
|  9>     O       17.1877478   15.0778990   16.4022575
| 10>     C       17.0933143   16.4169581   16.1503194
| 11>     O       16.3616715   16.8362887   15.2697437
| 12>     C       17.6435929   17.2709025   17.2599180
| 13>     C       17.5030114   18.6219714   17.2764217
| 14>     C       16.7635409   19.4836091   16.2749478
| 15>     N       18.1233029   19.3775904   18.2761839
| 16>     C       19.0405956   18.8867810   19.1666164
| 17>     S       19.8610787   19.8708546   20.2129033
| 18>     N       19.2588156   17.5332602   19.1318425
| 19>     C       18.4410054   16.5697641   18.3732950
| 20>     C       17.5676893   15.7923253   19.3535470
| 21>     C       18.0325716   14.5765545   19.8901276
| 22>     C       17.2640159   13.8668004   20.8283211
| 23>     C       16.0200096   14.3776058   21.2360349
| 24>     C       15.5570652   15.5915988   20.7103621
| 25>     O       14.3588580   16.0901338   21.1059210
| 26>     C       16.3251589   16.2974286   19.7790921
| 27>     H       16.9421532   12.6520857   17.3611023
| 28>     H       15.1814485   12.4835218   17.1778485
| 29>     H       15.8365097   13.6486136   18.3395461
| 30>     H       15.9688972   13.8258692   15.2646327
| 31>     H       15.0928306   14.9012152   16.3801243
| 32>     H       15.7052211   19.1969803   16.2268567
| 33>     H       17.1835787   19.3537613   15.2693674
| 34>     H       16.8054966   20.5525689   16.5145846
| 35>     H       17.9815985   20.3745786   18.3067678
| 36>     H       19.9194271   17.1968491   19.8201943
| 37>     H       19.1269516   15.8587148   17.8912527
| 38>     H       18.9961317   14.1812722   19.5799638
| 39>     H       17.6333203   12.9276857   21.2369171
| 40>     H       15.4228963   13.8337577   21.9606699
| 41>     H       14.0072675   15.4974582   21.7873164
| 42>     H       15.9535092   17.2442509   19.4041817
| 43> *
| 44>
| 45>                          ****END OF INPUT****

CARTESIAN COORDINATES (ANGSTROEM)
---------------------------------
  C     15.992327   13.200725   17.352710
  C     15.994390   14.283766   16.262109
  O     17.187748   15.077899   16.402258
  C     17.093314   16.416958   16.150319
  O     16.361671   16.836289   15.269744
  C     17.643593   17.270902   17.259918
  C     17.503011   18.621971   17.276422
  C     16.763541   19.483609   16.274948
  N     18.123303   19.377590   18.276184
  C     19.040596   18.886781   19.166616
  S     19.861079   19.870855   20.212903
  N     19.258816   17.533260   19.131843
  C     18.441005   16.569764   18.373295
  C     17.567689   15.792325   19.353547
  C     18.032572   14.576555   19.890128
  C     17.264016   13.866800   20.828321
  C     16.020010   14.377606   21.236035
  C     15.557065   15.591599   20.710362
  O     14.358858   16.090134   21.105921
  C     16.325159   16.297429   19.779092
  H     16.942153   12.652086   17.361102
  H     15.181449   12.483522   17.177848
  H     15.836510   13.648614   18.339546
  H     15.968897   13.825869   15.264633
  H     15.092831   14.901215   16.380124
  H     15.705221   19.196980   16.226857
  H     17.183579   19.353761   15.269367
  H     16.805497   20.552569   16.514585
  H     17.981598   20.374579   18.306768
  H     19.919427   17.196849   19.820194
  H     19.126952   15.858715   17.891253
  H     18.996132   14.181272   19.579964
  H     17.633320   12.927686   21.236917
  H     15.422896   13.833758   21.960670
  H     14.007267   15.497458   21.787316
  H     15.953509   17.244251   19.404182

 Total Charge           Charge          ....    0
 Multiplicity           Mult            ....    1
 Number of Electrons    NEL             ....  154
 Basis Dimension        Dim             ....  828

ORBITAL ENERGIES
----------------

  NO   OCC          E(Eh)            E(eV)
   0   2.0000     -91.889628     -2500.4439
   1   2.0000     -20.600416      -560.5658
   2   2.0000     -20.592830      -560.3594
   3   2.0000     -20.543430      -559.0152
   4   2.0000     -15.630344      -425.3233
   5   2.0000     -15.608721      -424.7349
   6   2.0000     -11.393208      -310.0250
   7   2.0000     -11.384455      -309.7868
   8   2.0000     -11.337311      -308.5039
   9   2.0000     -11.317877      -307.9751
  10   2.0000     -11.310596      -307.7770
  11   2.0000     -11.294061      -307.3270
  12   2.0000     -11.263238      -306.4883
  13   2.0000     -11.259789      -306.3944
  14   2.0000     -11.258783      -306.3671
  15   2.0000     -11.252901      -306.2070
  16   2.0000     -11.245995      -306.0191
  17   2.0000     -11.240989      -305.8829
  18   2.0000     -11.240609      -305.8725
  19   2.0000     -11.222259      -305.3732
  20   2.0000      -8.894668      -242.0362
  21   2.0000      -6.576238      -178.9485
  22   2.0000      -6.574239      -178.8941
  23   2.0000      -6.573649      -178.8781
  24   2.0000      -1.450109       -39.4595
  25   2.0000      -1.420052       -38.6416
  26   2.0000      -1.352214       -36.7956
  27   2.0000      -1.341369       -36.5005
  28   2.0000      -1.239827       -33.7374
  29   2.0000      -1.160303       -31.5735
  30   2.0000      -1.121101       -30.5067
  31   2.0000      -1.044476       -28.4216
  32   2.0000      -1.035183       -28.1688
  33   2.0000      -1.018586       -27.7171
  34   2.0000      -0.997274       -27.1372
  35   2.0000      -0.984912       -26.8008
  36   2.0000      -0.924311       -25.1518
  37   2.0000      -0.884613       -24.0715
  38   2.0000      -0.848302       -23.0835
  39   2.0000      -0.840734       -22.8775
  40   2.0000      -0.835812       -22.7436
  41   2.0000      -0.818519       -22.2730
  42   2.0000      -0.762911       -20.7599
  43   2.0000      -0.734754       -19.9937
  44   2.0000      -0.721197       -19.6248
  45   2.0000      -0.698648       -19.0112
  46   2.0000      -0.688204       -18.7270
  47   2.0000      -0.678921       -18.4744
  48   2.0000      -0.674445       -18.3526
  49   2.0000      -0.665428       -18.1072
  50   2.0000      -0.647928       -17.6310
  51   2.0000      -0.645629       -17.5684
  52   2.0000      -0.638575       -17.3765
  53   2.0000      -0.611598       -16.6424
  54   2.0000      -0.603721       -16.4281
  55   2.0000      -0.600569       -16.3423
  56   2.0000      -0.590170       -16.0593
  57   2.0000      -0.579941       -15.7810
  58   2.0000      -0.571987       -15.5646
  59   2.0000      -0.566606       -15.4181
  60   2.0000      -0.558006       -15.1841
  61   2.0000      -0.551324       -15.0023
  62   2.0000      -0.537600       -14.6289
  63   2.0000      -0.528722       -14.3873
  64   2.0000      -0.518853       -14.1187
  65   2.0000      -0.512759       -13.9529
  66   2.0000      -0.504030       -13.7154
  67   2.0000      -0.497247       -13.5308
  68   2.0000      -0.484866       -13.1939
  69   2.0000      -0.463471       -12.6117
  70   2.0000      -0.453787       -12.3482
  71   2.0000      -0.445827       -12.1316
  72   2.0000      -0.356424        -9.6988
  73   2.0000      -0.353261        -9.6127
  74   2.0000      -0.329676        -8.9709
  75   2.0000      -0.324772        -8.8375
  76   2.0000      -0.317171        -8.6307
  77   0.0000       0.073361         1.9962
  78   0.0000       0.104204         2.8355
  79   0.0000       0.121725         3.3123
  80   0.0000       0.128999         3.5102
  81   0.0000       0.132362         3.6018

MULLIKEN ATOMIC CHARGES
-----------------------
   0 C :   -0.283717
   1 C :    0.044387
   2 O :   -0.366556
   3 C :    0.465294
   4 O :   -0.419926
   5 C :   -0.259124
   6 C :    0.160086
   7 C :   -0.267657
   8 N :   -0.124297
   9 C :    0.219551
  10 S :   -0.441138
  11 N :   -0.211353
  12 C :    0.063651
  13 C :    0.075214
  14 C :   -0.206348
  15 C :   -0.127056
  16 C :   -0.277796
  17 C :    0.306789
  18 O :   -0.358319
  19 C :   -0.248241
  20 H :    0.094299
  21 H :    0.105542
  22 H :    0.106074
  23 H :    0.108044
  24 H :    0.089930
  25 H :    0.130179
  26 H :    0.133175
  27 H :    0.095193
  28 H :    0.197851
  29 H :    0.193815
  30 H :    0.148320
  31 H :    0.148887
  32 H :    0.160816
  33 H :    0.131854
  34 H :    0.241963
  35 H :    0.170614
Sum of atomic charges:    0.0000000

LOEWDIN ATOMIC CHARGES
----------------------
   0 C :    0.106846
   1 C :   -0.015084
   2 O :    0.295486
   3 C :   -0.418148
   4 O :    0.105690
   5 C :   -0.096830
   6 C :   -0.057557
   7 C :    0.131144
   8 N :    0.407883
   9 C :   -0.454123
  10 S :   -0.035037
  11 N :    0.395988
  12 C :   -0.052966
  13 C :   -0.033942
  14 C :    0.012885
  15 C :    0.043918
  16 C :   -0.002919
  17 C :   -0.190297
  18 O :    0.396189
  19 C :    0.028447
  20 H :   -0.028458
  21 H :   -0.025871
  22 H :   -0.026330
  23 H :   -0.029763
  24 H :   -0.027925
  25 H :   -0.005342
  26 H :   -0.003287
  27 H :   -0.023271
  28 H :   -0.057414
  29 H :   -0.066316
  30 H :   -0.008039
  31 H :   -0.031073
  32 H :   -0.020161
  33 H :   -0.035133
  34 H :   -0.152856
  35 H :   -0.026335

  Mayer bond orders larger than 0.100000
B(  0-C ,  1-C ) :   0.9721 B(  0-C , 20-H ) :   0.9753 B(  0-C , 21-H ) :   0.9800
B(  0-C , 22-H ) :   0.9741 B(  1-C ,  2-O ) :   0.8910 B(  1-C , 23-H ) :   0.9883
B(  1-C , 24-H ) :   0.9707 B(  2-O ,  3-C ) :   1.1375 B(  3-C ,  4-O ) :   1.9936
B(  3-C ,  5-C ) :   1.0664 B(  5-C ,  6-C ) :   1.6470 B(  5-C , 12-C ) :   0.9760
B(  6-C ,  7-C ) :   0.9678 B(  6-C ,  8-N ) :   1.1601 B(  7-C , 25-H ) :   0.9611
B(  7-C , 26-H ) :   0.9588 B(  7-C , 27-H ) :   0.9900 B(  8-N ,  9-C ) :   1.1837
B(  8-N , 28-H ) :   0.9478 B(  9-C , 10-S ) :   1.6015 B(  9-C , 11-N ) :   1.3078
B( 11-N , 12-C ) :   0.9574 B( 11-N , 29-H ) :   0.9522 B( 12-C , 13-C ) :   0.9465
B( 12-C , 30-H ) :   1.0023 B( 13-C , 14-C ) :   1.3535 B( 13-C , 19-C ) :   1.3724
B( 14-C , 15-C ) :   1.3937 B( 14-C , 31-H ) :   0.9736 B( 15-C , 16-C ) :   1.3617
B( 15-C , 32-H ) :   0.9714 B( 16-C , 17-C ) :   1.3311 B( 16-C , 33-H ) :   0.9854
B( 17-C , 18-O ) :   1.1141 B( 17-C , 19-C ) :   1.3693 B( 18-O , 34-H ) :   0.9789
B( 19-C , 35-H ) :   0.9549

MP2 TOTAL ENERGY:    -1274.341341842 Eh
FINAL SINGLE POINT ENERGY     -1274.341341842340

DIPOLE MOMENT
-------------
                                X             Y             Z
Electronic contribution:      8.22913      11.25097       4.66879
Nuclear contribution   :     -9.24582     -12.78641      -4.61393
                        -----------------------------------------
Total Dipole Moment    :     -1.01668      -1.53545       0.05486
                        -----------------------------------------
Magnitude (a.u.)       :      1.84235
Magnitude (Debye)      :      4.68288

Rotational constants in cm-1:     0.012361     0.008850     0.006451
Rotational constants in MHz :   370.559152   265.323475   193.405064

                             ****ORCA TERMINATED NORMALLY****
TOTAL RUN TIME: 0 days 2 hours 24 minutes 30 seconds 344 msec
