                         Program Version 5.0.0 -  RELEASE  -
|  1> ! ri-mp2 cc-pvtz cc-pvtz/c TightSCF NoKeepInts
|  2>
|  3> %scf
|  4>   MaxCore 4096
|  5> end
|  6> *xyz  0  1
|  7>     C       15.3877601   13.7992280   16.5969834
|  8>     C       15.2404784   15.3294475   16.4695719
|  9>     O       16.4162217   15.9411839   15.8951405
| 10>     C       17.6258307   15.8238752   16.5175302
| 11>     O       18.1992619   14.7542507   16.6311601
| 12>     C       17.9374055   16.9897212   17.4057089
| 13>     C       17.5505710   18.2656156   17.1543527
| 14>     C       16.8006199   18.7797025   15.9432079
| 15>     N       17.9097770   19.2871994   18.0387436
| 16>     C       18.7397543   19.1329353   19.1181132
| 17>     S       19.1880539   20.4153509   20.0612625
| 18>     N       19.1776311   17.8585931   19.3785952
| 19>     C       18.7236319   16.6451256   18.6730124
| 20>     C       17.8821180   15.7676976   19.5958112
| 21>     C       18.2191323   14.4169395   19.7992052
| 22>     C       17.4317744   13.5989545   20.6266333
| 23>     C       16.2954847   14.1349878   21.2559953
| 24>     C       15.9539677   15.4787791   21.0526816
| 25>     O       14.8509470   15.9968198   21.6491926
| 26>     C       16.7394120   16.2904980   20.2284060
| 27>     H       15.7707332   13.3655184   15.6646586
| 28>     H       14.4171387   13.3388128   16.8163954
| 29>     H       16.0724018   13.5336662   17.4125026
| 30>     H       14.3795282   15.5497450   15.8255350
| 31>     H       15.0372786   15.7591687   17.4598124
| 32>     H       17.1712700   18.3095542   15.0234973
| 33>     H       16.9091967   19.8633283   15.8123408
| 34>     H       15.7296883   18.5575638   16.0259400
| 35>     H       17.6007808   20.2302986   17.8643074
| 36>     H       19.7645574   17.7688939   20.1981210
| 37>     H       19.6162338   16.0778176   18.3714834
| 38>     H       19.0849281   13.9941871   19.2949933
| 39>     H       17.7001576   12.5537552   20.7702258
| 40>     H       15.6830464   13.5056194   21.8931316
| 41>     H       14.4818686   15.3087922   22.2234161
| 42>     H       16.4583585   17.3283735   20.0863316
| 43> *
| 44>
| 45>                          ****END OF INPUT****

CARTESIAN COORDINATES (ANGSTROEM)
---------------------------------
  C     15.387760   13.799228   16.596983
  C     15.240478   15.329448   16.469572
  O     16.416222   15.941184   15.895140
  C     17.625831   15.823875   16.517530
  O     18.199262   14.754251   16.631160
  C     17.937406   16.989721   17.405709
  C     17.550571   18.265616   17.154353
  C     16.800620   18.779702   15.943208
  N     17.909777   19.287199   18.038744
  C     18.739754   19.132935   19.118113
  S     19.188054   20.415351   20.061263
  N     19.177631   17.858593   19.378595
  C     18.723632   16.645126   18.673012
  C     17.882118   15.767698   19.595811
  C     18.219132   14.416939   19.799205
  C     17.431774   13.598954   20.626633
  C     16.295485   14.134988   21.255995
  C     15.953968   15.478779   21.052682
  O     14.850947   15.996820   21.649193
  C     16.739412   16.290498   20.228406
  H     15.770733   13.365518   15.664659
  H     14.417139   13.338813   16.816395
  H     16.072402   13.533666   17.412503
  H     14.379528   15.549745   15.825535
  H     15.037279   15.759169   17.459812
  H     17.171270   18.309554   15.023497
  H     16.909197   19.863328   15.812341
  H     15.729688   18.557564   16.025940
  H     17.600781   20.230299   17.864307
  H     19.764557   17.768894   20.198121
  H     19.616234   16.077818   18.371483
  H     19.084928   13.994187   19.294993
  H     17.700158   12.553755   20.770226
  H     15.683046   13.505619   21.893132
  H     14.481869   15.308792   22.223416
  H     16.458358   17.328374   20.086332

 Total Charge           Charge          ....    0
 Multiplicity           Mult            ....    1
 Number of Electrons    NEL             ....  154
 Basis Dimension        Dim             ....  828

ORBITAL ENERGIES
----------------

  NO   OCC          E(Eh)            E(eV)
   0   2.0000     -91.889373     -2500.4370
   1   2.0000     -20.597041      -560.4740
   2   2.0000     -20.584240      -560.1256
   3   2.0000     -20.554760      -559.3235
   4   2.0000     -15.629090      -425.2892
   5   2.0000     -15.608838      -424.7381
   6   2.0000     -11.395435      -310.0856
   7   2.0000     -11.384869      -309.7980
   8   2.0000     -11.334835      -308.4365
   9   2.0000     -11.313301      -307.8506
  10   2.0000     -11.308515      -307.7203
  11   2.0000     -11.303607      -307.5868
  12   2.0000     -11.260466      -306.4128
  13   2.0000     -11.259215      -306.3788
  14   2.0000     -11.258673      -306.3641
  15   2.0000     -11.253247      -306.2164
  16   2.0000     -11.242905      -305.9350
  17   2.0000     -11.238941      -305.8271
  18   2.0000     -11.235939      -305.7455
  19   2.0000     -11.219782      -305.3058
  20   2.0000      -8.894449      -242.0303
  21   2.0000      -6.576027      -178.9428
  22   2.0000      -6.574018      -178.8881
  23   2.0000      -6.573433      -178.8722
  24   2.0000      -1.448209       -39.4078
  25   2.0000      -1.416826       -38.5538
  26   2.0000      -1.357603       -36.9423
  27   2.0000      -1.340199       -36.4687
  28   2.0000      -1.238470       -33.7005
  29   2.0000      -1.157387       -31.4941
  30   2.0000      -1.121629       -30.5211
  31   2.0000      -1.044776       -28.4298
  32   2.0000      -1.030474       -28.0406
  33   2.0000      -1.014844       -27.6153
  34   2.0000      -0.999815       -27.2064
  35   2.0000      -0.985060       -26.8048
  36   2.0000      -0.924181       -25.1482
  37   2.0000      -0.887631       -24.1537
  38   2.0000      -0.850134       -23.1333
  39   2.0000      -0.839622       -22.8473
  40   2.0000      -0.833400       -22.6780
  41   2.0000      -0.825864       -22.4729
  42   2.0000      -0.746334       -20.3088
  43   2.0000      -0.729312       -19.8456
  44   2.0000      -0.728715       -19.8294
  45   2.0000      -0.695123       -18.9153
  46   2.0000      -0.685952       -18.6657
  47   2.0000      -0.680822       -18.5261
  48   2.0000      -0.673003       -18.3133
  49   2.0000      -0.667333       -18.1591
  50   2.0000      -0.648113       -17.6361
  51   2.0000      -0.646341       -17.5878
  52   2.0000      -0.637003       -17.3337
  53   2.0000      -0.607003       -16.5174
  54   2.0000      -0.605638       -16.4803
  55   2.0000      -0.601584       -16.3699
  56   2.0000      -0.599885       -16.3237
  57   2.0000      -0.578089       -15.7306
  58   2.0000      -0.573744       -15.6124
  59   2.0000      -0.570909       -15.5352
  60   2.0000      -0.559880       -15.2351
  61   2.0000      -0.549795       -14.9607
  62   2.0000      -0.535398       -14.5689
  63   2.0000      -0.524323       -14.2676
  64   2.0000      -0.519748       -14.1431
  65   2.0000      -0.512078       -13.9343
  66   2.0000      -0.500505       -13.6194
  67   2.0000      -0.493278       -13.4228
  68   2.0000      -0.481523       -13.1029
  69   2.0000      -0.466255       -12.6874
  70   2.0000      -0.455884       -12.4052
  71   2.0000      -0.448361       -12.2005
  72   2.0000      -0.355046        -9.6613
  73   2.0000      -0.348998        -9.4967
  74   2.0000      -0.328711        -8.9447
  75   2.0000      -0.320393        -8.7183
  76   2.0000      -0.316565        -8.6142
  77   0.0000       0.071646         1.9496
  78   0.0000       0.104036         2.8310
  79   0.0000       0.120019         3.2659
  80   0.0000       0.131245         3.5714
  81   0.0000       0.137230         3.7342

MULLIKEN ATOMIC CHARGES
-----------------------
   0 C :   -0.273513
   1 C :    0.027026
   2 O :   -0.380396
   3 C :    0.462863
   4 O :   -0.396304
   5 C :   -0.211630
   6 C :    0.149669
   7 C :   -0.282529
   8 N :   -0.124603
   9 C :    0.203642
  10 S :   -0.439093
  11 N :   -0.203095
  12 C :    0.060084
  13 C :    0.054171
  14 C :   -0.175432
  15 C :   -0.131585
  16 C :   -0.279220
  17 C :    0.318297
  18 O :   -0.359685
  19 C :   -0.295899
  20 H :    0.105190
  21 H :    0.091390
  22 H :    0.113581
  23 H :    0.109757
  24 H :    0.089670
  25 H :    0.128496
  26 H :    0.105614
  27 H :    0.122428
  28 H :    0.197221
  29 H :    0.194753
  30 H :    0.154928
  31 H :    0.158287
  32 H :    0.162589
  33 H :    0.131115
  34 H :    0.241237
  35 H :    0.170974
Sum of atomic charges:   -0.0000000

LOEWDIN ATOMIC CHARGES
----------------------
   0 C :    0.106964
   1 C :   -0.018315
   2 O :    0.283860
   3 C :   -0.414446
   4 O :    0.133313
   5 C :   -0.095189
   6 C :   -0.072887
   7 C :    0.126137
   8 N :    0.404352
   9 C :   -0.457475
  10 S :   -0.035771
  11 N :    0.397108
  12 C :   -0.046017
  13 C :   -0.041449
  14 C :    0.021744
  15 C :    0.042025
  16 C :   -0.001715
  17 C :   -0.194276
  18 O :    0.393440
  19 C :    0.028090
  20 H :   -0.023124
  21 H :   -0.029180
  22 H :   -0.026508
  23 H :   -0.023439
  24 H :   -0.034556
  25 H :   -0.006750
  26 H :   -0.019539
  27 H :   -0.010537
  28 H :   -0.058572
  29 H :   -0.063978
  30 H :   -0.004947
  31 H :   -0.024475
  32 H :   -0.020162
  33 H :   -0.035401
  34 H :   -0.153706
  35 H :   -0.024621

  Mayer bond orders larger than 0.100000
B(  0-C ,  1-C ) :   0.9834 B(  0-C , 20-H ) :   0.9746 B(  0-C , 21-H ) :   0.9748
B(  0-C , 22-H ) :   0.9689 B(  1-C ,  2-O ) :   0.9001 B(  1-C , 23-H ) :   0.9797
B(  1-C , 24-H ) :   0.9699 B(  2-O ,  3-C ) :   1.0826 B(  3-C ,  4-O ) :   2.0382
B(  3-C ,  5-C ) :   1.0156 B(  5-C ,  6-C ) :   1.6643 B(  5-C , 12-C ) :   0.9637
B(  6-C ,  7-C ) :   0.9524 B(  6-C ,  8-N ) :   1.1422 B(  7-C , 25-H ) :   0.9688
B(  7-C , 26-H ) :   0.9879 B(  7-C , 27-H ) :   0.9648 B(  8-N ,  9-C ) :   1.1839
B(  8-N , 28-H ) :   0.9493 B(  9-C , 10-S ) :   1.6111 B(  9-C , 11-N ) :   1.3004
B( 11-N , 12-C ) :   0.9935 B( 11-N , 29-H ) :   0.9515 B( 12-C , 13-C ) :   0.9426
B( 12-C , 30-H ) :   0.9986 B( 13-C , 14-C ) :   1.3748 B( 13-C , 19-C ) :   1.3605
B( 14-C , 15-C ) :   1.3924 B( 14-C , 31-H ) :   0.9638 B( 15-C , 16-C ) :   1.3633
B( 15-C , 32-H ) :   0.9704 B( 16-C , 17-C ) :   1.3318 B( 16-C , 33-H ) :   0.9847
B( 17-C , 18-O ) :   1.1091 B( 17-C , 19-C ) :   1.3678 B( 18-O , 34-H ) :   0.9797
B( 19-C , 35-H ) :   0.9582

MP2 TOTAL ENERGY:    -1274.328407742 Eh
FINAL SINGLE POINT ENERGY     -1274.328407741811

DIPOLE MOMENT
-------------
                                X             Y             Z
Electronic contribution:     10.12909      10.07377       6.86641
Nuclear contribution   :    -11.62808     -11.15748      -7.39535
                        -----------------------------------------
Total Dipole Moment    :     -1.49899      -1.08371      -0.52894
                        -----------------------------------------
Magnitude (a.u.)       :      1.92385
Magnitude (Debye)      :      4.89003

Rotational constants in cm-1:     0.012264     0.009080     0.006545
Rotational constants in MHz :   367.661546   272.207450   196.216186

                             ****ORCA TERMINATED NORMALLY****
TOTAL RUN TIME: 0 days 2 hours 4 minutes 12 seconds 494 msec
