                         Program Version 5.0.0 -  RELEASE  -
|  1> ! ri-mp2 cc-pvtz cc-pvtz/c TightSCF NoKeepInts
|  2>
|  3> %scf
|  4>   MaxCore 4096
|  5> end
|  6> *xyz  0  1
|  7>     C       15.0730534   14.5791664   14.3472429
|  8>     C       15.2593227   14.5784766   15.8738795
|  9>     O       16.1434902   15.6686240   16.1964078
| 10>     C       17.2405266   15.4643426   16.9839349
| 11>     O       17.6666067   14.3496993   17.2387042
| 12>     C       17.7415885   16.6944662   17.6873306
| 13>     C       17.4332449   17.9735534   17.3446884
| 14>     C       16.5532191   18.4527797   16.2080004
| 15>     N       18.0159883   19.0380348   18.0408974
| 16>     C       19.0163101   18.9149062   18.9685286
| 17>     S       19.7440369   20.2361815   19.6469915
| 18>     N       19.3828948   17.6367660   19.3045305
| 19>     C       18.6768287   16.4169131   18.8704084
| 20>     C       17.9156614   15.7967377   20.0394602
| 21>     C       18.1305882   14.4526696   20.3964695
| 22>     C       17.4319252   13.8756886   21.4702036
| 23>     C       16.5091172   14.6487558   22.1950305
| 24>     C       16.2891197   15.9866946   21.8406540
| 25>     O       15.3942267   16.7341612   22.5348244
| 26>     C       16.9856667   16.5580370   20.7711235
| 27>     H       14.6560145   15.5352276   14.0074180
| 28>     H       14.3889379   13.7776228   14.0431099
| 29>     H       16.0338892   14.4195212   13.8419873
| 30>     H       14.2924637   14.7207655   16.3735845
| 31>     H       15.6647574   13.6061625   16.1846971
| 32>     H       16.8497663   17.9839980   15.2613603
| 33>     H       16.6062452   19.5380178   16.0589366
| 34>     H       15.5031168   18.1975899   16.3975547
| 35>     H       17.7605707   19.9843349   17.8081428
| 36>     H       20.1007014   17.5720011   20.0147847
| 37>     H       19.4368408   15.6965961   18.5346046
| 38>     H       18.8311889   13.8475716   19.8261269
| 39>     H       17.6031572   12.8330822   21.7318111
| 40>     H       15.9660588   14.2066028   23.0235659
| 41>     H       15.0472076   16.1799175   23.2497529
| 42>     H       16.8026673   17.5963340   20.5172522
| 43> *
| 44>
| 45>                          ****END OF INPUT****

CARTESIAN COORDINATES (ANGSTROEM)
---------------------------------
  C     15.073053   14.579166   14.347243
  C     15.259323   14.578477   15.873879
  O     16.143490   15.668624   16.196408
  C     17.240527   15.464343   16.983935
  O     17.666607   14.349699   17.238704
  C     17.741588   16.694466   17.687331
  C     17.433245   17.973553   17.344688
  C     16.553219   18.452780   16.208000
  N     18.015988   19.038035   18.040897
  C     19.016310   18.914906   18.968529
  S     19.744037   20.236181   19.646991
  N     19.382895   17.636766   19.304530
  C     18.676829   16.416913   18.870408
  C     17.915661   15.796738   20.039460
  C     18.130588   14.452670   20.396469
  C     17.431925   13.875689   21.470204
  C     16.509117   14.648756   22.195030
  C     16.289120   15.986695   21.840654
  O     15.394227   16.734161   22.534824
  C     16.985667   16.558037   20.771123
  H     14.656014   15.535228   14.007418
  H     14.388938   13.777623   14.043110
  H     16.033889   14.419521   13.841987
  H     14.292464   14.720765   16.373584
  H     15.664757   13.606162   16.184697
  H     16.849766   17.983998   15.261360
  H     16.606245   19.538018   16.058937
  H     15.503117   18.197590   16.397555
  H     17.760571   19.984335   17.808143
  H     20.100701   17.572001   20.014785
  H     19.436841   15.696596   18.534605
  H     18.831189   13.847572   19.826127
  H     17.603157   12.833082   21.731811
  H     15.966059   14.206603   23.023566
  H     15.047208   16.179917   23.249753
  H     16.802667   17.596334   20.517252

 Total Charge           Charge          ....    0
 Multiplicity           Mult            ....    1
 Number of Electrons    NEL             ....  154
 Basis Dimension        Dim             ....  828

ORBITAL ENERGIES
----------------

  NO   OCC          E(Eh)            E(eV)
   0   2.0000     -91.887943     -2500.3980
   1   2.0000     -20.602952      -560.6348
   2   2.0000     -20.591166      -560.3141
   3   2.0000     -20.545628      -559.0750
   4   2.0000     -15.628356      -425.2692
   5   2.0000     -15.606486      -424.6741
   6   2.0000     -11.396564      -310.1163
   7   2.0000     -11.382784      -309.7413
   8   2.0000     -11.336446      -308.4804
   9   2.0000     -11.306940      -307.6775
  10   2.0000     -11.305220      -307.6307
  11   2.0000     -11.298733      -307.4542
  12   2.0000     -11.260554      -306.4152
  13   2.0000     -11.258978      -306.3724
  14   2.0000     -11.252896      -306.2069
  15   2.0000     -11.247063      -306.0482
  16   2.0000     -11.236721      -305.7667
  17   2.0000     -11.232865      -305.6618
  18   2.0000     -11.232146      -305.6422
  19   2.0000     -11.229816      -305.5788
  20   2.0000      -8.893007      -241.9910
  21   2.0000      -6.574584      -178.9035
  22   2.0000      -6.572577      -178.8489
  23   2.0000      -6.571992      -178.8330
  24   2.0000      -1.453413       -39.5494
  25   2.0000      -1.410897       -38.3925
  26   2.0000      -1.357473       -36.9387
  27   2.0000      -1.339261       -36.4431
  28   2.0000      -1.236804       -33.6552
  29   2.0000      -1.151605       -31.3368
  30   2.0000      -1.119260       -30.4566
  31   2.0000      -1.044088       -28.4111
  32   2.0000      -1.036452       -28.2033
  33   2.0000      -1.008971       -27.4555
  34   2.0000      -0.997335       -27.1389
  35   2.0000      -0.982881       -26.7455
  36   2.0000      -0.920820       -25.0568
  37   2.0000      -0.889505       -24.2046
  38   2.0000      -0.847167       -23.0526
  39   2.0000      -0.834743       -22.7145
  40   2.0000      -0.827290       -22.5117
  41   2.0000      -0.818020       -22.2595
  42   2.0000      -0.761114       -20.7110
  43   2.0000      -0.735887       -20.0245
  44   2.0000      -0.724502       -19.7147
  45   2.0000      -0.689946       -18.7744
  46   2.0000      -0.684427       -18.6242
  47   2.0000      -0.679837       -18.4993
  48   2.0000      -0.673542       -18.3280
  49   2.0000      -0.653322       -17.7778
  50   2.0000      -0.650207       -17.6930
  51   2.0000      -0.642178       -17.4746
  52   2.0000      -0.631559       -17.1856
  53   2.0000      -0.611260       -16.6332
  54   2.0000      -0.600267       -16.3341
  55   2.0000      -0.599258       -16.3066
  56   2.0000      -0.594484       -16.1767
  57   2.0000      -0.581524       -15.8241
  58   2.0000      -0.572708       -15.5842
  59   2.0000      -0.563164       -15.3245
  60   2.0000      -0.561618       -15.2824
  61   2.0000      -0.544775       -14.8241
  62   2.0000      -0.539378       -14.6772
  63   2.0000      -0.530407       -14.4331
  64   2.0000      -0.516708       -14.0603
  65   2.0000      -0.509228       -13.8568
  66   2.0000      -0.499525       -13.5928
  67   2.0000      -0.494952       -13.4683
  68   2.0000      -0.480895       -13.0858
  69   2.0000      -0.462445       -12.5838
  70   2.0000      -0.460477       -12.5302
  71   2.0000      -0.453261       -12.3339
  72   2.0000      -0.354146        -9.6368
  73   2.0000      -0.343505        -9.3472
  74   2.0000      -0.327053        -8.8996
  75   2.0000      -0.315404        -8.5826
  76   2.0000      -0.313301        -8.5253
  77   0.0000       0.075854         2.0641
  78   0.0000       0.113541         3.0896
  79   0.0000       0.120896         3.2897
  80   0.0000       0.135990         3.7005
  81   0.0000       0.139302         3.7906

MULLIKEN ATOMIC CHARGES
-----------------------
   0 C :   -0.266568
   1 C :    0.019076
   2 O :   -0.347337
   3 C :    0.456763
   4 O :   -0.429649
   5 C :   -0.182883
   6 C :    0.142688
   7 C :   -0.286198
   8 N :   -0.121684
   9 C :    0.201111
  10 S :   -0.439355
  11 N :   -0.196860
  12 C :    0.034653
  13 C :    0.057068
  14 C :   -0.160618
  15 C :   -0.133931
  16 C :   -0.278854
  17 C :    0.311447
  18 O :   -0.359227
  19 C :   -0.271976
  20 H :    0.090056
  21 H :    0.094637
  22 H :    0.098971
  23 H :    0.100250
  24 H :    0.123340
  25 H :    0.126569
  26 H :    0.103089
  27 H :    0.127362
  28 H :    0.196740
  29 H :    0.193580
  30 H :    0.153654
  31 H :    0.153167
  32 H :    0.158813
  33 H :    0.127802
  34 H :    0.239988
  35 H :    0.164316
Sum of atomic charges:    0.0000000

LOEWDIN ATOMIC CHARGES
----------------------
   0 C :    0.104047
   1 C :   -0.010876
   2 O :    0.306688
   3 C :   -0.414079
   4 O :    0.103369
   5 C :   -0.091122
   6 C :   -0.065633
   7 C :    0.124763
   8 N :    0.404839
   9 C :   -0.458999
  10 S :   -0.036043
  11 N :    0.397898
  12 C :   -0.046520
  13 C :   -0.038795
  14 C :    0.022196
  15 C :    0.040889
  16 C :   -0.002331
  17 C :   -0.192593
  18 O :    0.392925
  19 C :    0.028429
  20 H :   -0.030197
  21 H :   -0.025259
  22 H :   -0.025373
  23 H :   -0.030330
  24 H :   -0.027089
  25 H :   -0.008749
  26 H :   -0.021033
  27 H :   -0.009812
  28 H :   -0.059204
  29 H :   -0.063649
  30 H :   -0.005070
  31 H :   -0.025350
  32 H :   -0.021309
  33 H :   -0.036472
  34 H :   -0.154970
  35 H :   -0.025185

  Mayer bond orders larger than 0.100000
B(  0-C ,  1-C ) :   0.9723 B(  0-C , 20-H ) :   0.9795 B(  0-C , 21-H ) :   0.9764
B(  0-C , 22-H ) :   0.9783 B(  1-C ,  2-O ) :   0.8825 B(  1-C , 23-H ) :   0.9802
B(  1-C , 24-H ) :   0.9732 B(  2-O ,  3-C ) :   1.1599 B(  3-C ,  4-O ) :   1.9853
B(  3-C ,  5-C ) :   1.0510 B(  5-C ,  6-C ) :   1.6472 B(  5-C , 12-C ) :   0.9652
B(  6-C ,  7-C ) :   0.9543 B(  6-C ,  8-N ) :   1.1486 B(  7-C , 25-H ) :   0.9661
B(  7-C , 26-H ) :   0.9917 B(  7-C , 27-H ) :   0.9637 B(  8-N ,  9-C ) :   1.1782
B(  8-N , 28-H ) :   0.9489 B(  9-C , 10-S ) :   1.6107 B(  9-C , 11-N ) :   1.3045
B( 11-N , 12-C ) :   0.9923 B( 11-N , 29-H ) :   0.9520 B( 12-C , 13-C ) :   0.9481
B( 12-C , 30-H ) :   0.9999 B( 13-C , 14-C ) :   1.3760 B( 13-C , 19-C ) :   1.3691
B( 14-C , 15-C ) :   1.3947 B( 14-C , 31-H ) :   0.9650 B( 15-C , 16-C ) :   1.3626
B( 15-C , 32-H ) :   0.9715 B( 16-C , 17-C ) :   1.3315 B( 16-C , 33-H ) :   0.9861
B( 17-C , 18-O ) :   1.1078 B( 17-C , 19-C ) :   1.3793 B( 18-O , 34-H ) :   0.9807
B( 19-C , 35-H ) :   0.9585

MP2 TOTAL ENERGY:    -1274.345834306 Eh
FINAL SINGLE POINT ENERGY     -1274.345834305652

DIPOLE MOMENT
-------------
                                X             Y             Z
Electronic contribution:     11.03145       8.77183      12.23128
Nuclear contribution   :    -12.69964      -9.95518     -13.10865
                        -----------------------------------------
Total Dipole Moment    :     -1.66819      -1.18335      -0.87736
                        -----------------------------------------
Magnitude (a.u.)       :      2.22552
Magnitude (Debye)      :      5.65682

Rotational constants in cm-1:     0.010477     0.008709     0.005717
Rotational constants in MHz :   314.077896   261.075533   171.377724

                             ****ORCA TERMINATED NORMALLY****
TOTAL RUN TIME: 0 days 1 hours 27 minutes 47 seconds 758 msec
