                         Program Version 5.0.0 -  RELEASE  -
|  1> ! ri-mp2 cc-pvtz cc-pvtz/c TightSCF NoKeepInts
|  2>
|  3> %scf
|  4>   MaxCore 4096
|  5> end
|  6> *xyz  0  1
|  7>     C       14.9411441   14.1958925   16.5692447
|  8>     C       16.4320502   13.9394204   16.2517381
|  9>     O       17.2882411   15.0585202   16.5798998
| 10>     C       16.9062300   16.3708820   16.4931727
| 11>     O       16.0937315   16.7688357   15.6765963
| 12>     C       17.6627491   17.2529430   17.4476206
| 13>     C       17.5602728   18.6061642   17.4281938
| 14>     C       16.7263447   19.4490287   16.4871337
| 15>     N       18.2958275   19.3785606   18.3319250
| 16>     C       19.2009425   18.8844544   19.2325917
| 17>     S       20.0782194   19.8757103   20.2244536
| 18>     N       19.3439157   17.5211592   19.2726099
| 19>     C       18.5405330   16.5561125   18.5002569
| 20>     C       17.7103369   15.6965127   19.4495088
| 21>     C       18.0041375   14.3300182   19.6157447
| 22>     C       17.2324041   13.5325465   20.4774612
| 23>     C       16.1597734   14.1063904   21.1810794
| 24>     C       15.8680122   15.4680779   21.0221340
| 25>     O       14.8332739   16.0250639   21.7002685
| 26>     C       16.6376881   16.2591341   20.1637688
| 27>     H       14.8229150   14.6194319   17.5748152
| 28>     H       14.3813258   13.2537805   16.5323601
| 29>     H       14.4815541   14.8756529   15.8417323
| 30>     H       16.7762528   13.0567623   16.8058022
| 31>     H       16.5242184   13.7160650   15.1807978
| 32>     H       16.9985201   19.2461518   15.4434788
| 33>     H       16.8444815   20.5257513   16.6557979
| 34>     H       15.6608604   19.2105338   16.5989748
| 35>     H       18.2038387   20.3817373   18.3179398
| 36>     H       19.9890014   17.1850493   19.9759658
| 37>     H       19.2441033   15.9031188   17.9648934
| 38>     H       18.8293982   13.8829643   19.0680036
| 39>     H       17.4663076   12.4762387   20.5982530
| 40>     H       15.5609277   13.4948473   21.8479715
| 41>     H       14.4484561   15.3363823   22.2628486
| 42>     H       16.3990114   17.3121047   20.0589631
| 43> *
| 44>
| 45>                          ****END OF INPUT****

CARTESIAN COORDINATES (ANGSTROEM)
---------------------------------
  C     14.941144   14.195892   16.569245
  C     16.432050   13.939420   16.251738
  O     17.288241   15.058520   16.579900
  C     16.906230   16.370882   16.493173
  O     16.093732   16.768836   15.676596
  C     17.662749   17.252943   17.447621
  C     17.560273   18.606164   17.428194
  C     16.726345   19.449029   16.487134
  N     18.295828   19.378561   18.331925
  C     19.200943   18.884454   19.232592
  S     20.078219   19.875710   20.224454
  N     19.343916   17.521159   19.272610
  C     18.540533   16.556113   18.500257
  C     17.710337   15.696513   19.449509
  C     18.004137   14.330018   19.615745
  C     17.232404   13.532546   20.477461
  C     16.159773   14.106390   21.181079
  C     15.868012   15.468078   21.022134
  O     14.833274   16.025064   21.700268
  C     16.637688   16.259134   20.163769
  H     14.822915   14.619432   17.574815
  H     14.381326   13.253780   16.532360
  H     14.481554   14.875653   15.841732
  H     16.776253   13.056762   16.805802
  H     16.524218   13.716065   15.180798
  H     16.998520   19.246152   15.443479
  H     16.844482   20.525751   16.655798
  H     15.660860   19.210534   16.598975
  H     18.203839   20.381737   18.317940
  H     19.989001   17.185049   19.975966
  H     19.244103   15.903119   17.964893
  H     18.829398   13.882964   19.068004
  H     17.466308   12.476239   20.598253
  H     15.560928   13.494847   21.847971
  H     14.448456   15.336382   22.262849
  H     16.399011   17.312105   20.058963

 Total Charge           Charge          ....    0
 Multiplicity           Mult            ....    1
 Number of Electrons    NEL             ....  154
 Basis Dimension        Dim             ....  828

ORBITAL ENERGIES
----------------

  NO   OCC          E(Eh)            E(eV)
   0   2.0000     -91.888566     -2500.4150
   1   2.0000     -20.598011      -560.5004
   2   2.0000     -20.595388      -560.4290
   3   2.0000     -20.541127      -558.9525
   4   2.0000     -15.628573      -425.2751
   5   2.0000     -15.608059      -424.7169
   6   2.0000     -11.395207      -310.0793
   7   2.0000     -11.383775      -309.7683
   8   2.0000     -11.335407      -308.4521
   9   2.0000     -11.315373      -307.9070
  10   2.0000     -11.308468      -307.7191
  11   2.0000     -11.300580      -307.5044
  12   2.0000     -11.261021      -306.4280
  13   2.0000     -11.258103      -306.3485
  14   2.0000     -11.256900      -306.3158
  15   2.0000     -11.251699      -306.1743
  16   2.0000     -11.244609      -305.9814
  17   2.0000     -11.239788      -305.8502
  18   2.0000     -11.239636      -305.8460
  19   2.0000     -11.222874      -305.3899
  20   2.0000      -8.893637      -242.0082
  21   2.0000      -6.575213      -178.9207
  22   2.0000      -6.573207      -178.8660
  23   2.0000      -6.572622      -178.8501
  24   2.0000      -1.445104       -39.3233
  25   2.0000      -1.417700       -38.5776
  26   2.0000      -1.352753       -36.8103
  27   2.0000      -1.339606       -36.4525
  28   2.0000      -1.238256       -33.6947
  29   2.0000      -1.158917       -31.5357
  30   2.0000      -1.120181       -30.4817
  31   2.0000      -1.043321       -28.3902
  32   2.0000      -1.034464       -28.1492
  33   2.0000      -1.016573       -27.6624
  34   2.0000      -0.995529       -27.0897
  35   2.0000      -0.984052       -26.7774
  36   2.0000      -0.922678       -25.1074
  37   2.0000      -0.897718       -24.4282
  38   2.0000      -0.847133       -23.0517
  39   2.0000      -0.838711       -22.8225
  40   2.0000      -0.835428       -22.7331
  41   2.0000      -0.817085       -22.2340
  42   2.0000      -0.746050       -20.3010
  43   2.0000      -0.732449       -19.9310
  44   2.0000      -0.721515       -19.6334
  45   2.0000      -0.696815       -18.9613
  46   2.0000      -0.688279       -18.7290
  47   2.0000      -0.675876       -18.3915
  48   2.0000      -0.671295       -18.2669
  49   2.0000      -0.658687       -17.9238
  50   2.0000      -0.651144       -17.7185
  51   2.0000      -0.641641       -17.4599
  52   2.0000      -0.635252       -17.2861
  53   2.0000      -0.616170       -16.7669
  54   2.0000      -0.608053       -16.5460
  55   2.0000      -0.601139       -16.3578
  56   2.0000      -0.599147       -16.3036
  57   2.0000      -0.578358       -15.7379
  58   2.0000      -0.570751       -15.5309
  59   2.0000      -0.567622       -15.4458
  60   2.0000      -0.557614       -15.1734
  61   2.0000      -0.541774       -14.7424
  62   2.0000      -0.534948       -14.5567
  63   2.0000      -0.525953       -14.3119
  64   2.0000      -0.521044       -14.1783
  65   2.0000      -0.513594       -13.9756
  66   2.0000      -0.501611       -13.6495
  67   2.0000      -0.499681       -13.5970
  68   2.0000      -0.485926       -13.2227
  69   2.0000      -0.463952       -12.6248
  70   2.0000      -0.453921       -12.3518
  71   2.0000      -0.442398       -12.0383
  72   2.0000      -0.353623        -9.6226
  73   2.0000      -0.350582        -9.5398
  74   2.0000      -0.328198        -8.9307
  75   2.0000      -0.322895        -8.7864
  76   2.0000      -0.316056        -8.6003
  77   0.0000       0.076332         2.0771
  78   0.0000       0.104296         2.8381
  79   0.0000       0.124563         3.3895
  80   0.0000       0.132117         3.5951
  81   0.0000       0.137577         3.7436

MULLIKEN ATOMIC CHARGES
-----------------------
   0 C :   -0.315895
   1 C :    0.039356
   2 O :   -0.367539
   3 C :    0.465772
   4 O :   -0.429499
   5 C :   -0.232758
   6 C :    0.156509
   7 C :   -0.272457
   8 N :   -0.120779
   9 C :    0.212738
  10 S :   -0.441180
  11 N :   -0.207602
  12 C :    0.072685
  13 C :    0.051730
  14 C :   -0.189626
  15 C :   -0.130742
  16 C :   -0.278535
  17 C :    0.316794
  18 O :   -0.357115
  19 C :   -0.269801
  20 H :    0.105323
  21 H :    0.097246
  22 H :    0.127318
  23 H :    0.104502
  24 H :    0.110415
  25 H :    0.131664
  26 H :    0.095108
  27 H :    0.131031
  28 H :    0.196906
  29 H :    0.195503
  30 H :    0.149926
  31 H :    0.153261
  32 H :    0.161523
  33 H :    0.131023
  34 H :    0.240941
  35 H :    0.166253
Sum of atomic charges:   -0.0000000

LOEWDIN ATOMIC CHARGES
----------------------
   0 C :    0.104864
   1 C :   -0.011841
   2 O :    0.297988
   3 C :   -0.414928
   4 O :    0.102711
   5 C :   -0.094829
   6 C :   -0.059393
   7 C :    0.131427
   8 N :    0.406516
   9 C :   -0.455994
  10 S :   -0.036342
  11 N :    0.396316
  12 C :   -0.052000
  13 C :   -0.038997
  14 C :    0.015192
  15 C :    0.038809
  16 C :   -0.001969
  17 C :   -0.190252
  18 O :    0.395721
  19 C :    0.030851
  20 H :   -0.026721
  21 H :   -0.026962
  22 H :   -0.025579
  23 H :   -0.026710
  24 H :   -0.028475
  25 H :   -0.003800
  26 H :   -0.023514
  27 H :   -0.004875
  28 H :   -0.057650
  29 H :   -0.064663
  30 H :   -0.011412
  31 H :   -0.029788
  32 H :   -0.021206
  33 H :   -0.035357
  34 H :   -0.153634
  35 H :   -0.023503

  Mayer bond orders larger than 0.100000
B(  0-C ,  1-C ) :   0.9598 B(  0-C , 20-H ) :   0.9725 B(  0-C , 21-H ) :   0.9770
B(  0-C , 22-H ) :   0.9725 B(  1-C ,  2-O ) :   0.8945 B(  1-C , 23-H ) :   0.9815
B(  1-C , 24-H ) :   0.9848 B(  2-O ,  3-C ) :   1.1551 B(  3-C ,  4-O ) :   1.9810
B(  3-C ,  5-C ) :   1.0486 B(  5-C ,  6-C ) :   1.6527 B(  5-C , 12-C ) :   0.9695
B(  6-C ,  7-C ) :   0.9662 B(  6-C ,  8-N ) :   1.1643 B(  7-C , 25-H ) :   0.9605
B(  7-C , 26-H ) :   0.9903 B(  7-C , 27-H ) :   0.9605 B(  8-N ,  9-C ) :   1.1845
B(  8-N , 28-H ) :   0.9478 B(  9-C , 10-S ) :   1.6054 B(  9-C , 11-N ) :   1.3064
B( 11-N , 12-C ) :   0.9872 B( 11-N , 29-H ) :   0.9511 B( 12-C , 13-C ) :   0.9353
B( 12-C , 30-H ) :   1.0020 B( 13-C , 14-C ) :   1.3557 B( 13-C , 19-C ) :   1.3823
B( 14-C , 15-C ) :   1.3888 B( 14-C , 31-H ) :   0.9709 B( 15-C , 16-C ) :   1.3634
B( 15-C , 32-H ) :   0.9705 B( 16-C , 17-C ) :   1.3314 B( 16-C , 33-H ) :   0.9846
B( 17-C , 18-O ) :   1.1103 B( 17-C , 19-C ) :   1.3686 B( 18-O , 34-H ) :   0.9796
B( 19-C , 35-H ) :   0.9586

MP2 TOTAL ENERGY:    -1274.343890245 Eh
FINAL SINGLE POINT ENERGY     -1274.343890244535

DIPOLE MOMENT
-------------
                                X             Y             Z
Electronic contribution:     10.22541       9.86427       7.26706
Nuclear contribution   :    -11.25322     -11.63741      -7.56612
                        -----------------------------------------
Total Dipole Moment    :     -1.02781      -1.77314      -0.29906
                        -----------------------------------------
Magnitude (a.u.)       :      2.07120
Magnitude (Debye)      :      5.26456

Rotational constants in cm-1:     0.012386     0.008656     0.006311
Rotational constants in MHz :   371.314818   259.498206   189.197848

                             ****ORCA TERMINATED NORMALLY****
TOTAL RUN TIME: 0 days 2 hours 1 minutes 2 seconds 53 msec
