                         Program Version 5.0.0 -  RELEASE  -
|  1> ! ri-mp2 cc-pvtz cc-pvtz/c TightSCF NoKeepInts
|  2>
|  3> %scf
|  4>   MaxCore 4096
|  5> end
|  6> *xyz  0  1
|  7>     C       15.3670456   14.4648695   17.1867255
|  8>     C       15.4759224   15.4638351   16.0168628
|  9>     O       16.8424286   15.6061025   15.5661955
| 10>     C       17.8953801   15.6871289   16.4353294
| 11>     O       18.6605844   14.7486979   16.5658975
| 12>     C       17.9028822   16.8653339   17.3682797
| 13>     C       17.4054895   18.0909660   17.0574890
| 14>     C       16.7975293   18.5538610   15.7478986
| 15>     N       17.5461538   19.1474797   17.9624137
| 16>     C       18.3343744   19.1181916   19.0821100
| 17>     S       18.5601231   20.4586721   20.0235896
| 18>     N       18.9282769   17.9180158   19.3790372
| 19>     C       18.6361679   16.6419673   18.6981723
| 20>     C       17.8623082   15.7039898   19.6204384
| 21>     C       18.2345497   14.3511065   19.7269334
| 22>     C       17.5217244   13.4744012   20.5615238
| 23>     C       16.4259566   13.9532473   21.2991678
| 24>     C       16.0502744   15.2992399   21.1962189
| 25>     O       14.9861797   15.7624145   21.8989041
| 26>     C       16.7605147   16.1696867   20.3632565
| 27>     H       15.9054063   13.5356337   16.9591976
| 28>     H       14.3168786   14.2111496   17.3746647
| 29>     H       15.7734321   14.8848599   18.1102881
| 30>     H       14.8601643   15.1131969   15.1784566
| 31>     H       15.0724365   16.4277325   16.3464633
| 32>     H       17.1804047   17.9814209   14.8944016
| 33>     H       17.0438549   19.6028467   15.5397972
| 34>     H       15.7053323   18.4700031   15.7593396
| 35>     H       17.1285364   20.0408274   17.7546035
| 36>     H       19.4894918   17.9162667   20.2213567
| 37>     H       19.6011388   16.1661404   18.4690487
| 38>     H       19.0726093   13.9733813   19.1449967
| 39>     H       17.8176704   12.4288902   20.6290812
| 40>     H       15.8715944   13.2786469   21.9432034
| 41>     H       14.6655123   15.0351521   22.4534124
| 42>     H       16.4486709   17.2066443   20.2992449
| 43> *
| 44>
| 45>                          ****END OF INPUT****

CARTESIAN COORDINATES (ANGSTROEM)
---------------------------------
  C     15.367046   14.464870   17.186726
  C     15.475922   15.463835   16.016863
  O     16.842429   15.606103   15.566195
  C     17.895380   15.687129   16.435329
  O     18.660584   14.748698   16.565897
  C     17.902882   16.865334   17.368280
  C     17.405490   18.090966   17.057489
  C     16.797529   18.553861   15.747899
  N     17.546154   19.147480   17.962414
  C     18.334374   19.118192   19.082110
  S     18.560123   20.458672   20.023590
  N     18.928277   17.918016   19.379037
  C     18.636168   16.641967   18.698172
  C     17.862308   15.703990   19.620438
  C     18.234550   14.351107   19.726933
  C     17.521724   13.474401   20.561524
  C     16.425957   13.953247   21.299168
  C     16.050274   15.299240   21.196219
  O     14.986180   15.762415   21.898904
  C     16.760515   16.169687   20.363256
  H     15.905406   13.535634   16.959198
  H     14.316879   14.211150   17.374665
  H     15.773432   14.884860   18.110288
  H     14.860164   15.113197   15.178457
  H     15.072437   16.427733   16.346463
  H     17.180405   17.981421   14.894402
  H     17.043855   19.602847   15.539797
  H     15.705332   18.470003   15.759340
  H     17.128536   20.040827   17.754604
  H     19.489492   17.916267   20.221357
  H     19.601139   16.166140   18.469049
  H     19.072609   13.973381   19.144997
  H     17.817670   12.428890   20.629081
  H     15.871594   13.278647   21.943203
  H     14.665512   15.035152   22.453412
  H     16.448671   17.206644   20.299245

 Total Charge           Charge          ....    0
 Multiplicity           Mult            ....    1
 Number of Electrons    NEL             ....  154
 Basis Dimension        Dim             ....  828

ORBITAL ENERGIES
----------------

  NO   OCC          E(Eh)            E(eV)
   0   2.0000     -91.891037     -2500.4822
   1   2.0000     -20.596967      -560.4720
   2   2.0000     -20.588018      -560.2284
   3   2.0000     -20.553226      -559.2817
   4   2.0000     -15.630722      -425.3336
   5   2.0000     -15.609899      -424.7669
   6   2.0000     -11.397094      -310.1307
   7   2.0000     -11.386313      -309.8373
   8   2.0000     -11.339340      -308.5591
   9   2.0000     -11.313712      -307.8617
  10   2.0000     -11.310105      -307.7636
  11   2.0000     -11.307863      -307.7026
  12   2.0000     -11.265671      -306.5545
  13   2.0000     -11.264456      -306.5214
  14   2.0000     -11.259574      -306.3886
  15   2.0000     -11.253658      -306.2276
  16   2.0000     -11.243268      -305.9449
  17   2.0000     -11.239085      -305.8310
  18   2.0000     -11.235234      -305.7263
  19   2.0000     -11.225567      -305.4632
  20   2.0000      -8.896106      -242.0754
  21   2.0000      -6.577683      -178.9879
  22   2.0000      -6.575671      -178.9331
  23   2.0000      -6.575085      -178.9171
  24   2.0000      -1.446825       -39.3701
  25   2.0000      -1.416789       -38.5528
  26   2.0000      -1.357647       -36.9434
  27   2.0000      -1.342834       -36.5404
  28   2.0000      -1.240593       -33.7582
  29   2.0000      -1.157751       -31.5040
  30   2.0000      -1.122959       -30.5573
  31   2.0000      -1.045587       -28.4519
  32   2.0000      -1.033993       -28.1364
  33   2.0000      -1.015802       -27.6414
  34   2.0000      -1.003710       -27.3123
  35   2.0000      -0.988206       -26.8905
  36   2.0000      -0.926411       -25.2089
  37   2.0000      -0.894306       -24.3353
  38   2.0000      -0.853699       -23.2303
  39   2.0000      -0.841166       -22.8893
  40   2.0000      -0.833626       -22.6841
  41   2.0000      -0.827027       -22.5046
  42   2.0000      -0.744855       -20.2685
  43   2.0000      -0.732569       -19.9342
  44   2.0000      -0.729361       -19.8469
  45   2.0000      -0.694963       -18.9109
  46   2.0000      -0.686561       -18.6823
  47   2.0000      -0.681634       -18.5482
  48   2.0000      -0.675768       -18.3886
  49   2.0000      -0.663225       -18.0473
  50   2.0000      -0.653928       -17.7943
  51   2.0000      -0.649270       -17.6675
  52   2.0000      -0.638774       -17.3819
  53   2.0000      -0.624558       -16.9951
  54   2.0000      -0.607234       -16.5237
  55   2.0000      -0.604894       -16.4600
  56   2.0000      -0.600759       -16.3475
  57   2.0000      -0.582472       -15.8499
  58   2.0000      -0.574544       -15.6341
  59   2.0000      -0.565473       -15.3873
  60   2.0000      -0.557537       -15.1714
  61   2.0000      -0.546756       -14.8780
  62   2.0000      -0.541066       -14.7231
  63   2.0000      -0.532547       -14.4913
  64   2.0000      -0.520184       -14.1549
  65   2.0000      -0.512684       -13.9508
  66   2.0000      -0.500674       -13.6240
  67   2.0000      -0.490981       -13.3603
  68   2.0000      -0.486275       -13.2322
  69   2.0000      -0.468928       -12.7602
  70   2.0000      -0.458566       -12.4782
  71   2.0000      -0.448988       -12.2176
  72   2.0000      -0.359236        -9.7753
  73   2.0000      -0.349038        -9.4978
  74   2.0000      -0.330322        -8.9885
  75   2.0000      -0.321689        -8.7536
  76   2.0000      -0.319026        -8.6811
  77   0.0000       0.072170         1.9638
  78   0.0000       0.106279         2.8920
  79   0.0000       0.118368         3.2210
  80   0.0000       0.131433         3.5765
  81   0.0000       0.135691         3.6923

MULLIKEN ATOMIC CHARGES
-----------------------
   0 C :   -0.308356
   1 C :    0.036789
   2 O :   -0.368100
   3 C :    0.475758
   4 O :   -0.389705
   5 C :   -0.224871
   6 C :    0.146696
   7 C :   -0.320620
   8 N :   -0.128004
   9 C :    0.190523
  10 S :   -0.436381
  11 N :   -0.204107
  12 C :    0.055982
  13 C :    0.005464
  14 C :   -0.170842
  15 C :   -0.144223
  16 C :   -0.266202
  17 C :    0.301208
  18 O :   -0.358845
  19 C :   -0.239255
  20 H :    0.117073
  21 H :    0.104925
  22 H :    0.111376
  23 H :    0.119217
  24 H :    0.077823
  25 H :    0.143414
  26 H :    0.121051
  27 H :    0.123083
  28 H :    0.197681
  29 H :    0.195980
  30 H :    0.161411
  31 H :    0.168442
  32 H :    0.162478
  33 H :    0.131970
  34 H :    0.240737
  35 H :    0.170428
Sum of atomic charges:    0.0000000

LOEWDIN ATOMIC CHARGES
----------------------
   0 C :    0.110324
   1 C :   -0.019178
   2 O :    0.286870
   3 C :   -0.419350
   4 O :    0.127541
   5 C :   -0.090346
   6 C :   -0.075222
   7 C :    0.126908
   8 N :    0.404511
   9 C :   -0.460775
  10 S :   -0.034240
  11 N :    0.397627
  12 C :   -0.045185
  13 C :   -0.044368
  14 C :    0.021735
  15 C :    0.043311
  16 C :   -0.001140
  17 C :   -0.193727
  18 O :    0.394869
  19 C :    0.025825
  20 H :   -0.020349
  21 H :   -0.024637
  22 H :   -0.029650
  23 H :   -0.021001
  24 H :   -0.040570
  25 H :   -0.007351
  26 H :   -0.014753
  27 H :   -0.018144
  28 H :   -0.057388
  29 H :   -0.063245
  30 H :   -0.002887
  31 H :   -0.023065
  32 H :   -0.019423
  33 H :   -0.035154
  34 H :   -0.153703
  35 H :   -0.024670

  Mayer bond orders larger than 0.100000
B(  0-C ,  1-C ) :   0.9696 B(  0-C , 20-H ) :   0.9721 B(  0-C , 21-H ) :   0.9774
B(  0-C , 22-H ) :   0.9666 B(  1-C ,  2-O ) :   0.8983 B(  1-C , 23-H ) :   0.9799
B(  1-C , 24-H ) :   0.9732 B(  2-O ,  3-C ) :   1.1139 B(  3-C ,  4-O ) :   2.0568
B(  3-C ,  5-C ) :   0.9890 B(  5-C ,  6-C ) :   1.6678 B(  5-C , 12-C ) :   0.9555
B(  6-C ,  7-C ) :   0.9421 B(  6-C ,  8-N ) :   1.1331 B(  7-C , 25-H ) :   0.9680
B(  7-C , 26-H ) :   0.9837 B(  7-C , 27-H ) :   0.9661 B(  8-N ,  9-C ) :   1.1834
B(  8-N , 28-H ) :   0.9507 B(  9-C , 10-S ) :   1.6151 B(  9-C , 11-N ) :   1.2978
B( 11-N , 12-C ) :   0.9901 B( 11-N , 29-H ) :   0.9514 B( 12-C , 13-C ) :   0.9477
B( 12-C , 30-H ) :   0.9980 B( 13-C , 14-C ) :   1.3920 B( 13-C , 19-C ) :   1.3566
B( 14-C , 15-C ) :   1.3948 B( 14-C , 31-H ) :   0.9585 B( 15-C , 16-C ) :   1.3624
B( 15-C , 32-H ) :   0.9707 B( 16-C , 17-C ) :   1.3313 B( 16-C , 33-H ) :   0.9843
B( 17-C , 18-O ) :   1.1122 B( 17-C , 19-C ) :   1.3714 B( 18-O , 34-H ) :   0.9798
B( 19-C , 35-H ) :   0.9590

MP2 TOTAL ENERGY:    -1274.332942329 Eh
FINAL SINGLE POINT ENERGY     -1274.332942328529

DIPOLE MOMENT
-------------
                                X             Y             Z
Electronic contribution:      9.45239       8.25698       6.29328
Nuclear contribution   :    -10.98321      -9.23956      -6.81686
                        -----------------------------------------
Total Dipole Moment    :     -1.53082      -0.98257      -0.52359
                        -----------------------------------------
Magnitude (a.u.)       :      1.89288
Magnitude (Debye)      :      4.81132

Rotational constants in cm-1:     0.011484     0.009755     0.006659
Rotational constants in MHz :   344.269235   292.448891   199.630363

                             ****ORCA TERMINATED NORMALLY****
TOTAL RUN TIME: 0 days 2 hours 15 minutes 19 seconds 572 msec
