                         Program Version 5.0.0 -  RELEASE  -
|  1> ! ri-mp2 cc-pvtz cc-pvtz/c TightSCF NoKeepInts
|  2>
|  3> %scf
|  4>   MaxCore 4096
|  5> end
|  6> *xyz  0  1
|  7>     C       14.6537129   14.5531312   14.8738029
|  8>     C       15.4664063   14.4945145   16.1780391
|  9>     O       16.4151179   15.5746900   16.1393235
| 10>     C       17.5662176   15.4777308   16.8661322
| 11>     O       18.0492175   14.3986880   17.1679655
| 12>     C       17.9149833   16.7368708   17.6057315
| 13>     C       17.5409862   17.9856613   17.2231697
| 14>     C       16.7400943   18.3831392   16.0000514
| 15>     N       17.9715281   19.0951477   17.9580928
| 16>     C       18.8861824   19.0527793   18.9771537
| 17>     S       19.4386060   20.4285518   19.7104066
| 18>     N       19.3208310   17.8082657   19.3570172
| 19>     C       18.7626458   16.5340158   18.8665941
| 20>     C       17.9541448   15.8480338   19.9648704
| 21>     C       18.2524550   14.5280535   20.3505310
| 22>     C       17.5091027   13.8903229   21.3578355
| 23>     C       16.4569184   14.5776578   21.9864011
| 24>     C       16.1538208   15.8910489   21.6027456
| 25>     O       15.1341135   16.5551875   22.2031254
| 26>     C       16.8951040   16.5229214   20.5994037
| 27>     H       14.1223461   15.5092627   14.7910411
| 28>     H       13.9132469   13.7444789   14.8457362
| 29>     H       15.3127153   14.4451946   14.0032046
| 30>     H       14.8116933   14.5893837   17.0542608
| 31>     H       15.9745915   13.5215192   16.2259161
| 32>     H       17.1134272   17.8704650   15.1047054
| 33>     H       16.7875849   19.4595900   15.7954464
| 34>     H       15.6836173   18.1150452   16.1256520
| 35>     H       17.6643191   20.0175762   17.6939378
| 36>     H       19.9714702   17.8025242   20.1319867
| 37>     H       19.6069101   15.8811936   18.6015401
| 38>     H       19.0545858   13.9881131   19.8532162
| 39>     H       17.7466660   12.8669010   21.6424733
| 40>     H       15.8792505   14.0882810   22.7634105
| 41>     H       14.7765224   15.9750125   22.8918474
| 42>     H       16.6458649   17.5410473   20.3212325
| 43> *
| 44>
| 45>                          ****END OF INPUT****

CARTESIAN COORDINATES (ANGSTROEM)
---------------------------------
  C     14.653713   14.553131   14.873803
  C     15.466406   14.494514   16.178039
  O     16.415118   15.574690   16.139323
  C     17.566218   15.477731   16.866132
  O     18.049218   14.398688   17.167966
  C     17.914983   16.736871   17.605732
  C     17.540986   17.985661   17.223170
  C     16.740094   18.383139   16.000051
  N     17.971528   19.095148   17.958093
  C     18.886182   19.052779   18.977154
  S     19.438606   20.428552   19.710407
  N     19.320831   17.808266   19.357017
  C     18.762646   16.534016   18.866594
  C     17.954145   15.848034   19.964870
  C     18.252455   14.528054   20.350531
  C     17.509103   13.890323   21.357836
  C     16.456918   14.577658   21.986401
  C     16.153821   15.891049   21.602746
  O     15.134113   16.555187   22.203125
  C     16.895104   16.522921   20.599404
  H     14.122346   15.509263   14.791041
  H     13.913247   13.744479   14.845736
  H     15.312715   14.445195   14.003205
  H     14.811693   14.589384   17.054261
  H     15.974591   13.521519   16.225916
  H     17.113427   17.870465   15.104705
  H     16.787585   19.459590   15.795446
  H     15.683617   18.115045   16.125652
  H     17.664319   20.017576   17.693938
  H     19.971470   17.802524   20.131987
  H     19.606910   15.881194   18.601540
  H     19.054586   13.988113   19.853216
  H     17.746666   12.866901   21.642473
  H     15.879250   14.088281   22.763410
  H     14.776522   15.975012   22.891847
  H     16.645865   17.541047   20.321233

 Total Charge           Charge          ....    0
 Multiplicity           Mult            ....    1
 Number of Electrons    NEL             ....  154
 Basis Dimension        Dim             ....  828

ORBITAL ENERGIES
----------------

  NO   OCC          E(Eh)            E(eV)
   0   2.0000     -91.888071     -2500.4015
   1   2.0000     -20.597833      -560.4955
   2   2.0000     -20.592456      -560.3492
   3   2.0000     -20.548669      -559.1577
   4   2.0000     -15.628206      -425.2651
   5   2.0000     -15.606892      -424.6851
   6   2.0000     -11.395519      -310.0878
   7   2.0000     -11.383115      -309.7503
   8   2.0000     -11.335130      -308.4446
   9   2.0000     -11.308308      -307.7147
  10   2.0000     -11.306215      -307.6578
  11   2.0000     -11.298295      -307.4422
  12   2.0000     -11.260164      -306.4046
  13   2.0000     -11.259216      -306.3789
  14   2.0000     -11.254153      -306.2411
  15   2.0000     -11.248409      -306.0848
  16   2.0000     -11.238061      -305.8032
  17   2.0000     -11.234145      -305.6966
  18   2.0000     -11.232862      -305.6617
  19   2.0000     -11.231181      -305.6160
  20   2.0000      -8.893137      -241.9946
  21   2.0000      -6.574715      -178.9071
  22   2.0000      -6.572707      -178.8525
  23   2.0000      -6.572122      -178.8365
  24   2.0000      -1.453795       -39.5598
  25   2.0000      -1.412196       -38.4278
  26   2.0000      -1.357386       -36.9363
  27   2.0000      -1.339179       -36.4409
  28   2.0000      -1.236958       -33.6593
  29   2.0000      -1.152757       -31.3681
  30   2.0000      -1.119805       -30.4714
  31   2.0000      -1.044196       -28.4140
  32   2.0000      -1.036688       -28.2097
  33   2.0000      -1.010159       -27.4878
  34   2.0000      -0.997751       -27.1502
  35   2.0000      -0.983328       -26.7577
  36   2.0000      -0.921371       -25.0718
  37   2.0000      -0.886404       -24.1203
  38   2.0000      -0.847147       -23.0521
  39   2.0000      -0.835640       -22.7389
  40   2.0000      -0.828585       -22.5469
  41   2.0000      -0.820047       -22.3146
  42   2.0000      -0.760390       -20.6913
  43   2.0000      -0.735894       -20.0247
  44   2.0000      -0.725490       -19.7416
  45   2.0000      -0.690884       -18.7999
  46   2.0000      -0.684607       -18.6291
  47   2.0000      -0.680398       -18.5146
  48   2.0000      -0.674796       -18.3621
  49   2.0000      -0.653801       -17.7908
  50   2.0000      -0.651066       -17.7164
  51   2.0000      -0.642566       -17.4851
  52   2.0000      -0.633264       -17.2320
  53   2.0000      -0.611726       -16.6459
  54   2.0000      -0.601136       -16.3577
  55   2.0000      -0.600624       -16.3438
  56   2.0000      -0.595799       -16.2125
  57   2.0000      -0.578151       -15.7323
  58   2.0000      -0.573900       -15.6166
  59   2.0000      -0.562394       -15.3035
  60   2.0000      -0.561397       -15.2764
  61   2.0000      -0.545122       -14.8335
  62   2.0000      -0.539808       -14.6889
  63   2.0000      -0.527393       -14.3511
  64   2.0000      -0.517881       -14.0923
  65   2.0000      -0.509751       -13.8710
  66   2.0000      -0.500596       -13.6219
  67   2.0000      -0.495554       -13.4847
  68   2.0000      -0.481460       -13.1012
  69   2.0000      -0.463952       -12.6248
  70   2.0000      -0.461350       -12.5540
  71   2.0000      -0.451801       -12.2941
  72   2.0000      -0.353958        -9.6317
  73   2.0000      -0.344598        -9.3770
  74   2.0000      -0.327238        -8.9046
  75   2.0000      -0.315840        -8.5944
  76   2.0000      -0.314437        -8.5563
  77   0.0000       0.074556         2.0288
  78   0.0000       0.110980         3.0199
  79   0.0000       0.120194         3.2706
  80   0.0000       0.135254         3.6805
  81   0.0000       0.138219         3.7611

MULLIKEN ATOMIC CHARGES
-----------------------
   0 C :   -0.266084
   1 C :    0.030941
   2 O :   -0.354825
   3 C :    0.454544
   4 O :   -0.417625
   5 C :   -0.184027
   6 C :    0.141657
   7 C :   -0.286112
   8 N :   -0.123519
   9 C :    0.202034
  10 S :   -0.439718
  11 N :   -0.198280
  12 C :    0.040561
  13 C :    0.054099
  14 C :   -0.161401
  15 C :   -0.133556
  16 C :   -0.279575
  17 C :    0.310976
  18 O :   -0.359046
  19 C :   -0.273009
  20 H :    0.089962
  21 H :    0.093896
  22 H :    0.098760
  23 H :    0.095334
  24 H :    0.116591
  25 H :    0.125762
  26 H :    0.103578
  27 H :    0.126248
  28 H :    0.196969
  29 H :    0.193807
  30 H :    0.154113
  31 H :    0.153775
  32 H :    0.159350
  33 H :    0.128376
  34 H :    0.240186
  35 H :    0.165260
Sum of atomic charges:   -0.0000000

LOEWDIN ATOMIC CHARGES
----------------------
   0 C :    0.106153
   1 C :   -0.013753
   2 O :    0.301453
   3 C :   -0.413491
   4 O :    0.111453
   5 C :   -0.091917
   6 C :   -0.068654
   7 C :    0.125152
   8 N :    0.404551
   9 C :   -0.458465
  10 S :   -0.036318
  11 N :    0.397567
  12 C :   -0.046071
  13 C :   -0.039068
  14 C :    0.021913
  15 C :    0.041040
  16 C :   -0.002412
  17 C :   -0.193004
  18 O :    0.392972
  19 C :    0.028187
  20 H :   -0.030519
  21 H :   -0.024460
  22 H :   -0.025247
  23 H :   -0.030792
  24 H :   -0.026952
  25 H :   -0.008365
  26 H :   -0.020511
  27 H :   -0.010357
  28 H :   -0.059023
  29 H :   -0.063821
  30 H :   -0.004853
  31 H :   -0.025215
  32 H :   -0.021105
  33 H :   -0.036326
  34 H :   -0.154801
  35 H :   -0.024944

  Mayer bond orders larger than 0.100000
B(  0-C ,  1-C ) :   0.9742 B(  0-C , 20-H ) :   0.9795 B(  0-C , 21-H ) :   0.9770
B(  0-C , 22-H ) :   0.9775 B(  1-C ,  2-O ) :   0.8925 B(  1-C , 23-H ) :   0.9743
B(  1-C , 24-H ) :   0.9759 B(  2-O ,  3-C ) :   1.1272 B(  3-C ,  4-O ) :   2.0033
B(  3-C ,  5-C ) :   1.0433 B(  5-C ,  6-C ) :   1.6547 B(  5-C , 12-C ) :   0.9653
B(  6-C ,  7-C ) :   0.9533 B(  6-C ,  8-N ) :   1.1426 B(  7-C , 25-H ) :   0.9676
B(  7-C , 26-H ) :   0.9907 B(  7-C , 27-H ) :   0.9632 B(  8-N ,  9-C ) :   1.1808
B(  8-N , 28-H ) :   0.9492 B(  9-C , 10-S ) :   1.6104 B(  9-C , 11-N ) :   1.3030
B( 11-N , 12-C ) :   0.9911 B( 11-N , 29-H ) :   0.9519 B( 12-C , 13-C ) :   0.9474
B( 12-C , 30-H ) :   0.9991 B( 13-C , 14-C ) :   1.3769 B( 13-C , 19-C ) :   1.3686
B( 14-C , 15-C ) :   1.3947 B( 14-C , 31-H ) :   0.9647 B( 15-C , 16-C ) :   1.3629
B( 15-C , 32-H ) :   0.9713 B( 16-C , 17-C ) :   1.3314 B( 16-C , 33-H ) :   0.9859
B( 17-C , 18-O ) :   1.1082 B( 17-C , 19-C ) :   1.3785 B( 18-O , 34-H ) :   0.9805
B( 19-C , 35-H ) :   0.9583

MP2 TOTAL ENERGY:    -1274.339466717 Eh
FINAL SINGLE POINT ENERGY     -1274.339466717097

DIPOLE MOMENT
-------------
                                X             Y             Z
Electronic contribution:     11.60888       9.27762      10.82550
Nuclear contribution   :    -13.16063     -10.55951     -11.62510
                        -----------------------------------------
Total Dipole Moment    :     -1.55175      -1.28189      -0.79960
                        -----------------------------------------
Magnitude (a.u.)       :      2.16576
Magnitude (Debye)      :      5.50492

Rotational constants in cm-1:     0.010438     0.008997     0.005952
Rotational constants in MHz :   312.920013   269.731122   178.443015

                             ****ORCA TERMINATED NORMALLY****
TOTAL RUN TIME: 0 days 1 hours 47 minutes 26 seconds 215 msec
