                         Program Version 5.0.0 -  RELEASE  -
|  1> ! ri-mp2 cc-pvtz cc-pvtz/c TightSCF NoKeepInts
|  2>
|  3> %scf
|  4>   MaxCore 4096
|  5> end
|  6> *xyz  0  1
|  7>     C       15.2321268   14.0610423   15.1972573
|  8>     C       15.8385742   14.0758277   16.6174197
|  9>     O       16.8536868   15.0926081   16.7601633
| 10>     C       16.5878796   16.4321352   16.6476042
| 11>     O       15.6077867   16.8716079   16.0728956
| 12>     C       17.4683885   17.2600386   17.5447730
| 13>     C       17.3900264   18.6146923   17.5926405
| 14>     C       16.4598050   19.5092422   16.8010945
| 15>     N       18.2600252   19.3393777   18.4128912
| 16>     C       19.3006583   18.8008631   19.1212689
| 17>     S       20.3484438   19.7416089   19.9890912
| 18>     N       19.4338089   17.4369329   19.0708731
| 19>     C       18.4767528   16.5133189   18.4350102
| 20>     C       17.7829732   15.6763680   19.5065268
| 21>     C       18.0476497   14.2981770   19.6167038
| 22>     C       17.4071887   13.5232215   20.5982473
| 23>     C       16.4969466   14.1314823   21.4793907
| 24>     C       16.2350979   15.5046024   21.3760620
| 25>     O       15.3580713   16.0950154   22.2264706
| 26>     C       16.8734560   16.2730030   20.3977572
| 27>     H       14.5238764   14.8848908   15.0499116
| 28>     H       14.6842365   13.1260702   15.0297579
| 29>     H       16.0190377   14.1358031   14.4366789
| 30>     H       15.0427599   14.2315957   17.3580675
| 31>     H       16.2941254   13.0977385   16.8178570
| 32>     H       15.4145436   19.3103984   17.0706597
| 33>     H       16.5616754   19.3182462   15.7252791
| 34>     H       16.6478332   20.5767331   16.9650740
| 35>     H       18.1777413   20.3423485   18.4609374
| 36>     H       20.1880493   17.0659719   19.6341530
| 37>     H       19.0554458   15.8389106   17.7882770
| 38>     H       18.7481322   13.8249343   18.9338327
| 39>     H       17.6177662   12.4579130   20.6749377
| 40>     H       16.0006103   13.5377073   22.2399301
| 41>     H       15.0498344   15.4163415   22.8454697
| 42>     H       16.6619857   17.3352314   20.3390354
| 43> *
| 44>
| 45>                          ****END OF INPUT****

CARTESIAN COORDINATES (ANGSTROEM)
---------------------------------
  C     15.232127   14.061042   15.197257
  C     15.838574   14.075828   16.617420
  O     16.853687   15.092608   16.760163
  C     16.587880   16.432135   16.647604
  O     15.607787   16.871608   16.072896
  C     17.468388   17.260039   17.544773
  C     17.390026   18.614692   17.592641
  C     16.459805   19.509242   16.801095
  N     18.260025   19.339378   18.412891
  C     19.300658   18.800863   19.121269
  S     20.348444   19.741609   19.989091
  N     19.433809   17.436933   19.070873
  C     18.476753   16.513319   18.435010
  C     17.782973   15.676368   19.506527
  C     18.047650   14.298177   19.616704
  C     17.407189   13.523221   20.598247
  C     16.496947   14.131482   21.479391
  C     16.235098   15.504602   21.376062
  O     15.358071   16.095015   22.226471
  C     16.873456   16.273003   20.397757
  H     14.523876   14.884891   15.049912
  H     14.684236   13.126070   15.029758
  H     16.019038   14.135803   14.436679
  H     15.042760   14.231596   17.358068
  H     16.294125   13.097739   16.817857
  H     15.414544   19.310398   17.070660
  H     16.561675   19.318246   15.725279
  H     16.647833   20.576733   16.965074
  H     18.177741   20.342348   18.460937
  H     20.188049   17.065972   19.634153
  H     19.055446   15.838911   17.788277
  H     18.748132   13.824934   18.933833
  H     17.617766   12.457913   20.674938
  H     16.000610   13.537707   22.239930
  H     15.049834   15.416341   22.845470
  H     16.661986   17.335231   20.339035

 Total Charge           Charge          ....    0
 Multiplicity           Mult            ....    1
 Number of Electrons    NEL             ....  154
 Basis Dimension        Dim             ....  828

ORBITAL ENERGIES
----------------

  NO   OCC          E(Eh)            E(eV)
   0   2.0000     -91.888446     -2500.4117
   1   2.0000     -20.596957      -560.4717
   2   2.0000     -20.596529      -560.4601
   3   2.0000     -20.543163      -559.0079
   4   2.0000     -15.628575      -425.2752
   5   2.0000     -15.607721      -424.7077
   6   2.0000     -11.396537      -310.1155
   7   2.0000     -11.383485      -309.7604
   8   2.0000     -11.335154      -308.4452
   9   2.0000     -11.313702      -307.8615
  10   2.0000     -11.308534      -307.7209
  11   2.0000     -11.300172      -307.4933
  12   2.0000     -11.259510      -306.3868
  13   2.0000     -11.258559      -306.3610
  14   2.0000     -11.255214      -306.2699
  15   2.0000     -11.251897      -306.1797
  16   2.0000     -11.242802      -305.9322
  17   2.0000     -11.238103      -305.8043
  18   2.0000     -11.237913      -305.7992
  19   2.0000     -11.219499      -305.2981
  20   2.0000      -8.893512      -242.0048
  21   2.0000      -6.575088      -178.9172
  22   2.0000      -6.573083      -178.8627
  23   2.0000      -6.572497      -178.8467
  24   2.0000      -1.447506       -39.3886
  25   2.0000      -1.416169       -38.5359
  26   2.0000      -1.355307       -36.8798
  27   2.0000      -1.339615       -36.4528
  28   2.0000      -1.238070       -33.6896
  29   2.0000      -1.157245       -31.4902
  30   2.0000      -1.119564       -30.4649
  31   2.0000      -1.042233       -28.3606
  32   2.0000      -1.034600       -28.1529
  33   2.0000      -1.014903       -27.6169
  34   2.0000      -0.994662       -27.0661
  35   2.0000      -0.983173       -26.7535
  36   2.0000      -0.922126       -25.0923
  37   2.0000      -0.893255       -24.3067
  38   2.0000      -0.846927       -23.0461
  39   2.0000      -0.837815       -22.7981
  40   2.0000      -0.833838       -22.6899
  41   2.0000      -0.819540       -22.3008
  42   2.0000      -0.751479       -20.4488
  43   2.0000      -0.731075       -19.8936
  44   2.0000      -0.720815       -19.6144
  45   2.0000      -0.695531       -18.9264
  46   2.0000      -0.688178       -18.7263
  47   2.0000      -0.680371       -18.5138
  48   2.0000      -0.669223       -18.2105
  49   2.0000      -0.653805       -17.7909
  50   2.0000      -0.649959       -17.6863
  51   2.0000      -0.645179       -17.5562
  52   2.0000      -0.633324       -17.2336
  53   2.0000      -0.606956       -16.5161
  54   2.0000      -0.602898       -16.4057
  55   2.0000      -0.598702       -16.2915
  56   2.0000      -0.598217       -16.2783
  57   2.0000      -0.581750       -15.8302
  58   2.0000      -0.574304       -15.6276
  59   2.0000      -0.570591       -15.5266
  60   2.0000      -0.562622       -15.3097
  61   2.0000      -0.538555       -14.6548
  62   2.0000      -0.535372       -14.5682
  63   2.0000      -0.524757       -14.2794
  64   2.0000      -0.519345       -14.1321
  65   2.0000      -0.512661       -13.9502
  66   2.0000      -0.501509       -13.6468
  67   2.0000      -0.499237       -13.5849
  68   2.0000      -0.484553       -13.1853
  69   2.0000      -0.463776       -12.6200
  70   2.0000      -0.455879       -12.4051
  71   2.0000      -0.441017       -12.0007
  72   2.0000      -0.353613        -9.6223
  73   2.0000      -0.349165        -9.5013
  74   2.0000      -0.327873        -8.9219
  75   2.0000      -0.321243        -8.7415
  76   2.0000      -0.315618        -8.5884
  77   0.0000       0.075559         2.0561
  78   0.0000       0.106826         2.9069
  79   0.0000       0.125065         3.4032
  80   0.0000       0.132625         3.6089
  81   0.0000       0.137862         3.7514

MULLIKEN ATOMIC CHARGES
-----------------------
   0 C :   -0.292293
   1 C :    0.049289
   2 O :   -0.366315
   3 C :    0.462764
   4 O :   -0.430403
   5 C :   -0.211082
   6 C :    0.149840
   7 C :   -0.273489
   8 N :   -0.120846
   9 C :    0.212381
  10 S :   -0.440785
  11 N :   -0.204788
  12 C :    0.057672
  13 C :    0.066535
  14 C :   -0.189537
  15 C :   -0.129504
  16 C :   -0.280283
  17 C :    0.315840
  18 O :   -0.356427
  19 C :   -0.269509
  20 H :    0.125530
  21 H :    0.093394
  22 H :    0.092873
  23 H :    0.093145
  24 H :    0.101803
  25 H :    0.132605
  26 H :    0.129146
  27 H :    0.095343
  28 H :    0.197209
  29 H :    0.194444
  30 H :    0.149368
  31 H :    0.149577
  32 H :    0.160465
  33 H :    0.130203
  34 H :    0.240709
  35 H :    0.165125
Sum of atomic charges:   -0.0000000

LOEWDIN ATOMIC CHARGES
----------------------
   0 C :    0.104142
   1 C :   -0.012518
   2 O :    0.297870
   3 C :   -0.412522
   4 O :    0.107506
   5 C :   -0.094172
   6 C :   -0.059528
   7 C :    0.130860
   8 N :    0.406432
   9 C :   -0.456532
  10 S :   -0.036063
  11 N :    0.396308
  12 C :   -0.052472
  13 C :   -0.037717
  14 C :    0.014075
  15 C :    0.038639
  16 C :   -0.002493
  17 C :   -0.189595
  18 O :    0.395297
  19 C :    0.031067
  20 H :   -0.026875
  21 H :   -0.029913
  22 H :   -0.027717
  23 H :   -0.028251
  24 H :   -0.024814
  25 H :   -0.004767
  26 H :   -0.004457
  27 H :   -0.023415
  28 H :   -0.057683
  29 H :   -0.064754
  30 H :   -0.010675
  31 H :   -0.030367
  32 H :   -0.021464
  33 H :   -0.035717
  34 H :   -0.153933
  35 H :   -0.023784

  Mayer bond orders larger than 0.100000
B(  0-C ,  1-C ) :   0.9761 B(  0-C , 20-H ) :   0.9716 B(  0-C , 21-H ) :   0.9785
B(  0-C , 22-H ) :   0.9754 B(  1-C ,  2-O ) :   0.8931 B(  1-C , 23-H ) :   0.9735
B(  1-C , 24-H ) :   0.9831 B(  2-O ,  3-C ) :   1.1384 B(  3-C ,  4-O ) :   1.9673
B(  3-C ,  5-C ) :   1.0646 B(  5-C ,  6-C ) :   1.6557 B(  5-C , 12-C ) :   0.9736
B(  6-C ,  7-C ) :   0.9674 B(  6-C ,  8-N ) :   1.1623 B(  7-C , 25-H ) :   0.9596
B(  7-C , 26-H ) :   0.9612 B(  7-C , 27-H ) :   0.9909 B(  8-N ,  9-C ) :   1.1829
B(  8-N , 28-H ) :   0.9480 B(  9-C , 10-S ) :   1.6064 B(  9-C , 11-N ) :   1.3057
B( 11-N , 12-C ) :   0.9844 B( 11-N , 29-H ) :   0.9517 B( 12-C , 13-C ) :   0.9355
B( 12-C , 30-H ) :   1.0024 B( 13-C , 14-C ) :   1.3550 B( 13-C , 19-C ) :   1.3840
B( 14-C , 15-C ) :   1.3913 B( 14-C , 31-H ) :   0.9721 B( 15-C , 16-C ) :   1.3640
B( 15-C , 32-H ) :   0.9706 B( 16-C , 17-C ) :   1.3313 B( 16-C , 33-H ) :   0.9849
B( 17-C , 18-O ) :   1.1106 B( 17-C , 19-C ) :   1.3719 B( 18-O , 34-H ) :   0.9799
B( 19-C , 35-H ) :   0.9582

MP2 TOTAL ENERGY:    -1274.341657486 Eh
FINAL SINGLE POINT ENERGY     -1274.341657485904

DIPOLE MOMENT
-------------
                                X             Y             Z
Electronic contribution:     10.31657       9.80321       9.26971
Nuclear contribution   :    -11.38469     -11.48611      -9.55846
                        -----------------------------------------
Total Dipole Moment    :     -1.06812      -1.68291      -0.28876
                        -----------------------------------------
Magnitude (a.u.)       :      2.01406
Magnitude (Debye)      :      5.11933

Rotational constants in cm-1:     0.011447     0.008741     0.006076
Rotational constants in MHz :   343.157740   262.055798   182.164042

                             ****ORCA TERMINATED NORMALLY****
TOTAL RUN TIME: 0 days 1 hours 44 minutes 32 seconds 901 msec
