                         Program Version 5.0.0 -  RELEASE  -
|  1> ! ri-mp2 cc-pvtz cc-pvtz/c TightSCF NoKeepInts
|  2>
|  3> %scf
|  4>   MaxCore 4096
|  5> end
|  6> *xyz  0  1
|  7>     C       14.6738462   14.4470032   17.2806402
|  8>     C       15.5955495   15.5147040   16.6698125
|  9>     O       16.9260303   14.9725972   16.6767027
| 10>     C       18.0363970   15.7446770   16.4714898
| 11>     O       19.0840382   15.1799962   16.2196055
| 12>     C       18.0696412   16.9333737   17.3690976
| 13>     C       17.5904491   18.1331522   16.9749653
| 14>     C       16.9646988   18.4552842   15.6352718
| 15>     N       17.6833129   19.2334481   17.8297169
| 16>     C       18.3266412   19.2242964   19.0408052
| 17>     S       18.4408838   20.5865282   19.9711426
| 18>     N       18.8641182   18.0264887   19.4473054
| 19>     C       18.7202316   16.7392235   18.7369321
| 20>     C       17.9400734   15.7285292   19.5711288
| 21>     C       18.3923540   14.4004893   19.6749259
| 22>     C       17.6692177   13.4542228   20.4200259
| 23>     C       16.4809808   13.8373937   21.0649285
| 24>     C       16.0227188   15.1572240   20.9566740
| 25>     O       14.8665135   15.5261172   21.5631052
| 26>     C       16.7439865   16.0974311   20.2142594
| 27>     H       14.9964965   14.1968735   18.2990517
| 28>     H       14.6942395   13.5295662   16.6792569
| 29>     H       13.6391917   14.8074919   17.3263717
| 30>     H       15.2812124   15.7572427   15.6463597
| 31>     H       15.5267685   16.4167695   17.2902626
| 32>     H       17.2229318   17.7132366   14.8695354
| 33>     H       17.3147286   19.4255028   15.2598302
| 34>     H       15.8714107   18.4990078   15.7113005
| 35>     H       17.3048650   20.1239548   17.5471571
| 36>     H       19.3117159   18.0457344   20.3549537
| 37>     H       19.7295150   16.3360605   18.5670211
| 38>     H       19.2999629   14.0964237   19.1582058
| 39>     H       18.0269000   12.4282220   20.4870346
| 40>     H       15.9176222   13.1080122   21.6373752
| 41>     H       14.5491395   14.7632338   22.0697632
| 42>     H       16.3686168   17.1124876   20.1419851
| 43> *
| 44>
| 45>                          ****END OF INPUT****

CARTESIAN COORDINATES (ANGSTROEM)
---------------------------------
  C     14.673846   14.447003   17.280640
  C     15.595550   15.514704   16.669812
  O     16.926030   14.972597   16.676703
  C     18.036397   15.744677   16.471490
  O     19.084038   15.179996   16.219606
  C     18.069641   16.933374   17.369098
  C     17.590449   18.133152   16.974965
  C     16.964699   18.455284   15.635272
  N     17.683313   19.233448   17.829717
  C     18.326641   19.224296   19.040805
  S     18.440884   20.586528   19.971143
  N     18.864118   18.026489   19.447305
  C     18.720232   16.739224   18.736932
  C     17.940073   15.728529   19.571129
  C     18.392354   14.400489   19.674926
  C     17.669218   13.454223   20.420026
  C     16.480981   13.837394   21.064929
  C     16.022719   15.157224   20.956674
  O     14.866513   15.526117   21.563105
  C     16.743986   16.097431   20.214259
  H     14.996496   14.196874   18.299052
  H     14.694240   13.529566   16.679257
  H     13.639192   14.807492   17.326372
  H     15.281212   15.757243   15.646360
  H     15.526768   16.416770   17.290263
  H     17.222932   17.713237   14.869535
  H     17.314729   19.425503   15.259830
  H     15.871411   18.499008   15.711301
  H     17.304865   20.123955   17.547157
  H     19.311716   18.045734   20.354954
  H     19.729515   16.336060   18.567021
  H     19.299963   14.096424   19.158206
  H     18.026900   12.428222   20.487035
  H     15.917622   13.108012   21.637375
  H     14.549139   14.763234   22.069763
  H     16.368617   17.112488   20.141985

 Total Charge           Charge          ....    0
 Multiplicity           Mult            ....    1
 Number of Electrons    NEL             ....  154
 Basis Dimension        Dim             ....  828

ORBITAL ENERGIES
----------------

  NO   OCC          E(Eh)            E(eV)
   0   2.0000     -91.887656     -2500.3902
   1   2.0000     -20.602173      -560.6136
   2   2.0000     -20.599325      -560.5361
   3   2.0000     -20.557706      -559.4036
   4   2.0000     -15.623007      -425.1236
   5   2.0000     -15.610534      -424.7842
   6   2.0000     -11.395318      -310.0824
   7   2.0000     -11.384679      -309.7929
   8   2.0000     -11.321793      -308.0816
   9   2.0000     -11.316046      -307.9253
  10   2.0000     -11.315772      -307.9178
  11   2.0000     -11.304049      -307.5988
  12   2.0000     -11.269571      -306.6606
  13   2.0000     -11.263387      -306.4924
  14   2.0000     -11.262570      -306.4701
  15   2.0000     -11.255970      -306.2905
  16   2.0000     -11.244957      -305.9908
  17   2.0000     -11.240962      -305.8821
  18   2.0000     -11.238592      -305.8176
  19   2.0000     -11.230310      -305.5923
  20   2.0000      -8.892798      -241.9853
  21   2.0000      -6.574395      -178.8984
  22   2.0000      -6.572361      -178.8430
  23   2.0000      -6.571795      -178.8276
  24   2.0000      -1.455685       -39.6112
  25   2.0000      -1.419114       -38.6160
  26   2.0000      -1.363373       -37.0993
  27   2.0000      -1.337255       -36.3886
  28   2.0000      -1.237815       -33.6827
  29   2.0000      -1.160073       -31.5672
  30   2.0000      -1.124429       -30.5973
  31   2.0000      -1.048250       -28.5243
  32   2.0000      -1.040189       -28.3050
  33   2.0000      -1.017692       -27.6928
  34   2.0000      -1.003887       -27.3171
  35   2.0000      -0.987516       -26.8717
  36   2.0000      -0.926889       -25.2219
  37   2.0000      -0.881389       -23.9838
  38   2.0000      -0.853271       -23.2187
  39   2.0000      -0.840261       -22.8647
  40   2.0000      -0.836256       -22.7557
  41   2.0000      -0.835785       -22.7429
  42   2.0000      -0.759058       -20.6550
  43   2.0000      -0.737425       -20.0664
  44   2.0000      -0.730744       -19.8846
  45   2.0000      -0.697857       -18.9897
  46   2.0000      -0.690160       -18.7802
  47   2.0000      -0.683625       -18.6024
  48   2.0000      -0.676726       -18.4147
  49   2.0000      -0.661216       -17.9926
  50   2.0000      -0.655863       -17.8469
  51   2.0000      -0.646934       -17.6040
  52   2.0000      -0.638568       -17.3763
  53   2.0000      -0.611157       -16.6304
  54   2.0000      -0.611100       -16.6289
  55   2.0000      -0.606016       -16.4905
  56   2.0000      -0.601729       -16.3739
  57   2.0000      -0.586720       -15.9655
  58   2.0000      -0.577554       -15.7161
  59   2.0000      -0.566372       -15.4118
  60   2.0000      -0.560546       -15.2532
  61   2.0000      -0.552595       -15.0369
  62   2.0000      -0.544667       -14.8211
  63   2.0000      -0.529784       -14.4162
  64   2.0000      -0.520933       -14.1753
  65   2.0000      -0.513492       -13.9728
  66   2.0000      -0.503279       -13.6949
  67   2.0000      -0.501170       -13.6375
  68   2.0000      -0.489468       -13.3191
  69   2.0000      -0.467589       -12.7237
  70   2.0000      -0.457158       -12.4399
  71   2.0000      -0.452621       -12.3164
  72   2.0000      -0.354910        -9.6576
  73   2.0000      -0.350638        -9.5414
  74   2.0000      -0.327616        -8.9149
  75   2.0000      -0.323274        -8.7967
  76   2.0000      -0.315744        -8.5918
  77   0.0000       0.091549         2.4912
  78   0.0000       0.099814         2.7161
  79   0.0000       0.107362         2.9215
  80   0.0000       0.126618         3.4455
  81   0.0000       0.128718         3.5026

MULLIKEN ATOMIC CHARGES
-----------------------
   0 C :   -0.265119
   1 C :    0.002398
   2 O :   -0.302055
   3 C :    0.381088
   4 O :   -0.363459
   5 C :   -0.145029
   6 C :    0.112148
   7 C :   -0.320111
   8 N :   -0.134445
   9 C :    0.207625
  10 S :   -0.445121
  11 N :   -0.211470
  12 C :    0.045078
  13 C :    0.038197
  14 C :   -0.181845
  15 C :   -0.128950
  16 C :   -0.276371
  17 C :    0.293221
  18 O :   -0.362129
  19 C :   -0.256483
  20 H :    0.113955
  21 H :    0.103767
  22 H :    0.087650
  23 H :    0.108563
  24 H :    0.092743
  25 H :    0.121369
  26 H :    0.129612
  27 H :    0.123238
  28 H :    0.194796
  29 H :    0.197553
  30 H :    0.165847
  31 H :    0.159950
  32 H :    0.162330
  33 H :    0.132923
  34 H :    0.241707
  35 H :    0.176828
Sum of atomic charges:   -0.0000000

LOEWDIN ATOMIC CHARGES
----------------------
   0 C :    0.113216
   1 C :   -0.031438
   2 O :    0.325586
   3 C :   -0.423866
   4 O :    0.140112
   5 C :   -0.079773
   6 C :   -0.114917
   7 C :    0.123762
   8 N :    0.399131
   9 C :   -0.455000
  10 S :   -0.041255
  11 N :    0.397481
  12 C :   -0.041822
  13 C :   -0.039812
  14 C :    0.024391
  15 C :    0.046101
  16 C :   -0.001369
  17 C :   -0.194314
  18 O :    0.394837
  19 C :    0.027969
  20 H :   -0.022377
  21 H :   -0.025563
  22 H :   -0.025755
  23 H :   -0.036257
  24 H :   -0.039001
  25 H :   -0.010301
  26 H :   -0.011198
  27 H :   -0.016943
  28 H :   -0.059976
  29 H :   -0.063777
  30 H :   -0.002560
  31 H :   -0.023432
  32 H :   -0.018885
  33 H :   -0.035168
  34 H :   -0.153169
  35 H :   -0.024656

  Mayer bond orders larger than 0.100000
B(  0-C ,  1-C ) :   0.9816 B(  0-C , 20-H ) :   0.9725 B(  0-C , 21-H ) :   0.9810
B(  0-C , 22-H ) :   0.9761 B(  1-C ,  2-O ) :   0.9222 B(  1-C , 23-H ) :   0.9765
B(  1-C , 24-H ) :   0.9626 B(  2-O ,  3-C ) :   1.1223 B(  3-C ,  4-O ) :   2.1046
B(  3-C ,  5-C ) :   0.9237 B(  5-C ,  6-C ) :   1.7138 B(  5-C , 12-C ) :   0.9676
B(  6-C ,  7-C ) :   0.9381 B(  6-C ,  8-N ) :   1.1032 B(  7-C , 25-H ) :   0.9819
B(  7-C , 26-H ) :   0.9763 B(  7-C , 27-H ) :   0.9652 B(  8-N ,  9-C ) :   1.2009
B(  8-N , 28-H ) :   0.9535 B(  9-C , 10-S ) :   1.6066 B(  9-C , 11-N ) :   1.2848
B( 11-N , 12-C ) :   0.9980 B( 11-N , 29-H ) :   0.9487 B( 12-C , 13-C ) :   0.9472
B( 12-C , 30-H ) :   0.9979 B( 13-C , 14-C ) :   1.3832 B( 13-C , 19-C ) :   1.3485
B( 14-C , 15-C ) :   1.3972 B( 14-C , 31-H ) :   0.9649 B( 15-C , 16-C ) :   1.3610
B( 15-C , 32-H ) :   0.9706 B( 16-C , 17-C ) :   1.3306 B( 16-C , 33-H ) :   0.9850
B( 17-C , 18-O ) :   1.1042 B( 17-C , 19-C ) :   1.3716 B( 18-O , 34-H ) :   0.9792
B( 19-C , 35-H ) :   0.9565

MP2 TOTAL ENERGY:    -1274.320693398 Eh
FINAL SINGLE POINT ENERGY     -1274.320693397977

DIPOLE MOMENT
-------------
                                X             Y             Z
Electronic contribution:     10.67016       8.03910       6.24548
Nuclear contribution   :    -12.28804      -9.17963      -6.88481
                        -----------------------------------------
Total Dipole Moment    :     -1.61789      -1.14054      -0.63933
                        -----------------------------------------
Magnitude (a.u.)       :      2.08017
Magnitude (Debye)      :      5.28738

Rotational constants in cm-1:     0.012636     0.009017     0.006896
Rotational constants in MHz :   378.805360   270.311459   206.749763

                             ****ORCA TERMINATED NORMALLY****
TOTAL RUN TIME: 0 days 2 hours 9 minutes 14 seconds 355 msec
