                         Program Version 5.0.0 -  RELEASE  -
|  1> ! ri-mp2 cc-pvtz cc-pvtz/c TightSCF NoKeepInts
|  2>
|  3> %scf
|  4>   MaxCore 4096
|  5> end
|  6> *xyz  0  1
|  7>     C       15.4131629   13.9852988   16.8941425
|  8>     C       15.2636485   15.3597708   16.2066975
|  9>     O       16.5217742   15.9180565   15.7591147
| 10>     C       17.6615899   15.8003927   16.5014427
| 11>     O       18.2552124   14.7418067   16.6176206
| 12>     C       17.9265758   16.9737712   17.3971050
| 13>     C       17.5125450   18.2427375   17.1491321
| 14>     C       16.7647465   18.7537164   15.9349591
| 15>     N       17.8385775   19.2667869   18.0437735
| 16>     C       18.6644798   19.1277597   19.1279612
| 17>     S       19.0740880   20.4159945   20.0807414
| 18>     N       19.1327521   17.8637660   19.3836920
| 19>     C       18.7118111   16.6436681   18.6697580
| 20>     C       17.8903124   15.7427618   19.5873092
| 21>     C       18.2778420   14.4089064   19.8113143
| 22>     C       17.5116919   13.5698287   20.6375923
| 23>     C       16.3463343   14.0675737   21.2449550
| 24>     C       15.9551931   15.3945830   21.0215704
| 25>     O       14.8248501   15.8755034   21.5977118
| 26>     C       16.7197921   16.2275011   20.1988639
| 27>     H       15.9577580   13.2840102   16.2491006
| 28>     H       14.4268884   13.5554817   17.1056986
| 29>     H       15.9493523   14.0710309   17.8476754
| 30>     H       14.5887192   15.2652839   15.3463013
| 31>     H       14.7961577   16.0514476   16.9197263
| 32>     H       17.1769002   18.3255346   15.0123683
| 33>     H       16.8261523   19.8441250   15.8327885
| 34>     H       15.7034175   18.4830081   15.9879808
| 35>     H       17.5082562   20.2031515   17.8723627
| 36>     H       19.7160953   17.7838382   20.2067733
| 37>     H       19.6199572   16.0997378   18.3715284
| 38>     H       19.1668250   14.0152015   19.3243093
| 39>     H       17.8187999   12.5376685   20.7970238
| 40>     H       15.7501808   13.4216137   21.8809149
| 41>     H       14.4734956   15.1785086   22.1722036
| 42>     H       16.4010652   17.2521743   20.0417871
| 43> *
| 44>
| 45>                          ****END OF INPUT****

CARTESIAN COORDINATES (ANGSTROEM)
---------------------------------
  C     15.413163   13.985299   16.894143
  C     15.263649   15.359771   16.206698
  O     16.521774   15.918057   15.759115
  C     17.661590   15.800393   16.501443
  O     18.255212   14.741807   16.617621
  C     17.926576   16.973771   17.397105
  C     17.512545   18.242738   17.149132
  C     16.764747   18.753716   15.934959
  N     17.838577   19.266787   18.043774
  C     18.664480   19.127760   19.127961
  S     19.074088   20.415995   20.080741
  N     19.132752   17.863766   19.383692
  C     18.711811   16.643668   18.669758
  C     17.890312   15.742762   19.587309
  C     18.277842   14.408906   19.811314
  C     17.511692   13.569829   20.637592
  C     16.346334   14.067574   21.244955
  C     15.955193   15.394583   21.021570
  O     14.824850   15.875503   21.597712
  C     16.719792   16.227501   20.198864
  H     15.957758   13.284010   16.249101
  H     14.426888   13.555482   17.105699
  H     15.949352   14.071031   17.847675
  H     14.588719   15.265284   15.346301
  H     14.796158   16.051448   16.919726
  H     17.176900   18.325535   15.012368
  H     16.826152   19.844125   15.832788
  H     15.703417   18.483008   15.987981
  H     17.508256   20.203152   17.872363
  H     19.716095   17.783838   20.206773
  H     19.619957   16.099738   18.371528
  H     19.166825   14.015201   19.324309
  H     17.818800   12.537668   20.797024
  H     15.750181   13.421614   21.880915
  H     14.473496   15.178509   22.172204
  H     16.401065   17.252174   20.041787

 Total Charge           Charge          ....    0
 Multiplicity           Mult            ....    1
 Number of Electrons    NEL             ....  154
 Basis Dimension        Dim             ....  828

ORBITAL ENERGIES
----------------

  NO   OCC          E(Eh)            E(eV)
   0   2.0000     -91.889575     -2500.4425
   1   2.0000     -20.596898      -560.4701
   2   2.0000     -20.584530      -560.1335
   3   2.0000     -20.552546      -559.2632
   4   2.0000     -15.629703      -425.3059
   5   2.0000     -15.608779      -424.7365
   6   2.0000     -11.395124      -310.0771
   7   2.0000     -11.384923      -309.7995
   8   2.0000     -11.336539      -308.4829
   9   2.0000     -11.313252      -307.8492
  10   2.0000     -11.307998      -307.7063
  11   2.0000     -11.305953      -307.6506
  12   2.0000     -11.260874      -306.4240
  13   2.0000     -11.260001      -306.4002
  14   2.0000     -11.258392      -306.3564
  15   2.0000     -11.253115      -306.2128
  16   2.0000     -11.242823      -305.9328
  17   2.0000     -11.238873      -305.8253
  18   2.0000     -11.235730      -305.7398
  19   2.0000     -11.222326      -305.3750
  20   2.0000      -8.894647      -242.0356
  21   2.0000      -6.576223      -178.9481
  22   2.0000      -6.574215      -178.8935
  23   2.0000      -6.573629      -178.8775
  24   2.0000      -1.446175       -39.3524
  25   2.0000      -1.416674       -38.5497
  26   2.0000      -1.356123       -36.9020
  27   2.0000      -1.340752       -36.4837
  28   2.0000      -1.238820       -33.7100
  29   2.0000      -1.157330       -31.4926
  30   2.0000      -1.121562       -30.5193
  31   2.0000      -1.044664       -28.4268
  32   2.0000      -1.031368       -28.0650
  33   2.0000      -1.014730       -27.6122
  34   2.0000      -1.000498       -27.2249
  35   2.0000      -0.985515       -26.8172
  36   2.0000      -0.924466       -25.1560
  37   2.0000      -0.891523       -24.2596
  38   2.0000      -0.850618       -23.1465
  39   2.0000      -0.839558       -22.8455
  40   2.0000      -0.833232       -22.6734
  41   2.0000      -0.824275       -22.4297
  42   2.0000      -0.744540       -20.2600
  43   2.0000      -0.729062       -19.8388
  44   2.0000      -0.727040       -19.7838
  45   2.0000      -0.694722       -18.9043
  46   2.0000      -0.685668       -18.6580
  47   2.0000      -0.679641       -18.4940
  48   2.0000      -0.674815       -18.3627
  49   2.0000      -0.666378       -18.1331
  50   2.0000      -0.649059       -17.6618
  51   2.0000      -0.646831       -17.6012
  52   2.0000      -0.636974       -17.3330
  53   2.0000      -0.615729       -16.7549
  54   2.0000      -0.605654       -16.4807
  55   2.0000      -0.603105       -16.4113
  56   2.0000      -0.600357       -16.3366
  57   2.0000      -0.578159       -15.7325
  58   2.0000      -0.574878       -15.6432
  59   2.0000      -0.567110       -15.4318
  60   2.0000      -0.553792       -15.0695
  61   2.0000      -0.548934       -14.9373
  62   2.0000      -0.536424       -14.5968
  63   2.0000      -0.527433       -14.3522
  64   2.0000      -0.520155       -14.1541
  65   2.0000      -0.511770       -13.9260
  66   2.0000      -0.500284       -13.6134
  67   2.0000      -0.491820       -13.3831
  68   2.0000      -0.482628       -13.1330
  69   2.0000      -0.465683       -12.6719
  70   2.0000      -0.455861       -12.4046
  71   2.0000      -0.448954       -12.2167
  72   2.0000      -0.355584        -9.6759
  73   2.0000      -0.349176        -9.5016
  74   2.0000      -0.328889        -8.9495
  75   2.0000      -0.320375        -8.7178
  76   2.0000      -0.316887        -8.6229
  77   0.0000       0.071612         1.9487
  78   0.0000       0.104533         2.8445
  79   0.0000       0.119936         3.2636
  80   0.0000       0.131566         3.5801
  81   0.0000       0.138591         3.7713

MULLIKEN ATOMIC CHARGES
-----------------------
   0 C :   -0.289551
   1 C :    0.035184
   2 O :   -0.380587
   3 C :    0.453592
   4 O :   -0.393206
   5 C :   -0.211780
   6 C :    0.151166
   7 C :   -0.285332
   8 N :   -0.124550
   9 C :    0.203892
  10 S :   -0.438814
  11 N :   -0.202192
  12 C :    0.060509
  13 C :    0.024185
  14 C :   -0.157677
  15 C :   -0.135094
  16 C :   -0.275292
  17 C :    0.305996
  18 O :   -0.359419
  19 C :   -0.265112
  20 H :    0.114315
  21 H :    0.097621
  22 H :    0.115306
  23 H :    0.110703
  24 H :    0.082223
  25 H :    0.132158
  26 H :    0.106446
  27 H :    0.120939
  28 H :    0.197229
  29 H :    0.194743
  30 H :    0.154306
  31 H :    0.155922
  32 H :    0.160855
  33 H :    0.131024
  34 H :    0.241225
  35 H :    0.169068
Sum of atomic charges:   -0.0000000

LOEWDIN ATOMIC CHARGES
----------------------
   0 C :    0.107859
   1 C :   -0.016860
   2 O :    0.283687
   3 C :   -0.417471
   4 O :    0.129691
   5 C :   -0.095115
   6 C :   -0.070691
   7 C :    0.126210
   8 N :    0.404660
   9 C :   -0.457889
  10 S :   -0.035396
  11 N :    0.397407
  12 C :   -0.046279
  13 C :   -0.042239
  14 C :    0.021647
  15 C :    0.041919
  16 C :   -0.001626
  17 C :   -0.193801
  18 O :    0.393674
  19 C :    0.027344
  20 H :   -0.022268
  21 H :   -0.026892
  22 H :   -0.024655
  23 H :   -0.022811
  24 H :   -0.037308
  25 H :   -0.006133
  26 H :   -0.019576
  27 H :   -0.011548
  28 H :   -0.058579
  29 H :   -0.063793
  30 H :   -0.004855
  31 H :   -0.024412
  32 H :   -0.020078
  33 H :   -0.035387
  34 H :   -0.153761
  35 H :   -0.024674

  Mayer bond orders larger than 0.100000
B(  0-C ,  1-C ) :   0.9803 B(  0-C , 20-H ) :   0.9725 B(  0-C , 21-H ) :   0.9747
B(  0-C , 22-H ) :   0.9663 B(  1-C ,  2-O ) :   0.9007 B(  1-C , 23-H ) :   0.9787
B(  1-C , 24-H ) :   0.9735 B(  2-O ,  3-C ) :   1.0894 B(  3-C ,  4-O ) :   2.0479
B(  3-C ,  5-C ) :   1.0144 B(  5-C ,  6-C ) :   1.6597 B(  5-C , 12-C ) :   0.9651
B(  6-C ,  7-C ) :   0.9516 B(  6-C ,  8-N ) :   1.1457 B(  7-C , 25-H ) :   0.9670
B(  7-C , 26-H ) :   0.9885 B(  7-C , 27-H ) :   0.9664 B(  8-N ,  9-C ) :   1.1823
B(  8-N , 28-H ) :   0.9490 B(  9-C , 10-S ) :   1.6110 B(  9-C , 11-N ) :   1.3024
B( 11-N , 12-C ) :   0.9921 B( 11-N , 29-H ) :   0.9517 B( 12-C , 13-C ) :   0.9418
B( 12-C , 30-H ) :   0.9987 B( 13-C , 14-C ) :   1.3812 B( 13-C , 19-C ) :   1.3699
B( 14-C , 15-C ) :   1.3931 B( 14-C , 31-H ) :   0.9645 B( 15-C , 16-C ) :   1.3625
B( 15-C , 32-H ) :   0.9715 B( 16-C , 17-C ) :   1.3320 B( 16-C , 33-H ) :   0.9850
B( 17-C , 18-O ) :   1.1105 B( 17-C , 19-C ) :   1.3717 B( 18-O , 34-H ) :   0.9796
B( 19-C , 35-H ) :   0.9574

MP2 TOTAL ENERGY:    -1274.330841600 Eh
FINAL SINGLE POINT ENERGY     -1274.330841600402

DIPOLE MOMENT
-------------
                                X             Y             Z
Electronic contribution:      9.99736       9.55379       6.48991
Nuclear contribution   :    -11.51746     -10.63539      -7.03902
                        -----------------------------------------
Total Dipole Moment    :     -1.52010      -1.08161      -0.54910
                        -----------------------------------------
Magnitude (a.u.)       :      1.94476
Magnitude (Debye)      :      4.94319

Rotational constants in cm-1:     0.012113     0.009215     0.006601
Rotational constants in MHz :   363.136409   276.257425   197.881500

                             ****ORCA TERMINATED NORMALLY****
TOTAL RUN TIME: 0 days 2 hours 8 minutes 3 seconds 62 msec
