                         Program Version 5.0.0 -  RELEASE  -
|  1> ! ri-mp2 cc-pvtz cc-pvtz/c TightSCF NoKeepInts
|  2>
|  3> %scf
|  4>   MaxCore 4096
|  5> end
|  6> *xyz  0  1
|  7>     C       15.0692319   15.3981279   16.9234423
|  8>     C       16.1964053   14.3397430   16.8957493
|  9>     O       17.4127825   14.8062220   16.2583407
| 10>     C       17.7363895   16.1200905   16.0507717
| 11>     O       17.7358029   16.5571854   14.9148149
| 12>     C       17.7857128   17.0051659   17.2654857
| 13>     C       17.3610728   18.2926236   17.2217795
| 14>     C       16.6204884   18.9696554   16.0891590
| 15>     N       17.6380476   19.1567448   18.2847031
| 16>     C       18.5359111   18.8857007   19.2835213
| 17>     S       18.9717663   20.0224909   20.4026998
| 18>     N       19.0676274   17.6201440   19.2980767
| 19>     C       18.5697528   16.4926457   18.4873850
| 20>     C       17.7999929   15.5458754   19.3990018
| 21>     C       18.3011987   14.2572711   19.6661388
| 22>     C       17.6058843   13.3828321   20.5183700
| 23>     C       16.4054046   13.8026169   21.1163794
| 24>     C       15.9140791   15.0914579   20.8685088
| 25>     O       14.7572362   15.5016809   21.4458280
| 26>     C       16.6084761   15.9599129   20.0210412
| 27>     H       15.2827166   16.2173586   17.6162849
| 28>     H       14.1316632   14.9335560   17.2522856
| 29>     H       14.9008965   15.8144699   15.9220275
| 30>     H       16.3955677   13.9943627   17.9140237
| 31>     H       15.8375071   13.4645679   16.3388945
| 32>     H       15.8534752   18.3069785   15.6697732
| 33>     H       17.3137606   19.2190048   15.2752288
| 34>     H       16.1193664   19.8929526   16.4025844
| 35>     H       17.2786980   20.0980869   18.2684354
| 36>     H       19.7133284   17.4445131   20.0573637
| 37>     H       19.4459315   15.9515603   18.1027581
| 38>     H       19.2293205   13.9282180   19.2055410
| 39>     H       17.9985556   12.3862490   20.7146182
| 40>     H       15.8651002   13.1303470   21.7751485
| 41>     H       14.4685767   14.8028643   22.0524269
| 42>     H       16.2192728   16.9587234   19.8554087
| 43> *
| 44>
| 45>                          ****END OF INPUT****

CARTESIAN COORDINATES (ANGSTROEM)
---------------------------------
  C     15.069232   15.398128   16.923442
  C     16.196405   14.339743   16.895749
  O     17.412782   14.806222   16.258341
  C     17.736389   16.120090   16.050772
  O     17.735803   16.557185   14.914815
  C     17.785713   17.005166   17.265486
  C     17.361073   18.292624   17.221780
  C     16.620488   18.969655   16.089159
  N     17.638048   19.156745   18.284703
  C     18.535911   18.885701   19.283521
  S     18.971766   20.022491   20.402700
  N     19.067627   17.620144   19.298077
  C     18.569753   16.492646   18.487385
  C     17.799993   15.545875   19.399002
  C     18.301199   14.257271   19.666139
  C     17.605884   13.382832   20.518370
  C     16.405405   13.802617   21.116379
  C     15.914079   15.091458   20.868509
  O     14.757236   15.501681   21.445828
  C     16.608476   15.959913   20.021041
  H     15.282717   16.217359   17.616285
  H     14.131663   14.933556   17.252286
  H     14.900896   15.814470   15.922027
  H     16.395568   13.994363   17.914024
  H     15.837507   13.464568   16.338894
  H     15.853475   18.306978   15.669773
  H     17.313761   19.219005   15.275229
  H     16.119366   19.892953   16.402584
  H     17.278698   20.098087   18.268435
  H     19.713328   17.444513   20.057364
  H     19.445932   15.951560   18.102758
  H     19.229320   13.928218   19.205541
  H     17.998556   12.386249   20.714618
  H     15.865100   13.130347   21.775148
  H     14.468577   14.802864   22.052427
  H     16.219273   16.958723   19.855409

 Total Charge           Charge          ....    0
 Multiplicity           Mult            ....    1
 Number of Electrons    NEL             ....  154
 Basis Dimension        Dim             ....  828

ORBITAL ENERGIES
----------------

  NO   OCC          E(Eh)            E(eV)
   0   2.0000     -91.891306     -2500.4896
   1   2.0000     -20.604639      -560.6807
   2   2.0000     -20.581768      -560.0584
   3   2.0000     -20.550005      -559.1941
   4   2.0000     -15.630016      -425.3144
   5   2.0000     -15.611143      -424.8008
   6   2.0000     -11.393880      -310.0432
   7   2.0000     -11.386152      -309.8329
   8   2.0000     -11.333690      -308.4054
   9   2.0000     -11.322750      -308.1077
  10   2.0000     -11.316694      -307.9429
  11   2.0000     -11.299318      -307.4701
  12   2.0000     -11.267335      -306.5998
  13   2.0000     -11.263613      -306.4985
  14   2.0000     -11.259226      -306.3791
  15   2.0000     -11.254614      -306.2536
  16   2.0000     -11.252142      -306.1864
  17   2.0000     -11.246588      -306.0352
  18   2.0000     -11.246397      -306.0300
  19   2.0000     -11.230644      -305.6014
  20   2.0000      -8.896335      -242.0816
  21   2.0000      -6.577902      -178.9938
  22   2.0000      -6.575906      -178.9395
  23   2.0000      -6.575311      -178.9233
  24   2.0000      -1.441136       -39.2153
  25   2.0000      -1.424342       -38.7583
  26   2.0000      -1.350865       -36.7589
  27   2.0000      -1.342254       -36.5246
  28   2.0000      -1.241602       -33.7857
  29   2.0000      -1.165329       -31.7102
  30   2.0000      -1.122670       -30.5494
  31   2.0000      -1.049257       -28.5517
  32   2.0000      -1.032126       -28.0856
  33   2.0000      -1.023728       -27.8571
  34   2.0000      -1.002308       -27.2742
  35   2.0000      -0.988203       -26.8904
  36   2.0000      -0.927811       -25.2470
  37   2.0000      -0.897164       -24.4131
  38   2.0000      -0.850411       -23.1408
  39   2.0000      -0.846701       -23.0399
  40   2.0000      -0.842057       -22.9135
  41   2.0000      -0.825577       -22.4651
  42   2.0000      -0.747789       -20.3484
  43   2.0000      -0.738220       -20.0880
  44   2.0000      -0.717608       -19.5271
  45   2.0000      -0.703561       -19.1449
  46   2.0000      -0.692594       -18.8464
  47   2.0000      -0.677104       -18.4249
  48   2.0000      -0.672914       -18.3109
  49   2.0000      -0.660259       -17.9666
  50   2.0000      -0.656129       -17.8542
  51   2.0000      -0.649726       -17.6800
  52   2.0000      -0.638692       -17.3797
  53   2.0000      -0.626461       -17.0469
  54   2.0000      -0.614586       -16.7237
  55   2.0000      -0.606765       -16.5109
  56   2.0000      -0.602894       -16.4056
  57   2.0000      -0.583921       -15.8893
  58   2.0000      -0.575818       -15.6688
  59   2.0000      -0.566839       -15.4245
  60   2.0000      -0.549411       -14.9502
  61   2.0000      -0.546446       -14.8695
  62   2.0000      -0.540823       -14.7166
  63   2.0000      -0.534440       -14.5428
  64   2.0000      -0.531747       -14.4696
  65   2.0000      -0.517620       -14.0852
  66   2.0000      -0.507271       -13.8036
  67   2.0000      -0.495294       -13.4776
  68   2.0000      -0.479591       -13.0503
  69   2.0000      -0.472223       -12.8498
  70   2.0000      -0.448252       -12.1976
  71   2.0000      -0.445688       -12.1278
  72   2.0000      -0.358530        -9.7561
  73   2.0000      -0.355706        -9.6793
  74   2.0000      -0.332828        -9.0567
  75   2.0000      -0.328972        -8.9518
  76   2.0000      -0.318484        -8.6664
  77   0.0000       0.071434         1.9438
  78   0.0000       0.101099         2.7510
  79   0.0000       0.119823         3.2605
  80   0.0000       0.125849         3.4245
  81   0.0000       0.131342         3.5740

MULLIKEN ATOMIC CHARGES
-----------------------
   0 C :   -0.348551
   1 C :    0.040775
   2 O :   -0.364137
   3 C :    0.450972
   4 O :   -0.376135
   5 C :   -0.272422
   6 C :    0.163053
   7 C :   -0.278482
   8 N :   -0.126513
   9 C :    0.203993
  10 S :   -0.434846
  11 N :   -0.192148
  12 C :    0.048617
  13 C :    0.045014
  14 C :   -0.169031
  15 C :   -0.132969
  16 C :   -0.274093
  17 C :    0.319460
  18 O :   -0.356622
  19 C :   -0.294973
  20 H :    0.108700
  21 H :    0.119942
  22 H :    0.117999
  23 H :    0.106855
  24 H :    0.124324
  25 H :    0.123355
  26 H :    0.145233
  27 H :    0.094517
  28 H :    0.198069
  29 H :    0.191278
  30 H :    0.149284
  31 H :    0.149407
  32 H :    0.163949
  33 H :    0.134678
  34 H :    0.242455
  35 H :    0.178995
Sum of atomic charges:   -0.0000000

LOEWDIN ATOMIC CHARGES
----------------------
   0 C :    0.104181
   1 C :   -0.009145
   2 O :    0.279994
   3 C :   -0.424147
   4 O :    0.130872
   5 C :   -0.094464
   6 C :   -0.070284
   7 C :    0.129780
   8 N :    0.406008
   9 C :   -0.457080
  10 S :   -0.032192
  11 N :    0.396776
  12 C :   -0.053124
  13 C :   -0.041730
  14 C :    0.014018
  15 C :    0.042265
  16 C :    0.000150
  17 C :   -0.190597
  18 O :    0.397258
  19 C :    0.034879
  20 H :   -0.037991
  21 H :   -0.021082
  22 H :   -0.027010
  23 H :   -0.034714
  24 H :   -0.023307
  25 H :   -0.008979
  26 H :   -0.002464
  27 H :   -0.022304
  28 H :   -0.057572
  29 H :   -0.065062
  30 H :   -0.005888
  31 H :   -0.028470
  32 H :   -0.019030
  33 H :   -0.033490
  34 H :   -0.151992
  35 H :   -0.024066

  Mayer bond orders larger than 0.100000
B(  0-C ,  1-C ) :   0.9615 B(  0-C , 20-H ) :   0.9674 B(  0-C , 21-H ) :   0.9762
B(  0-C , 22-H ) :   0.9742 B(  1-C ,  2-O ) :   0.8961 B(  1-C , 23-H ) :   0.9677
B(  1-C , 24-H ) :   0.9835 B(  2-O ,  3-C ) :   1.1478 B(  3-C ,  4-O ) :   2.0845
B(  3-C ,  5-C ) :   0.9763 B(  5-C ,  6-C ) :   1.6796 B(  5-C , 12-C ) :   0.9726
B(  6-C ,  7-C ) :   0.9602 B(  6-C ,  8-N ) :   1.1403 B(  7-C , 25-H ) :   0.9701
B(  7-C , 26-H ) :   0.9567 B(  7-C , 27-H ) :   0.9853 B(  8-N ,  9-C ) :   1.1840
B(  8-N , 28-H ) :   0.9496 B(  9-C , 10-S ) :   1.6176 B(  9-C , 11-N ) :   1.2929
B( 11-N , 12-C ) :   0.9836 B( 11-N , 29-H ) :   0.9540 B( 12-C , 13-C ) :   0.9413
B( 12-C , 30-H ) :   1.0063 B( 13-C , 14-C ) :   1.3507 B( 13-C , 19-C ) :   1.3601
B( 14-C , 15-C ) :   1.3939 B( 14-C , 31-H ) :   0.9737 B( 15-C , 16-C ) :   1.3665
B( 15-C , 32-H ) :   0.9701 B( 16-C , 17-C ) :   1.3264 B( 16-C , 33-H ) :   0.9832
B( 17-C , 18-O ) :   1.1145 B( 17-C , 19-C ) :   1.3733 B( 18-O , 34-H ) :   0.9787
B( 19-C , 35-H ) :   0.9527

MP2 TOTAL ENERGY:    -1274.323763944 Eh
FINAL SINGLE POINT ENERGY     -1274.323763944087

DIPOLE MOMENT
-------------
                                X             Y             Z
Electronic contribution:      9.90082       6.86664       5.42010
Nuclear contribution   :    -11.17974      -8.48379      -4.95007
                        -----------------------------------------
Total Dipole Moment    :     -1.27891      -1.61715       0.47003
                        -----------------------------------------
Magnitude (a.u.)       :      2.11464
Magnitude (Debye)      :      5.37499

Rotational constants in cm-1:     0.011817     0.009854     0.006766
Rotational constants in MHz :   354.250336   295.411579   202.838237

                             ****ORCA TERMINATED NORMALLY****
TOTAL RUN TIME: 0 days 2 hours 9 minutes 52 seconds 862 msec
