                         Program Version 5.0.0 -  RELEASE  -
|  1> ! ri-mp2 cc-pvtz cc-pvtz/c TightSCF NoKeepInts
|  2>
|  3> %scf
|  4>   MaxCore 4096
|  5> end
|  6> *xyz  0  1
|  7>     C       14.9491116   14.6312847   17.3916197
|  8>     C       15.5391802   15.5719541   16.3279967
|  9>     O       16.8782482   15.1163569   16.0457549
| 10>     C       18.0586809   15.6926682   16.4536863
| 11>     O       19.0790952   15.0311336   16.4041763
| 12>     C       17.9761951   16.8708714   17.3708761
| 13>     C       17.5067477   18.0739703   16.9628962
| 14>     C       16.9951091   18.4353186   15.5834206
| 15>     N       17.5652424   19.1739561   17.8211630
| 16>     C       18.2134988   19.1851859   19.0284722
| 17>     S       18.3123555   20.5556977   19.9481612
| 18>     N       18.7798948   18.0018717   19.4340402
| 19>     C       18.6332435   16.7048417   18.7427621
| 20>     C       17.8752701   15.6967866   19.6013842
| 21>     C       18.2715914   14.3467230   19.6113909
| 22>     C       17.5820150   13.4025507   20.3900323
| 23>     C       16.4846961   13.8101951   21.1672288
| 24>     C       16.0826642   15.1525430   21.1571504
| 25>     O       15.0150336   15.5466210   21.8955774
| 26>     C       16.7688412   16.0903769   20.3785948
| 27>     H       15.5487482   14.6496368   18.3070134
| 28>     H       14.9263898   13.5985115   17.0219027
| 29>     H       13.9246129   14.9278148   17.6467243
| 30>     H       14.9316065   15.5032162   15.4163620
| 31>     H       15.4892991   16.6003092   16.6929564
| 32>     H       17.1212710   17.6192228   14.8615536
| 33>     H       17.5439403   19.2961987   15.1800687
| 34>     H       15.9308020   18.6994221   15.6107143
| 35>     H       17.1764969   20.0577244   17.5313691
| 36>     H       19.2398943   18.0354308   20.3351470
| 37>     H       19.6449985   16.3053851   18.5773937
| 38>     H       19.1131814   14.0255939   19.0006773
| 39>     H       17.8976204   12.3605560   20.3846837
| 40>     H       15.9486051   13.0833760   21.7685530
| 41>     H       14.7091485   14.7764983   22.3982431
| 42>     H       16.4336707   17.1221961   20.3842536
| 43> *
| 44>
| 45>                          ****END OF INPUT****

CARTESIAN COORDINATES (ANGSTROEM)
---------------------------------
  C     14.949112   14.631285   17.391620
  C     15.539180   15.571954   16.327997
  O     16.878248   15.116357   16.045755
  C     18.058681   15.692668   16.453686
  O     19.079095   15.031134   16.404176
  C     17.976195   16.870871   17.370876
  C     17.506748   18.073970   16.962896
  C     16.995109   18.435319   15.583421
  N     17.565242   19.173956   17.821163
  C     18.213499   19.185186   19.028472
  S     18.312355   20.555698   19.948161
  N     18.779895   18.001872   19.434040
  C     18.633243   16.704842   18.742762
  C     17.875270   15.696787   19.601384
  C     18.271591   14.346723   19.611391
  C     17.582015   13.402551   20.390032
  C     16.484696   13.810195   21.167229
  C     16.082664   15.152543   21.157150
  O     15.015034   15.546621   21.895577
  C     16.768841   16.090377   20.378595
  H     15.548748   14.649637   18.307013
  H     14.926390   13.598512   17.021903
  H     13.924613   14.927815   17.646724
  H     14.931606   15.503216   15.416362
  H     15.489299   16.600309   16.692956
  H     17.121271   17.619223   14.861554
  H     17.543940   19.296199   15.180069
  H     15.930802   18.699422   15.610714
  H     17.176497   20.057724   17.531369
  H     19.239894   18.035431   20.335147
  H     19.644998   16.305385   18.577394
  H     19.113181   14.025594   19.000677
  H     17.897620   12.360556   20.384684
  H     15.948605   13.083376   21.768553
  H     14.709148   14.776498   22.398243
  H     16.433671   17.122196   20.384254

 Total Charge           Charge          ....    0
 Multiplicity           Mult            ....    1
 Number of Electrons    NEL             ....  154
 Basis Dimension        Dim             ....  828

ORBITAL ENERGIES
----------------

  NO   OCC          E(Eh)            E(eV)
   0   2.0000     -91.890701     -2500.4731
   1   2.0000     -20.601795      -560.6033
   2   2.0000     -20.599016      -560.5277
   3   2.0000     -20.548931      -559.1648
   4   2.0000     -15.628174      -425.2642
   5   2.0000     -15.611822      -424.8193
   6   2.0000     -11.399916      -310.2075
   7   2.0000     -11.387257      -309.8630
   8   2.0000     -11.331958      -308.3582
   9   2.0000     -11.316145      -307.9280
  10   2.0000     -11.314918      -307.8946
  11   2.0000     -11.305074      -307.6267
  12   2.0000     -11.271286      -306.7073
  13   2.0000     -11.267387      -306.6012
  14   2.0000     -11.263467      -306.4945
  15   2.0000     -11.256520      -306.3055
  16   2.0000     -11.245452      -306.0043
  17   2.0000     -11.241428      -305.8948
  18   2.0000     -11.238321      -305.8103
  19   2.0000     -11.225256      -305.4547
  20   2.0000      -8.895805      -242.0671
  21   2.0000      -6.577391      -178.9799
  22   2.0000      -6.575366      -178.9248
  23   2.0000      -6.574789      -178.9091
  24   2.0000      -1.447447       -39.3870
  25   2.0000      -1.418813       -38.6079
  26   2.0000      -1.358789       -36.9745
  27   2.0000      -1.341553       -36.5055
  28   2.0000      -1.240809       -33.7641
  29   2.0000      -1.160840       -31.5881
  30   2.0000      -1.126320       -30.6487
  31   2.0000      -1.049123       -28.5481
  32   2.0000      -1.037924       -28.2434
  33   2.0000      -1.018692       -27.7200
  34   2.0000      -1.005963       -27.3737
  35   2.0000      -0.990180       -26.9442
  36   2.0000      -0.928372       -25.2623
  37   2.0000      -0.886937       -24.1348
  38   2.0000      -0.855638       -23.2831
  39   2.0000      -0.842053       -22.9134
  40   2.0000      -0.836237       -22.7552
  41   2.0000      -0.834238       -22.7008
  42   2.0000      -0.754325       -20.5262
  43   2.0000      -0.741001       -20.1637
  44   2.0000      -0.731099       -19.8942
  45   2.0000      -0.697065       -18.9681
  46   2.0000      -0.689007       -18.7488
  47   2.0000      -0.681750       -18.5514
  48   2.0000      -0.676510       -18.4088
  49   2.0000      -0.662371       -18.0240
  50   2.0000      -0.654510       -17.8101
  51   2.0000      -0.642740       -17.4898
  52   2.0000      -0.639163       -17.3925
  53   2.0000      -0.617325       -16.7983
  54   2.0000      -0.610203       -16.6045
  55   2.0000      -0.607423       -16.5288
  56   2.0000      -0.602357       -16.3910
  57   2.0000      -0.587543       -15.9878
  58   2.0000      -0.578249       -15.7349
  59   2.0000      -0.568269       -15.4634
  60   2.0000      -0.563517       -15.3341
  61   2.0000      -0.554836       -15.0978
  62   2.0000      -0.543706       -14.7950
  63   2.0000      -0.532977       -14.5030
  64   2.0000      -0.519233       -14.1291
  65   2.0000      -0.513313       -13.9680
  66   2.0000      -0.504101       -13.7173
  67   2.0000      -0.501907       -13.6576
  68   2.0000      -0.484493       -13.1837
  69   2.0000      -0.470512       -12.8033
  70   2.0000      -0.452884       -12.3236
  71   2.0000      -0.448546       -12.2056
  72   2.0000      -0.358730        -9.7615
  73   2.0000      -0.351577        -9.5669
  74   2.0000      -0.330298        -8.9879
  75   2.0000      -0.324378        -8.8268
  76   2.0000      -0.319390        -8.6910
  77   0.0000       0.084475         2.2987
  78   0.0000       0.105690         2.8760
  79   0.0000       0.111327         3.0294
  80   0.0000       0.129121         3.5136
  81   0.0000       0.131218         3.5706

MULLIKEN ATOMIC CHARGES
-----------------------
   0 C :   -0.264898
   1 C :    0.019374
   2 O :   -0.315469
   3 C :    0.403211
   4 O :   -0.384555
   5 C :   -0.186785
   6 C :    0.129578
   7 C :   -0.322645
   8 N :   -0.135583
   9 C :    0.202554
  10 S :   -0.439776
  11 N :   -0.219491
  12 C :    0.068277
  13 C :    0.002346
  14 C :   -0.195154
  15 C :   -0.137097
  16 C :   -0.268296
  17 C :    0.303997
  18 O :   -0.359153
  19 C :   -0.243077
  20 H :    0.106617
  21 H :    0.105869
  22 H :    0.090135
  23 H :    0.113565
  24 H :    0.089643
  25 H :    0.125846
  26 H :    0.140197
  27 H :    0.121354
  28 H :    0.196369
  29 H :    0.200632
  30 H :    0.167404
  31 H :    0.173109
  32 H :    0.163366
  33 H :    0.132194
  34 H :    0.241219
  35 H :    0.175123
Sum of atomic charges:   -0.0000000

LOEWDIN ATOMIC CHARGES
----------------------
   0 C :    0.109814
   1 C :   -0.021877
   2 O :    0.309672
   3 C :   -0.416173
   4 O :    0.121624
   5 C :   -0.081255
   6 C :   -0.102996
   7 C :    0.123928
   8 N :    0.401777
   9 C :   -0.457367
  10 S :   -0.036962
  11 N :    0.397920
  12 C :   -0.043325
  13 C :   -0.044583
  14 C :    0.020753
  15 C :    0.045191
  16 C :   -0.000887
  17 C :   -0.193240
  18 O :    0.395890
  19 C :    0.025648
  20 H :   -0.025663
  21 H :   -0.024659
  22 H :   -0.026996
  23 H :   -0.026800
  24 H :   -0.040468
  25 H :   -0.007951
  26 H :   -0.009020
  27 H :   -0.017099
  28 H :   -0.057517
  29 H :   -0.063339
  30 H :   -0.001854
  31 H :   -0.021533
  32 H :   -0.018343
  33 H :   -0.034747
  34 H :   -0.153116
  35 H :   -0.024450

  Mayer bond orders larger than 0.100000
B(  0-C ,  1-C ) :   0.9781 B(  0-C , 20-H ) :   0.9693 B(  0-C , 21-H ) :   0.9809
B(  0-C , 22-H ) :   0.9755 B(  1-C ,  2-O ) :   0.9055 B(  1-C , 23-H ) :   0.9820
B(  1-C , 24-H ) :   0.9625 B(  2-O ,  3-C ) :   1.1815 B(  3-C ,  4-O ) :   2.0836
B(  3-C ,  5-C ) :   0.9231 B(  5-C ,  6-C ) :   1.6942 B(  5-C , 12-C ) :   0.9553
B(  6-C ,  7-C ) :   0.9454 B(  6-C ,  8-N ) :   1.1106 B(  7-C , 25-H ) :   0.9798
B(  7-C , 26-H ) :   0.9702 B(  7-C , 27-H ) :   0.9661 B(  8-N ,  9-C ) :   1.1940
B(  8-N , 28-H ) :   0.9519 B(  9-C , 10-S ) :   1.6112 B(  9-C , 11-N ) :   1.2891
B( 11-N , 12-C ) :   0.9906 B( 11-N , 29-H ) :   0.9483 B( 12-C , 13-C ) :   0.9472
B( 12-C , 30-H ) :   0.9954 B( 13-C , 14-C ) :   1.3924 B( 13-C , 19-C ) :   1.3534
B( 14-C , 15-C ) :   1.3962 B( 14-C , 31-H ) :   0.9587 B( 15-C , 16-C ) :   1.3594
B( 15-C , 32-H ) :   0.9708 B( 16-C , 17-C ) :   1.3323 B( 16-C , 33-H ) :   0.9850
B( 17-C , 18-O ) :   1.1104 B( 17-C , 19-C ) :   1.3687 B( 18-O , 34-H ) :   0.9793
B( 19-C , 35-H ) :   0.9567

MP2 TOTAL ENERGY:    -1274.332738660 Eh
FINAL SINGLE POINT ENERGY     -1274.332738660208

DIPOLE MOMENT
-------------
                                X             Y             Z
Electronic contribution:      9.80577       7.76118       6.17822
Nuclear contribution   :    -11.36075      -8.68856      -6.72812
                        -----------------------------------------
Total Dipole Moment    :     -1.55498      -0.92738      -0.54990
                        -----------------------------------------
Magnitude (a.u.)       :      1.89219
Magnitude (Debye)      :      4.80957

Rotational constants in cm-1:     0.011956     0.009373     0.006740
Rotational constants in MHz :   358.438047   280.983482   202.070896

                             ****ORCA TERMINATED NORMALLY****
TOTAL RUN TIME: 0 days 2 hours 25 minutes 25 seconds 549 msec
