                         Program Version 5.0.0 -  RELEASE  -
|  1> ! ri-mp2 cc-pvtz cc-pvtz/c TightSCF NoKeepInts
|  2>
|  3> %scf
|  4>   MaxCore 4096
|  5> end
|  6> *xyz  0  1
|  7>     C       14.3187226   14.6782597   16.7640102
|  8>     C       15.4126897   15.7248377   17.0284192
|  9>     O       16.6251886   15.2258635   16.4365561
| 10>     C       17.8099975   15.9167472   16.3978859
| 11>     O       18.8128486   15.3384060   16.0233753
| 12>     C       17.9223766   17.0240908   17.3916894
| 13>     C       17.3995503   18.2507615   17.1684437
| 14>     C       16.6619036   18.7131431   15.9304301
| 15>     N       17.5912029   19.2686381   18.1048457
| 16>     C       18.3726422   19.1581997   19.2260512
| 17>     S       18.5907420   20.4301683   20.2596172
| 18>     N       18.9621706   17.9377869   19.4513884
| 19>     C       18.7461980   16.7209376   18.6423458
| 20>     C       18.1014217   15.6051339   19.4598029
| 21>     C       18.5061389   14.2714730   19.2674024
| 22>     C       17.9028935   13.2278981   19.9885300
| 23>     C       16.8827950   13.5183394   20.9100022
| 24>     C       16.4721263   14.8442412   21.1009813
| 25>     O       15.4771069   15.1269826   21.9786877
| 26>     C       17.0741034   15.8817470   20.3818279
| 27>     H       13.3621664   15.0018855   17.1918634
| 28>     H       14.5903176   13.7168648   17.2182918
| 29>     H       14.1812669   14.5241279   15.6864324
| 30>     H       15.1095341   16.6727645   16.5716988
| 31>     H       15.5340079   15.8685798   18.1095354
| 32>     H       16.6247749   17.9419655   15.1511556
| 33>     H       17.1603701   19.5846557   15.4866252
| 34>     H       15.6303254   19.0010494   16.1679464
| 35>     H       17.1831782   20.1773013   17.9494581
| 36>     H       19.5188671   17.8817333   20.2950645
| 37>     H       19.7325541   16.3661868   18.3080041
| 38>     H       19.2814091   14.0411944   18.5392919
| 39>     H       18.2221426   12.1999962   19.8246472
| 40>     H       16.4117963   12.7143199   21.4658399
| 41>     H       15.2275823   14.2965756   22.4119497
| 42>     H       16.7338878   16.8991442   20.5439031
| 43> *
| 44>
| 45>                          ****END OF INPUT****

CARTESIAN COORDINATES (ANGSTROEM)
---------------------------------
  C     14.318723   14.678260   16.764010
  C     15.412690   15.724838   17.028419
  O     16.625189   15.225863   16.436556
  C     17.809998   15.916747   16.397886
  O     18.812849   15.338406   16.023375
  C     17.922377   17.024091   17.391689
  C     17.399550   18.250761   17.168444
  C     16.661904   18.713143   15.930430
  N     17.591203   19.268638   18.104846
  C     18.372642   19.158200   19.226051
  S     18.590742   20.430168   20.259617
  N     18.962171   17.937787   19.451388
  C     18.746198   16.720938   18.642346
  C     18.101422   15.605134   19.459803
  C     18.506139   14.271473   19.267402
  C     17.902893   13.227898   19.988530
  C     16.882795   13.518339   20.910002
  C     16.472126   14.844241   21.100981
  O     15.477107   15.126983   21.978688
  C     17.074103   15.881747   20.381828
  H     13.362166   15.001886   17.191863
  H     14.590318   13.716865   17.218292
  H     14.181267   14.524128   15.686432
  H     15.109534   16.672764   16.571699
  H     15.534008   15.868580   18.109535
  H     16.624775   17.941965   15.151156
  H     17.160370   19.584656   15.486625
  H     15.630325   19.001049   16.167946
  H     17.183178   20.177301   17.949458
  H     19.518867   17.881733   20.295064
  H     19.732554   16.366187   18.308004
  H     19.281409   14.041194   18.539292
  H     18.222143   12.199996   19.824647
  H     16.411796   12.714320   21.465840
  H     15.227582   14.296576   22.411950
  H     16.733888   16.899144   20.543903

 Total Charge           Charge          ....    0
 Multiplicity           Mult            ....    1
 Number of Electrons    NEL             ....  154
 Basis Dimension        Dim             ....  828

ORBITAL ENERGIES
----------------

  NO   OCC          E(Eh)            E(eV)
   0   2.0000     -91.889382     -2500.4372
   1   2.0000     -20.602148      -560.6129
   2   2.0000     -20.599715      -560.5467
   3   2.0000     -20.552309      -559.2568
   4   2.0000     -15.625326      -425.1867
   5   2.0000     -15.611703      -424.8160
   6   2.0000     -11.397519      -310.1423
   7   2.0000     -11.386374      -309.8390
   8   2.0000     -11.326570      -308.2116
   9   2.0000     -11.316611      -307.9406
  10   2.0000     -11.316406      -307.9351
  11   2.0000     -11.302333      -307.5521
  12   2.0000     -11.270985      -306.6991
  13   2.0000     -11.265145      -306.5402
  14   2.0000     -11.263917      -306.5068
  15   2.0000     -11.256616      -306.3081
  16   2.0000     -11.245777      -306.0132
  17   2.0000     -11.241976      -305.9097
  18   2.0000     -11.238909      -305.8262
  19   2.0000     -11.232569      -305.6537
  20   2.0000      -8.894511      -242.0319
  21   2.0000      -6.576104      -178.9449
  22   2.0000      -6.574072      -178.8896
  23   2.0000      -6.573502      -178.8741
  24   2.0000      -1.450836       -39.4792
  25   2.0000      -1.419538       -38.6276
  26   2.0000      -1.361007       -37.0349
  27   2.0000      -1.339299       -36.4442
  28   2.0000      -1.239545       -33.7297
  29   2.0000      -1.161154       -31.5966
  30   2.0000      -1.125548       -30.6277
  31   2.0000      -1.049217       -28.5507
  32   2.0000      -1.040508       -28.3137
  33   2.0000      -1.018977       -27.7278
  34   2.0000      -1.005258       -27.3545
  35   2.0000      -0.989095       -26.9146
  36   2.0000      -0.928005       -25.2523
  37   2.0000      -0.880725       -23.9658
  38   2.0000      -0.855642       -23.2832
  39   2.0000      -0.841656       -22.9026
  40   2.0000      -0.837258       -22.7830
  41   2.0000      -0.836482       -22.7618
  42   2.0000      -0.757436       -20.6109
  43   2.0000      -0.739349       -20.1187
  44   2.0000      -0.731752       -19.9120
  45   2.0000      -0.697582       -18.9822
  46   2.0000      -0.688413       -18.7327
  47   2.0000      -0.681498       -18.5445
  48   2.0000      -0.677748       -18.4425
  49   2.0000      -0.663731       -18.0610
  50   2.0000      -0.656935       -17.8761
  51   2.0000      -0.651085       -17.7169
  52   2.0000      -0.639601       -17.4044
  53   2.0000      -0.612430       -16.6651
  54   2.0000      -0.607972       -16.5438
  55   2.0000      -0.603453       -16.4208
  56   2.0000      -0.595601       -16.2071
  57   2.0000      -0.583747       -15.8846
  58   2.0000      -0.576905       -15.6984
  59   2.0000      -0.571977       -15.5643
  60   2.0000      -0.564430       -15.3589
  61   2.0000      -0.558167       -15.1885
  62   2.0000      -0.552347       -15.0301
  63   2.0000      -0.526799       -14.3349
  64   2.0000      -0.518949       -14.1213
  65   2.0000      -0.515122       -14.0172
  66   2.0000      -0.507981       -13.8229
  67   2.0000      -0.502298       -13.6682
  68   2.0000      -0.487466       -13.2646
  69   2.0000      -0.469061       -12.7638
  70   2.0000      -0.453749       -12.3471
  71   2.0000      -0.451519       -12.2865
  72   2.0000      -0.356849        -9.7103
  73   2.0000      -0.351338        -9.5604
  74   2.0000      -0.329160        -8.9569
  75   2.0000      -0.324220        -8.8225
  76   2.0000      -0.318062        -8.6549
  77   0.0000       0.089799         2.4436
  78   0.0000       0.104128         2.8335
  79   0.0000       0.110144         2.9972
  80   0.0000       0.128511         3.4970
  81   0.0000       0.130468         3.5502

MULLIKEN ATOMIC CHARGES
-----------------------
   0 C :   -0.261791
   1 C :    0.020119
   2 O :   -0.300830
   3 C :    0.387149
   4 O :   -0.377950
   5 C :   -0.173701
   6 C :    0.140977
   7 C :   -0.329768
   8 N :   -0.141537
   9 C :    0.207494
  10 S :   -0.442522
  11 N :   -0.221295
  12 C :    0.074107
  13 C :    0.028468
  14 C :   -0.194482
  15 C :   -0.132046
  16 C :   -0.274945
  17 C :    0.325076
  18 O :   -0.357744
  19 C :   -0.293976
  20 H :    0.088129
  21 H :    0.107255
  22 H :    0.101135
  23 H :    0.082791
  24 H :    0.109427
  25 H :    0.120047
  26 H :    0.142104
  27 H :    0.120646
  28 H :    0.195323
  29 H :    0.200616
  30 H :    0.166374
  31 H :    0.166533
  32 H :    0.163751
  33 H :    0.132419
  34 H :    0.241494
  35 H :    0.181149
Sum of atomic charges:   -0.0000000

LOEWDIN ATOMIC CHARGES
----------------------
   0 C :    0.112261
   1 C :   -0.026681
   2 O :    0.314159
   3 C :   -0.418180
   4 O :    0.127361
   5 C :   -0.078674
   6 C :   -0.107805
   7 C :    0.121681
   8 N :    0.400543
   9 C :   -0.455469
  10 S :   -0.039123
  11 N :    0.397457
  12 C :   -0.042763
  13 C :   -0.042510
  14 C :    0.024041
  15 C :    0.046251
  16 C :   -0.000277
  17 C :   -0.194207
  18 O :    0.394831
  19 C :    0.026037
  20 H :   -0.025324
  21 H :   -0.022986
  22 H :   -0.025710
  23 H :   -0.038452
  24 H :   -0.033169
  25 H :   -0.009981
  26 H :   -0.009095
  27 H :   -0.017585
  28 H :   -0.058375
  29 H :   -0.063700
  30 H :   -0.002033
  31 H :   -0.021761
  32 H :   -0.018325
  33 H :   -0.034679
  34 H :   -0.152971
  35 H :   -0.024789

  Mayer bond orders larger than 0.100000
B(  0-C ,  1-C ) :   0.9852 B(  0-C , 20-H ) :   0.9769 B(  0-C , 21-H ) :   0.9795
B(  0-C , 22-H ) :   0.9786 B(  1-C ,  2-O ) :   0.9162 B(  1-C , 23-H ) :   0.9736
B(  1-C , 24-H ) :   0.9574 B(  2-O ,  3-C ) :   1.1689 B(  3-C ,  4-O ) :   2.0940
B(  3-C ,  5-C ) :   0.9189 B(  5-C ,  6-C ) :   1.6921 B(  5-C , 12-C ) :   0.9595
B(  6-C ,  7-C ) :   0.9442 B(  6-C ,  8-N ) :   1.1143 B(  7-C , 25-H ) :   0.9827
B(  7-C , 26-H ) :   0.9674 B(  7-C , 27-H ) :   0.9675 B(  8-N ,  9-C ) :   1.1998
B(  8-N , 28-H ) :   0.9533 B(  9-C , 10-S ) :   1.6084 B(  9-C , 11-N ) :   1.2852
B( 11-N , 12-C ) :   0.9930 B( 11-N , 29-H ) :   0.9477 B( 12-C , 13-C ) :   0.9449
B( 12-C , 30-H ) :   0.9973 B( 13-C , 14-C ) :   1.3872 B( 13-C , 19-C ) :   1.3398
B( 14-C , 15-C ) :   1.3985 B( 14-C , 31-H ) :   0.9623 B( 15-C , 16-C ) :   1.3620
B( 15-C , 32-H ) :   0.9698 B( 16-C , 17-C ) :   1.3310 B( 16-C , 33-H ) :   0.9844
B( 17-C , 18-O ) :   1.1091 B( 17-C , 19-C ) :   1.3615 B( 18-O , 34-H ) :   0.9793
B( 19-C , 35-H ) :   0.9576

MP2 TOTAL ENERGY:    -1274.328887059 Eh
FINAL SINGLE POINT ENERGY     -1274.328887058775

DIPOLE MOMENT
-------------
                                X             Y             Z
Electronic contribution:     11.65368       7.22155       6.96042
Nuclear contribution   :    -13.28381      -8.21609      -7.39996
                        -----------------------------------------
Total Dipole Moment    :     -1.63013      -0.99454      -0.43954
                        -----------------------------------------
Magnitude (a.u.)       :      1.95950
Magnitude (Debye)      :      4.98065

Rotational constants in cm-1:     0.012016     0.009047     0.006726
Rotational constants in MHz :   360.228315   271.210860   201.636522

                             ****ORCA TERMINATED NORMALLY****
TOTAL RUN TIME: 0 days 2 hours 12 minutes 20 seconds 63 msec
