                         Program Version 5.0.0 -  RELEASE  -
|  1> ! ri-mp2 cc-pvtz cc-pvtz/c TightSCF NoKeepInts
|  2>
|  3> %scf
|  4>   MaxCore 4096
|  5> end
|  6> *xyz  0  1
|  7>     C       15.1057299   15.4079335   17.5605694
|  8>     C       15.5817601   15.3661801   16.0955620
|  9>     O       16.9726088   14.9863104   15.9908367
| 10>     C       18.0960729   15.6126422   16.4831812
| 11>     O       19.1473094   14.9989977   16.4884574
| 12>     C       17.9250771   16.8047094   17.3701057
| 13>     C       17.4063628   17.9771711   16.9329671
| 14>     C       16.9573675   18.3177821   15.5282761
| 15>     N       17.3768723   19.0863948   17.7810739
| 16>     C       17.9861402   19.1479928   19.0065066
| 17>     S       17.9781369   20.5314635   19.9119594
| 18>     N       18.6100882   18.0053438   19.4410414
| 19>     C       18.5585631   16.6945552   18.7627940
| 20>     C       17.8667574   15.6416153   19.6276914
| 21>     C       18.3146656   14.3076386   19.5994319
| 22>     C       17.6871724   13.3216123   20.3784850
| 23>     C       16.6009306   13.6699794   21.1982983
| 24>     C       16.1513012   14.9963882   21.2330639
| 25>     O       15.0965578   15.3347903   22.0163327
| 26>     C       16.7777551   15.9763736   20.4564081
| 27>     H       15.5158428   14.5621546   18.1272940
| 28>     H       14.0119700   15.3403932   17.6038739
| 29>     H       15.3910804   16.3411063   18.0562257
| 30>     H       14.9922913   14.6013798   15.5731792
| 31>     H       15.3716630   16.3152855   15.5963805
| 32>     H       17.1826199   17.5186185   14.8116028
| 33>     H       17.4772918   19.2133047   15.1638341
| 34>     H       15.8803007   18.5218053   15.4926770
| 35>     H       16.9470809   19.9433426   17.4697874
| 36>     H       19.0432227   18.0755355   20.3532843
| 37>     H       19.5984423   16.3643952   18.6207116
| 38>     H       19.1499389   14.0305354   18.9594695
| 39>     H       18.0425350   12.2931954   20.3407587
| 40>     H       16.1121004   12.9107124   21.7997500
| 41>     H       14.8300806   14.5406239   22.5036721
| 42>     H       16.4033103   16.9937375   20.4984569
| 43> *
| 44>
| 45>                          ****END OF INPUT****

CARTESIAN COORDINATES (ANGSTROEM)
---------------------------------
  C     15.105730   15.407934   17.560569
  C     15.581760   15.366180   16.095562
  O     16.972609   14.986310   15.990837
  C     18.096073   15.612642   16.483181
  O     19.147309   14.998998   16.488457
  C     17.925077   16.804709   17.370106
  C     17.406363   17.977171   16.932967
  C     16.957368   18.317782   15.528276
  N     17.376872   19.086395   17.781074
  C     17.986140   19.147993   19.006507
  S     17.978137   20.531464   19.911959
  N     18.610088   18.005344   19.441041
  C     18.558563   16.694555   18.762794
  C     17.866757   15.641615   19.627691
  C     18.314666   14.307639   19.599432
  C     17.687172   13.321612   20.378485
  C     16.600931   13.669979   21.198298
  C     16.151301   14.996388   21.233064
  O     15.096558   15.334790   22.016333
  C     16.777755   15.976374   20.456408
  H     15.515843   14.562155   18.127294
  H     14.011970   15.340393   17.603874
  H     15.391080   16.341106   18.056226
  H     14.992291   14.601380   15.573179
  H     15.371663   16.315286   15.596380
  H     17.182620   17.518618   14.811603
  H     17.477292   19.213305   15.163834
  H     15.880301   18.521805   15.492677
  H     16.947081   19.943343   17.469787
  H     19.043223   18.075536   20.353284
  H     19.598442   16.364395   18.620712
  H     19.149939   14.030535   18.959469
  H     18.042535   12.293195   20.340759
  H     16.112100   12.910712   21.799750
  H     14.830081   14.540624   22.503672
  H     16.403310   16.993738   20.498457

 Total Charge           Charge          ....    0
 Multiplicity           Mult            ....    1
 Number of Electrons    NEL             ....  154
 Basis Dimension        Dim             ....  828

ORBITAL ENERGIES
----------------

  NO   OCC          E(Eh)            E(eV)
   0   2.0000     -91.890653     -2500.4718
   1   2.0000     -20.600132      -560.5581
   2   2.0000     -20.597374      -560.4830
   3   2.0000     -20.548880      -559.1635
   4   2.0000     -15.628225      -425.2656
   5   2.0000     -15.611498      -424.8105
   6   2.0000     -11.400942      -310.2354
   7   2.0000     -11.387096      -309.8586
   8   2.0000     -11.331943      -308.3578
   9   2.0000     -11.314680      -307.8881
  10   2.0000     -11.313916      -307.8673
  11   2.0000     -11.308698      -307.7253
  12   2.0000     -11.271848      -306.7226
  13   2.0000     -11.268170      -306.6225
  14   2.0000     -11.261750      -306.4478
  15   2.0000     -11.254410      -306.2481
  16   2.0000     -11.243749      -305.9580
  17   2.0000     -11.239223      -305.8348
  18   2.0000     -11.235998      -305.7470
  19   2.0000     -11.228714      -305.5489
  20   2.0000      -8.895760      -242.0659
  21   2.0000      -6.577349      -178.9788
  22   2.0000      -6.575321      -178.9236
  23   2.0000      -6.574745      -178.9079
  24   2.0000      -1.445456       -39.3329
  25   2.0000      -1.417197       -38.5639
  26   2.0000      -1.357538       -36.9405
  27   2.0000      -1.341742       -36.5107
  28   2.0000      -1.240824       -33.7645
  29   2.0000      -1.158877       -31.5346
  30   2.0000      -1.125537       -30.6274
  31   2.0000      -1.047911       -28.5151
  32   2.0000      -1.038671       -28.2637
  33   2.0000      -1.017230       -27.6802
  34   2.0000      -1.006125       -27.3780
  35   2.0000      -0.990347       -26.9487
  36   2.0000      -0.928171       -25.2568
  37   2.0000      -0.896494       -24.3948
  38   2.0000      -0.855517       -23.2798
  39   2.0000      -0.840861       -22.8810
  40   2.0000      -0.834281       -22.7020
  41   2.0000      -0.830020       -22.5860
  42   2.0000      -0.747875       -20.3507
  43   2.0000      -0.740429       -20.1481
  44   2.0000      -0.730458       -19.8768
  45   2.0000      -0.695320       -18.9206
  46   2.0000      -0.687383       -18.7046
  47   2.0000      -0.679574       -18.4921
  48   2.0000      -0.675324       -18.3765
  49   2.0000      -0.662939       -18.0395
  50   2.0000      -0.652603       -17.7582
  51   2.0000      -0.648529       -17.6474
  52   2.0000      -0.639864       -17.4116
  53   2.0000      -0.618617       -16.8334
  54   2.0000      -0.610968       -16.6253
  55   2.0000      -0.605920       -16.4879
  56   2.0000      -0.601803       -16.3759
  57   2.0000      -0.590638       -16.0721
  58   2.0000      -0.578450       -15.7404
  59   2.0000      -0.571178       -15.5425
  60   2.0000      -0.565845       -15.3974
  61   2.0000      -0.555947       -15.1281
  62   2.0000      -0.539413       -14.6782
  63   2.0000      -0.532113       -14.4795
  64   2.0000      -0.519509       -14.1366
  65   2.0000      -0.512922       -13.9573
  66   2.0000      -0.502581       -13.6759
  67   2.0000      -0.501239       -13.6394
  68   2.0000      -0.483040       -13.1442
  69   2.0000      -0.465622       -12.6702
  70   2.0000      -0.454612       -12.3706
  71   2.0000      -0.450911       -12.2699
  72   2.0000      -0.358009        -9.7419
  73   2.0000      -0.348131        -9.4731
  74   2.0000      -0.330258        -8.9868
  75   2.0000      -0.322917        -8.7870
  76   2.0000      -0.319226        -8.6866
  77   0.0000       0.083547         2.2734
  78   0.0000       0.107525         2.9259
  79   0.0000       0.112413         3.0589
  80   0.0000       0.130370         3.5475
  81   0.0000       0.131051         3.5661

MULLIKEN ATOMIC CHARGES
-----------------------
   0 C :   -0.324195
   1 C :    0.016554
   2 O :   -0.320794
   3 C :    0.419785
   4 O :   -0.385510
   5 C :   -0.219252
   6 C :    0.154778
   7 C :   -0.334306
   8 N :   -0.137785
   9 C :    0.203522
  10 S :   -0.440320
  11 N :   -0.226631
  12 C :    0.092059
  13 C :    0.018665
  14 C :   -0.212328
  15 C :   -0.136012
  16 C :   -0.278328
  17 C :    0.320860
  18 O :   -0.358508
  19 C :   -0.272570
  20 H :    0.128002
  21 H :    0.114495
  22 H :    0.107125
  23 H :    0.132437
  24 H :    0.088266
  25 H :    0.127067
  26 H :    0.142111
  27 H :    0.120738
  28 H :    0.196557
  29 H :    0.202676
  30 H :    0.167982
  31 H :    0.176697
  32 H :    0.163966
  33 H :    0.131903
  34 H :    0.241024
  35 H :    0.179269
Sum of atomic charges:   -0.0000000

LOEWDIN ATOMIC CHARGES
----------------------
   0 C :    0.103478
   1 C :   -0.020062
   2 O :    0.300773
   3 C :   -0.414257
   4 O :    0.122535
   5 C :   -0.077855
   6 C :   -0.099414
   7 C :    0.121613
   8 N :    0.402231
   9 C :   -0.458258
  10 S :   -0.037286
  11 N :    0.398461
  12 C :   -0.042035
  13 C :   -0.042203
  14 C :    0.020472
  15 C :    0.043085
  16 C :   -0.001751
  17 C :   -0.193499
  18 O :    0.395331
  19 C :    0.028626
  20 H :   -0.017876
  21 H :   -0.025155
  22 H :   -0.036125
  23 H :   -0.018033
  24 H :   -0.040331
  25 H :   -0.008483
  26 H :   -0.008271
  27 H :   -0.018343
  28 H :   -0.057507
  29 H :   -0.063186
  30 H :   -0.001569
  31 H :   -0.021964
  32 H :   -0.018639
  33 H :   -0.035007
  34 H :   -0.153577
  35 H :   -0.025917

  Mayer bond orders larger than 0.100000
B(  0-C ,  1-C ) :   0.9535 B(  0-C , 20-H ) :   0.9681 B(  0-C , 21-H ) :   0.9767
B(  0-C , 22-H ) :   0.9723 B(  1-C ,  2-O ) :   0.9070 B(  1-C , 23-H ) :   0.9834
B(  1-C , 24-H ) :   0.9737 B(  2-O ,  3-C ) :   1.1810 B(  3-C ,  4-O ) :   2.0772
B(  3-C ,  5-C ) :   0.9248 B(  5-C ,  6-C ) :   1.6925 B(  5-C , 12-C ) :   0.9489
B(  6-C ,  7-C ) :   0.9451 B(  6-C ,  8-N ) :   1.1063 B(  7-C , 25-H ) :   0.9810
B(  7-C , 26-H ) :   0.9688 B(  7-C , 27-H ) :   0.9666 B(  8-N ,  9-C ) :   1.1956
B(  8-N , 28-H ) :   0.9525 B(  9-C , 10-S ) :   1.6091 B(  9-C , 11-N ) :   1.2888
B( 11-N , 12-C ) :   0.9879 B( 11-N , 29-H ) :   0.9477 B( 12-C , 13-C ) :   0.9524
B( 12-C , 30-H ) :   0.9947 B( 13-C , 14-C ) :   1.3906 B( 13-C , 19-C ) :   1.3370
B( 14-C , 15-C ) :   1.4019 B( 14-C , 31-H ) :   0.9575 B( 15-C , 16-C ) :   1.3577
B( 15-C , 32-H ) :   0.9702 B( 16-C , 17-C ) :   1.3313 B( 16-C , 33-H ) :   0.9849
B( 17-C , 18-O ) :   1.1090 B( 17-C , 19-C ) :   1.3686 B( 18-O , 34-H ) :   0.9797
B( 19-C , 35-H ) :   0.9564

MP2 TOTAL ENERGY:    -1274.328332074 Eh
FINAL SINGLE POINT ENERGY     -1274.328332074241

DIPOLE MOMENT
-------------
                                X             Y             Z
Electronic contribution:      8.95117       6.23445       6.23286
Nuclear contribution   :    -10.46233      -7.22223      -6.93569
                        -----------------------------------------
Total Dipole Moment    :     -1.51115      -0.98778      -0.70284
                        -----------------------------------------
Magnitude (a.u.)       :      1.93734
Magnitude (Debye)      :      4.92432

Rotational constants in cm-1:     0.011869     0.009575     0.006795
Rotational constants in MHz :   355.813290   287.055983   203.697381

                             ****ORCA TERMINATED NORMALLY****
TOTAL RUN TIME: 0 days 2 hours 16 minutes 5 seconds 702 msec
