                         Program Version 5.0.0 -  RELEASE  -
|  1> ! ri-mp2 cc-pvtz cc-pvtz/c TightSCF NoKeepInts
|  2>
|  3> %scf
|  4>   MaxCore 4096
|  5> end
|  6> *xyz  0  1
|  7>     C       15.1982623   14.3605326   17.0647152
|  8>     C       15.5595411   14.9229433   15.6703756
|  9>     O       16.4688339   16.0374001   15.7846491
| 10>     C       17.6243331   15.9189723   16.5021361
| 11>     O       18.2305609   14.8629334   16.5816688
| 12>     C       17.8710151   17.0599158   17.4437677
| 13>     C       17.4002584   18.3214625   17.2695576
| 14>     C       16.5897580   18.8568320   16.1073795
| 15>     N       17.7161755   19.3151987   18.2014953
| 16>     C       18.5828303   19.1594024   19.2510915
| 17>     S       18.9790258   20.4185224   20.2477251
| 18>     N       19.1048306   17.9037697   19.4334535
| 19>     C       18.7011589   16.7017018   18.6800970
| 20>     C       17.9328915   15.7378341   19.5802316
| 21>     C       18.3694653   14.4099743   19.7413235
| 22>     C       17.6520728   13.5134011   20.5508285
| 23>     C       16.4863742   13.9470212   21.2048412
| 24>     C       16.0464295   15.2678666   21.0443440
| 25>     O       14.9158299   15.6870368   21.6665239
| 26>     C       16.7629691   16.1581640   20.2387300
| 27>     H       16.0534739   13.8598913   17.5357213
| 28>     H       14.3917344   13.6226865   16.9786467
| 29>     H       14.8563209   15.1615719   17.7319950
| 30>     H       16.0183575   14.1277610   15.0673619
| 31>     H       14.6459987   15.2519370   15.1589029
| 32>     H       15.5531634   18.5017213   16.1629170
| 33>     H       17.0098959   18.5219754   15.1507191
| 34>     H       16.5653435   19.9529734   16.0797723
| 35>     H       17.3432730   20.2439466   18.0856530
| 36>     H       19.7160380   17.8087472   20.2342832
| 37>     H       19.6166599   16.1994956   18.3353241
| 38>     H       19.2586287   14.0663044   19.2184012
| 39>     H       17.9967972   12.4868573   20.6615782
| 40>     H       15.9275611   13.2568618   21.8280301
| 41>     H       14.5953340   14.9520951   22.2106669
| 42>     H       16.4058034   17.1762892   20.1290924
| 43> *
| 44>
| 45>                          ****END OF INPUT****

CARTESIAN COORDINATES (ANGSTROEM)
---------------------------------
  C     15.198262   14.360533   17.064715
  C     15.559541   14.922943   15.670376
  O     16.468834   16.037400   15.784649
  C     17.624333   15.918972   16.502136
  O     18.230561   14.862933   16.581669
  C     17.871015   17.059916   17.443768
  C     17.400258   18.321462   17.269558
  C     16.589758   18.856832   16.107380
  N     17.716175   19.315199   18.201495
  C     18.582830   19.159402   19.251092
  S     18.979026   20.418522   20.247725
  N     19.104831   17.903770   19.433453
  C     18.701159   16.701702   18.680097
  C     17.932892   15.737834   19.580232
  C     18.369465   14.409974   19.741324
  C     17.652073   13.513401   20.550829
  C     16.486374   13.947021   21.204841
  C     16.046429   15.267867   21.044344
  O     14.915830   15.687037   21.666524
  C     16.762969   16.158164   20.238730
  H     16.053474   13.859891   17.535721
  H     14.391734   13.622686   16.978647
  H     14.856321   15.161572   17.731995
  H     16.018358   14.127761   15.067362
  H     14.645999   15.251937   15.158903
  H     15.553163   18.501721   16.162917
  H     17.009896   18.521975   15.150719
  H     16.565344   19.952973   16.079772
  H     17.343273   20.243947   18.085653
  H     19.716038   17.808747   20.234283
  H     19.616660   16.199496   18.335324
  H     19.258629   14.066304   19.218401
  H     17.996797   12.486857   20.661578
  H     15.927561   13.256862   21.828030
  H     14.595334   14.952095   22.210667
  H     16.405803   17.176289   20.129092

 Total Charge           Charge          ....    0
 Multiplicity           Mult            ....    1
 Number of Electrons    NEL             ....  154
 Basis Dimension        Dim             ....  828

ORBITAL ENERGIES
----------------

  NO   OCC          E(Eh)            E(eV)
   0   2.0000     -91.888397     -2500.4104
   1   2.0000     -20.594638      -560.4086
   2   2.0000     -20.594059      -560.3928
   3   2.0000     -20.548438      -559.1514
   4   2.0000     -15.628261      -425.2666
   5   2.0000     -15.607657      -424.7059
   6   2.0000     -11.395485      -310.0869
   7   2.0000     -11.383673      -309.7655
   8   2.0000     -11.334833      -308.4365
   9   2.0000     -11.310514      -307.7747
  10   2.0000     -11.307173      -307.6838
  11   2.0000     -11.300963      -307.5148
  12   2.0000     -11.259847      -306.3960
  13   2.0000     -11.258880      -306.3697
  14   2.0000     -11.255951      -306.2900
  15   2.0000     -11.250798      -306.1498
  16   2.0000     -11.240432      -305.8677
  17   2.0000     -11.236108      -305.7501
  18   2.0000     -11.233485      -305.6787
  19   2.0000     -11.223327      -305.4022
  20   2.0000      -8.893466      -242.0035
  21   2.0000      -6.575044      -178.9160
  22   2.0000      -6.573035      -178.8614
  23   2.0000      -6.572451      -178.8455
  24   2.0000      -1.450669       -39.4747
  25   2.0000      -1.414394       -38.4876
  26   2.0000      -1.355618       -36.8882
  27   2.0000      -1.339361       -36.4459
  28   2.0000      -1.237468       -33.6732
  29   2.0000      -1.154994       -31.4290
  30   2.0000      -1.120591       -30.4928
  31   2.0000      -1.043085       -28.3838
  32   2.0000      -1.031121       -28.0582
  33   2.0000      -1.012263       -27.5451
  34   2.0000      -0.998547       -27.1718
  35   2.0000      -0.984090       -26.7785
  36   2.0000      -0.922847       -25.1119
  37   2.0000      -0.894616       -24.3437
  38   2.0000      -0.847962       -23.0742
  39   2.0000      -0.836944       -22.7744
  40   2.0000      -0.830842       -22.6084
  41   2.0000      -0.815699       -22.1963
  42   2.0000      -0.747761       -20.3476
  43   2.0000      -0.734687       -19.9919
  44   2.0000      -0.726883       -19.7795
  45   2.0000      -0.692727       -18.8501
  46   2.0000      -0.685740       -18.6599
  47   2.0000      -0.677458       -18.4346
  48   2.0000      -0.672050       -18.2874
  49   2.0000      -0.657058       -17.8795
  50   2.0000      -0.654141       -17.8001
  51   2.0000      -0.645184       -17.5564
  52   2.0000      -0.633319       -17.2335
  53   2.0000      -0.615699       -16.7540
  54   2.0000      -0.602645       -16.3988
  55   2.0000      -0.601597       -16.3703
  56   2.0000      -0.598210       -16.2781
  57   2.0000      -0.578503       -15.7419
  58   2.0000      -0.575523       -15.6608
  59   2.0000      -0.563733       -15.3400
  60   2.0000      -0.553788       -15.0693
  61   2.0000      -0.546306       -14.8657
  62   2.0000      -0.534606       -14.5474
  63   2.0000      -0.529250       -14.4016
  64   2.0000      -0.519404       -14.1337
  65   2.0000      -0.509926       -13.8758
  66   2.0000      -0.498817       -13.5735
  67   2.0000      -0.494043       -13.4436
  68   2.0000      -0.481402       -13.0996
  69   2.0000      -0.464408       -12.6372
  70   2.0000      -0.458413       -12.4741
  71   2.0000      -0.449538       -12.2325
  72   2.0000      -0.353880        -9.6296
  73   2.0000      -0.346665        -9.4332
  74   2.0000      -0.327654        -8.9159
  75   2.0000      -0.317803        -8.6479
  76   2.0000      -0.315352        -8.5812
  77   0.0000       0.074463         2.0262
  78   0.0000       0.108190         2.9440
  79   0.0000       0.120211         3.2711
  80   0.0000       0.133031         3.6200
  81   0.0000       0.142787         3.8854

MULLIKEN ATOMIC CHARGES
-----------------------
   0 C :   -0.325957
   1 C :    0.047710
   2 O :   -0.369339
   3 C :    0.444067
   4 O :   -0.420522
   5 C :   -0.176862
   6 C :    0.144508
   7 C :   -0.281826
   8 N :   -0.123910
   9 C :    0.205242
  10 S :   -0.440007
  11 N :   -0.201475
  12 C :    0.053525
  13 C :    0.050626
  14 C :   -0.166328
  15 C :   -0.133428
  16 C :   -0.278682
  17 C :    0.316820
  18 O :   -0.360654
  19 C :   -0.282135
  20 H :    0.130795
  21 H :    0.104171
  22 H :    0.100544
  23 H :    0.103746
  24 H :    0.106116
  25 H :    0.125159
  26 H :    0.126509
  27 H :    0.102166
  28 H :    0.196992
  29 H :    0.194440
  30 H :    0.153243
  31 H :    0.155068
  32 H :    0.161079
  33 H :    0.130027
  34 H :    0.240629
  35 H :    0.167944
Sum of atomic charges:   -0.0000000

LOEWDIN ATOMIC CHARGES
----------------------
   0 C :    0.105548
   1 C :   -0.015133
   2 O :    0.294639
   3 C :   -0.415079
   4 O :    0.112205
   5 C :   -0.092166
   6 C :   -0.069688
   7 C :    0.125746
   8 N :    0.404470
   9 C :   -0.457587
  10 S :   -0.036400
  11 N :    0.397583
  12 C :   -0.045705
  13 C :   -0.040136
  14 C :    0.021778
  15 C :    0.040882
  16 C :   -0.002049
  17 C :   -0.192863
  18 O :    0.393579
  19 C :    0.029999
  20 H :   -0.023329
  21 H :   -0.026407
  22 H :   -0.029011
  23 H :   -0.028584
  24 H :   -0.025244
  25 H :   -0.010044
  26 H :   -0.007727
  27 H :   -0.020549
  28 H :   -0.058900
  29 H :   -0.063845
  30 H :   -0.005102
  31 H :   -0.025105
  32 H :   -0.020766
  33 H :   -0.035882
  34 H :   -0.154303
  35 H :   -0.024823

  Mayer bond orders larger than 0.100000
B(  0-C ,  1-C ) :   0.9593 B(  0-C , 20-H ) :   0.9682 B(  0-C , 21-H ) :   0.9768
B(  0-C , 22-H ) :   0.9732 B(  1-C ,  2-O ) :   0.8969 B(  1-C , 23-H ) :   0.9831
B(  1-C , 24-H ) :   0.9837 B(  2-O ,  3-C ) :   1.1143 B(  3-C ,  4-O ) :   2.0028
B(  3-C ,  5-C ) :   1.0408 B(  5-C ,  6-C ) :   1.6552 B(  5-C , 12-C ) :   0.9654
B(  6-C ,  7-C ) :   0.9535 B(  6-C ,  8-N ) :   1.1452 B(  7-C , 25-H ) :   0.9632
B(  7-C , 26-H ) :   0.9677 B(  7-C , 27-H ) :   0.9899 B(  8-N ,  9-C ) :   1.1824
B(  8-N , 28-H ) :   0.9492 B(  9-C , 10-S ) :   1.6097 B(  9-C , 11-N ) :   1.3026
B( 11-N , 12-C ) :   0.9925 B( 11-N , 29-H ) :   0.9516 B( 12-C , 13-C ) :   0.9432
B( 12-C , 30-H ) :   0.9992 B( 13-C , 14-C ) :   1.3756 B( 13-C , 19-C ) :   1.3654
B( 14-C , 15-C ) :   1.3922 B( 14-C , 31-H ) :   0.9648 B( 15-C , 16-C ) :   1.3620
B( 15-C , 32-H ) :   0.9710 B( 16-C , 17-C ) :   1.3322 B( 16-C , 33-H ) :   0.9850
B( 17-C , 18-O ) :   1.1070 B( 17-C , 19-C ) :   1.3730 B( 18-O , 34-H ) :   0.9802
B( 19-C , 35-H ) :   0.9583

MP2 TOTAL ENERGY:    -1274.340885411 Eh
FINAL SINGLE POINT ENERGY     -1274.340885411445

DIPOLE MOMENT
-------------
                                X             Y             Z
Electronic contribution:      9.85411       9.65553       6.98498
Nuclear contribution   :    -11.29277     -10.92836      -7.84818
                        -----------------------------------------
Total Dipole Moment    :     -1.43865      -1.27283      -0.86321
                        -----------------------------------------
Magnitude (a.u.)       :      2.10593
Magnitude (Debye)      :      5.35285

Rotational constants in cm-1:     0.011887     0.009252     0.006519
Rotational constants in MHz :   356.370018   277.360228   195.434150

                             ****ORCA TERMINATED NORMALLY****
TOTAL RUN TIME: 0 days 1 hours 42 minutes 59 seconds 337 msec
