                         Program Version 5.0.0 -  RELEASE  -
|  1> ! ri-mp2 cc-pvtz cc-pvtz/c TightSCF NoKeepInts
|  2>
|  3> %scf
|  4>   MaxCore 4096
|  5> end
|  6> *xyz  0  1
|  7>     C       15.4285476   13.7961895   16.5293305
|  8>     C       15.2055001   15.2683320   16.1220588
|  9>     O       16.4256183   15.9928446   15.8310340
| 10>     C       17.5763777   15.8322617   16.5512907
| 11>     O       18.1488472   14.7609564   16.6573318
| 12>     C       17.8959875   16.9974306   17.4403555
| 13>     C       17.5048606   18.2772317   17.2101175
| 14>     C       16.7287598   18.8118118   16.0241513
| 15>     N       17.8860395   19.2897461   18.0963023
| 16>     C       18.7471223   19.1274659   19.1494517
| 17>     S       19.2240979   20.4026213   20.0884897
| 18>     N       19.1915283   17.8512961   19.3863743
| 19>     C       18.7100514   16.6441369   18.6887393
| 20>     C       17.8896256   15.7686655   19.6324224
| 21>     C       18.2221182   14.4142188   19.8186458
| 22>     C       17.4579604   13.5994112   20.6706029
| 23>     C       16.3499915   14.1425637   21.3428786
| 24>     C       16.0129487   15.4900914   21.1571498
| 25>     O       14.9380819   16.0153919   21.7973131
| 26>     C       16.7749931   16.2984476   20.3078968
| 27>     H       16.0469489   13.2748973   15.7875772
| 28>     H       14.4687051   13.2708642   16.6000345
| 29>     H       15.9189248   13.7244658   17.5088501
| 30>     H       14.5534067   15.3043570   15.2399332
| 31>     H       14.6775052   15.7733198   16.9415958
| 32>     H       17.1144298   18.3956316   15.0848482
| 33>     H       16.7917640   19.9034264   15.9376782
| 34>     H       15.6679014   18.5442753   16.1014294
| 35>     H       17.5725395   20.2342685   17.9390020
| 36>     H       19.8018981   17.7543127   20.1876845
| 37>     H       19.5915012   16.0723054   18.3638778
| 38>     H       19.0663584   13.9865636   19.2829918
| 39>     H       17.7225287   12.5515129   20.8006915
| 40>     H       15.7558451   13.5160554   21.9997835
| 41>     H       14.5798177   15.3254202   22.3758379
| 42>     H       16.4978679   17.3392092   20.1802474
| 43> *
| 44>
| 45>                          ****END OF INPUT****

CARTESIAN COORDINATES (ANGSTROEM)
---------------------------------
  C     15.428548   13.796190   16.529331
  C     15.205500   15.268332   16.122059
  O     16.425618   15.992845   15.831034
  C     17.576378   15.832262   16.551291
  O     18.148847   14.760956   16.657332
  C     17.895988   16.997431   17.440355
  C     17.504861   18.277232   17.210117
  C     16.728760   18.811812   16.024151
  N     17.886039   19.289746   18.096302
  C     18.747122   19.127466   19.149452
  S     19.224098   20.402621   20.088490
  N     19.191528   17.851296   19.386374
  C     18.710051   16.644137   18.688739
  C     17.889626   15.768665   19.632422
  C     18.222118   14.414219   19.818646
  C     17.457960   13.599411   20.670603
  C     16.349992   14.142564   21.342879
  C     16.012949   15.490091   21.157150
  O     14.938082   16.015392   21.797313
  C     16.774993   16.298448   20.307897
  H     16.046949   13.274897   15.787577
  H     14.468705   13.270864   16.600034
  H     15.918925   13.724466   17.508850
  H     14.553407   15.304357   15.239933
  H     14.677505   15.773320   16.941596
  H     17.114430   18.395632   15.084848
  H     16.791764   19.903426   15.937678
  H     15.667901   18.544275   16.101429
  H     17.572540   20.234268   17.939002
  H     19.801898   17.754313   20.187684
  H     19.591501   16.072305   18.363878
  H     19.066358   13.986564   19.282992
  H     17.722529   12.551513   20.800691
  H     15.755845   13.516055   21.999783
  H     14.579818   15.325420   22.375838
  H     16.497868   17.339209   20.180247

 Total Charge           Charge          ....    0
 Multiplicity           Mult            ....    1
 Number of Electrons    NEL             ....  154
 Basis Dimension        Dim             ....  828

ORBITAL ENERGIES
----------------

  NO   OCC          E(Eh)            E(eV)
   0   2.0000     -91.888838     -2500.4224
   1   2.0000     -20.595507      -560.4322
   2   2.0000     -20.587383      -560.2112
   3   2.0000     -20.551396      -559.2319
   4   2.0000     -15.628742      -425.2797
   5   2.0000     -15.607973      -424.7145
   6   2.0000     -11.396242      -310.1075
   7   2.0000     -11.384067      -309.7762
   8   2.0000     -11.335370      -308.4511
   9   2.0000     -11.311717      -307.8075
  10   2.0000     -11.307157      -307.6834
  11   2.0000     -11.306092      -307.6544
  12   2.0000     -11.259647      -306.3906
  13   2.0000     -11.259307      -306.3813
  14   2.0000     -11.257153      -306.3227
  15   2.0000     -11.251726      -306.1750
  16   2.0000     -11.241413      -305.8944
  17   2.0000     -11.237450      -305.7866
  18   2.0000     -11.234309      -305.7011
  19   2.0000     -11.222457      -305.3786
  20   2.0000      -8.893908      -242.0156
  21   2.0000      -6.575487      -178.9281
  22   2.0000      -6.573478      -178.8734
  23   2.0000      -6.572893      -178.8575
  24   2.0000      -1.445954       -39.3464
  25   2.0000      -1.415276       -38.5116
  26   2.0000      -1.356598       -36.9149
  27   2.0000      -1.339804       -36.4579
  28   2.0000      -1.237864       -33.6840
  29   2.0000      -1.155827       -31.4517
  30   2.0000      -1.120575       -30.4924
  31   2.0000      -1.043615       -28.3982
  32   2.0000      -1.032316       -28.0907
  33   2.0000      -1.013301       -27.5733
  34   2.0000      -0.999062       -27.1859
  35   2.0000      -0.984254       -26.7829
  36   2.0000      -0.923315       -25.1247
  37   2.0000      -0.892060       -24.2742
  38   2.0000      -0.849413       -23.1137
  39   2.0000      -0.838402       -22.8141
  40   2.0000      -0.831837       -22.6354
  41   2.0000      -0.822744       -22.3880
  42   2.0000      -0.744329       -20.2542
  43   2.0000      -0.727956       -19.8087
  44   2.0000      -0.726429       -19.7671
  45   2.0000      -0.693460       -18.8700
  46   2.0000      -0.684977       -18.6392
  47   2.0000      -0.679480       -18.4896
  48   2.0000      -0.673827       -18.3358
  49   2.0000      -0.666612       -18.1394
  50   2.0000      -0.647882       -17.6298
  51   2.0000      -0.645573       -17.5669
  52   2.0000      -0.636142       -17.3103
  53   2.0000      -0.611367       -16.6361
  54   2.0000      -0.604070       -16.4376
  55   2.0000      -0.601917       -16.3790
  56   2.0000      -0.599031       -16.3005
  57   2.0000      -0.576673       -15.6921
  58   2.0000      -0.573927       -15.6173
  59   2.0000      -0.568302       -15.4643
  60   2.0000      -0.557326       -15.1656
  61   2.0000      -0.547661       -14.9026
  62   2.0000      -0.536312       -14.5938
  63   2.0000      -0.526033       -14.3141
  64   2.0000      -0.519239       -14.1292
  65   2.0000      -0.511520       -13.9192
  66   2.0000      -0.499473       -13.5914
  67   2.0000      -0.493483       -13.4284
  68   2.0000      -0.481121       -13.0920
  69   2.0000      -0.464667       -12.6442
  70   2.0000      -0.455417       -12.3925
  71   2.0000      -0.448044       -12.1919
  72   2.0000      -0.354438        -9.6447
  73   2.0000      -0.347643        -9.4598
  74   2.0000      -0.328120        -8.9286
  75   2.0000      -0.318786        -8.6746
  76   2.0000      -0.315927        -8.5968
  77   0.0000       0.072836         1.9820
  78   0.0000       0.105992         2.8842
  79   0.0000       0.120561         3.2806
  80   0.0000       0.132790         3.6134
  81   0.0000       0.138635         3.7725

MULLIKEN ATOMIC CHARGES
-----------------------
   0 C :   -0.285111
   1 C :    0.041214
   2 O :   -0.380370
   3 C :    0.451411
   4 O :   -0.400080
   5 C :   -0.191832
   6 C :    0.146872
   7 C :   -0.283604
   8 N :   -0.124149
   9 C :    0.202798
  10 S :   -0.439475
  11 N :   -0.202443
  12 C :    0.056863
  13 C :    0.048671
  14 C :   -0.174567
  15 C :   -0.132656
  16 C :   -0.279722
  17 C :    0.312229
  18 O :   -0.358609
  19 C :   -0.278705
  20 H :    0.111563
  21 H :    0.095596
  22 H :    0.114732
  23 H :    0.104814
  24 H :    0.083634
  25 H :    0.129813
  26 H :    0.104576
  27 H :    0.121916
  28 H :    0.197145
  29 H :    0.194615
  30 H :    0.154727
  31 H :    0.157380
  32 H :    0.161584
  33 H :    0.130373
  34 H :    0.240806
  35 H :    0.167995
Sum of atomic charges:    0.0000000

LOEWDIN ATOMIC CHARGES
----------------------
   0 C :    0.105913
   1 C :   -0.015057
   2 O :    0.284679
   3 C :   -0.413996
   4 O :    0.127821
   5 C :   -0.094342
   6 C :   -0.069957
   7 C :    0.125555
   8 N :    0.404513
   9 C :   -0.458080
  10 S :   -0.036084
  11 N :    0.397391
  12 C :   -0.046278
  13 C :   -0.041008
  14 C :    0.021448
  15 C :    0.040868
  16 C :   -0.002266
  17 C :   -0.193555
  18 O :    0.393316
  19 C :    0.027690
  20 H :   -0.022774
  21 H :   -0.027785
  22 H :   -0.024917
  23 H :   -0.023537
  24 H :   -0.034603
  25 H :   -0.006758
  26 H :   -0.020180
  27 H :   -0.010789
  28 H :   -0.058810
  29 H :   -0.063883
  30 H :   -0.005091
  31 H :   -0.024611
  32 H :   -0.020489
  33 H :   -0.035727
  34 H :   -0.154162
  35 H :   -0.024456

  Mayer bond orders larger than 0.100000
B(  0-C ,  1-C ) :   0.9824 B(  0-C , 20-H ) :   0.9730 B(  0-C , 21-H ) :   0.9734
B(  0-C , 22-H ) :   0.9688 B(  1-C ,  2-O ) :   0.9030 B(  1-C , 23-H ) :   0.9790
B(  1-C , 24-H ) :   0.9735 B(  2-O ,  3-C ) :   1.0873 B(  3-C ,  4-O ) :   2.0326
B(  3-C ,  5-C ) :   1.0244 B(  5-C ,  6-C ) :   1.6612 B(  5-C , 12-C ) :   0.9639
B(  6-C ,  7-C ) :   0.9522 B(  6-C ,  8-N ) :   1.1432 B(  7-C , 25-H ) :   0.9672
B(  7-C , 26-H ) :   0.9893 B(  7-C , 27-H ) :   0.9657 B(  8-N ,  9-C ) :   1.1828
B(  8-N , 28-H ) :   0.9491 B(  9-C , 10-S ) :   1.6104 B(  9-C , 11-N ) :   1.3020
B( 11-N , 12-C ) :   0.9913 B( 11-N , 29-H ) :   0.9516 B( 12-C , 13-C ) :   0.9420
B( 12-C , 30-H ) :   0.9990 B( 13-C , 14-C ) :   1.3757 B( 13-C , 19-C ) :   1.3676
B( 14-C , 15-C ) :   1.3931 B( 14-C , 31-H ) :   0.9641 B( 15-C , 16-C ) :   1.3624
B( 15-C , 32-H ) :   0.9708 B( 16-C , 17-C ) :   1.3315 B( 16-C , 33-H ) :   0.9852
B( 17-C , 18-O ) :   1.1094 B( 17-C , 19-C ) :   1.3737 B( 18-O , 34-H ) :   0.9799
B( 19-C , 35-H ) :   0.9578

MP2 TOTAL ENERGY:    -1274.330315972 Eh
FINAL SINGLE POINT ENERGY     -1274.330315972117

DIPOLE MOMENT
-------------
                                X             Y             Z
Electronic contribution:     10.16808      10.12594       7.40822
Nuclear contribution   :    -11.74815     -11.26979      -8.06918
                        -----------------------------------------
Total Dipole Moment    :     -1.58007      -1.14385      -0.66095
                        -----------------------------------------
Magnitude (a.u.)       :      2.05958
Magnitude (Debye)      :      5.23504

Rotational constants in cm-1:     0.011827     0.009121     0.006410
Rotational constants in MHz :   354.549918   273.445714   192.178060

                             ****ORCA TERMINATED NORMALLY****
TOTAL RUN TIME: 0 days 1 hours 59 minutes 46 seconds 147 msec
