                         Program Version 5.0.0 -  RELEASE  -
|  1> ! ri-mp2 cc-pvtz cc-pvtz/c TightSCF NoKeepInts
|  2>
|  3> %scf
|  4>   MaxCore 4096
|  5> end
|  6> *xyz  0  1
|  7>     C       15.4486748   14.1889770   16.9928801
|  8>     C       15.4469178   15.1477974   15.7795238
|  9>     O       16.6394363   15.9623180   15.6526230
| 10>     C       17.7179969   15.8547298   16.4831029
| 11>     O       18.3376597   14.8114833   16.6038711
| 12>     C       17.8920288   17.0090017   17.4271597
| 13>     C       17.4046815   18.2603279   17.2225894
| 14>     C       16.6284277   18.7736527   16.0272821
| 15>     N       17.6735081   19.2701692   18.1523947
| 16>     C       18.5299292   19.1495963   19.2149156
| 17>     S       18.8867690   20.4321680   20.1962021
| 18>     N       19.0744633   17.9078317   19.4234216
| 19>     C       18.6870811   16.6843300   18.6962521
| 20>     C       17.8956095   15.7466680   19.6045411
| 21>     C       18.2803439   14.4007565   19.7472712
| 22>     C       17.5449488   13.5278489   20.5662878
| 23>     C       16.4135079   14.0036848   21.2502363
| 24>     C       16.0247997   15.3425827   21.1089391
| 25>     O       14.9269195   15.8028049   21.7599211
| 26>     C       16.7580169   16.2087927   20.2919216
| 27>     H       16.2227072   13.4178396   16.8926628
| 28>     H       14.4828470   13.6754689   17.0690777
| 29>     H       15.6113927   14.7328058   17.9313950
| 30>     H       15.3257964   14.5530425   14.8648180
| 31>     H       14.5747833   15.8098007   15.8543764
| 32>     H       15.6016931   18.3883432   16.0365548
| 33>     H       17.1009618   18.4562125   15.0891293
| 34>     H       16.5716125   19.8686732   16.0001095
| 35>     H       17.2852446   20.1897792   18.0158234
| 36>     H       19.6804088   17.8379081   20.2308788
| 37>     H       19.6111186   16.1714347   18.3919463
| 38>     H       19.1434768   14.0249879   19.2027406
| 39>     H       17.8500532   12.4873086   20.6620193
| 40>     H       15.8414341   13.3321509   21.8817445
| 41>     H       14.5927027   15.0796391   22.3116207
| 42>     H       16.4390468   17.2410837   20.1977667
| 43> *
| 44>
| 45>                          ****END OF INPUT****

CARTESIAN COORDINATES (ANGSTROEM)
---------------------------------
  C     15.448675   14.188977   16.992880
  C     15.446918   15.147797   15.779524
  O     16.639436   15.962318   15.652623
  C     17.717997   15.854730   16.483103
  O     18.337660   14.811483   16.603871
  C     17.892029   17.009002   17.427160
  C     17.404681   18.260328   17.222589
  C     16.628428   18.773653   16.027282
  N     17.673508   19.270169   18.152395
  C     18.529929   19.149596   19.214916
  S     18.886769   20.432168   20.196202
  N     19.074463   17.907832   19.423422
  C     18.687081   16.684330   18.696252
  C     17.895609   15.746668   19.604541
  C     18.280344   14.400756   19.747271
  C     17.544949   13.527849   20.566288
  C     16.413508   14.003685   21.250236
  C     16.024800   15.342583   21.108939
  O     14.926919   15.802805   21.759921
  C     16.758017   16.208793   20.291922
  H     16.222707   13.417840   16.892663
  H     14.482847   13.675469   17.069078
  H     15.611393   14.732806   17.931395
  H     15.325796   14.553043   14.864818
  H     14.574783   15.809801   15.854376
  H     15.601693   18.388343   16.036555
  H     17.100962   18.456212   15.089129
  H     16.571613   19.868673   16.000110
  H     17.285245   20.189779   18.015823
  H     19.680409   17.837908   20.230879
  H     19.611119   16.171435   18.391946
  H     19.143477   14.024988   19.202741
  H     17.850053   12.487309   20.662019
  H     15.841434   13.332151   21.881744
  H     14.592703   15.079639   22.311621
  H     16.439047   17.241084   20.197767

 Total Charge           Charge          ....    0
 Multiplicity           Mult            ....    1
 Number of Electrons    NEL             ....  154
 Basis Dimension        Dim             ....  828

ORBITAL ENERGIES
----------------

  NO   OCC          E(Eh)            E(eV)
   0   2.0000     -91.889319     -2500.4355
   1   2.0000     -20.595249      -560.4252
   2   2.0000     -20.585851      -560.1695
   3   2.0000     -20.550301      -559.2021
   4   2.0000     -15.629564      -425.3021
   5   2.0000     -15.608112      -424.7183
   6   2.0000     -11.395724      -310.0934
   7   2.0000     -11.384355      -309.7841
   8   2.0000     -11.336722      -308.4879
   9   2.0000     -11.311477      -307.8009
  10   2.0000     -11.307180      -307.6840
  11   2.0000     -11.306194      -307.6572
  12   2.0000     -11.260262      -306.4073
  13   2.0000     -11.260135      -306.4038
  14   2.0000     -11.256832      -306.3140
  15   2.0000     -11.251444      -306.1674
  16   2.0000     -11.241195      -305.8885
  17   2.0000     -11.237088      -305.7767
  18   2.0000     -11.233670      -305.6837
  19   2.0000     -11.225557      -305.4629
  20   2.0000      -8.894381      -242.0284
  21   2.0000      -6.575956      -178.9409
  22   2.0000      -6.573950      -178.8863
  23   2.0000      -6.573363      -178.8703
  24   2.0000      -1.445593       -39.3366
  25   2.0000      -1.415067       -38.5059
  26   2.0000      -1.354521       -36.8584
  27   2.0000      -1.340482       -36.4764
  28   2.0000      -1.238254       -33.6946
  29   2.0000      -1.155582       -31.4450
  30   2.0000      -1.120691       -30.4955
  31   2.0000      -1.043520       -28.3956
  32   2.0000      -1.032170       -28.0868
  33   2.0000      -1.013170       -27.5698
  34   2.0000      -0.999699       -27.2032
  35   2.0000      -0.985158       -26.8075
  36   2.0000      -0.923702       -25.1352
  37   2.0000      -0.896180       -24.3863
  38   2.0000      -0.849531       -23.1169
  39   2.0000      -0.838467       -22.8159
  40   2.0000      -0.831523       -22.6269
  41   2.0000      -0.819496       -22.2996
  42   2.0000      -0.743444       -20.2301
  43   2.0000      -0.728472       -19.8227
  44   2.0000      -0.726531       -19.7699
  45   2.0000      -0.693009       -18.8577
  46   2.0000      -0.686082       -18.6693
  47   2.0000      -0.675883       -18.3917
  48   2.0000      -0.674689       -18.3592
  49   2.0000      -0.663095       -18.0437
  50   2.0000      -0.650804       -17.7093
  51   2.0000      -0.646120       -17.5818
  52   2.0000      -0.635012       -17.2795
  53   2.0000      -0.623910       -16.9774
  54   2.0000      -0.603780       -16.4297
  55   2.0000      -0.602189       -16.3864
  56   2.0000      -0.599112       -16.3027
  57   2.0000      -0.577761       -15.7217
  58   2.0000      -0.575173       -15.6512
  59   2.0000      -0.564455       -15.3596
  60   2.0000      -0.550809       -14.9883
  61   2.0000      -0.546468       -14.8701
  62   2.0000      -0.536879       -14.6092
  63   2.0000      -0.526909       -14.3379
  64   2.0000      -0.518953       -14.1214
  65   2.0000      -0.511087       -13.9074
  66   2.0000      -0.500345       -13.6151
  67   2.0000      -0.495818       -13.4919
  68   2.0000      -0.480165       -13.0659
  69   2.0000      -0.464729       -12.6459
  70   2.0000      -0.455733       -12.4011
  71   2.0000      -0.449122       -12.2212
  72   2.0000      -0.355073        -9.6620
  73   2.0000      -0.347368        -9.4524
  74   2.0000      -0.328515        -8.9393
  75   2.0000      -0.318791        -8.6747
  76   2.0000      -0.316220        -8.6048
  77   0.0000       0.071795         1.9536
  78   0.0000       0.107734         2.9316
  79   0.0000       0.120566         3.2808
  80   0.0000       0.132743         3.6121
  81   0.0000       0.138956         3.7812

MULLIKEN ATOMIC CHARGES
-----------------------
   0 C :   -0.324849
   1 C :    0.061353
   2 O :   -0.384732
   3 C :    0.472689
   4 O :   -0.406454
   5 C :   -0.199393
   6 C :    0.138501
   7 C :   -0.284877
   8 N :   -0.121999
   9 C :    0.198542
  10 S :   -0.437869
  11 N :   -0.200748
  12 C :    0.048774
  13 C :    0.027246
  14 C :   -0.156414
  15 C :   -0.139865
  16 C :   -0.272372
  17 C :    0.308802
  18 O :   -0.360415
  19 C :   -0.264139
  20 H :    0.124330
  21 H :    0.107914
  22 H :    0.108328
  23 H :    0.104912
  24 H :    0.087598
  25 H :    0.121099
  26 H :    0.131708
  27 H :    0.105144
  28 H :    0.197205
  29 H :    0.194172
  30 H :    0.155547
  31 H :    0.159919
  32 H :    0.161198
  33 H :    0.130716
  34 H :    0.240531
  35 H :    0.167902
Sum of atomic charges:   -0.0000000

LOEWDIN ATOMIC CHARGES
----------------------
   0 C :    0.107091
   1 C :   -0.010312
   2 O :    0.284606
   3 C :   -0.419193
   4 O :    0.121840
   5 C :   -0.094911
   6 C :   -0.067926
   7 C :    0.125962
   8 N :    0.404879
   9 C :   -0.458929
  10 S :   -0.035110
  11 N :    0.397649
  12 C :   -0.046068
  13 C :   -0.041506
  14 C :    0.022743
  15 C :    0.041895
  16 C :   -0.002208
  17 C :   -0.194344
  18 O :    0.393899
  19 C :    0.026659
  20 H :   -0.023230
  21 H :   -0.024708
  22 H :   -0.026185
  23 H :   -0.026346
  24 H :   -0.032061
  25 H :   -0.011037
  26 H :   -0.006314
  27 H :   -0.020250
  28 H :   -0.058830
  29 H :   -0.063834
  30 H :   -0.004412
  31 H :   -0.024356
  32 H :   -0.020400
  33 H :   -0.035736
  34 H :   -0.154202
  35 H :   -0.024813

  Mayer bond orders larger than 0.100000
B(  0-C ,  1-C ) :   0.9681 B(  0-C , 20-H ) :   0.9700 B(  0-C , 21-H ) :   0.9745
B(  0-C , 22-H ) :   0.9662 B(  1-C ,  2-O ) :   0.8990 B(  1-C , 23-H ) :   0.9829
B(  1-C , 24-H ) :   0.9776 B(  2-O ,  3-C ) :   1.0922 B(  3-C ,  4-O ) :   2.0222
B(  3-C ,  5-C ) :   1.0343 B(  5-C ,  6-C ) :   1.6615 B(  5-C , 12-C ) :   0.9602
B(  6-C ,  7-C ) :   0.9526 B(  6-C ,  8-N ) :   1.1459 B(  7-C , 25-H ) :   0.9665
B(  7-C , 26-H ) :   0.9656 B(  7-C , 27-H ) :   0.9899 B(  8-N ,  9-C ) :   1.1801
B(  8-N , 28-H ) :   0.9489 B(  9-C , 10-S ) :   1.6127 B(  9-C , 11-N ) :   1.3024
B( 11-N , 12-C ) :   0.9903 B( 11-N , 29-H ) :   0.9519 B( 12-C , 13-C ) :   0.9452
B( 12-C , 30-H ) :   0.9997 B( 13-C , 14-C ) :   1.3835 B( 13-C , 19-C ) :   1.3650
B( 14-C , 15-C ) :   1.3942 B( 14-C , 31-H ) :   0.9615 B( 15-C , 16-C ) :   1.3620
B( 15-C , 32-H ) :   0.9708 B( 16-C , 17-C ) :   1.3318 B( 16-C , 33-H ) :   0.9848
B( 17-C , 18-O ) :   1.1101 B( 17-C , 19-C ) :   1.3730 B( 18-O , 34-H ) :   0.9801
B( 19-C , 35-H ) :   0.9587

MP2 TOTAL ENERGY:    -1274.331700101 Eh
FINAL SINGLE POINT ENERGY     -1274.331700100575

DIPOLE MOMENT
-------------
                                X             Y             Z
Electronic contribution:      9.75644       9.61504       6.96868
Nuclear contribution   :    -11.27156     -10.82344      -7.68903
                        -----------------------------------------
Total Dipole Moment    :     -1.51512      -1.20840      -0.72035
                        -----------------------------------------
Magnitude (a.u.)       :      2.06754
Magnitude (Debye)      :      5.25527

Rotational constants in cm-1:     0.011698     0.009432     0.006535
Rotational constants in MHz :   350.683346   282.763418   195.928737

                             ****ORCA TERMINATED NORMALLY****
TOTAL RUN TIME: 0 days 2 hours 14 minutes 42 seconds 587 msec
