                         Program Version 5.0.0 -  RELEASE  -
|  1> ! ri-mp2 cc-pvtz cc-pvtz/c TightSCF NoKeepInts
|  2>
|  3> %scf
|  4>   MaxCore 4096
|  5> end
|  6> *xyz  0  1
|  7>     C       14.8429021   14.3720232   17.1623058
|  8>     C       15.5046438   15.6685823   16.6681580
|  9>     O       16.7541810   15.2931945   16.0509540
| 10>     C       17.9844126   15.6498727   16.5428192
| 11>     O       18.9044054   14.8531701   16.5206161
| 12>     C       18.0485339   16.8864129   17.3820091
| 13>     C       17.5599608   18.0838222   16.9807632
| 14>     C       16.9262322   18.4111335   15.6455589
| 15>     N       17.6844737   19.1988111   17.8127204
| 16>     C       18.3627979   19.2116492   19.0039874
| 17>     S       18.5106453   20.5913333   19.9030903
| 18>     N       18.9071221   18.0202116   19.4173671
| 19>     C       18.7372362   16.7218954   18.7351995
| 20>     C       17.9527023   15.7387308   19.5987180
| 21>     C       18.3971268   14.4119461   19.7438419
| 22>     C       17.6591665   13.4883403   20.5026401
| 23>     C       16.4626590   13.8924796   21.1186974
| 24>     C       16.0125990   15.2111301   20.9706726
| 25>     O       14.8491638   15.6008901   21.5493438
| 26>     C       16.7498180   16.1289784   20.2160337
| 27>     H       15.4744706   13.8814706   17.9144747
| 28>     H       14.6902896   13.6726364   16.3307671
| 29>     H       13.8687947   14.5844071   17.6191732
| 30>     H       14.8532464   16.1485586   15.9266867
| 31>     H       15.6260150   16.3486440   17.5192468
| 32>     H       17.1408080   17.6460951   14.8889276
| 33>     H       17.3111314   19.3585529   15.2471471
| 34>     H       15.8372284   18.5022355   15.7358377
| 35>     H       17.3026953   20.0857218   17.5231137
| 36>     H       19.3816428   18.0550231   20.3108858
| 37>     H       19.7381885   16.3026539   18.5545309
| 38>     H       19.3099590   14.0897674   19.2471919
| 39>     H       18.0117046   12.4630157   20.6018033
| 40>     H       15.8874596   13.1803121   21.7011598
| 41>     H       14.5218367   14.8544160   22.0740542
| 42>     H       16.3807472   17.1438823   20.1135030
| 43> *
| 44>
| 45>                          ****END OF INPUT****

CARTESIAN COORDINATES (ANGSTROEM)
---------------------------------
  C     14.842902   14.372023   17.162306
  C     15.504644   15.668582   16.668158
  O     16.754181   15.293195   16.050954
  C     17.984413   15.649873   16.542819
  O     18.904405   14.853170   16.520616
  C     18.048534   16.886413   17.382009
  C     17.559961   18.083822   16.980763
  C     16.926232   18.411133   15.645559
  N     17.684474   19.198811   17.812720
  C     18.362798   19.211649   19.003987
  S     18.510645   20.591333   19.903090
  N     18.907122   18.020212   19.417367
  C     18.737236   16.721895   18.735200
  C     17.952702   15.738731   19.598718
  C     18.397127   14.411946   19.743842
  C     17.659167   13.488340   20.502640
  C     16.462659   13.892480   21.118697
  C     16.012599   15.211130   20.970673
  O     14.849164   15.600890   21.549344
  C     16.749818   16.128978   20.216034
  H     15.474471   13.881471   17.914475
  H     14.690290   13.672636   16.330767
  H     13.868795   14.584407   17.619173
  H     14.853246   16.148559   15.926687
  H     15.626015   16.348644   17.519247
  H     17.140808   17.646095   14.888928
  H     17.311131   19.358553   15.247147
  H     15.837228   18.502236   15.735838
  H     17.302695   20.085722   17.523114
  H     19.381643   18.055023   20.310886
  H     19.738188   16.302654   18.554531
  H     19.309959   14.089767   19.247192
  H     18.011705   12.463016   20.601803
  H     15.887460   13.180312   21.701160
  H     14.521837   14.854416   22.074054
  H     16.380747   17.143882   20.113503

 Total Charge           Charge          ....    0
 Multiplicity           Mult            ....    1
 Number of Electrons    NEL             ....  154
 Basis Dimension        Dim             ....  828

ORBITAL ENERGIES
----------------

  NO   OCC          E(Eh)            E(eV)
   0   2.0000     -91.891109     -2500.4842
   1   2.0000     -20.600508      -560.5683
   2   2.0000     -20.599161      -560.5317
   3   2.0000     -20.548828      -559.1620
   4   2.0000     -15.629307      -425.2951
   5   2.0000     -15.611996      -424.8240
   6   2.0000     -11.397074      -310.1301
   7   2.0000     -11.387659      -309.8739
   8   2.0000     -11.332948      -308.3852
   9   2.0000     -11.317224      -307.9573
  10   2.0000     -11.313609      -307.8590
  11   2.0000     -11.303895      -307.5946
  12   2.0000     -11.267952      -306.6166
  13   2.0000     -11.264155      -306.5132
  14   2.0000     -11.263523      -306.4961
  15   2.0000     -11.256988      -306.3182
  16   2.0000     -11.246443      -306.0313
  17   2.0000     -11.243024      -305.9382
  18   2.0000     -11.239565      -305.8441
  19   2.0000     -11.227147      -305.5062
  20   2.0000      -8.896208      -242.0781
  21   2.0000      -6.577790      -178.9908
  22   2.0000      -6.575770      -178.9358
  23   2.0000      -6.575190      -178.9200
  24   2.0000      -1.447274       -39.3823
  25   2.0000      -1.420290       -38.6480
  26   2.0000      -1.358870       -36.9767
  27   2.0000      -1.341753       -36.5109
  28   2.0000      -1.240890       -33.7663
  29   2.0000      -1.161928       -31.6177
  30   2.0000      -1.125979       -30.6394
  31   2.0000      -1.049188       -28.5499
  32   2.0000      -1.037203       -28.2237
  33   2.0000      -1.019180       -27.7333
  34   2.0000      -1.005457       -27.3599
  35   2.0000      -0.989946       -26.9378
  36   2.0000      -0.928203       -25.2577
  37   2.0000      -0.882754       -24.0210
  38   2.0000      -0.855770       -23.2867
  39   2.0000      -0.842719       -22.9315
  40   2.0000      -0.837440       -22.7879
  41   2.0000      -0.836111       -22.7517
  42   2.0000      -0.753765       -20.5110
  43   2.0000      -0.740727       -20.1562
  44   2.0000      -0.731678       -19.9100
  45   2.0000      -0.698598       -19.0098
  46   2.0000      -0.688667       -18.7396
  47   2.0000      -0.679943       -18.5022
  48   2.0000      -0.677752       -18.4426
  49   2.0000      -0.659785       -17.9537
  50   2.0000      -0.658051       -17.9065
  51   2.0000      -0.649256       -17.6672
  52   2.0000      -0.641000       -17.4425
  53   2.0000      -0.611674       -16.6445
  54   2.0000      -0.609079       -16.5739
  55   2.0000      -0.604985       -16.4625
  56   2.0000      -0.598568       -16.2879
  57   2.0000      -0.582612       -15.8537
  58   2.0000      -0.579045       -15.7566
  59   2.0000      -0.570842       -15.5334
  60   2.0000      -0.561426       -15.2772
  61   2.0000      -0.559785       -15.2325
  62   2.0000      -0.546981       -14.8841
  63   2.0000      -0.528012       -14.3679
  64   2.0000      -0.518510       -14.1094
  65   2.0000      -0.514903       -14.0112
  66   2.0000      -0.503103       -13.6901
  67   2.0000      -0.500544       -13.6205
  68   2.0000      -0.489583       -13.3222
  69   2.0000      -0.471938       -12.8421
  70   2.0000      -0.454374       -12.3641
  71   2.0000      -0.449100       -12.2206
  72   2.0000      -0.357468        -9.7272
  73   2.0000      -0.352857        -9.6017
  74   2.0000      -0.330646        -8.9973
  75   2.0000      -0.324799        -8.8382
  76   2.0000      -0.319290        -8.6883
  77   0.0000       0.079086         2.1520
  78   0.0000       0.102903         2.8001
  79   0.0000       0.115620         3.1462
  80   0.0000       0.127338         3.4650
  81   0.0000       0.135294         3.6815

MULLIKEN ATOMIC CHARGES
-----------------------
   0 C :   -0.261018
   1 C :   -0.002315
   2 O :   -0.323528
   3 C :    0.414719
   4 O :   -0.386326
   5 C :   -0.209225
   6 C :    0.143443
   7 C :   -0.317848
   8 N :   -0.133441
   9 C :    0.201349
  10 S :   -0.438660
  11 N :   -0.209211
  12 C :    0.070427
  13 C :    0.034693
  14 C :   -0.187861
  15 C :   -0.129729
  16 C :   -0.280040
  17 C :    0.320086
  18 O :   -0.360167
  19 C :   -0.294848
  20 H :    0.107697
  21 H :    0.106827
  22 H :    0.090083
  23 H :    0.109514
  24 H :    0.107311
  25 H :    0.136237
  26 H :    0.130946
  27 H :    0.121123
  28 H :    0.197213
  29 H :    0.197111
  30 H :    0.162079
  31 H :    0.166389
  32 H :    0.164166
  33 H :    0.132360
  34 H :    0.242137
  35 H :    0.178307
Sum of atomic charges:    0.0000000

LOEWDIN ATOMIC CHARGES
----------------------
   0 C :    0.109215
   1 C :   -0.022024
   2 O :    0.305089
   3 C :   -0.417346
   4 O :    0.122307
   5 C :   -0.088014
   6 C :   -0.093657
   7 C :    0.127178
   8 N :    0.402371
   9 C :   -0.456617
  10 S :   -0.035753
  11 N :    0.397103
  12 C :   -0.045382
  13 C :   -0.044064
  14 C :    0.023070
  15 C :    0.044840
  16 C :   -0.000125
  17 C :   -0.193731
  18 O :    0.394558
  19 C :    0.026846
  20 H :   -0.022273
  21 H :   -0.025141
  22 H :   -0.026498
  23 H :   -0.032720
  24 H :   -0.038349
  25 H :   -0.006340
  26 H :   -0.011651
  27 H :   -0.016387
  28 H :   -0.057427
  29 H :   -0.063529
  30 H :   -0.002790
  31 H :   -0.021797
  32 H :   -0.018548
  33 H :   -0.034641
  34 H :   -0.152720
  35 H :   -0.025055

  Mayer bond orders larger than 0.100000
B(  0-C ,  1-C ) :   0.9855 B(  0-C , 20-H ) :   0.9724 B(  0-C , 21-H ) :   0.9797
B(  0-C , 22-H ) :   0.9763 B(  1-C ,  2-O ) :   0.8951 B(  1-C , 23-H ) :   0.9778
B(  1-C , 24-H ) :   0.9584 B(  2-O ,  3-C ) :   1.1862 B(  3-C ,  4-O ) :   2.0861
B(  3-C ,  5-C ) :   0.9359 B(  5-C ,  6-C ) :   1.6781 B(  5-C , 12-C ) :   0.9601
B(  6-C ,  7-C ) :   0.9428 B(  6-C ,  8-N ) :   1.1270 B(  7-C , 25-H ) :   0.9768
B(  7-C , 26-H ) :   0.9760 B(  7-C , 27-H ) :   0.9640 B(  8-N ,  9-C ) :   1.1902
B(  8-N , 28-H ) :   0.9513 B(  9-C , 10-S ) :   1.6138 B(  9-C , 11-N ) :   1.2910
B( 11-N , 12-C ) :   0.9992 B( 11-N , 29-H ) :   0.9501 B( 12-C , 13-C ) :   0.9405
B( 12-C , 30-H ) :   0.9975 B( 13-C , 14-C ) :   1.3879 B( 13-C , 19-C ) :   1.3437
B( 14-C , 15-C ) :   1.3946 B( 14-C , 31-H ) :   0.9609 B( 15-C , 16-C ) :   1.3622
B( 15-C , 32-H ) :   0.9702 B( 16-C , 17-C ) :   1.3299 B( 16-C , 33-H ) :   0.9848
B( 17-C , 18-O ) :   1.1075 B( 17-C , 19-C ) :   1.3689 B( 18-O , 34-H ) :   0.9789
B( 19-C , 35-H ) :   0.9559

MP2 TOTAL ENERGY:    -1274.337090976 Eh
FINAL SINGLE POINT ENERGY     -1274.337090976500

DIPOLE MOMENT
-------------
                                X             Y             Z
Electronic contribution:     10.36604       8.34571       6.00113
Nuclear contribution   :    -11.87359      -9.25762      -6.34804
                        -----------------------------------------
Total Dipole Moment    :     -1.50755      -0.91191      -0.34690
                        -----------------------------------------
Magnitude (a.u.)       :      1.79572
Magnitude (Debye)      :      4.56436

Rotational constants in cm-1:     0.012409     0.009116     0.006880
Rotational constants in MHz :   372.001051   273.297526   206.261168

                             ****ORCA TERMINATED NORMALLY****
TOTAL RUN TIME: 0 days 1 hours 43 minutes 40 seconds 502 msec
