                         Program Version 5.0.0 -  RELEASE  -
|  1> ! ri-mp2 cc-pvtz cc-pvtz/c TightSCF NoKeepInts
|  2>
|  3> %scf
|  4>   MaxCore 4096
|  5> end
|  6> *xyz  0  1
|  7>     C       14.9030309   14.1371392   16.2476515
|  8>     C       16.4309885   13.9311312   16.1403548
|  9>     O       17.2064367   15.0508615   16.6311144
| 10>     C       16.8263468   16.3657529   16.5549428
| 11>     O       16.0253072   16.7805083   15.7357462
| 12>     C       17.6184173   17.2410619   17.4874734
| 13>     C       17.5308260   18.5956477   17.4695474
| 14>     C       16.6763504   19.4484037   16.5560840
| 15>     N       18.3052037   19.3606373   18.3468940
| 16>     C       19.2404957   18.8580012   19.2112106
| 17>     S       20.1673245   19.8408476   20.1656809
| 18>     N       19.3706925   17.4933794   19.2467493
| 19>     C       18.5214090   16.5368607   18.5137812
| 20>     C       17.7108963   15.7022209   19.5013616
| 21>     C       17.9660187   14.3260247   19.6506139
| 22>     C       17.2155387   13.5535546   20.5529682
| 23>     C       16.2034023   14.1622816   21.3145475
| 24>     C       15.9499492   15.5334228   21.1718337
| 25>     O       14.9739395   16.1241499   21.9062545
| 26>     C       16.6983542   16.2995275   20.2729356
| 27>     H       14.6300069   14.5403280   17.2310465
| 28>     H       14.3841531   13.1797201   16.1192626
| 29>     H       14.5301296   14.8149649   15.4703345
| 30>     H       16.7161712   13.0333468   16.7035801
| 31>     H       16.6816851   13.7531907   15.0864557
| 32>     H       16.9255830   19.2565092   15.5046550
| 33>     H       16.7978282   20.5233002   16.7337414
| 34>     H       15.6135367   19.2088126   16.6888778
| 35>     H       18.2235276   20.3647175   18.3349732
| 36>     H       20.0401400   17.1508601   19.9237426
| 37>     H       19.1933214   15.8660029   17.9602309
| 38>     H       18.7446268   13.8522570   19.0588692
| 39>     H       17.4190383   12.4895520   20.6602052
| 40>     H       15.6212444   13.5701376   22.0129388
| 41>     H       14.5940629   15.4465036   22.4852995
| 42>     H       16.4910168   17.3603824   20.1820417
| 43> *
| 44>
| 45>                          ****END OF INPUT****

CARTESIAN COORDINATES (ANGSTROEM)
---------------------------------
  C     14.903031   14.137139   16.247651
  C     16.430989   13.931131   16.140355
  O     17.206437   15.050861   16.631114
  C     16.826347   16.365753   16.554943
  O     16.025307   16.780508   15.735746
  C     17.618417   17.241062   17.487473
  C     17.530826   18.595648   17.469547
  C     16.676350   19.448404   16.556084
  N     18.305204   19.360637   18.346894
  C     19.240496   18.858001   19.211211
  S     20.167324   19.840848   20.165681
  N     19.370693   17.493379   19.246749
  C     18.521409   16.536861   18.513781
  C     17.710896   15.702221   19.501362
  C     17.966019   14.326025   19.650614
  C     17.215539   13.553555   20.552968
  C     16.203402   14.162282   21.314547
  C     15.949949   15.533423   21.171834
  O     14.973940   16.124150   21.906254
  C     16.698354   16.299527   20.272936
  H     14.630007   14.540328   17.231047
  H     14.384153   13.179720   16.119263
  H     14.530130   14.814965   15.470334
  H     16.716171   13.033347   16.703580
  H     16.681685   13.753191   15.086456
  H     16.925583   19.256509   15.504655
  H     16.797828   20.523300   16.733741
  H     15.613537   19.208813   16.688878
  H     18.223528   20.364718   18.334973
  H     20.040140   17.150860   19.923743
  H     19.193321   15.866003   17.960231
  H     18.744627   13.852257   19.058869
  H     17.419038   12.489552   20.660205
  H     15.621244   13.570138   22.012939
  H     14.594063   15.446504   22.485299
  H     16.491017   17.360382   20.182042

 Total Charge           Charge          ....    0
 Multiplicity           Mult            ....    1
 Number of Electrons    NEL             ....  154
 Basis Dimension        Dim             ....  828

ORBITAL ENERGIES
----------------

  NO   OCC          E(Eh)            E(eV)
   0   2.0000     -91.888157     -2500.4039
   1   2.0000     -20.597569      -560.4884
   2   2.0000     -20.596939      -560.4712
   3   2.0000     -20.540782      -558.9431
   4   2.0000     -15.628154      -425.2637
   5   2.0000     -15.607540      -424.7028
   6   2.0000     -11.396075      -310.1030
   7   2.0000     -11.383283      -309.7549
   8   2.0000     -11.335035      -308.4420
   9   2.0000     -11.314148      -307.8736
  10   2.0000     -11.307788      -307.7006
  11   2.0000     -11.301684      -307.5345
  12   2.0000     -11.259844      -306.3959
  13   2.0000     -11.258122      -306.3491
  14   2.0000     -11.255626      -306.2811
  15   2.0000     -11.251347      -306.1647
  16   2.0000     -11.243441      -305.9496
  17   2.0000     -11.238746      -305.8218
  18   2.0000     -11.238539      -305.8162
  19   2.0000     -11.223155      -305.3976
  20   2.0000      -8.893230      -241.9971
  21   2.0000      -6.574807      -178.9096
  22   2.0000      -6.572800      -178.8550
  23   2.0000      -6.572216      -178.8391
  24   2.0000      -1.445145       -39.3244
  25   2.0000      -1.416606       -38.5478
  26   2.0000      -1.353395       -36.8277
  27   2.0000      -1.339215       -36.4419
  28   2.0000      -1.237774       -33.6815
  29   2.0000      -1.157788       -31.5050
  30   2.0000      -1.119580       -30.4653
  31   2.0000      -1.042485       -28.3674
  32   2.0000      -1.035429       -28.1755
  33   2.0000      -1.015366       -27.6295
  34   2.0000      -0.994976       -27.0747
  35   2.0000      -0.983431       -26.7605
  36   2.0000      -0.922007       -25.0891
  37   2.0000      -0.898083       -24.4381
  38   2.0000      -0.846658       -23.0387
  39   2.0000      -0.837845       -22.7989
  40   2.0000      -0.834340       -22.7035
  41   2.0000      -0.817228       -22.2379
  42   2.0000      -0.746147       -20.3037
  43   2.0000      -0.731503       -19.9052
  44   2.0000      -0.720737       -19.6122
  45   2.0000      -0.695810       -18.9340
  46   2.0000      -0.687769       -18.7152
  47   2.0000      -0.676466       -18.4076
  48   2.0000      -0.670851       -18.2548
  49   2.0000      -0.657701       -17.8970
  50   2.0000      -0.651154       -17.7188
  51   2.0000      -0.641905       -17.4671
  52   2.0000      -0.634925       -17.2772
  53   2.0000      -0.613255       -16.6875
  54   2.0000      -0.606829       -16.5126
  55   2.0000      -0.600169       -16.3314
  56   2.0000      -0.598487       -16.2857
  57   2.0000      -0.577495       -15.7144
  58   2.0000      -0.570465       -15.5231
  59   2.0000      -0.569362       -15.4931
  60   2.0000      -0.559427       -15.2228
  61   2.0000      -0.541123       -14.7247
  62   2.0000      -0.535370       -14.5682
  63   2.0000      -0.525301       -14.2942
  64   2.0000      -0.520302       -14.1581
  65   2.0000      -0.513253       -13.9663
  66   2.0000      -0.502052       -13.6615
  67   2.0000      -0.499316       -13.5871
  68   2.0000      -0.485458       -13.2100
  69   2.0000      -0.463264       -12.6061
  70   2.0000      -0.454087       -12.3563
  71   2.0000      -0.441837       -12.0230
  72   2.0000      -0.353218        -9.6115
  73   2.0000      -0.349566        -9.5122
  74   2.0000      -0.327689        -8.9169
  75   2.0000      -0.321682        -8.7534
  76   2.0000      -0.315502        -8.5852
  77   0.0000       0.077064         2.0970
  78   0.0000       0.105652         2.8749
  79   0.0000       0.125032         3.4023
  80   0.0000       0.132765         3.6127
  81   0.0000       0.137633         3.7452

MULLIKEN ATOMIC CHARGES
-----------------------
   0 C :   -0.309445
   1 C :    0.044438
   2 O :   -0.362066
   3 C :    0.467455
   4 O :   -0.431702
   5 C :   -0.224701
   6 C :    0.152722
   7 C :   -0.272886
   8 N :   -0.120105
   9 C :    0.212077
  10 S :   -0.441516
  11 N :   -0.206005
  12 C :    0.064297
  13 C :    0.060751
  14 C :   -0.189536
  15 C :   -0.130098
  16 C :   -0.279222
  17 C :    0.317193
  18 O :   -0.356452
  19 C :   -0.271948
  20 H :    0.102419
  21 H :    0.095708
  22 H :    0.126711
  23 H :    0.101750
  24 H :    0.102489
  25 H :    0.131647
  26 H :    0.094877
  27 H :    0.130588
  28 H :    0.196848
  29 H :    0.195113
  30 H :    0.150023
  31 H :    0.151682
  32 H :    0.160513
  33 H :    0.130151
  34 H :    0.240749
  35 H :    0.165479
Sum of atomic charges:    0.0000000

LOEWDIN ATOMIC CHARGES
----------------------
   0 C :    0.104508
   1 C :   -0.010578
   2 O :    0.298541
   3 C :   -0.413731
   4 O :    0.102898
   5 C :   -0.093878
   6 C :   -0.059475
   7 C :    0.131098
   8 N :    0.406396
   9 C :   -0.456416
  10 S :   -0.036669
  11 N :    0.396468
  12 C :   -0.052442
  13 C :   -0.038897
  14 C :    0.014722
  15 C :    0.038632
  16 C :   -0.001816
  17 C :   -0.190030
  18 O :    0.395316
  19 C :    0.030982
  20 H :   -0.026457
  21 H :   -0.027635
  22 H :   -0.025372
  23 H :   -0.026432
  24 H :   -0.028638
  25 H :   -0.003954
  26 H :   -0.023615
  27 H :   -0.004977
  28 H :   -0.057731
  29 H :   -0.064643
  30 H :   -0.011695
  31 H :   -0.030074
  32 H :   -0.021467
  33 H :   -0.035539
  34 H :   -0.153858
  35 H :   -0.023541

  Mayer bond orders larger than 0.100000
B(  0-C ,  1-C ) :   0.9627 B(  0-C , 20-H ) :   0.9750 B(  0-C , 21-H ) :   0.9764
B(  0-C , 22-H ) :   0.9721 B(  1-C ,  2-O ) :   0.8997 B(  1-C , 23-H ) :   0.9819
B(  1-C , 24-H ) :   0.9835 B(  2-O ,  3-C ) :   1.1609 B(  3-C ,  4-O ) :   1.9732
B(  3-C ,  5-C ) :   1.0513 B(  5-C ,  6-C ) :   1.6542 B(  5-C , 12-C ) :   0.9709
B(  6-C ,  7-C ) :   0.9670 B(  6-C ,  8-N ) :   1.1641 B(  7-C , 25-H ) :   0.9602
B(  7-C , 26-H ) :   0.9904 B(  7-C , 27-H ) :   0.9609 B(  8-N ,  9-C ) :   1.1844
B(  8-N , 28-H ) :   0.9479 B(  9-C , 10-S ) :   1.6055 B(  9-C , 11-N ) :   1.3060
B( 11-N , 12-C ) :   0.9881 B( 11-N , 29-H ) :   0.9513 B( 12-C , 13-C ) :   0.9345
B( 12-C , 30-H ) :   1.0026 B( 13-C , 14-C ) :   1.3555 B( 13-C , 19-C ) :   1.3815
B( 14-C , 15-C ) :   1.3904 B( 14-C , 31-H ) :   0.9709 B( 15-C , 16-C ) :   1.3638
B( 15-C , 32-H ) :   0.9706 B( 16-C , 17-C ) :   1.3317 B( 16-C , 33-H ) :   0.9849
B( 17-C , 18-O ) :   1.1101 B( 17-C , 19-C ) :   1.3701 B( 18-O , 34-H ) :   0.9798
B( 19-C , 35-H ) :   0.9586

MP2 TOTAL ENERGY:    -1274.343179117 Eh
FINAL SINGLE POINT ENERGY     -1274.343179117293

DIPOLE MOMENT
-------------
                                X             Y             Z
Electronic contribution:     10.33169       9.92867       8.05416
Nuclear contribution   :    -11.38713     -11.71488      -8.42384
                        -----------------------------------------
Total Dipole Moment    :     -1.05544      -1.78620      -0.36968
                        -----------------------------------------
Magnitude (a.u.)       :      2.10740
Magnitude (Debye)      :      5.35659

Rotational constants in cm-1:     0.011945     0.008669     0.006202
Rotational constants in MHz :   358.088208   259.903683   185.925409

                             ****ORCA TERMINATED NORMALLY****
TOTAL RUN TIME: 0 days 1 hours 58 minutes 46 seconds 582 msec
