                         Program Version 5.0.0 -  RELEASE  -
|  1> ! ri-mp2 cc-pvtz cc-pvtz/c TightSCF NoKeepInts
|  2>
|  3> %scf
|  4>   MaxCore 4096
|  5> end
|  6> *xyz  0  1
|  7>     C       16.0611648   13.0780887   16.2534971
|  8>     C       15.5841758   14.5396857   16.2860747
|  9>     O       16.7332859   15.3664109   16.5292035
| 10>     C       16.5737692   16.7227876   16.5060974
| 11>     O       15.6617186   17.2540101   15.8952872
| 12>     C       17.4742040   17.4321961   17.4795196
| 13>     C       17.4857204   18.7834765   17.6068471
| 14>     C       16.6456673   19.7832836   16.8411942
| 15>     N       18.3708491   19.3962912   18.4987985
| 16>     C       19.3415675   18.7446178   19.2115339
| 17>     S       20.4148079   19.5566126   20.1731917
| 18>     N       19.3826944   17.3797524   19.0834118
| 19>     C       18.3941347   16.5644637   18.3544968
| 20>     C       17.6066685   15.7099483   19.3437525
| 21>     C       17.8160450   14.3196077   19.4064165
| 22>     C       17.0908158   13.5271511   20.3120401
| 23>     C       16.1512659   14.1302548   21.1654475
| 24>     C       15.9453947   15.5156246   21.1107720
| 25>     O       15.0407113   16.1012117   21.9351333
| 26>     C       16.6681856   16.3014961   20.2079792
| 27>     H       16.4991939   12.7927075   17.2174865
| 28>     H       16.8167966   12.9350768   15.4711267
| 29>     H       15.2204457   12.4048906   16.0466529
| 30>     H       15.1229199   14.7964213   15.3224879
| 31>     H       14.8388822   14.6789400   17.0807235
| 32>     H       15.5795832   19.6329262   17.0547123
| 33>     H       16.7833456   19.6566687   15.7598374
| 34>     H       16.8892925   20.8240822   17.0845528
| 35>     H       18.3563853   20.3981655   18.6042259
| 36>     H       20.0854862   16.9241351   19.6511153
| 37>     H       18.9520005   15.8941839   17.6854227
| 38>     H       18.5389079   13.8505768   18.7442780
| 39>     H       17.2583190   12.4522247   20.3512303
| 40>     H       15.5892106   13.5228465   21.8672024
| 41>     H       14.6738999   15.4084816   22.5047068
| 42>     H       16.4994848   17.3727016   20.1875441
| 43> *
| 44>
| 45>                          ****END OF INPUT****

CARTESIAN COORDINATES (ANGSTROEM)
---------------------------------
  C     16.061165   13.078089   16.253497
  C     15.584176   14.539686   16.286075
  O     16.733286   15.366411   16.529204
  C     16.573769   16.722788   16.506097
  O     15.661719   17.254010   15.895287
  C     17.474204   17.432196   17.479520
  C     17.485720   18.783476   17.606847
  C     16.645667   19.783284   16.841194
  N     18.370849   19.396291   18.498798
  C     19.341568   18.744618   19.211534
  S     20.414808   19.556613   20.173192
  N     19.382694   17.379752   19.083412
  C     18.394135   16.564464   18.354497
  C     17.606668   15.709948   19.343753
  C     17.816045   14.319608   19.406416
  C     17.090816   13.527151   20.312040
  C     16.151266   14.130255   21.165447
  C     15.945395   15.515625   21.110772
  O     15.040711   16.101212   21.935133
  C     16.668186   16.301496   20.207979
  H     16.499194   12.792708   17.217486
  H     16.816797   12.935077   15.471127
  H     15.220446   12.404891   16.046653
  H     15.122920   14.796421   15.322488
  H     14.838882   14.678940   17.080724
  H     15.579583   19.632926   17.054712
  H     16.783346   19.656669   15.759837
  H     16.889292   20.824082   17.084553
  H     18.356385   20.398165   18.604226
  H     20.085486   16.924135   19.651115
  H     18.952001   15.894184   17.685423
  H     18.538908   13.850577   18.744278
  H     17.258319   12.452225   20.351230
  H     15.589211   13.522846   21.867202
  H     14.673900   15.408482   22.504707
  H     16.499485   17.372702   20.187544

 Total Charge           Charge          ....    0
 Multiplicity           Mult            ....    1
 Number of Electrons    NEL             ....  154
 Basis Dimension        Dim             ....  828

ORBITAL ENERGIES
----------------

  NO   OCC          E(Eh)            E(eV)
   0   2.0000     -91.889126     -2500.4302
   1   2.0000     -20.598361      -560.5099
   2   2.0000     -20.597621      -560.4898
   3   2.0000     -20.542465      -558.9889
   4   2.0000     -15.629321      -425.2955
   5   2.0000     -15.608609      -424.7318
   6   2.0000     -11.393624      -310.0363
   7   2.0000     -11.384275      -309.7819
   8   2.0000     -11.336045      -308.4695
   9   2.0000     -11.314963      -307.8958
  10   2.0000     -11.309643      -307.7510
  11   2.0000     -11.294851      -307.3485
  12   2.0000     -11.260767      -306.4210
  13   2.0000     -11.258882      -306.3698
  14   2.0000     -11.256529      -306.3057
  15   2.0000     -11.252214      -306.1883
  16   2.0000     -11.244178      -305.9696
  17   2.0000     -11.239367      -305.8387
  18   2.0000     -11.239141      -305.8326
  19   2.0000     -11.228931      -305.5547
  20   2.0000      -8.894185      -242.0231
  21   2.0000      -6.575758      -178.9355
  22   2.0000      -6.573754      -178.8809
  23   2.0000      -6.573167      -178.8650
  24   2.0000      -1.451907       -39.5084
  25   2.0000      -1.417270       -38.5659
  26   2.0000      -1.354215       -36.8501
  27   2.0000      -1.340327       -36.4722
  28   2.0000      -1.238907       -33.7124
  29   2.0000      -1.158660       -31.5287
  30   2.0000      -1.120743       -30.4970
  31   2.0000      -1.043625       -28.3985
  32   2.0000      -1.038921       -28.2705
  33   2.0000      -1.016395       -27.6575
  34   2.0000      -0.996098       -27.1052
  35   2.0000      -0.984698       -26.7950
  36   2.0000      -0.923119       -25.1194
  37   2.0000      -0.886510       -24.1232
  38   2.0000      -0.847141       -23.0519
  39   2.0000      -0.838269       -22.8105
  40   2.0000      -0.834915       -22.7192
  41   2.0000      -0.818832       -22.2816
  42   2.0000      -0.764530       -20.8039
  43   2.0000      -0.733214       -19.9518
  44   2.0000      -0.721927       -19.6446
  45   2.0000      -0.696763       -18.9599
  46   2.0000      -0.686544       -18.6818
  47   2.0000      -0.678646       -18.4669
  48   2.0000      -0.677514       -18.4361
  49   2.0000      -0.662590       -18.0300
  50   2.0000      -0.646400       -17.5894
  51   2.0000      -0.645571       -17.5669
  52   2.0000      -0.636620       -17.3233
  53   2.0000      -0.608320       -16.5532
  54   2.0000      -0.601368       -16.3641
  55   2.0000      -0.600472       -16.3397
  56   2.0000      -0.596728       -16.2378
  57   2.0000      -0.578432       -15.7399
  58   2.0000      -0.571120       -15.5410
  59   2.0000      -0.566263       -15.4088
  60   2.0000      -0.559868       -15.2348
  61   2.0000      -0.547452       -14.8969
  62   2.0000      -0.539536       -14.6815
  63   2.0000      -0.526144       -14.3171
  64   2.0000      -0.518328       -14.1044
  65   2.0000      -0.513412       -13.9706
  66   2.0000      -0.506658       -13.7869
  67   2.0000      -0.500029       -13.6065
  68   2.0000      -0.486098       -13.2274
  69   2.0000      -0.465843       -12.6762
  70   2.0000      -0.457882       -12.4596
  71   2.0000      -0.446233       -12.1426
  72   2.0000      -0.354499        -9.6464
  73   2.0000      -0.350550        -9.5390
  74   2.0000      -0.328573        -8.9409
  75   2.0000      -0.322324        -8.7709
  76   2.0000      -0.316447        -8.6110
  77   0.0000       0.075124         2.0442
  78   0.0000       0.104337         2.8392
  79   0.0000       0.124714         3.3936
  80   0.0000       0.131942         3.5903
  81   0.0000       0.137423         3.7395

MULLIKEN ATOMIC CHARGES
-----------------------
   0 C :   -0.272831
   1 C :    0.037230
   2 O :   -0.352910
   3 C :    0.451862
   4 O :   -0.425593
   5 C :   -0.232171
   6 C :    0.156166
   7 C :   -0.271552
   8 N :   -0.122734
   9 C :    0.213380
  10 S :   -0.440037
  11 N :   -0.206015
  12 C :    0.062622
  13 C :    0.068612
  14 C :   -0.205575
  15 C :   -0.122757
  16 C :   -0.281596
  17 C :    0.316627
  18 O :   -0.356217
  19 C :   -0.269442
  20 H :    0.092714
  21 H :    0.097000
  22 H :    0.095706
  23 H :    0.116519
  24 H :    0.093630
  25 H :    0.132560
  26 H :    0.130417
  27 H :    0.095205
  28 H :    0.197513
  29 H :    0.194946
  30 H :    0.149425
  31 H :    0.156207
  32 H :    0.163602
  33 H :    0.130910
  34 H :    0.240939
  35 H :    0.165638
Sum of atomic charges:    0.0000000

LOEWDIN ATOMIC CHARGES
----------------------
   0 C :    0.107699
   1 C :   -0.017262
   2 O :    0.305512
   3 C :   -0.414803
   4 O :    0.100083
   5 C :   -0.095773
   6 C :   -0.059092
   7 C :    0.131621
   8 N :    0.406696
   9 C :   -0.455856
  10 S :   -0.035325
  11 N :    0.396246
  12 C :   -0.052305
  13 C :   -0.037873
  14 C :    0.014166
  15 C :    0.039234
  16 C :   -0.002009
  17 C :   -0.189486
  18 O :    0.395522
  19 C :    0.031379
  20 H :   -0.030724
  21 H :   -0.027164
  22 H :   -0.024575
  23 H :   -0.027588
  24 H :   -0.028998
  25 H :   -0.004462
  26 H :   -0.003958
  27 H :   -0.023328
  28 H :   -0.057497
  29 H :   -0.064765
  30 H :   -0.010384
  31 H :   -0.030622
  32 H :   -0.021384
  33 H :   -0.035379
  34 H :   -0.153722
  35 H :   -0.023826

  Mayer bond orders larger than 0.100000
B(  0-C ,  1-C ) :   0.9722 B(  0-C , 20-H ) :   0.9763 B(  0-C , 21-H ) :   0.9769
B(  0-C , 22-H ) :   0.9787 B(  1-C ,  2-O ) :   0.8909 B(  1-C , 23-H ) :   0.9817
B(  1-C , 24-H ) :   0.9715 B(  2-O ,  3-C ) :   1.1619 B(  3-C ,  4-O ) :   1.9879
B(  3-C ,  5-C ) :   1.0558 B(  5-C ,  6-C ) :   1.6544 B(  5-C , 12-C ) :   0.9735
B(  6-C ,  7-C ) :   0.9670 B(  6-C ,  8-N ) :   1.1626 B(  7-C , 25-H ) :   0.9594
B(  7-C , 26-H ) :   0.9611 B(  7-C , 27-H ) :   0.9905 B(  8-N ,  9-C ) :   1.1833
B(  8-N , 28-H ) :   0.9478 B(  9-C , 10-S ) :   1.6062 B(  9-C , 11-N ) :   1.3062
B( 11-N , 12-C ) :   0.9823 B( 11-N , 29-H ) :   0.9517 B( 12-C , 13-C ) :   0.9362
B( 12-C , 30-H ) :   1.0026 B( 13-C , 14-C ) :   1.3552 B( 13-C , 19-C ) :   1.3805
B( 14-C , 15-C ) :   1.3837 B( 14-C , 31-H ) :   0.9695 B( 15-C , 16-C ) :   1.3664
B( 15-C , 32-H ) :   0.9692 B( 16-C , 17-C ) :   1.3303 B( 16-C , 33-H ) :   0.9846
B( 17-C , 18-O ) :   1.1108 B( 17-C , 19-C ) :   1.3720 B( 18-O , 34-H ) :   0.9797
B( 19-C , 35-H ) :   0.9584

MP2 TOTAL ENERGY:    -1274.348237979 Eh
FINAL SINGLE POINT ENERGY     -1274.348237979215

DIPOLE MOMENT
-------------
                                X             Y             Z
Electronic contribution:      8.74058      11.26667       7.41485
Nuclear contribution   :     -9.85885     -12.85368      -7.72961
                        -----------------------------------------
Total Dipole Moment    :     -1.11827      -1.58702      -0.31477
                        -----------------------------------------
Magnitude (a.u.)       :      1.96678
Magnitude (Debye)      :      4.99917

Rotational constants in cm-1:     0.012179     0.008436     0.006266
Rotational constants in MHz :   365.109603   252.915778   187.848685

                             ****ORCA TERMINATED NORMALLY****
TOTAL RUN TIME: 0 days 2 hours 3 minutes 29 seconds 780 msec
