                         Program Version 5.0.0 -  RELEASE  -
|  1> ! ri-mp2 cc-pvtz cc-pvtz/c TightSCF NoKeepInts
|  2>
|  3> %scf
|  4>   MaxCore 4096
|  5> end
|  6> *xyz  0  1
|  7>     C       15.3438229   14.9243116   17.2898357
|  8>     C       15.5863113   15.2686260   15.8039080
|  9>     O       16.9476630   15.6604118   15.4974833
| 10>     C       17.9466937   15.7202196   16.4282669
| 11>     O       18.6789851   14.7618609   16.5981161
| 12>     C       17.9125644   16.8835358   17.3805623
| 13>     C       17.3379368   18.0849005   17.1128851
| 14>     C       16.6459410   18.5293831   15.8408304
| 15>     N       17.4376004   19.1244028   18.0431867
| 16>     C       18.2432234   19.1079112   19.1509405
| 17>     S       18.4162436   20.4350539   20.1221433
| 18>     N       18.8972805   17.9308185   19.4122015
| 19>     C       18.6531474   16.6586228   18.7060118
| 20>     C       17.9070033   15.6759255   19.6066510
| 21>     C       18.3383834   14.3403422   19.7090827
| 22>     C       17.6522005   13.4243501   20.5235927
| 23>     C       16.5233839   13.8459574   21.2459857
| 24>     C       16.0900583   15.1748556   21.1490591
| 25>     O       14.9947699   15.5834117   21.8376376
| 26>     C       16.7754180   16.0845770   20.3377773
| 27>     H       16.0557016   14.1698230   17.6495675
| 28>     H       14.3352909   14.5139611   17.4207845
| 29>     H       15.4166451   15.8170553   17.9204006
| 30>     H       15.3453660   14.3810363   15.2042935
| 31>     H       14.8927370   16.0602343   15.4953590
| 32>     H       15.5954292   18.2191635   15.8359236
| 33>     H       17.1347763   18.1116384   14.9519754
| 34>     H       16.6687357   19.6195566   15.7192561
| 35>     H       16.9701782   19.9992045   17.8653580
| 36>     H       19.4676158   17.9356374   20.2482781
| 37>     H       19.6344660   16.2216483   18.4695460
| 38>     H       19.2020336   14.0060126   19.1384058
| 39>     H       17.9939218   12.3926635   20.5867401
| 40>     H       15.9887978   13.1408581   21.8737942
| 41>     H       14.6969510   14.8364874   22.3785117
| 42>     H       16.4197230   17.1075417   20.2796480
| 43> *
| 44>
| 45>                          ****END OF INPUT****

CARTESIAN COORDINATES (ANGSTROEM)
---------------------------------
  C     15.343823   14.924312   17.289836
  C     15.586311   15.268626   15.803908
  O     16.947663   15.660412   15.497483
  C     17.946694   15.720220   16.428267
  O     18.678985   14.761861   16.598116
  C     17.912564   16.883536   17.380562
  C     17.337937   18.084900   17.112885
  C     16.645941   18.529383   15.840830
  N     17.437600   19.124403   18.043187
  C     18.243223   19.107911   19.150941
  S     18.416244   20.435054   20.122143
  N     18.897280   17.930819   19.412201
  C     18.653147   16.658623   18.706012
  C     17.907003   15.675925   19.606651
  C     18.338383   14.340342   19.709083
  C     17.652200   13.424350   20.523593
  C     16.523384   13.845957   21.245986
  C     16.090058   15.174856   21.149059
  O     14.994770   15.583412   21.837638
  C     16.775418   16.084577   20.337777
  H     16.055702   14.169823   17.649567
  H     14.335291   14.513961   17.420784
  H     15.416645   15.817055   17.920401
  H     15.345366   14.381036   15.204294
  H     14.892737   16.060234   15.495359
  H     15.595429   18.219164   15.835924
  H     17.134776   18.111638   14.951975
  H     16.668736   19.619557   15.719256
  H     16.970178   19.999204   17.865358
  H     19.467616   17.935637   20.248278
  H     19.634466   16.221648   18.469546
  H     19.202034   14.006013   19.138406
  H     17.993922   12.392663   20.586740
  H     15.988798   13.140858   21.873794
  H     14.696951   14.836487   22.378512
  H     16.419723   17.107542   20.279648

 Total Charge           Charge          ....    0
 Multiplicity           Mult            ....    1
 Number of Electrons    NEL             ....  154
 Basis Dimension        Dim             ....  828

ORBITAL ENERGIES
----------------

  NO   OCC          E(Eh)            E(eV)
   0   2.0000     -91.891028     -2500.4820
   1   2.0000     -20.595917      -560.4434
   2   2.0000     -20.583841      -560.1148
   3   2.0000     -20.552016      -559.2488
   4   2.0000     -15.631354      -425.3508
   5   2.0000     -15.609460      -424.7550
   6   2.0000     -11.396351      -310.1105
   7   2.0000     -11.386038      -309.8298
   8   2.0000     -11.339166      -308.5544
   9   2.0000     -11.312007      -307.8154
  10   2.0000     -11.309000      -307.7335
  11   2.0000     -11.308562      -307.7216
  12   2.0000     -11.264096      -306.5116
  13   2.0000     -11.263873      -306.5056
  14   2.0000     -11.257906      -306.3432
  15   2.0000     -11.251993      -306.1823
  16   2.0000     -11.241778      -305.9043
  17   2.0000     -11.237428      -305.7860
  18   2.0000     -11.233691      -305.6843
  19   2.0000     -11.230418      -305.5952
  20   2.0000      -8.896084      -242.0748
  21   2.0000      -6.577658      -178.9872
  22   2.0000      -6.575651      -178.9326
  23   2.0000      -6.575061      -178.9165
  24   2.0000      -1.445208       -39.3261
  25   2.0000      -1.415732       -38.5240
  26   2.0000      -1.354749       -36.8646
  27   2.0000      -1.342704       -36.5368
  28   2.0000      -1.240144       -33.7460
  29   2.0000      -1.156200       -31.4618
  30   2.0000      -1.122217       -30.5371
  31   2.0000      -1.044563       -28.4240
  32   2.0000      -1.034796       -28.1582
  33   2.0000      -1.014332       -27.6014
  34   2.0000      -1.003188       -27.2981
  35   2.0000      -0.988146       -26.8888
  36   2.0000      -0.925829       -25.1931
  37   2.0000      -0.898073       -24.4378
  38   2.0000      -0.852464       -23.1967
  39   2.0000      -0.840063       -22.8593
  40   2.0000      -0.832288       -22.6477
  41   2.0000      -0.822183       -22.3727
  42   2.0000      -0.744407       -20.2563
  43   2.0000      -0.730003       -19.8644
  44   2.0000      -0.728538       -19.8245
  45   2.0000      -0.693652       -18.8752
  46   2.0000      -0.687581       -18.7100
  47   2.0000      -0.678606       -18.4658
  48   2.0000      -0.674483       -18.3536
  49   2.0000      -0.663047       -18.0424
  50   2.0000      -0.651604       -17.7311
  51   2.0000      -0.650481       -17.7005
  52   2.0000      -0.639550       -17.4030
  53   2.0000      -0.626285       -17.0421
  54   2.0000      -0.605829       -16.4854
  55   2.0000      -0.603897       -16.4329
  56   2.0000      -0.599900       -16.3241
  57   2.0000      -0.582117       -15.8402
  58   2.0000      -0.575234       -15.6529
  59   2.0000      -0.564362       -15.3571
  60   2.0000      -0.555397       -15.1131
  61   2.0000      -0.546142       -14.8613
  62   2.0000      -0.539624       -14.6839
  63   2.0000      -0.535528       -14.5725
  64   2.0000      -0.520539       -14.1646
  65   2.0000      -0.512521       -13.9464
  66   2.0000      -0.499873       -13.6022
  67   2.0000      -0.491401       -13.3717
  68   2.0000      -0.484192       -13.1755
  69   2.0000      -0.470096       -12.7920
  70   2.0000      -0.455328       -12.3901
  71   2.0000      -0.448661       -12.2087
  72   2.0000      -0.357535        -9.7290
  73   2.0000      -0.347065        -9.4441
  74   2.0000      -0.330156        -8.9840
  75   2.0000      -0.320560        -8.7229
  76   2.0000      -0.317887        -8.6501
  77   0.0000       0.069780         1.8988
  78   0.0000       0.107226         2.9178
  79   0.0000       0.117824         3.2062
  80   0.0000       0.132079         3.5941
  81   0.0000       0.136552         3.7158

MULLIKEN ATOMIC CHARGES
-----------------------
   0 C :   -0.343611
   1 C :    0.040604
   2 O :   -0.380369
   3 C :    0.495658
   4 O :   -0.394528
   5 C :   -0.250353
   6 C :    0.172145
   7 C :   -0.317485
   8 N :   -0.125089
   9 C :    0.189203
  10 S :   -0.435321
  11 N :   -0.202839
  12 C :    0.050786
  13 C :    0.049468
  14 C :   -0.190920
  15 C :   -0.134222
  16 C :   -0.278294
  17 C :    0.319647
  18 O :   -0.359191
  19 C :   -0.286430
  20 H :    0.130726
  21 H :    0.119327
  22 H :    0.107054
  23 H :    0.121458
  24 H :    0.093477
  25 H :    0.118150
  26 H :    0.144893
  27 H :    0.117435
  28 H :    0.197804
  29 H :    0.195212
  30 H :    0.159566
  31 H :    0.166569
  32 H :    0.162778
  33 H :    0.130870
  34 H :    0.240767
  35 H :    0.175053
Sum of atomic charges:    0.0000000

LOEWDIN ATOMIC CHARGES
----------------------
   0 C :    0.106684
   1 C :   -0.014024
   2 O :    0.281523
   3 C :   -0.422110
   4 O :    0.126617
   5 C :   -0.092122
   6 C :   -0.071588
   7 C :    0.128166
   8 N :    0.405165
   9 C :   -0.460562
  10 S :   -0.033607
  11 N :    0.397753
  12 C :   -0.045294
  13 C :   -0.040610
  14 C :    0.021136
  15 C :    0.041138
  16 C :   -0.002252
  17 C :   -0.193673
  18 O :    0.394175
  19 C :    0.028970
  20 H :   -0.018839
  21 H :   -0.021869
  22 H :   -0.033988
  23 H :   -0.023441
  24 H :   -0.035286
  25 H :   -0.016010
  26 H :   -0.005819
  27 H :   -0.016623
  28 H :   -0.058241
  29 H :   -0.063348
  30 H :   -0.003035
  31 H :   -0.023630
  32 H :   -0.019959
  33 H :   -0.035570
  34 H :   -0.153990
  35 H :   -0.025838

  Mayer bond orders larger than 0.100000
B(  0-C ,  1-C ) :   0.9633 B(  0-C , 20-H ) :   0.9644 B(  0-C , 21-H ) :   0.9747
B(  0-C , 22-H ) :   0.9705 B(  1-C ,  2-O ) :   0.8942 B(  1-C , 23-H ) :   0.9833
B(  1-C , 24-H ) :   0.9778 B(  2-O ,  3-C ) :   1.1109 B(  3-C ,  4-O ) :   2.0493
B(  3-C ,  5-C ) :   0.9914 B(  5-C ,  6-C ) :   1.6545 B(  5-C , 12-C ) :   0.9631
B(  6-C ,  7-C ) :   0.9464 B(  6-C ,  8-N ) :   1.1368 B(  7-C , 25-H ) :   0.9671
B(  7-C , 26-H ) :   0.9651 B(  7-C , 27-H ) :   0.9875 B(  8-N ,  9-C ) :   1.1803
B(  8-N , 28-H ) :   0.9495 B(  9-C , 10-S ) :   1.6158 B(  9-C , 11-N ) :   1.2997
B( 11-N , 12-C ) :   0.9871 B( 11-N , 29-H ) :   0.9518 B( 12-C , 13-C ) :   0.9483
B( 12-C , 30-H ) :   0.9989 B( 13-C , 14-C ) :   1.3842 B( 13-C , 19-C ) :   1.3437
B( 14-C , 15-C ) :   1.3957 B( 14-C , 31-H ) :   0.9600 B( 15-C , 16-C ) :   1.3613
B( 15-C , 32-H ) :   0.9705 B( 16-C , 17-C ) :   1.3313 B( 16-C , 33-H ) :   0.9849
B( 17-C , 18-O ) :   1.1111 B( 17-C , 19-C ) :   1.3691 B( 18-O , 34-H ) :   0.9801
B( 19-C , 35-H ) :   0.9584

MP2 TOTAL ENERGY:    -1274.328311728 Eh
FINAL SINGLE POINT ENERGY     -1274.328311728220

DIPOLE MOMENT
-------------
                                X             Y             Z
Electronic contribution:      9.53331       7.74647       6.36285
Nuclear contribution   :    -11.04498      -8.80163      -6.97355
                        -----------------------------------------
Total Dipole Moment    :     -1.51168      -1.05516      -0.61069
                        -----------------------------------------
Magnitude (a.u.)       :      1.94203
Magnitude (Debye)      :      4.93624

Rotational constants in cm-1:     0.011391     0.009895     0.006754
Rotational constants in MHz :   341.487660   296.655930   202.478093

                             ****ORCA TERMINATED NORMALLY****
TOTAL RUN TIME: 0 days 2 hours 19 minutes 55 seconds 650 msec
