                         Program Version 5.0.0 -  RELEASE  -
|  1> ! ri-mp2 cc-pvtz cc-pvtz/c TightSCF NoKeepInts
|  2>
|  3> %scf
|  4>   MaxCore 4096
|  5> end
|  6> *xyz  0  1
|  7>     C       15.9223215   14.3001013   14.3697031
|  8>     C       15.0903240   14.8494503   15.5474766
|  9>     O       15.8271313   15.8861338   16.2251312
| 10>     C       16.9141172   15.5837868   16.9966790
| 11>     O       17.2942000   14.4378890   17.1753743
| 12>     C       17.5280341   16.7547932   17.7127060
| 13>     C       17.2673617   18.0635109   17.4506298
| 14>     C       16.3311997   18.6446053   16.4104156
| 15>     N       17.9592009   19.0613396   18.1460029
| 16>     C       19.0180971   18.8419055   18.9866915
| 17>     S       19.8699621   20.0892633   19.6605789
| 18>     N       19.3345835   17.5317420   19.2394152
| 19>     C       18.5266814   16.3741696   18.8126828
| 20>     C       17.8154758   15.7491796   20.0103684
| 21>     C       17.9695977   14.3796778   20.2948431
| 22>     C       17.3169249   13.7980697   21.3946990
| 23>     C       16.5019825   14.5921243   22.2192525
| 24>     C       16.3426187   15.9556983   21.9376319
| 25>     O       15.5516402   16.7239559   22.7285705
| 26>     C       16.9932018   16.5316442   20.8419399
| 27>     H       16.2361139   15.1133750   13.7039340
| 28>     H       15.3278365   13.5891273   13.7833610
| 29>     H       16.8183641   13.7744978   14.7217393
| 30>     H       14.1538937   15.2689001   15.1580701
| 31>     H       14.8361515   14.0385515   16.2439042
| 32>     H       15.2885180   18.3999523   16.6487758
| 33>     H       16.5557444   18.2403864   15.4155278
| 34>     H       16.4024381   19.7365661   16.3375671
| 35>     H       17.7414929   20.0298095   17.9742179
| 36>     H       20.0985492   17.3952330   19.8887209
| 37>     H       19.2162535   15.6264599   18.3948047
| 38>     H       18.5854193   13.7594886   19.6480221
| 39>     H       17.4394717   12.7360807   21.5994060
| 40>     H       15.9944395   14.1466012   23.0682271
| 41>     H       15.2191124   16.1583667   23.4414651
| 42>     H       16.8585450   17.5895632   20.6454650
| 43> *
| 44>
| 45>                          ****END OF INPUT****

CARTESIAN COORDINATES (ANGSTROEM)
---------------------------------
  C     15.922322   14.300101   14.369703
  C     15.090324   14.849450   15.547477
  O     15.827131   15.886134   16.225131
  C     16.914117   15.583787   16.996679
  O     17.294200   14.437889   17.175374
  C     17.528034   16.754793   17.712706
  C     17.267362   18.063511   17.450630
  C     16.331200   18.644605   16.410416
  N     17.959201   19.061340   18.146003
  C     19.018097   18.841905   18.986691
  S     19.869962   20.089263   19.660579
  N     19.334584   17.531742   19.239415
  C     18.526681   16.374170   18.812683
  C     17.815476   15.749180   20.010368
  C     17.969598   14.379678   20.294843
  C     17.316925   13.798070   21.394699
  C     16.501983   14.592124   22.219252
  C     16.342619   15.955698   21.937632
  O     15.551640   16.723956   22.728571
  C     16.993202   16.531644   20.841940
  H     16.236114   15.113375   13.703934
  H     15.327837   13.589127   13.783361
  H     16.818364   13.774498   14.721739
  H     14.153894   15.268900   15.158070
  H     14.836151   14.038551   16.243904
  H     15.288518   18.399952   16.648776
  H     16.555744   18.240386   15.415528
  H     16.402438   19.736566   16.337567
  H     17.741493   20.029809   17.974218
  H     20.098549   17.395233   19.888721
  H     19.216253   15.626460   18.394805
  H     18.585419   13.759489   19.648022
  H     17.439472   12.736081   21.599406
  H     15.994440   14.146601   23.068227
  H     15.219112   16.158367   23.441465
  H     16.858545   17.589563   20.645465

 Total Charge           Charge          ....    0
 Multiplicity           Mult            ....    1
 Number of Electrons    NEL             ....  154
 Basis Dimension        Dim             ....  828

ORBITAL ENERGIES
----------------

  NO   OCC          E(Eh)            E(eV)
   0   2.0000     -91.887990     -2500.3993
   1   2.0000     -20.604499      -560.6769
   2   2.0000     -20.590481      -560.2955
   3   2.0000     -20.545142      -559.0617
   4   2.0000     -15.628465      -425.2722
   5   2.0000     -15.606448      -424.6731
   6   2.0000     -11.397106      -310.1310
   7   2.0000     -11.382734      -309.7399
   8   2.0000     -11.336958      -308.4943
   9   2.0000     -11.306268      -307.6592
  10   2.0000     -11.304971      -307.6239
  11   2.0000     -11.302092      -307.5456
  12   2.0000     -11.260835      -306.4229
  13   2.0000     -11.258793      -306.3673
  14   2.0000     -11.252341      -306.1918
  15   2.0000     -11.246415      -306.0305
  16   2.0000     -11.236067      -305.7489
  17   2.0000     -11.232253      -305.6452
  18   2.0000     -11.229194      -305.5619
  19   2.0000     -11.226811      -305.4971
  20   2.0000      -8.893049      -241.9922
  21   2.0000      -6.574626      -178.9047
  22   2.0000      -6.572620      -178.8501
  23   2.0000      -6.572034      -178.8341
  24   2.0000      -1.453458       -39.5506
  25   2.0000      -1.410212       -38.3738
  26   2.0000      -1.357403       -36.9368
  27   2.0000      -1.339365       -36.4460
  28   2.0000      -1.236814       -33.6554
  29   2.0000      -1.151090       -31.3228
  30   2.0000      -1.119025       -30.4502
  31   2.0000      -1.041680       -28.3456
  32   2.0000      -1.034549       -28.1515
  33   2.0000      -1.008381       -27.4394
  34   2.0000      -0.996871       -27.1262
  35   2.0000      -0.982501       -26.7352
  36   2.0000      -0.920888       -25.0586
  37   2.0000      -0.894998       -24.3541
  38   2.0000      -0.847615       -23.0648
  39   2.0000      -0.834707       -22.7135
  40   2.0000      -0.826704       -22.4958
  41   2.0000      -0.816470       -22.2173
  42   2.0000      -0.752936       -20.4884
  43   2.0000      -0.734337       -19.9823
  44   2.0000      -0.724067       -19.7029
  45   2.0000      -0.690007       -18.7760
  46   2.0000      -0.684692       -18.6314
  47   2.0000      -0.679335       -18.4857
  48   2.0000      -0.671029       -18.2596
  49   2.0000      -0.659823       -17.9547
  50   2.0000      -0.646703       -17.5977
  51   2.0000      -0.641749       -17.4629
  52   2.0000      -0.630690       -17.1619
  53   2.0000      -0.613184       -16.6856
  54   2.0000      -0.599616       -16.3164
  55   2.0000      -0.598409       -16.2835
  56   2.0000      -0.593695       -16.1553
  57   2.0000      -0.584834       -15.9142
  58   2.0000      -0.572068       -15.5668
  59   2.0000      -0.565209       -15.3801
  60   2.0000      -0.560155       -15.2426
  61   2.0000      -0.545469       -14.8430
  62   2.0000      -0.535220       -14.5641
  63   2.0000      -0.527395       -14.3511
  64   2.0000      -0.516132       -14.0447
  65   2.0000      -0.510362       -13.8876
  66   2.0000      -0.499504       -13.5922
  67   2.0000      -0.494785       -13.4638
  68   2.0000      -0.480081       -13.0637
  69   2.0000      -0.463687       -12.6176
  70   2.0000      -0.456420       -12.4198
  71   2.0000      -0.453797       -12.3485
  72   2.0000      -0.354234        -9.6392
  73   2.0000      -0.342992        -9.3333
  74   2.0000      -0.327055        -8.8996
  75   2.0000      -0.315290        -8.5795
  76   2.0000      -0.312658        -8.5079
  77   0.0000       0.076169         2.0727
  78   0.0000       0.114818         3.1244
  79   0.0000       0.121000         3.2926
  80   0.0000       0.136846         3.7238
  81   0.0000       0.140969         3.8360

MULLIKEN ATOMIC CHARGES
-----------------------
   0 C :   -0.300505
   1 C :    0.034905
   2 O :   -0.344990
   3 C :    0.453100
   4 O :   -0.440025
   5 C :   -0.175070
   6 C :    0.148321
   7 C :   -0.284945
   8 N :   -0.119987
   9 C :    0.200760
  10 S :   -0.439067
  11 N :   -0.195792
  12 C :    0.031752
  13 C :    0.058871
  14 C :   -0.159865
  15 C :   -0.133878
  16 C :   -0.278587
  17 C :    0.311679
  18 O :   -0.359237
  19 C :   -0.271696
  20 H :    0.090159
  21 H :    0.097094
  22 H :    0.122540
  23 H :    0.108174
  24 H :    0.104316
  25 H :    0.129672
  26 H :    0.124987
  27 H :    0.101679
  28 H :    0.196619
  29 H :    0.193305
  30 H :    0.153040
  31 H :    0.152560
  32 H :    0.158504
  33 H :    0.127587
  34 H :    0.239899
  35 H :    0.164122
Sum of atomic charges:    0.0000000

LOEWDIN ATOMIC CHARGES
----------------------
   0 C :    0.104650
   1 C :   -0.015580
   2 O :    0.304672
   3 C :   -0.413040
   4 O :    0.102514
   5 C :   -0.090329
   6 C :   -0.064132
   7 C :    0.124798
   8 N :    0.404977
   9 C :   -0.459218
  10 S :   -0.035807
  11 N :    0.398013
  12 C :   -0.046649
  13 C :   -0.038645
  14 C :    0.022188
  15 C :    0.040891
  16 C :   -0.002188
  17 C :   -0.192352
  18 O :    0.392979
  19 C :    0.028634
  20 H :   -0.031329
  21 H :   -0.026596
  22 H :   -0.024936
  23 H :   -0.025275
  24 H :   -0.026626
  25 H :   -0.009010
  26 H :   -0.009412
  27 H :   -0.021301
  28 H :   -0.059244
  29 H :   -0.063580
  30 H :   -0.005327
  31 H :   -0.025542
  32 H :   -0.021389
  33 H :   -0.036502
  34 H :   -0.155029
  35 H :   -0.025278

  Mayer bond orders larger than 0.100000
B(  0-C ,  1-C ) :   0.9635 B(  0-C , 20-H ) :   0.9771 B(  0-C , 21-H ) :   0.9767
B(  0-C , 22-H ) :   0.9727 B(  1-C ,  2-O ) :   0.9009 B(  1-C , 23-H ) :   0.9848
B(  1-C , 24-H ) :   0.9776 B(  2-O ,  3-C ) :   1.1629 B(  3-C ,  4-O ) :   1.9467
B(  3-C ,  5-C ) :   1.0770 B(  5-C ,  6-C ) :   1.6414 B(  5-C , 12-C ) :   0.9679
B(  6-C ,  7-C ) :   0.9555 B(  6-C ,  8-N ) :   1.1545 B(  7-C , 25-H ) :   0.9635
B(  7-C , 26-H ) :   0.9652 B(  7-C , 27-H ) :   0.9916 B(  8-N ,  9-C ) :   1.1765
B(  8-N , 28-H ) :   0.9487 B(  9-C , 10-S ) :   1.6110 B(  9-C , 11-N ) :   1.3050
B( 11-N , 12-C ) :   0.9938 B( 11-N , 29-H ) :   0.9520 B( 12-C , 13-C ) :   0.9471
B( 12-C , 30-H ) :   1.0006 B( 13-C , 14-C ) :   1.3743 B( 13-C , 19-C ) :   1.3700
B( 14-C , 15-C ) :   1.3947 B( 14-C , 31-H ) :   0.9655 B( 15-C , 16-C ) :   1.3626
B( 15-C , 32-H ) :   0.9716 B( 16-C , 17-C ) :   1.3316 B( 16-C , 33-H ) :   0.9861
B( 17-C , 18-O ) :   1.1078 B( 17-C , 19-C ) :   1.3796 B( 18-O , 34-H ) :   0.9807
B( 19-C , 35-H ) :   0.9583

MP2 TOTAL ENERGY:    -1274.348725519 Eh
FINAL SINGLE POINT ENERGY     -1274.348725519280

DIPOLE MOMENT
-------------
                                X             Y             Z
Electronic contribution:      9.20360       8.91856      12.49345
Nuclear contribution   :    -10.87360      -9.98668     -13.46028
                        -----------------------------------------
Total Dipole Moment    :     -1.66999      -1.06813      -0.96683
                        -----------------------------------------
Magnitude (a.u.)       :      2.20557
Magnitude (Debye)      :      5.60610

Rotational constants in cm-1:     0.010582     0.008719     0.005717
Rotational constants in MHz :   317.242740   261.377525   171.404967

                             ****ORCA TERMINATED NORMALLY****
TOTAL RUN TIME: 0 days 1 hours 29 minutes 39 seconds 344 msec
