                         Program Version 5.0.0 -  RELEASE  -
|  1> ! ri-mp2 cc-pvtz cc-pvtz/c TightSCF NoKeepInts
|  2>
|  3> %scf
|  4>   MaxCore 4096
|  5> end
|  6> *xyz  0  1
|  7>     C       15.7436182   14.2342120   14.4263459
|  8>     C       15.0857457   14.8008386   15.7000755
|  9>     O       15.8982882   15.8748225   16.2098883
| 10>     C       17.0083227   15.6013168   16.9585652
| 11>     O       17.4121733   14.4638259   17.1395634
| 12>     C       17.5817479   16.7829944   17.6896323
| 13>     C       17.2943471   18.0854033   17.4252511
| 14>     C       16.3672086   18.6445651   16.3651981
| 15>     N       17.9469971   19.0980978   18.1366679
| 16>     C       18.9932989   18.9022898   18.9987435
| 17>     S       19.7988961   20.1682645   19.6944499
| 18>     N       19.3377925   17.5995949   19.2538740
| 19>     C       18.5696985   16.4230370   18.8058991
| 20>     C       17.8531053   15.7725525   19.9866408
| 21>     C       18.0402963   14.4066419   20.2685015
| 22>     C       17.3825935   13.8017107   21.3526687
| 23>     C       16.5291851   14.5685768   22.1639456
| 24>     C       16.3368618   15.9284026   21.8847661
| 25>     O       15.5087701   16.6702980   22.6627692
| 26>     C       16.9925160   16.5275789   20.8046669
| 27>     H       15.8998938   15.0270173   13.6845799
| 28>     H       15.1049272   13.4646150   13.9763599
| 29>     H       16.7141135   13.7757723   14.6539450
| 30>     H       14.0926455   15.1905409   15.4424754
| 31>     H       14.9569163   14.0118595   16.4540371
| 32>     H       15.3235303   18.3945010   16.5932279
| 33>     H       16.6076773   18.2286792   15.3788283
| 34>     H       16.4315351   19.7359033   16.2779061
| 35>     H       17.7084939   20.0613622   17.9631456
| 36>     H       20.0915031   17.4802633   19.9183799
| 37>     H       19.2866772   15.6964243   18.3970098
| 38>     H       18.6863203   13.8071773   19.6316693
| 39>     H       17.5312713   12.7427096   21.5555796
| 40>     H       16.0177617   14.1049720   23.0008328
| 41>     H       15.1802905   16.0929812   23.3681116
| 42>     H       16.8319799   17.5821976   20.6097988
| 43> *
| 44>
| 45>                          ****END OF INPUT****

CARTESIAN COORDINATES (ANGSTROEM)
---------------------------------
  C     15.743618   14.234212   14.426346
  C     15.085746   14.800839   15.700075
  O     15.898288   15.874823   16.209888
  C     17.008323   15.601317   16.958565
  O     17.412173   14.463826   17.139563
  C     17.581748   16.782994   17.689632
  C     17.294347   18.085403   17.425251
  C     16.367209   18.644565   16.365198
  N     17.946997   19.098098   18.136668
  C     18.993299   18.902290   18.998743
  S     19.798896   20.168264   19.694450
  N     19.337792   17.599595   19.253874
  C     18.569699   16.423037   18.805899
  C     17.853105   15.772552   19.986641
  C     18.040296   14.406642   20.268501
  C     17.382593   13.801711   21.352669
  C     16.529185   14.568577   22.163946
  C     16.336862   15.928403   21.884766
  O     15.508770   16.670298   22.662769
  C     16.992516   16.527579   20.804667
  H     15.899894   15.027017   13.684580
  H     15.104927   13.464615   13.976360
  H     16.714113   13.775772   14.653945
  H     14.092645   15.190541   15.442475
  H     14.956916   14.011859   16.454037
  H     15.323530   18.394501   16.593228
  H     16.607677   18.228679   15.378828
  H     16.431535   19.735903   16.277906
  H     17.708494   20.061362   17.963146
  H     20.091503   17.480263   19.918380
  H     19.286677   15.696424   18.397010
  H     18.686320   13.807177   19.631669
  H     17.531271   12.742710   21.555580
  H     16.017762   14.104972   23.000833
  H     15.180290   16.092981   23.368112
  H     16.831980   17.582198   20.609799

 Total Charge           Charge          ....    0
 Multiplicity           Mult            ....    1
 Number of Electrons    NEL             ....  154
 Basis Dimension        Dim             ....  828

ORBITAL ENERGIES
----------------

  NO   OCC          E(Eh)            E(eV)
   0   2.0000     -91.887994     -2500.3994
   1   2.0000     -20.604125      -560.6667
   2   2.0000     -20.590864      -560.3059
   3   2.0000     -20.545835      -559.0806
   4   2.0000     -15.628414      -425.2708
   5   2.0000     -15.606536      -424.6754
   6   2.0000     -11.397033      -310.1290
   7   2.0000     -11.382799      -309.7417
   8   2.0000     -11.336678      -308.4867
   9   2.0000     -11.306674      -307.6702
  10   2.0000     -11.305238      -307.6312
  11   2.0000     -11.301086      -307.5182
  12   2.0000     -11.260779      -306.4214
  13   2.0000     -11.258788      -306.3672
  14   2.0000     -11.252709      -306.2018
  15   2.0000     -11.246835      -306.0420
  16   2.0000     -11.236479      -305.7601
  17   2.0000     -11.232631      -305.6554
  18   2.0000     -11.229609      -305.5732
  19   2.0000     -11.226399      -305.4859
  20   2.0000      -8.893055      -241.9923
  21   2.0000      -6.574632      -178.9048
  22   2.0000      -6.572626      -178.8502
  23   2.0000      -6.572040      -178.8343
  24   2.0000      -1.454104       -39.5682
  25   2.0000      -1.410596       -38.3843
  26   2.0000      -1.357626       -36.9429
  27   2.0000      -1.339338       -36.4452
  28   2.0000      -1.236852       -33.6565
  29   2.0000      -1.151441       -31.3323
  30   2.0000      -1.119245       -30.4562
  31   2.0000      -1.041963       -28.3533
  32   2.0000      -1.034590       -28.1526
  33   2.0000      -1.008737       -27.4491
  34   2.0000      -0.996967       -27.1288
  35   2.0000      -0.982520       -26.7357
  36   2.0000      -0.920975       -25.0610
  37   2.0000      -0.893364       -24.3097
  38   2.0000      -0.847573       -23.0636
  39   2.0000      -0.834918       -22.7193
  40   2.0000      -0.827093       -22.5063
  41   2.0000      -0.817111       -22.2347
  42   2.0000      -0.754571       -20.5329
  43   2.0000      -0.734782       -19.9944
  44   2.0000      -0.724382       -19.7114
  45   2.0000      -0.690205       -18.7814
  46   2.0000      -0.684961       -18.6387
  47   2.0000      -0.679747       -18.4969
  48   2.0000      -0.671254       -18.2658
  49   2.0000      -0.658941       -17.9307
  50   2.0000      -0.646583       -17.5944
  51   2.0000      -0.641670       -17.4607
  52   2.0000      -0.630083       -17.1454
  53   2.0000      -0.612664       -16.6714
  54   2.0000      -0.599761       -16.3203
  55   2.0000      -0.598795       -16.2940
  56   2.0000      -0.594084       -16.1659
  57   2.0000      -0.585134       -15.9223
  58   2.0000      -0.572395       -15.5757
  59   2.0000      -0.565499       -15.3880
  60   2.0000      -0.560352       -15.2480
  61   2.0000      -0.545657       -14.8481
  62   2.0000      -0.534865       -14.5544
  63   2.0000      -0.527211       -14.3462
  64   2.0000      -0.516425       -14.0526
  65   2.0000      -0.510173       -13.8825
  66   2.0000      -0.499905       -13.6031
  67   2.0000      -0.494984       -13.4692
  68   2.0000      -0.480014       -13.0618
  69   2.0000      -0.463153       -12.6030
  70   2.0000      -0.456617       -12.4252
  71   2.0000      -0.454915       -12.3789
  72   2.0000      -0.354213        -9.6386
  73   2.0000      -0.343319        -9.3422
  74   2.0000      -0.327082        -8.9003
  75   2.0000      -0.315385        -8.5821
  76   2.0000      -0.313055        -8.5187
  77   0.0000       0.076173         2.0728
  78   0.0000       0.114241         3.1086
  79   0.0000       0.121427         3.3042
  80   0.0000       0.136540         3.7154
  81   0.0000       0.140971         3.8360

MULLIKEN ATOMIC CHARGES
-----------------------
   0 C :   -0.294036
   1 C :    0.034719
   2 O :   -0.344755
   3 C :    0.447423
   4 O :   -0.437814
   5 C :   -0.168673
   6 C :    0.146010
   7 C :   -0.284661
   8 N :   -0.120470
   9 C :    0.200987
  10 S :   -0.439184
  11 N :   -0.196055
  12 C :    0.032619
  13 C :    0.058080
  14 C :   -0.160519
  15 C :   -0.134024
  16 C :   -0.278739
  17 C :    0.311683
  18 O :   -0.359156
  19 C :   -0.271694
  20 H :    0.090472
  21 H :    0.095715
  22 H :    0.117966
  23 H :    0.106389
  24 H :    0.104849
  25 H :    0.128949
  26 H :    0.125673
  27 H :    0.101581
  28 H :    0.196667
  29 H :    0.193353
  30 H :    0.153171
  31 H :    0.152896
  32 H :    0.158704
  33 H :    0.127734
  34 H :    0.239932
  35 H :    0.164205
Sum of atomic charges:    0.0000000

LOEWDIN ATOMIC CHARGES
----------------------
   0 C :    0.104450
   1 C :   -0.016040
   2 O :    0.305538
   3 C :   -0.413058
   4 O :    0.102745
   5 C :   -0.090384
   6 C :   -0.064846
   7 C :    0.124915
   8 N :    0.404910
   9 C :   -0.459096
  10 S :   -0.035890
  11 N :    0.397944
  12 C :   -0.046504
  13 C :   -0.038743
  14 C :    0.022052
  15 C :    0.040791
  16 C :   -0.002254
  17 C :   -0.192421
  18 O :    0.393002
  19 C :    0.028649
  20 H :   -0.030889
  21 H :   -0.026933
  22 H :   -0.024499
  23 H :   -0.026004
  24 H :   -0.026434
  25 H :   -0.009200
  26 H :   -0.009111
  27 H :   -0.021181
  28 H :   -0.059197
  29 H :   -0.063614
  30 H :   -0.005206
  31 H :   -0.025477
  32 H :   -0.021358
  33 H :   -0.036477
  34 H :   -0.154995
  35 H :   -0.025185

  Mayer bond orders larger than 0.100000
B(  0-C ,  1-C ) :   0.9652 B(  0-C , 20-H ) :   0.9773 B(  0-C , 21-H ) :   0.9766
B(  0-C , 22-H ) :   0.9739 B(  1-C ,  2-O ) :   0.8994 B(  1-C , 23-H ) :   0.9849
B(  1-C , 24-H ) :   0.9760 B(  2-O ,  3-C ) :   1.1583 B(  3-C ,  4-O ) :   1.9484
B(  3-C ,  5-C ) :   1.0743 B(  5-C ,  6-C ) :   1.6441 B(  5-C , 12-C ) :   0.9665
B(  6-C ,  7-C ) :   0.9553 B(  6-C ,  8-N ) :   1.1517 B(  7-C , 25-H ) :   0.9634
B(  7-C , 26-H ) :   0.9656 B(  7-C , 27-H ) :   0.9914 B(  8-N ,  9-C ) :   1.1773
B(  8-N , 28-H ) :   0.9487 B(  9-C , 10-S ) :   1.6109 B(  9-C , 11-N ) :   1.3045
B( 11-N , 12-C ) :   0.9938 B( 11-N , 29-H ) :   0.9519 B( 12-C , 13-C ) :   0.9473
B( 12-C , 30-H ) :   1.0003 B( 13-C , 14-C ) :   1.3747 B( 13-C , 19-C ) :   1.3699
B( 14-C , 15-C ) :   1.3945 B( 14-C , 31-H ) :   0.9653 B( 15-C , 16-C ) :   1.3625
B( 15-C , 32-H ) :   0.9715 B( 16-C , 17-C ) :   1.3315 B( 16-C , 33-H ) :   0.9861
B( 17-C , 18-O ) :   1.1079 B( 17-C , 19-C ) :   1.3794 B( 18-O , 34-H ) :   0.9807
B( 19-C , 35-H ) :   0.9584

MP2 TOTAL ENERGY:    -1274.348289965 Eh
FINAL SINGLE POINT ENERGY     -1274.348289964845

DIPOLE MOMENT
-------------
                                X             Y             Z
Electronic contribution:      9.61219       9.27040      12.21479
Nuclear contribution   :    -11.28669     -10.38300     -13.12447
                        -----------------------------------------
Total Dipole Moment    :     -1.67450      -1.11260      -0.90968
                        -----------------------------------------
Magnitude (a.u.)       :      2.20666
Magnitude (Debye)      :      5.60888

Rotational constants in cm-1:     0.010561     0.008764     0.005733
Rotational constants in MHz :   316.604166   262.723196   171.868528

                             ****ORCA TERMINATED NORMALLY****
TOTAL RUN TIME: 0 days 1 hours 27 minutes 35 seconds 585 msec
