                         Program Version 5.0.0 -  RELEASE  -
|  1> ! ri-mp2 cc-pvtz cc-pvtz/c TightSCF NoKeepInts
|  2>
|  3> %scf
|  4>   MaxCore 4096
|  5> end
|  6> *xyz  0  1
|  7>     C       14.7732628   14.0482049   15.7377740
|  8>     C       15.4577798   14.9390433   16.7874480
|  9>     O       16.4575760   15.7179000   16.1068618
| 10>     C       17.7193975   15.7106372   16.6209342
| 11>     O       18.2971173   14.6579084   16.8332363
| 12>     C       17.9810463   16.9242325   17.4588905
| 13>     C       17.5400151   18.1662379   17.1395260
| 14>     C       16.7668868   18.5743857   15.9030393
| 15>     N       17.8577125   19.2499047   17.9636507
| 16>     C       18.7060757   19.1919734   19.0384445
| 17>     S       19.1115322   20.5434897   19.9010899
| 18>     N       19.2013287   17.9536837   19.3637097
| 19>     C       18.7832615   16.6833880   18.7402038
| 20>     C       17.9751456   15.8419342   19.7243755
| 21>     C       18.3603444   14.5209868   20.0180110
| 22>     C       17.6075050   13.7361538   20.9074209
| 23>     C       16.4575987   14.2755182   21.5086179
| 24>     C       16.0679491   15.5892989   21.2155310
| 25>     O       14.9521137   16.1097816   21.7854967
| 26>     C       16.8188074   16.3677385   20.3292504
| 27>     H       15.5036677   13.3740437   15.2725462
| 28>     H       14.3137116   14.6584353   14.9505214
| 29>     H       13.9902106   13.4371311   16.2026810
| 30>     H       14.7223213   15.6020920   17.2609973
| 31>     H       15.9020672   14.3059564   17.5691191
| 32>     H       17.1450417   18.0553169   15.0133097
| 33>     H       16.8393038   19.6499056   15.7002654
| 34>     H       15.7043393   18.3230639   16.0100877
| 35>     H       17.5053197   20.1672741   17.7408620
| 36>     H       19.8009191   17.9356684   20.1787472
| 37>     H       19.6918183   16.1260860   18.4694736
| 38>     H       19.2378956   14.0946001   19.5378080
| 39>     H       17.9134889   12.7135570   21.1214261
| 40>     H       15.8721740   13.6717359   22.1941106
| 41>     H       14.6114510   15.4517164   22.4101442
| 42>     H       16.5008142   17.3830158   20.1183883
| 43> *
| 44>
| 45>                          ****END OF INPUT****

CARTESIAN COORDINATES (ANGSTROEM)
---------------------------------
  C     14.773263   14.048205   15.737774
  C     15.457780   14.939043   16.787448
  O     16.457576   15.717900   16.106862
  C     17.719397   15.710637   16.620934
  O     18.297117   14.657908   16.833236
  C     17.981046   16.924232   17.458890
  C     17.540015   18.166238   17.139526
  C     16.766887   18.574386   15.903039
  N     17.857713   19.249905   17.963651
  C     18.706076   19.191973   19.038445
  S     19.111532   20.543490   19.901090
  N     19.201329   17.953684   19.363710
  C     18.783261   16.683388   18.740204
  C     17.975146   15.841934   19.724376
  C     18.360344   14.520987   20.018011
  C     17.607505   13.736154   20.907421
  C     16.457599   14.275518   21.508618
  C     16.067949   15.589299   21.215531
  O     14.952114   16.109782   21.785497
  C     16.818807   16.367739   20.329250
  H     15.503668   13.374044   15.272546
  H     14.313712   14.658435   14.950521
  H     13.990211   13.437131   16.202681
  H     14.722321   15.602092   17.260997
  H     15.902067   14.305956   17.569119
  H     17.145042   18.055317   15.013310
  H     16.839304   19.649906   15.700265
  H     15.704339   18.323064   16.010088
  H     17.505320   20.167274   17.740862
  H     19.800919   17.935668   20.178747
  H     19.691818   16.126086   18.469474
  H     19.237896   14.094600   19.537808
  H     17.913489   12.713557   21.121426
  H     15.872174   13.671736   22.194111
  H     14.611451   15.451716   22.410144
  H     16.500814   17.383016   20.118388

 Total Charge           Charge          ....    0
 Multiplicity           Mult            ....    1
 Number of Electrons    NEL             ....  154
 Basis Dimension        Dim             ....  828

ORBITAL ENERGIES
----------------

  NO   OCC          E(Eh)            E(eV)
   0   2.0000     -91.888977     -2500.4262
   1   2.0000     -20.596391      -560.4563
   2   2.0000     -20.583926      -560.1171
   3   2.0000     -20.556028      -559.3580
   4   2.0000     -15.628527      -425.2738
   5   2.0000     -15.608580      -424.7311
   6   2.0000     -11.394752      -310.0670
   7   2.0000     -11.384539      -309.7890
   8   2.0000     -11.333132      -308.3902
   9   2.0000     -11.312611      -307.8318
  10   2.0000     -11.308974      -307.7328
  11   2.0000     -11.298602      -307.4506
  12   2.0000     -11.260608      -306.4167
  13   2.0000     -11.259516      -306.3870
  14   2.0000     -11.258102      -306.3485
  15   2.0000     -11.252794      -306.2041
  16   2.0000     -11.242431      -305.9221
  17   2.0000     -11.238233      -305.8079
  18   2.0000     -11.235554      -305.7350
  19   2.0000     -11.225958      -305.4739
  20   2.0000      -8.894055      -242.0196
  21   2.0000      -6.575634      -178.9321
  22   2.0000      -6.573624      -178.8774
  23   2.0000      -6.573040      -178.8615
  24   2.0000      -1.453061       -39.5398
  25   2.0000      -1.416160       -38.5357
  26   2.0000      -1.356966       -36.9249
  27   2.0000      -1.339664       -36.4541
  28   2.0000      -1.238022       -33.6883
  29   2.0000      -1.156777       -31.4775
  30   2.0000      -1.121641       -30.5214
  31   2.0000      -1.045000       -28.4359
  32   2.0000      -1.033486       -28.1226
  33   2.0000      -1.014190       -27.5975
  34   2.0000      -0.999404       -27.1952
  35   2.0000      -0.984696       -26.7949
  36   2.0000      -0.923640       -25.1335
  37   2.0000      -0.880758       -23.9666
  38   2.0000      -0.849004       -23.1026
  39   2.0000      -0.839174       -22.8351
  40   2.0000      -0.832806       -22.6618
  41   2.0000      -0.827182       -22.5088
  42   2.0000      -0.755958       -20.5707
  43   2.0000      -0.735254       -20.0073
  44   2.0000      -0.728712       -19.8293
  45   2.0000      -0.694449       -18.8969
  46   2.0000      -0.686712       -18.6864
  47   2.0000      -0.680881       -18.5277
  48   2.0000      -0.673896       -18.3376
  49   2.0000      -0.660313       -17.9680
  50   2.0000      -0.647834       -17.6285
  51   2.0000      -0.641601       -17.4589
  52   2.0000      -0.632294       -17.2056
  53   2.0000      -0.613100       -16.6833
  54   2.0000      -0.604703       -16.4548
  55   2.0000      -0.603095       -16.4111
  56   2.0000      -0.599753       -16.3201
  57   2.0000      -0.580604       -15.7990
  58   2.0000      -0.576707       -15.6930
  59   2.0000      -0.564032       -15.3481
  60   2.0000      -0.562611       -15.3094
  61   2.0000      -0.549780       -14.9603
  62   2.0000      -0.534622       -14.5478
  63   2.0000      -0.521946       -14.2029
  64   2.0000      -0.513591       -13.9755
  65   2.0000      -0.511906       -13.9297
  66   2.0000      -0.503489       -13.7006
  67   2.0000      -0.498158       -13.5556
  68   2.0000      -0.482704       -13.1350
  69   2.0000      -0.465122       -12.6566
  70   2.0000      -0.458312       -12.4713
  71   2.0000      -0.451873       -12.2961
  72   2.0000      -0.354270        -9.6402
  73   2.0000      -0.348439        -9.4815
  74   2.0000      -0.328319        -8.9340
  75   2.0000      -0.319842        -8.7033
  76   2.0000      -0.315884        -8.5957
  77   0.0000       0.070829         1.9273
  78   0.0000       0.104420         2.8414
  79   0.0000       0.118503         3.2246
  80   0.0000       0.131995         3.5918
  81   0.0000       0.135342         3.6828

MULLIKEN ATOMIC CHARGES
-----------------------
   0 C :   -0.257601
   1 C :    0.044640
   2 O :   -0.377233
   3 C :    0.446076
   4 O :   -0.397649
   5 C :   -0.191297
   6 C :    0.136799
   7 C :   -0.279628
   8 N :   -0.124914
   9 C :    0.203562
  10 S :   -0.439639
  11 N :   -0.201764
  12 C :    0.056716
  13 C :    0.041027
  14 C :   -0.161939
  15 C :   -0.134426
  16 C :   -0.280670
  17 C :    0.312015
  18 O :   -0.358565
  19 C :   -0.278890
  20 H :    0.104807
  21 H :    0.090973
  22 H :    0.086041
  23 H :    0.092738
  24 H :    0.109872
  25 H :    0.123894
  26 H :    0.104678
  27 H :    0.124766
  28 H :    0.197177
  29 H :    0.194290
  30 H :    0.154931
  31 H :    0.156972
  32 H :    0.161355
  33 H :    0.130928
  34 H :    0.241004
  35 H :    0.168956
Sum of atomic charges:   -0.0000000

LOEWDIN ATOMIC CHARGES
----------------------
   0 C :    0.107020
   1 C :   -0.014088
   2 O :    0.291348
   3 C :   -0.419144
   4 O :    0.128144
   5 C :   -0.093814
   6 C :   -0.075067
   7 C :    0.126417
   8 N :    0.404021
   9 C :   -0.457274
  10 S :   -0.036258
  11 N :    0.396985
  12 C :   -0.045416
  13 C :   -0.041066
  14 C :    0.020992
  15 C :    0.041146
  16 C :   -0.002175
  17 C :   -0.193996
  18 O :    0.393491
  19 C :    0.028700
  20 H :   -0.022565
  21 H :   -0.029212
  22 H :   -0.027591
  23 H :   -0.033151
  24 H :   -0.024168
  25 H :   -0.007837
  26 H :   -0.019314
  27 H :   -0.009972
  28 H :   -0.058681
  29 H :   -0.064091
  30 H :   -0.004714
  31 H :   -0.024578
  32 H :   -0.020228
  33 H :   -0.035526
  34 H :   -0.153914
  35 H :   -0.024424

  Mayer bond orders larger than 0.100000
B(  0-C ,  1-C ) :   0.9817 B(  0-C , 20-H ) :   0.9774 B(  0-C , 21-H ) :   0.9798
B(  0-C , 22-H ) :   0.9761 B(  1-C ,  2-O ) :   0.8781 B(  1-C , 23-H ) :   0.9771
B(  1-C , 24-H ) :   0.9683 B(  2-O ,  3-C ) :   1.0892 B(  3-C ,  4-O ) :   2.0272
B(  3-C ,  5-C ) :   1.0284 B(  5-C ,  6-C ) :   1.6671 B(  5-C , 12-C ) :   0.9649
B(  6-C ,  7-C ) :   0.9515 B(  6-C ,  8-N ) :   1.1384 B(  7-C , 25-H ) :   0.9708
B(  7-C , 26-H ) :   0.9877 B(  7-C , 27-H ) :   0.9636 B(  8-N ,  9-C ) :   1.1846
B(  8-N , 28-H ) :   0.9499 B(  9-C , 10-S ) :   1.6109 B(  9-C , 11-N ) :   1.2995
B( 11-N , 12-C ) :   0.9933 B( 11-N , 29-H ) :   0.9516 B( 12-C , 13-C ) :   0.9437
B( 12-C , 30-H ) :   0.9982 B( 13-C , 14-C ) :   1.3777 B( 13-C , 19-C ) :   1.3674
B( 14-C , 15-C ) :   1.3937 B( 14-C , 31-H ) :   0.9638 B( 15-C , 16-C ) :   1.3637
B( 15-C , 32-H ) :   0.9709 B( 16-C , 17-C ) :   1.3303 B( 16-C , 33-H ) :   0.9849
B( 17-C , 18-O ) :   1.1099 B( 17-C , 19-C ) :   1.3744 B( 18-O , 34-H ) :   0.9798
B( 19-C , 35-H ) :   0.9577

MP2 TOTAL ENERGY:    -1274.323779494 Eh
FINAL SINGLE POINT ENERGY     -1274.323779493863

DIPOLE MOMENT
-------------
                                X             Y             Z
Electronic contribution:     11.13523      10.20071       8.31479
Nuclear contribution   :    -12.52645     -11.40325      -8.81390
                        -----------------------------------------
Total Dipole Moment    :     -1.39121      -1.20254      -0.49911
                        -----------------------------------------
Magnitude (a.u.)       :      1.90543
Magnitude (Debye)      :      4.84323

Rotational constants in cm-1:     0.011573     0.009025     0.006375
Rotational constants in MHz :   346.949886   270.570392   191.124312

                             ****ORCA TERMINATED NORMALLY****
TOTAL RUN TIME: 0 days 1 hours 37 minutes 19 seconds 512 msec
