                         Program Version 5.0.0 -  RELEASE  -
|  1> ! ri-mp2 cc-pvtz cc-pvtz/c TightSCF NoKeepInts
|  2>
|  3> %scf
|  4>   MaxCore 4096
|  5> end
|  6> *xyz  0  1
|  7>     C       15.0863396   14.8130051   16.9474864
|  8>     C       16.4002452   14.0408802   16.6811839
|  9>     O       17.5464105   14.8902240   16.4195103
| 10>     C       17.4203205   16.2189949   16.1305406
| 11>     O       16.8333387   16.5832007   15.1269020
| 12>     C       17.7643610   17.1173802   17.2888632
| 13>     C       17.4606268   18.4408772   17.2966470
| 14>     C       16.6835561   19.2125130   16.2516448
| 15>     N       17.9223935   19.2581853   18.3332398
| 16>     C       18.8446329   18.8773012   19.2716860
| 17>     S       19.4765502   19.9461538   20.3642401
| 18>     N       19.2266345   17.5598714   19.2505715
| 19>     C       18.5712749   16.5093473   18.4501172
| 20>     C       17.7326715   15.6311225   19.3734064
| 21>     C       18.1143693   14.3001677   19.6272575
| 22>     C       17.3515943   13.4880758   20.4833281
| 23>     C       16.2022572   14.0132237   21.0980403
| 24>     C       15.8287181   15.3430919   20.8612551
| 25>     O       14.7213789   15.8544936   21.4550341
| 26>     C       16.5902589   16.1489121   20.0095053
| 27>     H       15.2045181   15.5497099   17.7488274
| 28>     H       14.2963856   14.1154411   17.2505492
| 29>     H       14.7394266   15.3297210   16.0438723
| 30>     H       16.6192302   13.3916170   17.5377426
| 31>     H       16.2423460   13.3879494   15.8129799
| 32>     H       17.2164485   19.2050925   15.2921226
| 33>     H       16.5134040   20.2592524   16.5293703
| 34>     H       15.7013888   18.7527256   16.0832017
| 35>     H       17.6618710   20.2312996   18.3529421
| 36>     H       19.8880949   17.3016121   19.9714603
| 37>     H       19.3639020   15.8873852   18.0106589
| 38>     H       19.0023119   13.8908994   19.1523729
| 39>     H       17.6530730   12.4586697   20.6702404
| 40>     H       15.6099242   13.3902206   21.7603040
| 41>     H       14.3675212   15.1750971   22.0486725
| 42>     H       16.2892217   17.1782861   19.8482233
| 43> *
| 44>
| 45>                          ****END OF INPUT****

CARTESIAN COORDINATES (ANGSTROEM)
---------------------------------
  C     15.086340   14.813005   16.947486
  C     16.400245   14.040880   16.681184
  O     17.546411   14.890224   16.419510
  C     17.420320   16.218995   16.130541
  O     16.833339   16.583201   15.126902
  C     17.764361   17.117380   17.288863
  C     17.460627   18.440877   17.296647
  C     16.683556   19.212513   16.251645
  N     17.922393   19.258185   18.333240
  C     18.844633   18.877301   19.271686
  S     19.476550   19.946154   20.364240
  N     19.226634   17.559871   19.250571
  C     18.571275   16.509347   18.450117
  C     17.732671   15.631122   19.373406
  C     18.114369   14.300168   19.627257
  C     17.351594   13.488076   20.483328
  C     16.202257   14.013224   21.098040
  C     15.828718   15.343092   20.861255
  O     14.721379   15.854494   21.455034
  C     16.590259   16.148912   20.009505
  H     15.204518   15.549710   17.748827
  H     14.296386   14.115441   17.250549
  H     14.739427   15.329721   16.043872
  H     16.619230   13.391617   17.537743
  H     16.242346   13.387949   15.812980
  H     17.216448   19.205092   15.292123
  H     16.513404   20.259252   16.529370
  H     15.701389   18.752726   16.083202
  H     17.661871   20.231300   18.352942
  H     19.888095   17.301612   19.971460
  H     19.363902   15.887385   18.010659
  H     19.002312   13.890899   19.152373
  H     17.653073   12.458670   20.670240
  H     15.609924   13.390221   21.760304
  H     14.367521   15.175097   22.048672
  H     16.289222   17.178286   19.848223

 Total Charge           Charge          ....    0
 Multiplicity           Mult            ....    1
 Number of Electrons    NEL             ....  154
 Basis Dimension        Dim             ....  828

ORBITAL ENERGIES
----------------

  NO   OCC          E(Eh)            E(eV)
   0   2.0000     -91.890758     -2500.4746
   1   2.0000     -20.601077      -560.5838
   2   2.0000     -20.581153      -560.0416
   3   2.0000     -20.546176      -559.0899
   4   2.0000     -15.631085      -425.3435
   5   2.0000     -15.609585      -424.7584
   6   2.0000     -11.393650      -310.0370
   7   2.0000     -11.385398      -309.8124
   8   2.0000     -11.337319      -308.5041
   9   2.0000     -11.318476      -307.9914
  10   2.0000     -11.311659      -307.8059
  11   2.0000     -11.298744      -307.4545
  12   2.0000     -11.263653      -306.4996
  13   2.0000     -11.259932      -306.3983
  14   2.0000     -11.259434      -306.3848
  15   2.0000     -11.253436      -306.2216
  16   2.0000     -11.247920      -306.0715
  17   2.0000     -11.242588      -305.9264
  18   2.0000     -11.242463      -305.9230
  19   2.0000     -11.224354      -305.4302
  20   2.0000      -8.895788      -242.0667
  21   2.0000      -6.577354      -178.9789
  22   2.0000      -6.575359      -178.9246
  23   2.0000      -6.574764      -178.9084
  24   2.0000      -1.443063       -39.2677
  25   2.0000      -1.420767       -38.6610
  26   2.0000      -1.349831       -36.7308
  27   2.0000      -1.342133       -36.5213
  28   2.0000      -1.240483       -33.7553
  29   2.0000      -1.161558       -31.6076
  30   2.0000      -1.121291       -30.5119
  31   2.0000      -1.045734       -28.4559
  32   2.0000      -1.030766       -28.0486
  33   2.0000      -1.020036       -27.7566
  34   2.0000      -0.998687       -27.1757
  35   2.0000      -0.986477       -26.8434
  36   2.0000      -0.925169       -25.1751
  37   2.0000      -0.896419       -24.3928
  38   2.0000      -0.848917       -23.1002
  39   2.0000      -0.843037       -22.9402
  40   2.0000      -0.838559       -22.8184
  41   2.0000      -0.818975       -22.2855
  42   2.0000      -0.744691       -20.2641
  43   2.0000      -0.734682       -19.9917
  44   2.0000      -0.720611       -19.6088
  45   2.0000      -0.700127       -19.0514
  46   2.0000      -0.691402       -18.8140
  47   2.0000      -0.672626       -18.3031
  48   2.0000      -0.671097       -18.2615
  49   2.0000      -0.660252       -17.9664
  50   2.0000      -0.653734       -17.7890
  51   2.0000      -0.644606       -17.5406
  52   2.0000      -0.636337       -17.3156
  53   2.0000      -0.626615       -17.0511
  54   2.0000      -0.611485       -16.6394
  55   2.0000      -0.603579       -16.4242
  56   2.0000      -0.601085       -16.3563
  57   2.0000      -0.581239       -15.8163
  58   2.0000      -0.572162       -15.5693
  59   2.0000      -0.566101       -15.4044
  60   2.0000      -0.545629       -14.8473
  61   2.0000      -0.544176       -14.8078
  62   2.0000      -0.534614       -14.5476
  63   2.0000      -0.529086       -14.3972
  64   2.0000      -0.528330       -14.3766
  65   2.0000      -0.515890       -14.0381
  66   2.0000      -0.504448       -13.7267
  67   2.0000      -0.495016       -13.4701
  68   2.0000      -0.484697       -13.1893
  69   2.0000      -0.463490       -12.6122
  70   2.0000      -0.454959       -12.3801
  71   2.0000      -0.442451       -12.0397
  72   2.0000      -0.356620        -9.7041
  73   2.0000      -0.353221        -9.6116
  74   2.0000      -0.330341        -8.9890
  75   2.0000      -0.326083        -8.8732
  76   2.0000      -0.317843        -8.6490
  77   0.0000       0.069316         1.8862
  78   0.0000       0.101604         2.7648
  79   0.0000       0.121597         3.3088
  80   0.0000       0.128811         3.5051
  81   0.0000       0.133558         3.6343

MULLIKEN ATOMIC CHARGES
-----------------------
   0 C :   -0.335330
   1 C :    0.039485
   2 O :   -0.400255
   3 C :    0.522696
   4 O :   -0.416558
   5 C :   -0.273628
   6 C :    0.156116
   7 C :   -0.271605
   8 N :   -0.123890
   9 C :    0.208054
  10 S :   -0.435732
  11 N :   -0.198531
  12 C :    0.050047
  13 C :    0.080765
  14 C :   -0.204341
  15 C :   -0.125642
  16 C :   -0.277050
  17 C :    0.326458
  18 O :   -0.358139
  19 C :   -0.304911
  20 H :    0.105556
  21 H :    0.108400
  22 H :    0.125576
  23 H :    0.111684
  24 H :    0.119123
  25 H :    0.135718
  26 H :    0.094860
  27 H :    0.128856
  28 H :    0.198309
  29 H :    0.192865
  30 H :    0.151627
  31 H :    0.154955
  32 H :    0.166236
  33 H :    0.133402
  34 H :    0.241497
  35 H :    0.173327
Sum of atomic charges:    0.0000000

LOEWDIN ATOMIC CHARGES
----------------------
   0 C :    0.106177
   1 C :   -0.008432
   2 O :    0.279746
   3 C :   -0.420940
   4 O :    0.116332
   5 C :   -0.098988
   6 C :   -0.059091
   7 C :    0.131235
   8 N :    0.406851
   9 C :   -0.457361
  10 S :   -0.032505
  11 N :    0.396548
  12 C :   -0.052676
  13 C :   -0.038144
  14 C :    0.016824
  15 C :    0.039923
  16 C :   -0.001665
  17 C :   -0.189992
  18 O :    0.396410
  19 C :    0.033174
  20 H :   -0.033317
  21 H :   -0.023090
  22 H :   -0.026465
  23 H :   -0.029613
  24 H :   -0.028135
  25 H :   -0.002910
  26 H :   -0.023260
  27 H :   -0.005796
  28 H :   -0.057512
  29 H :   -0.064999
  30 H :   -0.007169
  31 H :   -0.028591
  32 H :   -0.020414
  33 H :   -0.034613
  34 H :   -0.152855
  35 H :   -0.024685

  Mayer bond orders larger than 0.100000
B(  0-C ,  1-C ) :   0.9578 B(  0-C , 20-H ) :   0.9709 B(  0-C , 21-H ) :   0.9765
B(  0-C , 22-H ) :   0.9720 B(  1-C ,  2-O ) :   0.8814 B(  1-C , 23-H ) :   0.9738
B(  1-C , 24-H ) :   0.9862 B(  2-O ,  3-C ) :   1.0992 B(  3-C ,  4-O ) :   2.0050
B(  3-C ,  5-C ) :   1.0600 B(  5-C ,  6-C ) :   1.6513 B(  5-C , 12-C ) :   0.9704
B(  6-C ,  7-C ) :   0.9686 B(  6-C ,  8-N ) :   1.1555 B(  7-C , 25-H ) :   0.9575
B(  7-C , 26-H ) :   0.9891 B(  7-C , 27-H ) :   0.9636 B(  8-N ,  9-C ) :   1.1788
B(  8-N , 28-H ) :   0.9482 B(  9-C , 10-S ) :   1.6145 B(  9-C , 11-N ) :   1.3023
B( 11-N , 12-C ) :   0.9811 B( 11-N , 29-H ) :   0.9534 B( 12-C , 13-C ) :   0.9404
B( 12-C , 30-H ) :   1.0026 B( 13-C , 14-C ) :   1.3468 B( 13-C , 19-C ) :   1.3637
B( 14-C , 15-C ) :   1.3825 B( 14-C , 31-H ) :   0.9735 B( 15-C , 16-C ) :   1.3643
B( 15-C , 32-H ) :   0.9691 B( 16-C , 17-C ) :   1.3290 B( 16-C , 33-H ) :   0.9836
B( 17-C , 18-O ) :   1.1121 B( 17-C , 19-C ) :   1.3671 B( 18-O , 34-H ) :   0.9795
B( 19-C , 35-H ) :   0.9586

MP2 TOTAL ENERGY:    -1274.330874173 Eh
FINAL SINGLE POINT ENERGY     -1274.330874172980

DIPOLE MOMENT
-------------
                                X             Y             Z
Electronic contribution:     10.04352       8.45183       5.59597
Nuclear contribution   :    -11.13051     -10.05748      -5.44736
                        -----------------------------------------
Total Dipole Moment    :     -1.08699      -1.60564       0.14861
                        -----------------------------------------
Magnitude (a.u.)       :      1.94467
Magnitude (Debye)      :      4.94295

Rotational constants in cm-1:     0.012172     0.009478     0.006667
Rotational constants in MHz :   364.904298   284.150649   199.868011

                             ****ORCA TERMINATED NORMALLY****
TOTAL RUN TIME: 0 days 2 hours 17 minutes 26 seconds 792 msec
