                         Program Version 5.0.0 -  RELEASE  -
|  1> ! ri-mp2 cc-pvtz cc-pvtz/c TightSCF NoKeepInts
|  2>
|  3> %scf
|  4>   MaxCore 4096
|  5> end
|  6> *xyz  0  1
|  7>     C       14.6776510   16.1369806   16.7064234
|  8>     C       15.5870468   14.9661585   17.1225140
|  9>     O       16.8046683   14.9080799   16.3464388
| 10>     C       17.8890453   15.7495957   16.4170256
| 11>     O       18.9611468   15.3832224   15.9745086
| 12>     C       17.8358267   16.8682754   17.3990489
| 13>     C       17.3730999   18.0877987   17.0436113
| 14>     C       16.8140214   18.4881532   15.6948218
| 15>     N       17.4677132   19.1579296   17.9351205
| 16>     C       18.1137896   19.1101947   19.1428270
| 17>     S       18.2127596   20.4337776   20.1289268
| 18>     N       18.6772810   17.9080642   19.4946660
| 19>     C       18.5746756   16.6532088   18.7220836
| 20>     C       17.9615172   15.5281010   19.5492795
| 21>     C       18.4175361   14.2080428   19.3772248
| 22>     C       17.8528516   13.1530491   20.1127363
| 23>     C       16.8222576   13.4184565   21.0301217
| 24>     C       16.3626203   14.7307056   21.2036456
| 25>     O       15.3588604   14.9883615   22.0788665
| 26>     C       16.9240415   15.7795034   20.4679750
| 27>     H       14.9396400   17.0562448   17.2385927
| 28>     H       13.6365144   15.9069274   16.9643282
| 29>     H       14.7236073   16.3090224   15.6241325
| 30>     H       15.7931957   15.0052011   18.1964222
| 31>     H       15.0368973   14.0339618   16.9398867
| 32>     H       16.7301399   17.6393150   15.0056158
| 33>     H       17.4680573   19.2253037   15.2116927
| 34>     H       15.8167480   18.9341978   15.7927617
| 35>     H       17.0860204   20.0559519   17.6822574
| 36>     H       19.1386290   17.9010782   20.3957445
| 37>     H       19.5997551   16.3455685   18.4664381
| 38>     H       19.2068577   13.9973838   18.6580123
| 39>     H       18.2133317   12.1358427   19.9673221
| 40>     H       16.3830992   12.6057618   21.5995870
| 41>     H       15.1435928   14.1576021   22.5295766
| 42>     H       16.5425045   16.7849777   20.6137640
| 43> *
| 44>
| 45>                          ****END OF INPUT****

CARTESIAN COORDINATES (ANGSTROEM)
---------------------------------
  C     14.677651   16.136981   16.706423
  C     15.587047   14.966158   17.122514
  O     16.804668   14.908080   16.346439
  C     17.889045   15.749596   16.417026
  O     18.961147   15.383222   15.974509
  C     17.835827   16.868275   17.399049
  C     17.373100   18.087799   17.043611
  C     16.814021   18.488153   15.694822
  N     17.467713   19.157930   17.935121
  C     18.113790   19.110195   19.142827
  S     18.212760   20.433778   20.128927
  N     18.677281   17.908064   19.494666
  C     18.574676   16.653209   18.722084
  C     17.961517   15.528101   19.549279
  C     18.417536   14.208043   19.377225
  C     17.852852   13.153049   20.112736
  C     16.822258   13.418456   21.030122
  C     16.362620   14.730706   21.203646
  O     15.358860   14.988361   22.078867
  C     16.924042   15.779503   20.467975
  H     14.939640   17.056245   17.238593
  H     13.636514   15.906927   16.964328
  H     14.723607   16.309022   15.624132
  H     15.793196   15.005201   18.196422
  H     15.036897   14.033962   16.939887
  H     16.730140   17.639315   15.005616
  H     17.468057   19.225304   15.211693
  H     15.816748   18.934198   15.792762
  H     17.086020   20.055952   17.682257
  H     19.138629   17.901078   20.395744
  H     19.599755   16.345568   18.466438
  H     19.206858   13.997384   18.658012
  H     18.213332   12.135843   19.967322
  H     16.383099   12.605762   21.599587
  H     15.143593   14.157602   22.529577
  H     16.542504   16.784978   20.613764

 Total Charge           Charge          ....    0
 Multiplicity           Mult            ....    1
 Number of Electrons    NEL             ....  154
 Basis Dimension        Dim             ....  828

ORBITAL ENERGIES
----------------

  NO   OCC          E(Eh)            E(eV)
   0   2.0000     -91.889531     -2500.4413
   1   2.0000     -20.602930      -560.6342
   2   2.0000     -20.598037      -560.5011
   3   2.0000     -20.551638      -559.2385
   4   2.0000     -15.624807      -425.1726
   5   2.0000     -15.612367      -424.8341
   6   2.0000     -11.398848      -310.1784
   7   2.0000     -11.386515      -309.8428
   8   2.0000     -11.325507      -308.1827
   9   2.0000     -11.320855      -308.0561
  10   2.0000     -11.318370      -307.9885
  11   2.0000     -11.302570      -307.5586
  12   2.0000     -11.268143      -306.6218
  13   2.0000     -11.265925      -306.5614
  14   2.0000     -11.263846      -306.5048
  15   2.0000     -11.261474      -306.4403
  16   2.0000     -11.249852      -306.1240
  17   2.0000     -11.245344      -306.0014
  18   2.0000     -11.243326      -305.9465
  19   2.0000     -11.235410      -305.7310
  20   2.0000      -8.894654      -242.0358
  21   2.0000      -6.576247      -178.9488
  22   2.0000      -6.574215      -178.8935
  23   2.0000      -6.573645      -178.8780
  24   2.0000      -1.445676       -39.3389
  25   2.0000      -1.422746       -38.7149
  26   2.0000      -1.358322       -36.9618
  27   2.0000      -1.339332       -36.4451
  28   2.0000      -1.240067       -33.7439
  29   2.0000      -1.164687       -31.6927
  30   2.0000      -1.126073       -30.6420
  31   2.0000      -1.050943       -28.5976
  32   2.0000      -1.039567       -28.2881
  33   2.0000      -1.022699       -27.8291
  34   2.0000      -1.005375       -27.3576
  35   2.0000      -0.990260       -26.9464
  36   2.0000      -0.928957       -25.2782
  37   2.0000      -0.896937       -24.4069
  38   2.0000      -0.852814       -23.2062
  39   2.0000      -0.843001       -22.9392
  40   2.0000      -0.839840       -22.8532
  41   2.0000      -0.834179       -22.6992
  42   2.0000      -0.753308       -20.4985
  43   2.0000      -0.736121       -20.0309
  44   2.0000      -0.729074       -19.8391
  45   2.0000      -0.700394       -19.0587
  46   2.0000      -0.691165       -18.8076
  47   2.0000      -0.679777       -18.4977
  48   2.0000      -0.677121       -18.4254
  49   2.0000      -0.665287       -18.1034
  50   2.0000      -0.655257       -17.8304
  51   2.0000      -0.640665       -17.4334
  52   2.0000      -0.640335       -17.4244
  53   2.0000      -0.620051       -16.8724
  54   2.0000      -0.611483       -16.6393
  55   2.0000      -0.609059       -16.5733
  56   2.0000      -0.606146       -16.4941
  57   2.0000      -0.586747       -15.9662
  58   2.0000      -0.581139       -15.8136
  59   2.0000      -0.577179       -15.7058
  60   2.0000      -0.567552       -15.4439
  61   2.0000      -0.557088       -15.1591
  62   2.0000      -0.538573       -14.6553
  63   2.0000      -0.537070       -14.6144
  64   2.0000      -0.524726       -14.2785
  65   2.0000      -0.515827       -14.0364
  66   2.0000      -0.504501       -13.7282
  67   2.0000      -0.500168       -13.6103
  68   2.0000      -0.489786       -13.3278
  69   2.0000      -0.466730       -12.7004
  70   2.0000      -0.452735       -12.3195
  71   2.0000      -0.450470       -12.2579
  72   2.0000      -0.356223        -9.6933
  73   2.0000      -0.354522        -9.6470
  74   2.0000      -0.329754        -8.9731
  75   2.0000      -0.328451        -8.9376
  76   2.0000      -0.318644        -8.6707
  77   0.0000       0.092584         2.5193
  78   0.0000       0.102574         2.7912
  79   0.0000       0.117211         3.1895
  80   0.0000       0.126054         3.4301
  81   0.0000       0.127520         3.4700

MULLIKEN ATOMIC CHARGES
-----------------------
   0 C :   -0.325772
   1 C :    0.039581
   2 O :   -0.322393
   3 C :    0.389851
   4 O :   -0.376861
   5 C :   -0.160241
   6 C :    0.112235
   7 C :   -0.326517
   8 N :   -0.139128
   9 C :    0.211172
  10 S :   -0.443854
  11 N :   -0.230104
  12 C :    0.085020
  13 C :   -0.002943
  14 C :   -0.200123
  15 C :   -0.137818
  16 C :   -0.270200
  17 C :    0.309560
  18 O :   -0.355994
  19 C :   -0.254133
  20 H :    0.099213
  21 H :    0.119997
  22 H :    0.106016
  23 H :    0.105203
  24 H :    0.123947
  25 H :    0.119603
  26 H :    0.148935
  27 H :    0.120366
  28 H :    0.196697
  29 H :    0.203649
  30 H :    0.165813
  31 H :    0.168333
  32 H :    0.165699
  33 H :    0.134437
  34 H :    0.241741
  35 H :    0.179013
Sum of atomic charges:    0.0000000

LOEWDIN ATOMIC CHARGES
----------------------
   0 C :    0.103062
   1 C :   -0.015990
   2 O :    0.300867
   3 C :   -0.418191
   4 O :    0.125945
   5 C :   -0.079580
   6 C :   -0.106532
   7 C :    0.125153
   8 N :    0.401607
   9 C :   -0.455119
  10 S :   -0.039414
  11 N :    0.397609
  12 C :   -0.044318
  13 C :   -0.045044
  14 C :    0.020726
  15 C :    0.046648
  16 C :   -0.000004
  17 C :   -0.193607
  18 O :    0.396649
  19 C :    0.024955
  20 H :   -0.033733
  21 H :   -0.022216
  22 H :   -0.027440
  23 H :   -0.033586
  24 H :   -0.019206
  25 H :   -0.010178
  26 H :   -0.008743
  27 H :   -0.016792
  28 H :   -0.057708
  29 H :   -0.064190
  30 H :   -0.002691
  31 H :   -0.021449
  32 H :   -0.017352
  33 H :   -0.033904
  34 H :   -0.152344
  35 H :   -0.023888

  Mayer bond orders larger than 0.100000
B(  0-C ,  1-C ) :   0.9524 B(  0-C , 20-H ) :   0.9778 B(  0-C , 21-H ) :   0.9789
B(  0-C , 22-H ) :   0.9744 B(  1-C ,  2-O ) :   0.9006 B(  1-C , 23-H ) :   0.9628
B(  1-C , 24-H ) :   0.9865 B(  2-O ,  3-C ) :   1.1823 B(  3-C ,  4-O ) :   2.1049
B(  3-C ,  5-C ) :   0.8919 B(  5-C ,  6-C ) :   1.7285 B(  5-C , 12-C ) :   0.9500
B(  6-C ,  7-C ) :   0.9530 B(  6-C ,  8-N ) :   1.0942 B(  7-C , 25-H ) :   0.9809
B(  7-C , 26-H ) :   0.9666 B(  7-C , 27-H ) :   0.9666 B(  8-N ,  9-C ) :   1.2051
B(  8-N , 28-H ) :   0.9519 B(  9-C , 10-S ) :   1.6059 B(  9-C , 11-N ) :   1.2844
B( 11-N , 12-C ) :   0.9888 B( 11-N , 29-H ) :   0.9455 B( 12-C , 13-C ) :   0.9517
B( 12-C , 30-H ) :   0.9960 B( 13-C , 14-C ) :   1.3917 B( 13-C , 19-C ) :   1.3413
B( 14-C , 15-C ) :   1.3979 B( 14-C , 31-H ) :   0.9630 B( 15-C , 16-C ) :   1.3609
B( 15-C , 32-H ) :   0.9690 B( 16-C , 17-C ) :   1.3297 B( 16-C , 33-H ) :   0.9839
B( 17-C , 18-O ) :   1.1112 B( 17-C , 19-C ) :   1.3654 B( 18-O , 34-H ) :   0.9787
B( 19-C , 35-H ) :   0.9586

MP2 TOTAL ENERGY:    -1274.327344888 Eh
FINAL SINGLE POINT ENERGY     -1274.327344888221

DIPOLE MOMENT
-------------
                                X             Y             Z
Electronic contribution:      9.92021       4.98861       7.10259
Nuclear contribution   :    -11.44774      -6.31397      -7.29524
                        -----------------------------------------
Total Dipole Moment    :     -1.52754      -1.32536      -0.19265
                        -----------------------------------------
Magnitude (a.u.)       :      2.03152
Magnitude (Debye)      :      5.16370

Rotational constants in cm-1:     0.012044     0.009257     0.006752
Rotational constants in MHz :   361.064637   277.531734   202.432091

                             ****ORCA TERMINATED NORMALLY****
TOTAL RUN TIME: 0 days 1 hours 37 minutes 54 seconds 415 msec
