                         Program Version 5.0.0 -  RELEASE  -
|  1> ! ri-mp2 cc-pvtz cc-pvtz/c TightSCF NoKeepInts
|  2>
|  3> %scf
|  4>   MaxCore 4096
|  5> end
|  6> *xyz  0  1
|  7>     C       14.6526424   14.4307728   15.1012644
|  8>     C       15.5378705   14.5331594   16.3545030
|  9>     O       16.4903761   15.5848173   16.1208538
| 10>     C       17.6776549   15.5580685   16.7924117
| 11>     O       18.2272240   14.5067601   17.0771280
| 12>     C       17.9383902   16.8166506   17.5664843
| 13>     C       17.4957075   18.0468167   17.1994629
| 14>     C       16.7003989   18.4145708   15.9636828
| 15>     N       17.8383279   19.1655193   17.9656107
| 16>     C       18.7262572   19.1576033   19.0090298
| 17>     S       19.1702310   20.5485593   19.7859645
| 18>     N       19.2288529   17.9346213   19.3755943
| 19>     C       18.7699240   16.6384762   18.8411874
| 20>     C       17.9832311   15.8721377   19.9014241
| 21>     C       18.3617231   14.5665654   20.2649931
| 22>     C       17.6370067   13.8542921   21.2352350
| 23>     C       16.5226563   14.4516980   21.8483954
| 24>     C       16.1397370   15.7502849   21.4863699
| 25>     O       15.0597300   16.3272497   22.0711329
| 26>     C       16.8626399   16.4564506   20.5198480
| 27>     H       15.2604864   14.1989678   14.2176749
| 28>     H       14.1244902   15.3752949   14.9215822
| 29>     H       13.9060170   13.6364370   15.2218613
| 30>     H       14.9344941   14.7525885   17.2451680
| 31>     H       16.0411299   13.5679157   16.5040104
| 32>     H       17.1043720   17.9142189   15.0746616
| 33>     H       16.7148695   19.4918722   15.7584030
| 34>     H       15.6521506   18.1097853   16.0734486
| 35>     H       17.4805357   20.0724743   17.7115763
| 36>     H       19.8578710   17.9528958   20.1680451
| 37>     H       19.6618178   16.0503635   18.5806488
| 38>     H       19.2125873   14.0955527   19.7786964
| 39>     H       17.9372320   12.8428490   21.5031063
| 40>     H       15.9592120   13.9044527   22.5967520
| 41>     H       14.7280543   15.7096232   22.7400401
| 42>     H       16.5510985   17.4616345   20.2577487
| 43> *
| 44>
| 45>                          ****END OF INPUT****

CARTESIAN COORDINATES (ANGSTROEM)
---------------------------------
  C     14.652642   14.430773   15.101264
  C     15.537870   14.533159   16.354503
  O     16.490376   15.584817   16.120854
  C     17.677655   15.558068   16.792412
  O     18.227224   14.506760   17.077128
  C     17.938390   16.816651   17.566484
  C     17.495708   18.046817   17.199463
  C     16.700399   18.414571   15.963683
  N     17.838328   19.165519   17.965611
  C     18.726257   19.157603   19.009030
  S     19.170231   20.548559   19.785964
  N     19.228853   17.934621   19.375594
  C     18.769924   16.638476   18.841187
  C     17.983231   15.872138   19.901424
  C     18.361723   14.566565   20.264993
  C     17.637007   13.854292   21.235235
  C     16.522656   14.451698   21.848395
  C     16.139737   15.750285   21.486370
  O     15.059730   16.327250   22.071133
  C     16.862640   16.456451   20.519848
  H     15.260486   14.198968   14.217675
  H     14.124490   15.375295   14.921582
  H     13.906017   13.636437   15.221861
  H     14.934494   14.752588   17.245168
  H     16.041130   13.567916   16.504010
  H     17.104372   17.914219   15.074662
  H     16.714869   19.491872   15.758403
  H     15.652151   18.109785   16.073449
  H     17.480536   20.072474   17.711576
  H     19.857871   17.952896   20.168045
  H     19.661818   16.050363   18.580649
  H     19.212587   14.095553   19.778696
  H     17.937232   12.842849   21.503106
  H     15.959212   13.904453   22.596752
  H     14.728054   15.709623   22.740040
  H     16.551098   17.461634   20.257749

 Total Charge           Charge          ....    0
 Multiplicity           Mult            ....    1
 Number of Electrons    NEL             ....  154
 Basis Dimension        Dim             ....  828

ORBITAL ENERGIES
----------------

  NO   OCC          E(Eh)            E(eV)
   0   2.0000     -91.888242     -2500.4062
   1   2.0000     -20.593911      -560.3888
   2   2.0000     -20.593429      -560.3757
   3   2.0000     -20.550765      -559.2147
   4   2.0000     -15.628222      -425.2656
   5   2.0000     -15.607257      -424.6950
   6   2.0000     -11.395282      -310.0814
   7   2.0000     -11.383419      -309.7586
   8   2.0000     -11.334467      -308.4265
   9   2.0000     -11.309361      -307.7434
  10   2.0000     -11.306881      -307.6759
  11   2.0000     -11.298186      -307.4393
  12   2.0000     -11.259960      -306.3991
  13   2.0000     -11.259498      -306.3865
  14   2.0000     -11.255107      -306.2670
  15   2.0000     -11.249438      -306.1128
  16   2.0000     -11.239078      -305.8309
  17   2.0000     -11.235143      -305.7238
  18   2.0000     -11.232223      -305.6443
  19   2.0000     -11.231945      -305.6368
  20   2.0000      -8.893311      -241.9993
  21   2.0000      -6.574890      -178.9118
  22   2.0000      -6.572881      -178.8572
  23   2.0000      -6.572297      -178.8413
  24   2.0000      -1.453502       -39.5518
  25   2.0000      -1.413178       -38.4545
  26   2.0000      -1.357336       -36.9350
  27   2.0000      -1.339235       -36.4424
  28   2.0000      -1.237164       -33.6650
  29   2.0000      -1.153673       -31.3930
  30   2.0000      -1.120199       -30.4822
  31   2.0000      -1.044103       -28.4115
  32   2.0000      -1.036447       -28.2032
  33   2.0000      -1.011100       -27.5134
  34   2.0000      -0.998107       -27.1599
  35   2.0000      -0.983635       -26.7661
  36   2.0000      -0.921871       -25.0854
  37   2.0000      -0.884860       -24.0783
  38   2.0000      -0.847433       -23.0598
  39   2.0000      -0.836474       -22.7616
  40   2.0000      -0.829588       -22.5742
  41   2.0000      -0.821758       -22.3612
  42   2.0000      -0.759419       -20.6648
  43   2.0000      -0.735904       -20.0250
  44   2.0000      -0.726279       -19.7631
  45   2.0000      -0.691691       -18.8219
  46   2.0000      -0.685108       -18.6427
  47   2.0000      -0.680637       -18.5211
  48   2.0000      -0.674464       -18.3531
  49   2.0000      -0.654664       -17.8143
  50   2.0000      -0.649635       -17.6775
  51   2.0000      -0.642118       -17.4729
  52   2.0000      -0.632326       -17.2065
  53   2.0000      -0.616084       -16.7645
  54   2.0000      -0.601909       -16.3788
  55   2.0000      -0.601406       -16.3651
  56   2.0000      -0.596785       -16.2394
  57   2.0000      -0.577850       -15.7241
  58   2.0000      -0.574635       -15.6366
  59   2.0000      -0.562529       -15.3072
  60   2.0000      -0.560667       -15.2565
  61   2.0000      -0.546133       -14.8610
  62   2.0000      -0.536451       -14.5976
  63   2.0000      -0.526813       -14.3353
  64   2.0000      -0.518821       -14.1178
  65   2.0000      -0.510332       -13.8869
  66   2.0000      -0.500959       -13.6318
  67   2.0000      -0.496050       -13.4982
  68   2.0000      -0.481754       -13.1092
  69   2.0000      -0.464409       -12.6372
  70   2.0000      -0.460994       -12.5443
  71   2.0000      -0.451266       -12.2796
  72   2.0000      -0.353929        -9.6309
  73   2.0000      -0.345483        -9.4011
  74   2.0000      -0.327453        -8.9105
  75   2.0000      -0.316543        -8.6136
  76   2.0000      -0.314978        -8.5710
  77   0.0000       0.073450         1.9987
  78   0.0000       0.109106         2.9689
  79   0.0000       0.119726         3.2579
  80   0.0000       0.134573         3.6619
  81   0.0000       0.137520         3.7421

MULLIKEN ATOMIC CHARGES
-----------------------
   0 C :   -0.264388
   1 C :    0.032827
   2 O :   -0.362840
   3 C :    0.459028
   4 O :   -0.412297
   5 C :   -0.188783
   6 C :    0.140760
   7 C :   -0.284456
   8 N :   -0.124055
   9 C :    0.202389
  10 S :   -0.439848
  11 N :   -0.199222
  12 C :    0.044386
  13 C :    0.053406
  14 C :   -0.162444
  15 C :   -0.133123
  16 C :   -0.280019
  17 C :    0.311406
  18 O :   -0.358949
  19 C :   -0.275551
  20 H :    0.099723
  21 H :    0.089662
  22 H :    0.091907
  23 H :    0.094965
  24 H :    0.116142
  25 H :    0.125285
  26 H :    0.103771
  27 H :    0.125554
  28 H :    0.197072
  29 H :    0.193972
  30 H :    0.154382
  31 H :    0.154375
  32 H :    0.159735
  33 H :    0.128846
  34 H :    0.240382
  35 H :    0.166000
Sum of atomic charges:   -0.0000000

LOEWDIN ATOMIC CHARGES
----------------------
   0 C :    0.106654
   1 C :   -0.014162
   2 O :    0.298474
   3 C :   -0.413765
   4 O :    0.116530
   5 C :   -0.092570
   6 C :   -0.070474
   7 C :    0.125371
   8 N :    0.404399
   9 C :   -0.458148
  10 S :   -0.036407
  11 N :    0.397390
  12 C :   -0.045868
  13 C :   -0.039360
  14 C :    0.021733
  15 C :    0.041200
  16 C :   -0.002333
  17 C :   -0.193338
  18 O :    0.393039
  19 C :    0.028014
  20 H :   -0.024710
  21 H :   -0.030557
  22 H :   -0.024817
  23 H :   -0.031574
  24 H :   -0.026702
  25 H :   -0.008188
  26 H :   -0.020204
  27 H :   -0.010365
  28 H :   -0.058917
  29 H :   -0.063911
  30 H :   -0.004805
  31 H :   -0.025091
  32 H :   -0.020932
  33 H :   -0.036175
  34 H :   -0.154618
  35 H :   -0.024811

  Mayer bond orders larger than 0.100000
B(  0-C ,  1-C ) :   0.9755 B(  0-C , 20-H ) :   0.9775 B(  0-C , 21-H ) :   0.9796
B(  0-C , 22-H ) :   0.9766 B(  1-C ,  2-O ) :   0.8910 B(  1-C , 23-H ) :   0.9729
B(  1-C , 24-H ) :   0.9757 B(  2-O ,  3-C ) :   1.1092 B(  3-C ,  4-O ) :   2.0098
B(  3-C ,  5-C ) :   1.0409 B(  5-C ,  6-C ) :   1.6601 B(  5-C , 12-C ) :   0.9647
B(  6-C ,  7-C ) :   0.9525 B(  6-C ,  8-N ) :   1.1412 B(  7-C , 25-H ) :   0.9687
B(  7-C , 26-H ) :   0.9897 B(  7-C , 27-H ) :   0.9634 B(  8-N ,  9-C ) :   1.1821
B(  8-N , 28-H ) :   0.9494 B(  9-C , 10-S ) :   1.6104 B(  9-C , 11-N ) :   1.3021
B( 11-N , 12-C ) :   0.9910 B( 11-N , 29-H ) :   0.9518 B( 12-C , 13-C ) :   0.9472
B( 12-C , 30-H ) :   0.9988 B( 13-C , 14-C ) :   1.3770 B( 13-C , 19-C ) :   1.3680
B( 14-C , 15-C ) :   1.3946 B( 14-C , 31-H ) :   0.9645 B( 15-C , 16-C ) :   1.3632
B( 15-C , 32-H ) :   0.9712 B( 16-C , 17-C ) :   1.3314 B( 16-C , 33-H ) :   0.9857
B( 17-C , 18-O ) :   1.1085 B( 17-C , 19-C ) :   1.3774 B( 18-O , 34-H ) :   0.9803
B( 19-C , 35-H ) :   0.9582

MP2 TOTAL ENERGY:    -1274.334670440 Eh
FINAL SINGLE POINT ENERGY     -1274.334670439695

DIPOLE MOMENT
-------------
                                X             Y             Z
Electronic contribution:     11.33382       9.77314      10.17111
Nuclear contribution   :    -12.79561     -11.10410     -10.89799
                        -----------------------------------------
Total Dipole Moment    :     -1.46179      -1.33096      -0.72688
                        -----------------------------------------
Magnitude (a.u.)       :      2.10633
Magnitude (Debye)      :      5.35388

Rotational constants in cm-1:     0.010598     0.009076     0.006083
Rotational constants in MHz :   317.712259   272.106316   182.349592

                             ****ORCA TERMINATED NORMALLY****
TOTAL RUN TIME: 0 days 1 hours 49 minutes 0 seconds 713 msec
