                         Program Version 5.0.0 -  RELEASE  -
|  1> ! ri-mp2 cc-pvtz cc-pvtz/c TightSCF NoKeepInts
|  2>
|  3> %scf
|  4>   MaxCore 4096
|  5> end
|  6> *xyz  0  1
|  7>     C       15.2083884   15.2663635   17.2833139
|  8>     C       15.6624563   15.0565687   15.8241363
|  9>     O       16.9211628   15.6901392   15.4925902
| 10>     C       17.9703844   15.7639237   16.3657971
| 11>     O       18.6633032   14.7798936   16.5534087
| 12>     C       17.9049450   16.8811353   17.3705089
| 13>     C       17.3043971   18.0759296   17.1328714
| 14>     C       16.5965846   18.5221189   15.8695314
| 15>     N       17.3934618   19.0991633   18.0819748
| 16>     C       18.2264464   19.0821465   19.1696650
| 17>     S       18.3978531   20.3977202   20.1568209
| 18>     N       18.9110347   17.9146154   19.3956789
| 19>     C       18.6643059   16.6458995   18.6834832
| 20>     C       17.9347677   15.6557907   19.5884912
| 21>     C       18.3774919   14.3234006   19.6830060
| 22>     C       17.7070212   13.4005324   20.5029014
| 23>     C       16.5822901   13.8118104   21.2376691
| 24>     C       16.1363392   15.1370223   21.1467586
| 25>     O       15.0442260   15.5350059   21.8465181
| 26>     C       16.8055949   16.0535199   20.3297052
| 27>     H       15.8905571   14.7625920   17.9772184
| 28>     H       14.2147619   14.8268208   17.4325536
| 29>     H       15.1425857   16.3280638   17.5447366
| 30>     H       15.7605554   13.9763126   15.6522564
| 31>     H       14.8856386   15.4253991   15.1421872
| 32>     H       15.6002475   18.0710150   15.7962006
| 33>     H       17.1656041   18.2307113   14.9776353
| 34>     H       16.4717925   19.6108906   15.8216718
| 35>     H       16.9045739   19.9667177   17.9282516
| 36>     H       19.5012587   17.9183954   20.2177890
| 37>     H       19.6438048   16.2142173   18.4307626
| 38>     H       19.2375447   13.9973256   19.1022845
| 39>     H       18.0576013   12.3715303   20.5607865
| 40>     H       16.0600795   13.1014075   21.8698958
| 41>     H       14.7582570   14.7849155   22.3893265
| 42>     H       16.4396827   17.0729860   20.2756133
| 43> *
| 44>
| 45>                          ****END OF INPUT****

CARTESIAN COORDINATES (ANGSTROEM)
---------------------------------
  C     15.208388   15.266364   17.283314
  C     15.662456   15.056569   15.824136
  O     16.921163   15.690139   15.492590
  C     17.970384   15.763924   16.365797
  O     18.663303   14.779894   16.553409
  C     17.904945   16.881135   17.370509
  C     17.304397   18.075930   17.132871
  C     16.596585   18.522119   15.869531
  N     17.393462   19.099163   18.081975
  C     18.226446   19.082147   19.169665
  S     18.397853   20.397720   20.156821
  N     18.911035   17.914615   19.395679
  C     18.664306   16.645899   18.683483
  C     17.934768   15.655791   19.588491
  C     18.377492   14.323401   19.683006
  C     17.707021   13.400532   20.502901
  C     16.582290   13.811810   21.237669
  C     16.136339   15.137022   21.146759
  O     15.044226   15.535006   21.846518
  C     16.805595   16.053520   20.329705
  H     15.890557   14.762592   17.977218
  H     14.214762   14.826821   17.432554
  H     15.142586   16.328064   17.544737
  H     15.760555   13.976313   15.652256
  H     14.885639   15.425399   15.142187
  H     15.600248   18.071015   15.796201
  H     17.165604   18.230711   14.977635
  H     16.471792   19.610891   15.821672
  H     16.904574   19.966718   17.928252
  H     19.501259   17.918395   20.217789
  H     19.643805   16.214217   18.430763
  H     19.237545   13.997326   19.102284
  H     18.057601   12.371530   20.560786
  H     16.060080   13.101408   21.869896
  H     14.758257   14.784916   22.389326
  H     16.439683   17.072986   20.275613

 Total Charge           Charge          ....    0
 Multiplicity           Mult            ....    1
 Number of Electrons    NEL             ....  154
 Basis Dimension        Dim             ....  828

ORBITAL ENERGIES
----------------

  NO   OCC          E(Eh)            E(eV)
   0   2.0000     -91.891025     -2500.4819
   1   2.0000     -20.595589      -560.4345
   2   2.0000     -20.580802      -560.0321
   3   2.0000     -20.552783      -559.2697
   4   2.0000     -15.631611      -425.3578
   5   2.0000     -15.609308      -424.7509
   6   2.0000     -11.395528      -310.0881
   7   2.0000     -11.385921      -309.8266
   8   2.0000     -11.337979      -308.5221
   9   2.0000     -11.311779      -307.8092
  10   2.0000     -11.309090      -307.7360
  11   2.0000     -11.306736      -307.6719
  12   2.0000     -11.263197      -306.4872
  13   2.0000     -11.262520      -306.4687
  14   2.0000     -11.257691      -306.3374
  15   2.0000     -11.252153      -306.1867
  16   2.0000     -11.241829      -305.9057
  17   2.0000     -11.237136      -305.7780
  18   2.0000     -11.234033      -305.6936
  19   2.0000     -11.230200      -305.5893
  20   2.0000      -8.896072      -242.0744
  21   2.0000      -6.577644      -178.9868
  22   2.0000      -6.575640      -178.9323
  23   2.0000      -6.575048      -178.9162
  24   2.0000      -1.445846       -39.3435
  25   2.0000      -1.415410       -38.5153
  26   2.0000      -1.353154       -36.8212
  27   2.0000      -1.342474       -36.5306
  28   2.0000      -1.239829       -33.7375
  29   2.0000      -1.156060       -31.4580
  30   2.0000      -1.121927       -30.5292
  31   2.0000      -1.044418       -28.4201
  32   2.0000      -1.034513       -28.1505
  33   2.0000      -1.013964       -27.5914
  34   2.0000      -1.002097       -27.2685
  35   2.0000      -0.988215       -26.8907
  36   2.0000      -0.925333       -25.1796
  37   2.0000      -0.896359       -24.3912
  38   2.0000      -0.851147       -23.1609
  39   2.0000      -0.839871       -22.8541
  40   2.0000      -0.832130       -22.6434
  41   2.0000      -0.819750       -22.3065
  42   2.0000      -0.747022       -20.3275
  43   2.0000      -0.732251       -19.9256
  44   2.0000      -0.727996       -19.8098
  45   2.0000      -0.693895       -18.8818
  46   2.0000      -0.687697       -18.7132
  47   2.0000      -0.675813       -18.3898
  48   2.0000      -0.672910       -18.3108
  49   2.0000      -0.661966       -18.0130
  50   2.0000      -0.652925       -17.7670
  51   2.0000      -0.648074       -17.6350
  52   2.0000      -0.640494       -17.4287
  53   2.0000      -0.618870       -16.8403
  54   2.0000      -0.603658       -16.4264
  55   2.0000      -0.603116       -16.4116
  56   2.0000      -0.599788       -16.3210
  57   2.0000      -0.583112       -15.8673
  58   2.0000      -0.575504       -15.6603
  59   2.0000      -0.563167       -15.3245
  60   2.0000      -0.557827       -15.1792
  61   2.0000      -0.547467       -14.8973
  62   2.0000      -0.546225       -14.8635
  63   2.0000      -0.530911       -14.4468
  64   2.0000      -0.521016       -14.1776
  65   2.0000      -0.513020       -13.9600
  66   2.0000      -0.499854       -13.6017
  67   2.0000      -0.490907       -13.3583
  68   2.0000      -0.481520       -13.1028
  69   2.0000      -0.466570       -12.6960
  70   2.0000      -0.454316       -12.3626
  71   2.0000      -0.449475       -12.2308
  72   2.0000      -0.356917        -9.7122
  73   2.0000      -0.346907        -9.4398
  74   2.0000      -0.330093        -8.9823
  75   2.0000      -0.320369        -8.7177
  76   2.0000      -0.317842        -8.6489
  77   0.0000       0.068356         1.8601
  78   0.0000       0.107333         2.9207
  79   0.0000       0.118193         3.2162
  80   0.0000       0.132491         3.6053
  81   0.0000       0.134644         3.6638

MULLIKEN ATOMIC CHARGES
-----------------------
   0 C :   -0.347290
   1 C :    0.039968
   2 O :   -0.386512
   3 C :    0.474501
   4 O :   -0.393423
   5 C :   -0.206701
   6 C :    0.137257
   7 C :   -0.292980
   8 N :   -0.124067
   9 C :    0.188333
  10 S :   -0.434363
  11 N :   -0.199771
  12 C :    0.048920
  13 C :    0.029387
  14 C :   -0.174812
  15 C :   -0.136888
  16 C :   -0.278000
  17 C :    0.310973
  18 O :   -0.359242
  19 C :   -0.260935
  20 H :    0.129888
  21 H :    0.123169
  22 H :    0.103277
  23 H :    0.115043
  24 H :    0.110856
  25 H :    0.116271
  26 H :    0.137702
  27 H :    0.110429
  28 H :    0.197591
  29 H :    0.194124
  30 H :    0.158826
  31 H :    0.164174
  32 H :    0.161786
  33 H :    0.131043
  34 H :    0.240747
  35 H :    0.170720
Sum of atomic charges:   -0.0000000

LOEWDIN ATOMIC CHARGES
----------------------
   0 C :    0.104710
   1 C :   -0.016327
   2 O :    0.277341
   3 C :   -0.418883
   4 O :    0.126782
   5 C :   -0.092918
   6 C :   -0.070783
   7 C :    0.127041
   8 N :    0.405815
   9 C :   -0.460301
  10 S :   -0.033130
  11 N :    0.397638
  12 C :   -0.045167
  13 C :   -0.042270
  14 C :    0.019924
  15 C :    0.041208
  16 C :   -0.002250
  17 C :   -0.194161
  18 O :    0.394404
  19 C :    0.030115
  20 H :   -0.021547
  21 H :   -0.021495
  22 H :   -0.033997
  23 H :   -0.024752
  24 H :   -0.025519
  25 H :   -0.013653
  26 H :   -0.005387
  27 H :   -0.018603
  28 H :   -0.058681
  29 H :   -0.063619
  30 H :   -0.002875
  31 H :   -0.023582
  32 H :   -0.019871
  33 H :   -0.035499
  34 H :   -0.154131
  35 H :   -0.025577

  Mayer bond orders larger than 0.100000
B(  0-C ,  1-C ) :   0.9611 B(  0-C , 20-H ) :   0.9650 B(  0-C , 21-H ) :   0.9765
B(  0-C , 22-H ) :   0.9707 B(  1-C ,  2-O ) :   0.8908 B(  1-C , 23-H ) :   0.9857
B(  1-C , 24-H ) :   0.9813 B(  2-O ,  3-C ) :   1.0942 B(  3-C ,  4-O ) :   2.0385
B(  3-C ,  5-C ) :   1.0131 B(  5-C ,  6-C ) :   1.6624 B(  5-C , 12-C ) :   0.9608
B(  6-C ,  7-C ) :   0.9555 B(  6-C ,  8-N ) :   1.1316 B(  7-C , 25-H ) :   0.9652
B(  7-C , 26-H ) :   0.9650 B(  7-C , 27-H ) :   0.9895 B(  8-N ,  9-C ) :   1.1779
B(  8-N , 28-H ) :   0.9488 B(  9-C , 10-S ) :   1.6172 B(  9-C , 11-N ) :   1.2994
B( 11-N , 12-C ) :   0.9853 B( 11-N , 29-H ) :   0.9522 B( 12-C , 13-C ) :   0.9472
B( 12-C , 30-H ) :   0.9986 B( 13-C , 14-C ) :   1.3882 B( 13-C , 19-C ) :   1.3545
B( 14-C , 15-C ) :   1.3955 B( 14-C , 31-H ) :   0.9603 B( 15-C , 16-C ) :   1.3624
B( 15-C , 32-H ) :   0.9710 B( 16-C , 17-C ) :   1.3299 B( 16-C , 33-H ) :   0.9850
B( 17-C , 18-O ) :   1.1110 B( 17-C , 19-C ) :   1.3771 B( 18-O , 34-H ) :   0.9801
B( 19-C , 35-H ) :   0.9581

MP2 TOTAL ENERGY:    -1274.324525756 Eh
FINAL SINGLE POINT ENERGY     -1274.324525756288

DIPOLE MOMENT
-------------
                                X             Y             Z
Electronic contribution:      9.71730       7.46269       6.25568
Nuclear contribution   :    -11.15000      -8.56721      -6.88240
                        -----------------------------------------
Total Dipole Moment    :     -1.43270      -1.10451      -0.62672
                        -----------------------------------------
Magnitude (a.u.)       :      1.91451
Magnitude (Debye)      :      4.86631

Rotational constants in cm-1:     0.011308     0.009982     0.006805
Rotational constants in MHz :   339.009725   299.262900   204.002059

                             ****ORCA TERMINATED NORMALLY****
TOTAL RUN TIME: 0 days 1 hours 58 minutes 12 seconds 436 msec
