                         Program Version 5.0.0 -  RELEASE  -
|  1> ! ri-mp2 cc-pvtz cc-pvtz/c TightSCF NoKeepInts
|  2>
|  3> %scf
|  4>   MaxCore 4096
|  5> end
|  6> *xyz  0  1
|  7>     C       14.9224385   16.1390754   17.3008972
|  8>     C       15.5914278   14.9101040   16.6514680
|  9>     O       16.8569480   15.1189523   15.9676346
| 10>     C       18.0125489   15.6888351   16.4494377
| 11>     O       19.0566304   15.0701312   16.3553084
| 12>     C       17.9135785   16.8541945   17.3721692
| 13>     C       17.3980113   18.0412827   16.9773095
| 14>     C       16.8698254   18.3935017   15.6024837
| 15>     N       17.4228202   19.1332693   17.8473125
| 16>     C       18.0299071   19.1381148   19.0762686
| 17>     S       18.0495038   20.4888589   20.0298092
| 18>     N       18.6234698   17.9662946   19.4777479
| 19>     C       18.5851871   16.6886245   18.7377904
| 20>     C       17.9272358   15.5767217   19.5546091
| 21>     C       18.4058260   14.2568696   19.4549459
| 22>     C       17.8023679   13.2162109   20.1800259
| 23>     C       16.7088894   13.4948704   21.0166953
| 24>     C       16.2289395   14.8067951   21.1225376
| 25>     O       15.1676573   15.0788044   21.9225372
| 26>     C       16.8317941   15.8409014   20.3993468
| 27>     H       15.4766481   16.5167121   18.1629958
| 28>     H       13.9300578   15.8553915   17.6723680
| 29>     H       14.7726528   16.9420612   16.5724880
| 30>     H       15.7453939   14.1569321   17.4362523
| 31>     H       14.8854545   14.4754702   15.9320317
| 32>     H       16.6539837   17.5082143   14.9933508
| 33>     H       17.6070555   18.9913249   15.0516839
| 34>     H       15.9431954   18.9769101   15.6667555
| 35>     H       17.0166360   20.0103109   17.5615082
| 36>     H       19.0523633   17.9973112   20.3941512
| 37>     H       19.6271663   16.3875611   18.5529245
| 38>     H       19.2463733   14.0339225   18.8006844
| 39>     H       18.1824421   12.1999528   20.0886433
| 40>     H       16.2389355   12.6935843   21.5774945
| 41>     H       14.9277781   14.2574319   22.3777623
| 42>     H       16.4358571   16.8464966   20.4965708
| 43> *
| 44>
| 45>                          ****END OF INPUT****

CARTESIAN COORDINATES (ANGSTROEM)
---------------------------------
  C     14.922439   16.139075   17.300897
  C     15.591428   14.910104   16.651468
  O     16.856948   15.118952   15.967635
  C     18.012549   15.688835   16.449438
  O     19.056630   15.070131   16.355308
  C     17.913578   16.854194   17.372169
  C     17.398011   18.041283   16.977309
  C     16.869825   18.393502   15.602484
  N     17.422820   19.133269   17.847313
  C     18.029907   19.138115   19.076269
  S     18.049504   20.488859   20.029809
  N     18.623470   17.966295   19.477748
  C     18.585187   16.688624   18.737790
  C     17.927236   15.576722   19.554609
  C     18.405826   14.256870   19.454946
  C     17.802368   13.216211   20.180026
  C     16.708889   13.494870   21.016695
  C     16.228939   14.806795   21.122538
  O     15.167657   15.078804   21.922537
  C     16.831794   15.840901   20.399347
  H     15.476648   16.516712   18.162996
  H     13.930058   15.855391   17.672368
  H     14.772653   16.942061   16.572488
  H     15.745394   14.156932   17.436252
  H     14.885454   14.475470   15.932032
  H     16.653984   17.508214   14.993351
  H     17.607055   18.991325   15.051684
  H     15.943195   18.976910   15.666755
  H     17.016636   20.010311   17.561508
  H     19.052363   17.997311   20.394151
  H     19.627166   16.387561   18.552924
  H     19.246373   14.033922   18.800684
  H     18.182442   12.199953   20.088643
  H     16.238936   12.693584   21.577495
  H     14.927778   14.257432   22.377762
  H     16.435857   16.846497   20.496571

 Total Charge           Charge          ....    0
 Multiplicity           Mult            ....    1
 Number of Electrons    NEL             ....  154
 Basis Dimension        Dim             ....  828

ORBITAL ENERGIES
----------------

  NO   OCC          E(Eh)            E(eV)
   0   2.0000     -91.890653     -2500.4718
   1   2.0000     -20.600488      -560.5678
   2   2.0000     -20.590981      -560.3091
   3   2.0000     -20.550958      -559.2200
   4   2.0000     -15.627649      -425.2499
   5   2.0000     -15.612052      -424.8255
   6   2.0000     -11.398021      -310.1559
   7   2.0000     -11.387325      -309.8649
   8   2.0000     -11.329270      -308.2851
   9   2.0000     -11.317578      -307.9669
  10   2.0000     -11.315081      -307.8990
  11   2.0000     -11.308937      -307.7318
  12   2.0000     -11.265437      -306.5481
  13   2.0000     -11.265023      -306.5369
  14   2.0000     -11.261914      -306.4522
  15   2.0000     -11.257555      -306.3336
  16   2.0000     -11.246836      -306.0420
  17   2.0000     -11.243162      -305.9420
  18   2.0000     -11.239276      -305.8362
  19   2.0000     -11.233864      -305.6890
  20   2.0000      -8.895753      -242.0658
  21   2.0000      -6.577339      -178.9785
  22   2.0000      -6.575317      -178.9235
  23   2.0000      -6.574738      -178.9077
  24   2.0000      -1.442278       -39.2464
  25   2.0000      -1.420299       -38.6483
  26   2.0000      -1.353831       -36.8396
  27   2.0000      -1.340499       -36.4768
  28   2.0000      -1.240308       -33.7505
  29   2.0000      -1.161673       -31.6107
  30   2.0000      -1.125144       -30.6167
  31   2.0000      -1.048676       -28.5359
  32   2.0000      -1.038670       -28.2636
  33   2.0000      -1.019783       -27.7497
  34   2.0000      -1.004772       -27.3412
  35   2.0000      -0.990617       -26.9561
  36   2.0000      -0.928136       -25.2559
  37   2.0000      -0.897248       -24.4154
  38   2.0000      -0.852764       -23.2049
  39   2.0000      -0.841786       -22.9062
  40   2.0000      -0.837338       -22.7851
  41   2.0000      -0.829466       -22.5709
  42   2.0000      -0.749530       -20.3957
  43   2.0000      -0.734595       -19.9894
  44   2.0000      -0.730011       -19.8646
  45   2.0000      -0.698334       -19.0026
  46   2.0000      -0.687849       -18.7173
  47   2.0000      -0.676944       -18.4206
  48   2.0000      -0.674912       -18.3653
  49   2.0000      -0.662736       -18.0340
  50   2.0000      -0.654661       -17.8142
  51   2.0000      -0.649511       -17.6741
  52   2.0000      -0.640048       -17.4166
  53   2.0000      -0.613909       -16.7053
  54   2.0000      -0.606972       -16.5166
  55   2.0000      -0.604400       -16.4466
  56   2.0000      -0.599499       -16.3132
  57   2.0000      -0.595849       -16.2139
  58   2.0000      -0.578781       -15.7494
  59   2.0000      -0.577137       -15.7047
  60   2.0000      -0.566486       -15.4149
  61   2.0000      -0.557117       -15.1599
  62   2.0000      -0.542113       -14.7516
  63   2.0000      -0.531826       -14.4717
  64   2.0000      -0.521768       -14.1980
  65   2.0000      -0.514266       -13.9939
  66   2.0000      -0.503097       -13.6900
  67   2.0000      -0.493459       -13.4277
  68   2.0000      -0.486132       -13.2283
  69   2.0000      -0.465452       -12.6656
  70   2.0000      -0.457979       -12.4623
  71   2.0000      -0.448386       -12.2012
  72   2.0000      -0.355562        -9.6753
  73   2.0000      -0.351393        -9.5619
  74   2.0000      -0.330212        -8.9855
  75   2.0000      -0.325327        -8.8526
  76   2.0000      -0.319234        -8.6868
  77   0.0000       0.084345         2.2951
  78   0.0000       0.103779         2.8240
  79   0.0000       0.118626         3.2280
  80   0.0000       0.125180         3.4063
  81   0.0000       0.129148         3.5143

MULLIKEN ATOMIC CHARGES
-----------------------
   0 C :   -0.344335
   1 C :    0.048744
   2 O :   -0.354384
   3 C :    0.413366
   4 O :   -0.378078
   5 C :   -0.206968
   6 C :    0.152604
   7 C :   -0.325898
   8 N :   -0.136459
   9 C :    0.207481
  10 S :   -0.440057
  11 N :   -0.229830
  12 C :    0.103717
  13 C :    0.017086
  14 C :   -0.221023
  15 C :   -0.134290
  16 C :   -0.277774
  17 C :    0.324252
  18 O :   -0.355931
  19 C :   -0.284069
  20 H :    0.119123
  21 H :    0.128424
  22 H :    0.098868
  23 H :    0.105031
  24 H :    0.120503
  25 H :    0.126688
  26 H :    0.149273
  27 H :    0.108927
  28 H :    0.196736
  29 H :    0.202334
  30 H :    0.165904
  31 H :    0.176579
  32 H :    0.165601
  33 H :    0.132813
  34 H :    0.241533
  35 H :    0.183509
Sum of atomic charges:    0.0000000

LOEWDIN ATOMIC CHARGES
----------------------
   0 C :    0.104331
   1 C :   -0.010369
   2 O :    0.281397
   3 C :   -0.415092
   4 O :    0.128952
   5 C :   -0.085087
   6 C :   -0.092558
   7 C :    0.123869
   8 N :    0.403924
   9 C :   -0.455789
  10 S :   -0.036882
  11 N :    0.397829
  12 C :   -0.043762
  13 C :   -0.043016
  14 C :    0.020547
  15 C :    0.043227
  16 C :   -0.001487
  17 C :   -0.193703
  18 O :    0.395446
  19 C :    0.026247
  20 H :   -0.035670
  21 H :   -0.019368
  22 H :   -0.031912
  23 H :   -0.026360
  24 H :   -0.019158
  25 H :   -0.011394
  26 H :   -0.008241
  27 H :   -0.018751
  28 H :   -0.057422
  29 H :   -0.064030
  30 H :   -0.002921
  31 H :   -0.021680
  32 H :   -0.018279
  33 H :   -0.034597
  34 H :   -0.152971
  35 H :   -0.025272

  Mayer bond orders larger than 0.100000
B(  0-C ,  1-C ) :   0.9593 B(  0-C , 20-H ) :   0.9676 B(  0-C , 21-H ) :   0.9773
B(  0-C , 22-H ) :   0.9769 B(  1-C ,  2-O ) :   0.9019 B(  1-C , 23-H ) :   0.9756
B(  1-C , 24-H ) :   0.9818 B(  2-O ,  3-C ) :   1.1544 B(  3-C ,  4-O ) :   2.0914
B(  3-C ,  5-C ) :   0.9424 B(  5-C ,  6-C ) :   1.6761 B(  5-C , 12-C ) :   0.9475
B(  6-C ,  7-C ) :   0.9484 B(  6-C ,  8-N ) :   1.1207 B(  7-C , 25-H ) :   0.9762
B(  7-C , 26-H ) :   0.9645 B(  7-C , 27-H ) :   0.9724 B(  8-N ,  9-C ) :   1.1964
B(  8-N , 28-H ) :   0.9511 B(  9-C , 10-S ) :   1.6094 B(  9-C , 11-N ) :   1.2859
B( 11-N , 12-C ) :   0.9906 B( 11-N , 29-H ) :   0.9476 B( 12-C , 13-C ) :   0.9454
B( 12-C , 30-H ) :   0.9970 B( 13-C , 14-C ) :   1.3889 B( 13-C , 19-C ) :   1.3379
B( 14-C , 15-C ) :   1.4033 B( 14-C , 31-H ) :   0.9585 B( 15-C , 16-C ) :   1.3575
B( 15-C , 32-H ) :   0.9695 B( 16-C , 17-C ) :   1.3322 B( 16-C , 33-H ) :   0.9844
B( 17-C , 18-O ) :   1.1108 B( 17-C , 19-C ) :   1.3647 B( 18-O , 34-H ) :   0.9792
B( 19-C , 35-H ) :   0.9534

MP2 TOTAL ENERGY:    -1274.323689261 Eh
FINAL SINGLE POINT ENERGY     -1274.323689260895

DIPOLE MOMENT
-------------
                                X             Y             Z
Electronic contribution:      9.37049       5.51821       6.08102
Nuclear contribution   :    -10.83053      -6.74153      -6.47145
                        -----------------------------------------
Total Dipole Moment    :     -1.46004      -1.22331      -0.39043
                        -----------------------------------------
Magnitude (a.u.)       :      1.94439
Magnitude (Debye)      :      4.94224

Rotational constants in cm-1:     0.012199     0.009373     0.006871
Rotational constants in MHz :   365.712588   280.983095   205.989353

                             ****ORCA TERMINATED NORMALLY****
TOTAL RUN TIME: 0 days 2 hours 26 minutes 36 seconds 515 msec
