                         Program Version 5.0.0 -  RELEASE  -
|  1> ! ri-mp2 cc-pvtz cc-pvtz/c TightSCF NoKeepInts
|  2>
|  3> %scf
|  4>   MaxCore 4096
|  5> end
|  6> *xyz  0  1
|  7>     C       14.2887862   14.7379288   16.6180691
|  8>     C       15.4239699   15.6836869   17.0413133
|  9>     O       16.6139786   15.2449071   16.3606627
| 10>     C       17.8268286   15.8853098   16.4188042
| 11>     O       18.8290540   15.2849480   16.0786082
| 12>     C       17.9212309   17.0020433   17.4046856
| 13>     C       17.3888368   18.2225981   17.1683375
| 14>     C       16.6582494   18.6708020   15.9205040
| 15>     N       17.5715846   19.2516345   18.0942695
| 16>     C       18.3570712   19.1608722   19.2143517
| 17>     S       18.5673047   20.4463177   20.2327358
| 18>     N       18.9586921   17.9486051   19.4510391
| 19>     C       18.7488494   16.7204313   18.6577308
| 20>     C       18.1088491   15.6126425   19.4894976
| 21>     C       18.5197093   14.2783910   19.3152053
| 22>     C       17.9211264   13.2419513   20.0503684
| 23>     C       16.8995519   13.5401733   20.9677227
| 24>     C       16.4826005   14.8665918   21.1406156
| 25>     O       15.4860923   15.1566293   22.0141945
| 26>     C       17.0795084   15.8969027   20.4069867
| 27>     H       13.3494058   15.0166751   17.1107315
| 28>     H       14.5278085   13.7033013   16.8951209
| 29>     H       14.1349224   14.7776057   15.5324770
| 30>     H       15.1505412   16.7055579   16.7607679
| 31>     H       15.5597630   15.6351501   18.1291891
| 32>     H       16.5879656   17.8773216   15.1662813
| 33>     H       17.1832107   19.5104792   15.4469305
| 34>     H       15.6384726   19.0007700   16.1543325
| 35>     H       17.1561617   20.1552089   17.9290366
| 36>     H       19.5189336   17.9072185   20.2932275
| 37>     H       19.7368191   16.3660536   18.3276783
| 38>     H       19.2971259   14.0418579   18.5913206
| 39>     H       18.2456227   12.2134296   19.9010644
| 40>     H       16.4324568   12.7416320   21.5347059
| 41>     H       15.2415558   14.3315562   22.4603546
| 42>     H       16.7343604   16.9148157   20.5550790
| 43> *
| 44>
| 45>                          ****END OF INPUT****

CARTESIAN COORDINATES (ANGSTROEM)
---------------------------------
  C     14.288786   14.737929   16.618069
  C     15.423970   15.683687   17.041313
  O     16.613979   15.244907   16.360663
  C     17.826829   15.885310   16.418804
  O     18.829054   15.284948   16.078608
  C     17.921231   17.002043   17.404686
  C     17.388837   18.222598   17.168337
  C     16.658249   18.670802   15.920504
  N     17.571585   19.251635   18.094269
  C     18.357071   19.160872   19.214352
  S     18.567305   20.446318   20.232736
  N     18.958692   17.948605   19.451039
  C     18.748849   16.720431   18.657731
  C     18.108849   15.612642   19.489498
  C     18.519709   14.278391   19.315205
  C     17.921126   13.241951   20.050368
  C     16.899552   13.540173   20.967723
  C     16.482601   14.866592   21.140616
  O     15.486092   15.156629   22.014194
  C     17.079508   15.896903   20.406987
  H     13.349406   15.016675   17.110731
  H     14.527809   13.703301   16.895121
  H     14.134922   14.777606   15.532477
  H     15.150541   16.705558   16.760768
  H     15.559763   15.635150   18.129189
  H     16.587966   17.877322   15.166281
  H     17.183211   19.510479   15.446930
  H     15.638473   19.000770   16.154332
  H     17.156162   20.155209   17.929037
  H     19.518934   17.907218   20.293228
  H     19.736819   16.366054   18.327678
  H     19.297126   14.041858   18.591321
  H     18.245623   12.213430   19.901064
  H     16.432457   12.741632   21.534706
  H     15.241556   14.331556   22.460355
  H     16.734360   16.914816   20.555079

 Total Charge           Charge          ....    0
 Multiplicity           Mult            ....    1
 Number of Electrons    NEL             ....  154
 Basis Dimension        Dim             ....  828

ORBITAL ENERGIES
----------------

  NO   OCC          E(Eh)            E(eV)
   0   2.0000     -91.889846     -2500.4498
   1   2.0000     -20.601561      -560.5970
   2   2.0000     -20.599980      -560.5540
   3   2.0000     -20.551286      -559.2289
   4   2.0000     -15.626190      -425.2102
   5   2.0000     -15.611862      -424.8204
   6   2.0000     -11.397796      -310.1498
   7   2.0000     -11.386774      -309.8499
   8   2.0000     -11.328120      -308.2538
   9   2.0000     -11.316966      -307.9503
  10   2.0000     -11.316066      -307.9258
  11   2.0000     -11.302170      -307.5477
  12   2.0000     -11.270881      -306.6963
  13   2.0000     -11.265168      -306.5408
  14   2.0000     -11.264177      -306.5139
  15   2.0000     -11.257077      -306.3206
  16   2.0000     -11.246173      -306.0239
  17   2.0000     -11.242224      -305.9165
  18   2.0000     -11.239270      -305.8361
  19   2.0000     -11.232738      -305.6583
  20   2.0000      -8.894969      -242.0444
  21   2.0000      -6.576559      -178.9573
  22   2.0000      -6.574530      -178.9021
  23   2.0000      -6.573958      -178.8865
  24   2.0000      -1.449565       -39.4447
  25   2.0000      -1.419810       -38.6350
  26   2.0000      -1.360402       -37.0184
  27   2.0000      -1.339903       -36.4606
  28   2.0000      -1.239949       -33.7407
  29   2.0000      -1.161555       -31.6075
  30   2.0000      -1.125886       -30.6369
  31   2.0000      -1.049481       -28.5578
  32   2.0000      -1.040418       -28.3112
  33   2.0000      -1.019329       -27.7374
  34   2.0000      -1.005542       -27.3622
  35   2.0000      -0.989477       -26.9250
  36   2.0000      -0.928250       -25.2590
  37   2.0000      -0.880556       -23.9612
  38   2.0000      -0.855912       -23.2906
  39   2.0000      -0.842094       -22.9145
  40   2.0000      -0.837516       -22.7900
  41   2.0000      -0.836713       -22.7681
  42   2.0000      -0.757316       -20.6076
  43   2.0000      -0.739712       -20.1286
  44   2.0000      -0.732100       -19.9215
  45   2.0000      -0.697631       -18.9835
  46   2.0000      -0.688477       -18.7344
  47   2.0000      -0.681317       -18.5396
  48   2.0000      -0.677734       -18.4421
  49   2.0000      -0.664515       -18.0824
  50   2.0000      -0.655935       -17.8489
  51   2.0000      -0.651349       -17.7241
  52   2.0000      -0.639743       -17.4083
  53   2.0000      -0.612531       -16.6678
  54   2.0000      -0.608052       -16.5459
  55   2.0000      -0.603810       -16.4305
  56   2.0000      -0.595138       -16.1945
  57   2.0000      -0.583994       -15.8913
  58   2.0000      -0.577713       -15.7204
  59   2.0000      -0.572150       -15.5690
  60   2.0000      -0.564520       -15.3614
  61   2.0000      -0.558163       -15.1884
  62   2.0000      -0.552175       -15.0254
  63   2.0000      -0.526771       -14.3342
  64   2.0000      -0.520434       -14.1617
  65   2.0000      -0.515388       -14.0244
  66   2.0000      -0.506604       -13.7854
  67   2.0000      -0.502614       -13.6768
  68   2.0000      -0.488121       -13.2824
  69   2.0000      -0.469356       -12.7718
  70   2.0000      -0.453844       -12.3497
  71   2.0000      -0.450952       -12.2710
  72   2.0000      -0.357339        -9.7237
  73   2.0000      -0.351706        -9.5704
  74   2.0000      -0.329578        -8.9683
  75   2.0000      -0.324793        -8.8381
  76   2.0000      -0.318533        -8.6677
  77   0.0000       0.088019         2.3951
  78   0.0000       0.104530         2.8444
  79   0.0000       0.111588         3.0365
  80   0.0000       0.128455         3.4954
  81   0.0000       0.130295         3.5455

MULLIKEN ATOMIC CHARGES
-----------------------
   0 C :   -0.261631
   1 C :    0.022039
   2 O :   -0.303178
   3 C :    0.388187
   4 O :   -0.380242
   5 C :   -0.173074
   6 C :    0.134505
   7 C :   -0.325967
   8 N :   -0.139780
   9 C :    0.205600
  10 S :   -0.441615
  11 N :   -0.220421
  12 C :    0.075531
  13 C :    0.022895
  14 C :   -0.196958
  15 C :   -0.132697
  16 C :   -0.274277
  17 C :    0.324757
  18 O :   -0.358211
  19 C :   -0.288395
  20 H :    0.088815
  21 H :    0.107203
  22 H :    0.099810
  23 H :    0.081389
  24 H :    0.113903
  25 H :    0.121553
  26 H :    0.143344
  27 H :    0.118911
  28 H :    0.195360
  29 H :    0.200347
  30 H :    0.166063
  31 H :    0.168833
  32 H :    0.164111
  33 H :    0.132656
  34 H :    0.241504
  35 H :    0.179133
Sum of atomic charges:   -0.0000000

LOEWDIN ATOMIC CHARGES
----------------------
   0 C :    0.111861
   1 C :   -0.025250
   2 O :    0.310393
   3 C :   -0.416826
   4 O :    0.125289
   5 C :   -0.079532
   6 C :   -0.105969
   7 C :    0.122096
   8 N :    0.401041
   9 C :   -0.455644
  10 S :   -0.038332
  11 N :    0.397416
  12 C :   -0.043215
  13 C :   -0.043359
  14 C :    0.022981
  15 C :    0.046132
  16 C :   -0.000264
  17 C :   -0.194444
  18 O :    0.394984
  19 C :    0.025943
  20 H :   -0.025210
  21 H :   -0.022973
  22 H :   -0.026273
  23 H :   -0.038591
  24 H :   -0.031120
  25 H :   -0.009171
  26 H :   -0.008762
  27 H :   -0.017696
  28 H :   -0.058015
  29 H :   -0.063714
  30 H :   -0.002019
  31 H :   -0.021567
  32 H :   -0.018182
  33 H :   -0.034573
  34 H :   -0.152891
  35 H :   -0.024540

  Mayer bond orders larger than 0.100000
B(  0-C ,  1-C ) :   0.9855 B(  0-C , 20-H ) :   0.9770 B(  0-C , 21-H ) :   0.9793
B(  0-C , 22-H ) :   0.9786 B(  1-C ,  2-O ) :   0.9130 B(  1-C , 23-H ) :   0.9710
B(  1-C , 24-H ) :   0.9602 B(  2-O ,  3-C ) :   1.1807 B(  3-C ,  4-O ) :   2.0937
B(  3-C ,  5-C ) :   0.9186 B(  5-C ,  6-C ) :   1.6906 B(  5-C , 12-C ) :   0.9594
B(  6-C ,  7-C ) :   0.9434 B(  6-C ,  8-N ) :   1.1154 B(  7-C , 25-H ) :   0.9822
B(  7-C , 26-H ) :   0.9664 B(  7-C , 27-H ) :   0.9680 B(  8-N ,  9-C ) :   1.1984
B(  8-N , 28-H ) :   0.9529 B(  9-C , 10-S ) :   1.6094 B(  9-C , 11-N ) :   1.2863
B( 11-N , 12-C ) :   0.9930 B( 11-N , 29-H ) :   0.9479 B( 12-C , 13-C ) :   0.9442
B( 12-C , 30-H ) :   0.9972 B( 13-C , 14-C ) :   1.3873 B( 13-C , 19-C ) :   1.3427
B( 14-C , 15-C ) :   1.3982 B( 14-C , 31-H ) :   0.9612 B( 15-C , 16-C ) :   1.3627
B( 15-C , 32-H ) :   0.9697 B( 16-C , 17-C ) :   1.3303 B( 16-C , 33-H ) :   0.9843
B( 17-C , 18-O ) :   1.1087 B( 17-C , 19-C ) :   1.3625 B( 18-O , 34-H ) :   0.9792
B( 19-C , 35-H ) :   0.9586

MP2 TOTAL ENERGY:    -1274.331211310 Eh
FINAL SINGLE POINT ENERGY     -1274.331211310037

DIPOLE MOMENT
-------------
                                X             Y             Z
Electronic contribution:     11.67000       7.22421       7.19076
Nuclear contribution   :    -13.27300      -8.21623      -7.57389
                        -----------------------------------------
Total Dipole Moment    :     -1.60300      -0.99202      -0.38314
                        -----------------------------------------
Magnitude (a.u.)       :      1.92367
Magnitude (Debye)      :      4.88959

Rotational constants in cm-1:     0.011798     0.009089     0.006702
Rotational constants in MHz :   353.695620   272.490069   200.913859

                             ****ORCA TERMINATED NORMALLY****
TOTAL RUN TIME: 0 days 2 hours 11 minutes 1 seconds 764 msec
