                         Program Version 5.0.0 -  RELEASE  -
|  1> ! ri-mp2 cc-pvtz cc-pvtz/c TightSCF NoKeepInts
|  2>
|  3> %scf
|  4>   MaxCore 4096
|  5> end
|  6> *xyz  0  1
|  7>     C       15.3118628   14.1457689   16.8728058
|  8>     C       15.4864643   15.0142326   15.6040268
|  9>     O       16.4837726   16.0514393   15.7579839
| 10>     C       17.5939760   15.9013784   16.5393625
| 11>     O       18.2026831   14.8470330   16.6154143
| 12>     C       17.8562692   17.0512316   17.4671173
| 13>     C       17.3987006   18.3174405   17.2875343
| 14>     C       16.5818907   18.8569446   16.1315147
| 15>     N       17.7368523   19.3145134   18.2083499
| 16>     C       18.6166887   19.1583345   19.2467639
| 17>     S       19.0421692   20.4218398   20.2255910
| 18>     N       19.1252846   17.8980912   19.4338169
| 19>     C       18.6916694   16.6940992   18.7004869
| 20>     C       17.9152106   15.7547954   19.6198494
| 21>     C       18.3072173   14.4109584   19.7622197
| 22>     C       17.5835758   13.5373655   20.5909950
| 23>     C       16.4565582   14.0104033   21.2842290
| 24>     C       16.0604670   15.3471571   21.1424541
| 25>     O       14.9672605   15.8047441   21.8032184
| 26>     C       16.7824280   16.2141601   20.3163923
| 27>     H       16.1567665   13.4614029   17.0170977
| 28>     H       14.4076343   13.5314214   16.7874497
| 29>     H       15.2112963   14.7715974   17.7687482
| 30>     H       15.7758517   14.3570229   14.7734284
| 31>     H       14.5271221   15.4778893   15.3410798
| 32>     H       15.5492091   18.4903310   16.1829973
| 33>     H       17.0064539   18.5377561   15.1714075
| 34>     H       16.5445228   19.9529542   16.1158948
| 35>     H       17.3743391   20.2468663   18.0887756
| 36>     H       19.7476520   17.8028017   20.2259814
| 37>     H       19.5949992   16.1712564   18.3541031
| 38>     H       19.1663215   14.0374401   19.2101198
| 39>     H       17.8938471   12.4984157   20.6869031
| 40>     H       15.8934033   13.3383907   21.9231485
| 41>     H       14.6376231   15.0794992   22.3548388
| 42>     H       16.4589573   17.2450237   20.2219003
| 43> *
| 44>
| 45>                          ****END OF INPUT****

CARTESIAN COORDINATES (ANGSTROEM)
---------------------------------
  C     15.311863   14.145769   16.872806
  C     15.486464   15.014233   15.604027
  O     16.483773   16.051439   15.757984
  C     17.593976   15.901378   16.539362
  O     18.202683   14.847033   16.615414
  C     17.856269   17.051232   17.467117
  C     17.398701   18.317440   17.287534
  C     16.581891   18.856945   16.131515
  N     17.736852   19.314513   18.208350
  C     18.616689   19.158334   19.246764
  S     19.042169   20.421840   20.225591
  N     19.125285   17.898091   19.433817
  C     18.691669   16.694099   18.700487
  C     17.915211   15.754795   19.619849
  C     18.307217   14.410958   19.762220
  C     17.583576   13.537365   20.590995
  C     16.456558   14.010403   21.284229
  C     16.060467   15.347157   21.142454
  O     14.967261   15.804744   21.803218
  C     16.782428   16.214160   20.316392
  H     16.156766   13.461403   17.017098
  H     14.407634   13.531421   16.787450
  H     15.211296   14.771597   17.768748
  H     15.775852   14.357023   14.773428
  H     14.527122   15.477889   15.341080
  H     15.549209   18.490331   16.182997
  H     17.006454   18.537756   15.171408
  H     16.544523   19.952954   16.115895
  H     17.374339   20.246866   18.088776
  H     19.747652   17.802802   20.225981
  H     19.594999   16.171256   18.354103
  H     19.166321   14.037440   19.210120
  H     17.893847   12.498416   20.686903
  H     15.893403   13.338391   21.923148
  H     14.637623   15.079499   22.354839
  H     16.458957   17.245024   20.221900

 Total Charge           Charge          ....    0
 Multiplicity           Mult            ....    1
 Number of Electrons    NEL             ....  154
 Basis Dimension        Dim             ....  828

ORBITAL ENERGIES
----------------

  NO   OCC          E(Eh)            E(eV)
   0   2.0000     -91.888341     -2500.4089
   1   2.0000     -20.594182      -560.3962
   2   2.0000     -20.593062      -560.3657
   3   2.0000     -20.547771      -559.1333
   4   2.0000     -15.628275      -425.2670
   5   2.0000     -15.607408      -424.6992
   6   2.0000     -11.395910      -310.0985
   7   2.0000     -11.383472      -309.7600
   8   2.0000     -11.335254      -308.4479
   9   2.0000     -11.310198      -307.7661
  10   2.0000     -11.306540      -307.6666
  11   2.0000     -11.304080      -307.5997
  12   2.0000     -11.259690      -306.3918
  13   2.0000     -11.258697      -306.3647
  14   2.0000     -11.255640      -306.2815
  15   2.0000     -11.250287      -306.1359
  16   2.0000     -11.239987      -305.8556
  17   2.0000     -11.235900      -305.7444
  18   2.0000     -11.232834      -305.6609
  19   2.0000     -11.224808      -305.4426
  20   2.0000      -8.893409      -242.0020
  21   2.0000      -6.574987      -178.9145
  22   2.0000      -6.572979      -178.8599
  23   2.0000      -6.572394      -178.8439
  24   2.0000      -1.448085       -39.4044
  25   2.0000      -1.413977       -38.4763
  26   2.0000      -1.355330       -36.8804
  27   2.0000      -1.339323       -36.4448
  28   2.0000      -1.237305       -33.6688
  29   2.0000      -1.154513       -31.4159
  30   2.0000      -1.120090       -30.4792
  31   2.0000      -1.042739       -28.3744
  32   2.0000      -1.032136       -28.0859
  33   2.0000      -1.011894       -27.5350
  34   2.0000      -0.998366       -27.1669
  35   2.0000      -0.983872       -26.7725
  36   2.0000      -0.922624       -25.1059
  37   2.0000      -0.896388       -24.3920
  38   2.0000      -0.848139       -23.0790
  39   2.0000      -0.836918       -22.7737
  40   2.0000      -0.830392       -22.5961
  41   2.0000      -0.816964       -22.2307
  42   2.0000      -0.744700       -20.2643
  43   2.0000      -0.731802       -19.9133
  44   2.0000      -0.726390       -19.7661
  45   2.0000      -0.692115       -18.8334
  46   2.0000      -0.685397       -18.6506
  47   2.0000      -0.676808       -18.4169
  48   2.0000      -0.672097       -18.2887
  49   2.0000      -0.659473       -17.9452
  50   2.0000      -0.652742       -17.7620
  51   2.0000      -0.644934       -17.5495
  52   2.0000      -0.633323       -17.2336
  53   2.0000      -0.619969       -16.8702
  54   2.0000      -0.602470       -16.3941
  55   2.0000      -0.601145       -16.3580
  56   2.0000      -0.597801       -16.2670
  57   2.0000      -0.577457       -15.7134
  58   2.0000      -0.574992       -15.6463
  59   2.0000      -0.564014       -15.3476
  60   2.0000      -0.553619       -15.0647
  61   2.0000      -0.545131       -14.8338
  62   2.0000      -0.536370       -14.5954
  63   2.0000      -0.526027       -14.3139
  64   2.0000      -0.518264       -14.1027
  65   2.0000      -0.509938       -13.8761
  66   2.0000      -0.500747       -13.6260
  67   2.0000      -0.496106       -13.4997
  68   2.0000      -0.479529       -13.0487
  69   2.0000      -0.464019       -12.6266
  70   2.0000      -0.456997       -12.4355
  71   2.0000      -0.449487       -12.2312
  72   2.0000      -0.353823        -9.6280
  73   2.0000      -0.346274        -9.4226
  74   2.0000      -0.327579        -8.9139
  75   2.0000      -0.317387        -8.6366
  76   2.0000      -0.315145        -8.5755
  77   0.0000       0.074552         2.0287
  78   0.0000       0.109253         2.9729
  79   0.0000       0.121086         3.2949
  80   0.0000       0.133469         3.6319
  81   0.0000       0.141287         3.8446

MULLIKEN ATOMIC CHARGES
-----------------------
   0 C :   -0.324027
   1 C :    0.057039
   2 O :   -0.369655
   3 C :    0.454826
   4 O :   -0.419969
   5 C :   -0.184323
   6 C :    0.143008
   7 C :   -0.281911
   8 N :   -0.122736
   9 C :    0.203132
  10 S :   -0.439699
  11 N :   -0.201270
  12 C :    0.050087
  13 C :    0.047923
  14 C :   -0.163816
  15 C :   -0.135184
  16 C :   -0.277349
  17 C :    0.314006
  18 O :   -0.360220
  19 C :   -0.279322
  20 H :    0.128095
  21 H :    0.103361
  22 H :    0.103788
  23 H :    0.099526
  24 H :    0.099799
  25 H :    0.124013
  26 H :    0.128070
  27 H :    0.102508
  28 H :    0.196903
  29 H :    0.194380
  30 H :    0.154145
  31 H :    0.156936
  32 H :    0.160776
  33 H :    0.129777
  34 H :    0.240430
  35 H :    0.166955
Sum of atomic charges:   -0.0000000

LOEWDIN ATOMIC CHARGES
----------------------
   0 C :    0.105613
   1 C :   -0.011010
   2 O :    0.291701
   3 C :   -0.416162
   4 O :    0.113857
   5 C :   -0.092716
   6 C :   -0.068307
   7 C :    0.125466
   8 N :    0.404578
   9 C :   -0.458142
  10 S :   -0.036304
  11 N :    0.397663
  12 C :   -0.046017
  13 C :   -0.040150
  14 C :    0.022716
  15 C :    0.041235
  16 C :   -0.002327
  17 C :   -0.193766
  18 O :    0.393487
  19 C :    0.027922
  20 H :   -0.024198
  21 H :   -0.026201
  22 H :   -0.026697
  23 H :   -0.028667
  24 H :   -0.026426
  25 H :   -0.010178
  26 H :   -0.007403
  27 H :   -0.020802
  28 H :   -0.059005
  29 H :   -0.063834
  30 H :   -0.005064
  31 H :   -0.024873
  32 H :   -0.020813
  33 H :   -0.035994
  34 H :   -0.154455
  35 H :   -0.024729

  Mayer bond orders larger than 0.100000
B(  0-C ,  1-C ) :   0.9598 B(  0-C , 20-H ) :   0.9713 B(  0-C , 21-H ) :   0.9761
B(  0-C , 22-H ) :   0.9692 B(  1-C ,  2-O ) :   0.8999 B(  1-C , 23-H ) :   0.9843
B(  1-C , 24-H ) :   0.9822 B(  2-O ,  3-C ) :   1.1179 B(  3-C ,  4-O ) :   2.0021
B(  3-C ,  5-C ) :   1.0381 B(  5-C ,  6-C ) :   1.6570 B(  5-C , 12-C ) :   0.9619
B(  6-C ,  7-C ) :   0.9534 B(  6-C ,  8-N ) :   1.1474 B(  7-C , 25-H ) :   0.9643
B(  7-C , 26-H ) :   0.9666 B(  7-C , 27-H ) :   0.9904 B(  8-N ,  9-C ) :   1.1813
B(  8-N , 28-H ) :   0.9490 B(  9-C , 10-S ) :   1.6102 B(  9-C , 11-N ) :   1.3029
B( 11-N , 12-C ) :   0.9920 B( 11-N , 29-H ) :   0.9516 B( 12-C , 13-C ) :   0.9446
B( 12-C , 30-H ) :   0.9996 B( 13-C , 14-C ) :   1.3784 B( 13-C , 19-C ) :   1.3662
B( 14-C , 15-C ) :   1.3934 B( 14-C , 31-H ) :   0.9632 B( 15-C , 16-C ) :   1.3622
B( 15-C , 32-H ) :   0.9709 B( 16-C , 17-C ) :   1.3318 B( 16-C , 33-H ) :   0.9852
B( 17-C , 18-O ) :   1.1086 B( 17-C , 19-C ) :   1.3730 B( 18-O , 34-H ) :   0.9802
B( 19-C , 35-H ) :   0.9587

MP2 TOTAL ENERGY:    -1274.338352061 Eh
FINAL SINGLE POINT ENERGY     -1274.338352060895

DIPOLE MOMENT
-------------
                                X             Y             Z
Electronic contribution:      9.86538       9.96758       7.50227
Nuclear contribution   :    -11.38364     -11.24066      -8.37199
                        -----------------------------------------
Total Dipole Moment    :     -1.51826      -1.27308      -0.86972
                        -----------------------------------------
Magnitude (a.u.)       :      2.16385
Magnitude (Debye)      :      5.50008

Rotational constants in cm-1:     0.011659     0.009253     0.006406
Rotational constants in MHz :   349.513900   277.383597   192.059125

                             ****ORCA TERMINATED NORMALLY****
TOTAL RUN TIME: 0 days 2 hours 6 minutes 25 seconds 487 msec
