                         Program Version 5.0.0 -  RELEASE  -
|  1> ! ri-mp2 cc-pvtz cc-pvtz/c TightSCF NoKeepInts
|  2>
|  3> %scf
|  4>   MaxCore 4096
|  5> end
|  6> *xyz  0  1
|  7>     C       15.3622927   14.0074337   16.7003364
|  8>     C       15.4292965   15.0730906   15.5810174
|  9>     O       16.4735794   16.0620397   15.7606452
| 10>     C       17.5645385   15.8903223   16.5658929
| 11>     O       18.1669455   14.8328195   16.6450477
| 12>     C       17.8448843   17.0440299   17.4846005
| 13>     C       17.4002519   18.3148675   17.3024930
| 14>     C       16.5780447   18.8598269   16.1527161
| 15>     N       17.7592325   19.3129134   18.2144833
| 16>     C       18.6498010   19.1533291   19.2430772
| 17>     S       19.1014382   20.4180014   20.2085898
| 18>     N       19.1460899   17.8885865   19.4318050
| 19>     C       18.6876667   16.6851876   18.7128343
| 20>     C       17.9087917   15.7638804   19.6483398
| 21>     C       18.2801166   14.4142936   19.7919379
| 22>     C       17.5556331   13.5577124   20.6375625
| 23>     C       16.4487028   14.0537816   21.3468750
| 24>     C       16.0730508   15.3963133   21.2039587
| 25>     O       14.9994910   15.8763269   21.8808752
| 26>     C       16.7955752   16.2462379   20.3607704
| 27>     H       16.1930620   13.2948119   16.6276196
| 28>     H       14.4326837   13.4318291   16.6175031
| 29>     H       15.3827561   14.4727943   17.6942953
| 30>     H       15.5886235   14.5566834   14.6254264
| 31>     H       14.4631155   15.5895596   15.5157831
| 32>     H       15.5453072   18.4940708   16.2076802
| 33>     H       16.9981304   18.5445772   15.1893246
| 34>     H       16.5409809   19.9559070   16.1417271
| 35>     H       17.4062574   20.2487027   18.0933717
| 36>     H       19.7772018   17.7908849   20.2167204
| 37>     H       19.5802660   16.1472331   18.3617434
| 38>     H       19.1237155   14.0232084   19.2281565
| 39>     H       17.8498281   12.5141717   20.7342979
| 40>     H       15.8851502   13.3950788   21.9991644
| 41>     H       14.6662738   15.1594934   22.4412476
| 42>     H       16.4882249   17.2819995   20.2660805
| 43> *
| 44>
| 45>                          ****END OF INPUT****

CARTESIAN COORDINATES (ANGSTROEM)
---------------------------------
  C     15.362293   14.007434   16.700336
  C     15.429296   15.073091   15.581017
  O     16.473579   16.062040   15.760645
  C     17.564538   15.890322   16.565893
  O     18.166945   14.832819   16.645048
  C     17.844884   17.044030   17.484600
  C     17.400252   18.314867   17.302493
  C     16.578045   18.859827   16.152716
  N     17.759232   19.312913   18.214483
  C     18.649801   19.153329   19.243077
  S     19.101438   20.418001   20.208590
  N     19.146090   17.888586   19.431805
  C     18.687667   16.685188   18.712834
  C     17.908792   15.763880   19.648340
  C     18.280117   14.414294   19.791938
  C     17.555633   13.557712   20.637563
  C     16.448703   14.053782   21.346875
  C     16.073051   15.396313   21.203959
  O     14.999491   15.876327   21.880875
  C     16.795575   16.246238   20.360770
  H     16.193062   13.294812   16.627620
  H     14.432684   13.431829   16.617503
  H     15.382756   14.472794   17.694295
  H     15.588623   14.556683   14.625426
  H     14.463116   15.589560   15.515783
  H     15.545307   18.494071   16.207680
  H     16.998130   18.544577   15.189325
  H     16.540981   19.955907   16.141727
  H     17.406257   20.248703   18.093372
  H     19.777202   17.790885   20.216720
  H     19.580266   16.147233   18.361743
  H     19.123715   14.023208   19.228157
  H     17.849828   12.514172   20.734298
  H     15.885150   13.395079   21.999164
  H     14.666274   15.159493   22.441248
  H     16.488225   17.281999   20.266081

 Total Charge           Charge          ....    0
 Multiplicity           Mult            ....    1
 Number of Electrons    NEL             ....  154
 Basis Dimension        Dim             ....  828

ORBITAL ENERGIES
----------------

  NO   OCC          E(Eh)            E(eV)
   0   2.0000     -91.888185     -2500.4046
   1   2.0000     -20.593902      -560.3886
   2   2.0000     -20.592998      -560.3640
   3   2.0000     -20.547296      -559.1203
   4   2.0000     -15.628157      -425.2638
   5   2.0000     -15.607173      -424.6928
   6   2.0000     -11.396315      -310.1095
   7   2.0000     -11.383253      -309.7541
   8   2.0000     -11.335323      -308.4498
   9   2.0000     -11.309956      -307.7595
  10   2.0000     -11.306120      -307.6552
  11   2.0000     -11.305533      -307.6392
  12   2.0000     -11.259553      -306.3880
  13   2.0000     -11.258607      -306.3623
  14   2.0000     -11.255390      -306.2747
  15   2.0000     -11.249937      -306.1263
  16   2.0000     -11.239704      -305.8479
  17   2.0000     -11.235723      -305.7396
  18   2.0000     -11.232479      -305.6513
  19   2.0000     -11.225714      -305.4672
  20   2.0000      -8.893256      -241.9978
  21   2.0000      -6.574835      -178.9104
  22   2.0000      -6.572826      -178.8557
  23   2.0000      -6.572242      -178.8398
  24   2.0000      -1.446627       -39.3647
  25   2.0000      -1.413688       -38.4684
  26   2.0000      -1.355268       -36.8787
  27   2.0000      -1.339209       -36.4417
  28   2.0000      -1.237135       -33.6642
  29   2.0000      -1.154189       -31.4071
  30   2.0000      -1.119711       -30.4689
  31   2.0000      -1.042575       -28.3699
  32   2.0000      -1.032941       -28.1077
  33   2.0000      -1.011608       -27.5273
  34   2.0000      -0.998182       -27.1619
  35   2.0000      -0.983583       -26.7647
  36   2.0000      -0.922421       -25.1003
  37   2.0000      -0.896905       -24.4060
  38   2.0000      -0.848176       -23.0800
  39   2.0000      -0.836831       -22.7713
  40   2.0000      -0.830084       -22.5877
  41   2.0000      -0.817631       -22.2489
  42   2.0000      -0.743533       -20.2326
  43   2.0000      -0.729596       -19.8533
  44   2.0000      -0.725989       -19.7552
  45   2.0000      -0.691719       -18.8226
  46   2.0000      -0.685082       -18.6420
  47   2.0000      -0.676473       -18.4078
  48   2.0000      -0.672758       -18.3067
  49   2.0000      -0.661811       -18.0088
  50   2.0000      -0.651165       -17.7191
  51   2.0000      -0.644710       -17.5435
  52   2.0000      -0.633709       -17.2441
  53   2.0000      -0.619880       -16.8678
  54   2.0000      -0.602272       -16.3887
  55   2.0000      -0.600899       -16.3513
  56   2.0000      -0.597476       -16.2581
  57   2.0000      -0.576748       -15.6941
  58   2.0000      -0.574720       -15.6389
  59   2.0000      -0.564311       -15.3557
  60   2.0000      -0.553737       -15.0679
  61   2.0000      -0.544666       -14.8211
  62   2.0000      -0.537082       -14.6148
  63   2.0000      -0.525139       -14.2898
  64   2.0000      -0.517690       -14.0871
  65   2.0000      -0.510452       -13.8901
  66   2.0000      -0.501310       -13.6413
  67   2.0000      -0.496119       -13.5001
  68   2.0000      -0.479320       -13.0430
  69   2.0000      -0.463662       -12.6169
  70   2.0000      -0.456269       -12.4157
  71   2.0000      -0.449025       -12.2186
  72   2.0000      -0.353722        -9.6253
  73   2.0000      -0.346048        -9.4165
  74   2.0000      -0.327433        -8.9099
  75   2.0000      -0.317094        -8.6286
  76   2.0000      -0.314971        -8.5708
  77   0.0000       0.074744         2.0339
  78   0.0000       0.109921         2.9911
  79   0.0000       0.121376         3.3028
  80   0.0000       0.133843         3.6421
  81   0.0000       0.140508         3.8234

MULLIKEN ATOMIC CHARGES
-----------------------
   0 C :   -0.318181
   1 C :    0.059755
   2 O :   -0.367990
   3 C :    0.447769
   4 O :   -0.416058
   5 C :   -0.181633
   6 C :    0.142166
   7 C :   -0.282003
   8 N :   -0.122491
   9 C :    0.202594
  10 S :   -0.439816
  11 N :   -0.201018
  12 C :    0.049516
  13 C :    0.042789
  14 C :   -0.162747
  15 C :   -0.134678
  16 C :   -0.278408
  17 C :    0.310475
  18 O :   -0.359290
  19 C :   -0.271845
  20 H :    0.125482
  21 H :    0.101743
  22 H :    0.108244
  23 H :    0.097761
  24 H :    0.093897
  25 H :    0.123706
  26 H :    0.128690
  27 H :    0.102597
  28 H :    0.196870
  29 H :    0.194356
  30 H :    0.154467
  31 H :    0.156645
  32 H :    0.160142
  33 H :    0.129618
  34 H :    0.240356
  35 H :    0.166521
Sum of atomic charges:    0.0000000

LOEWDIN ATOMIC CHARGES
----------------------
   0 C :    0.105592
   1 C :   -0.009328
   2 O :    0.290463
   3 C :   -0.416627
   4 O :    0.115332
   5 C :   -0.092777
   6 C :   -0.067751
   7 C :    0.125267
   8 N :    0.404592
   9 C :   -0.458410
  10 S :   -0.036420
  11 N :    0.397711
  12 C :   -0.046209
  13 C :   -0.040410
  14 C :    0.022416
  15 C :    0.040915
  16 C :   -0.002581
  17 C :   -0.193866
  18 O :    0.393411
  19 C :    0.027470
  20 H :   -0.023860
  21 H :   -0.026174
  22 H :   -0.025034
  23 H :   -0.028358
  24 H :   -0.027970
  25 H :   -0.010292
  26 H :   -0.007316
  27 H :   -0.020903
  28 H :   -0.059093
  29 H :   -0.063819
  30 H :   -0.005129
  31 H :   -0.024803
  32 H :   -0.020841
  33 H :   -0.036044
  34 H :   -0.154541
  35 H :   -0.024611

  Mayer bond orders larger than 0.100000
B(  0-C ,  1-C ) :   0.9641 B(  0-C , 20-H ) :   0.9719 B(  0-C , 21-H ) :   0.9749
B(  0-C , 22-H ) :   0.9687 B(  1-C ,  2-O ) :   0.9014 B(  1-C , 23-H ) :   0.9832
B(  1-C , 24-H ) :   0.9806 B(  2-O ,  3-C ) :   1.1225 B(  3-C ,  4-O ) :   2.0044
B(  3-C ,  5-C ) :   1.0332 B(  5-C ,  6-C ) :   1.6575 B(  5-C , 12-C ) :   0.9612
B(  6-C ,  7-C ) :   0.9534 B(  6-C ,  8-N ) :   1.1475 B(  7-C , 25-H ) :   0.9649
B(  7-C , 26-H ) :   0.9661 B(  7-C , 27-H ) :   0.9906 B(  8-N ,  9-C ) :   1.1810
B(  8-N , 28-H ) :   0.9489 B(  9-C , 10-S ) :   1.6100 B(  9-C , 11-N ) :   1.3032
B( 11-N , 12-C ) :   0.9917 B( 11-N , 29-H ) :   0.9517 B( 12-C , 13-C ) :   0.9445
B( 12-C , 30-H ) :   0.9998 B( 13-C , 14-C ) :   1.3793 B( 13-C , 19-C ) :   1.3683
B( 14-C , 15-C ) :   1.3945 B( 14-C , 31-H ) :   0.9632 B( 15-C , 16-C ) :   1.3618
B( 15-C , 32-H ) :   0.9711 B( 16-C , 17-C ) :   1.3315 B( 16-C , 33-H ) :   0.9853
B( 17-C , 18-O ) :   1.1093 B( 17-C , 19-C ) :   1.3756 B( 18-O , 34-H ) :   0.9803
B( 19-C , 35-H ) :   0.9582

MP2 TOTAL ENERGY:    -1274.336592632 Eh
FINAL SINGLE POINT ENERGY     -1274.336592632313

DIPOLE MOMENT
-------------
                                X             Y             Z
Electronic contribution:      9.92415      10.12971       7.89047
Nuclear contribution   :    -11.48480     -11.39745      -8.77198
                        -----------------------------------------
Total Dipole Moment    :     -1.56065      -1.26774      -0.88151
                        -----------------------------------------
Magnitude (a.u.)       :      2.19542
Magnitude (Debye)      :      5.58031

Rotational constants in cm-1:     0.011506     0.009226     0.006329
Rotational constants in MHz :   344.945952   276.575841   189.740217

                             ****ORCA TERMINATED NORMALLY****
TOTAL RUN TIME: 0 days 2 hours 17 minutes 55 seconds 640 msec
