                         Program Version 5.0.0 -  RELEASE  -
|  1> ! ri-mp2 cc-pvtz cc-pvtz/c TightSCF NoKeepInts
|  2>
|  3> %scf
|  4>   MaxCore 4096
|  5> end
|  6> *xyz  0  1
|  7>     C       15.1680139   14.1096272   15.2677927
|  8>     C       15.9602287   14.0289076   16.5909111
|  9>     O       16.9338528   15.0883155   16.7393347
| 10>     C       16.6492508   16.4250524   16.6252491
| 11>     O       15.6913397   16.8610097   16.0123662
| 12>     C       17.5016914   17.2614610   17.5418995
| 13>     C       17.4131073   18.6157661   17.5846982
| 14>     C       16.4977899   19.5029353   16.7678109
| 15>     N       18.2556644   19.3480555   18.4265547
| 16>     C       19.2779150   18.8179465   19.1671786
| 17>     S       20.2934486   19.7674366   20.0633650
| 18>     N       19.4207032   17.4547905   19.1249259
| 19>     C       18.4906967   16.5234557   18.4609212
| 20>     C       17.7739769   15.6790723   19.5112904
| 21>     C       18.0525105   14.3044954   19.6319776
| 22>     C       17.3905924   13.5224664   20.5934666
| 23>     C       16.4447549   14.1200251   21.4439090
| 24>     C       16.1691120   15.4896388   21.3303544
| 25>     O       15.2578117   16.0697672   22.1512780
| 26>     C       16.8288599   16.2650675   20.3719910
| 27>     H       14.3761161   14.8666264   15.3188324
| 28>     H       14.6859360   13.1478442   15.0558015
| 29>     H       15.8318065   14.3507404   14.4282622
| 30>     H       15.2558510   14.0558261   17.4329522
| 31>     H       16.4860464   13.0665477   16.6320685
| 32>     H       15.4470805   19.2944652   17.0072057
| 33>     H       16.6320697   19.3140326   15.6951763
| 34>     H       16.6713409   20.5718947   16.9380217
| 35>     H       18.1659821   20.3506306   18.4691864
| 36>     H       20.1599074   17.0900654   19.7117109
| 37>     H       19.0941968   15.8551096   17.8307849
| 38>     H       18.7807930   13.8395794   18.9728811
| 39>     H       17.6122171   12.4600360   20.6786273
| 40>     H       15.9317737   13.5208087   22.1889926
| 41>     H       14.9385571   15.3880109   22.7612465
| 42>     H       16.6060053   17.3244898   20.3049750
| 43> *
| 44>
| 45>                          ****END OF INPUT****

CARTESIAN COORDINATES (ANGSTROEM)
---------------------------------
  C     15.168014   14.109627   15.267793
  C     15.960229   14.028908   16.590911
  O     16.933853   15.088315   16.739335
  C     16.649251   16.425052   16.625249
  O     15.691340   16.861010   16.012366
  C     17.501691   17.261461   17.541899
  C     17.413107   18.615766   17.584698
  C     16.497790   19.502935   16.767811
  N     18.255664   19.348056   18.426555
  C     19.277915   18.817947   19.167179
  S     20.293449   19.767437   20.063365
  N     19.420703   17.454791   19.124926
  C     18.490697   16.523456   18.460921
  C     17.773977   15.679072   19.511290
  C     18.052510   14.304495   19.631978
  C     17.390592   13.522466   20.593467
  C     16.444755   14.120025   21.443909
  C     16.169112   15.489639   21.330354
  O     15.257812   16.069767   22.151278
  C     16.828860   16.265068   20.371991
  H     14.376116   14.866626   15.318832
  H     14.685936   13.147844   15.055801
  H     15.831807   14.350740   14.428262
  H     15.255851   14.055826   17.432952
  H     16.486046   13.066548   16.632068
  H     15.447080   19.294465   17.007206
  H     16.632070   19.314033   15.695176
  H     16.671341   20.571895   16.938022
  H     18.165982   20.350631   18.469186
  H     20.159907   17.090065   19.711711
  H     19.094197   15.855110   17.830785
  H     18.780793   13.839579   18.972881
  H     17.612217   12.460036   20.678627
  H     15.931774   13.520809   22.188993
  H     14.938557   15.388011   22.761246
  H     16.606005   17.324490   20.304975

 Total Charge           Charge          ....    0
 Multiplicity           Mult            ....    1
 Number of Electrons    NEL             ....  154
 Basis Dimension        Dim             ....  828

ORBITAL ENERGIES
----------------

  NO   OCC          E(Eh)            E(eV)
   0   2.0000     -91.888304     -2500.4079
   1   2.0000     -20.596726      -560.4654
   2   2.0000     -20.596189      -560.4508
   3   2.0000     -20.542537      -558.9908
   4   2.0000     -15.628389      -425.2701
   5   2.0000     -15.607576      -424.7037
   6   2.0000     -11.396852      -310.1241
   7   2.0000     -11.383331      -309.7562
   8   2.0000     -11.334975      -308.4404
   9   2.0000     -11.313925      -307.8675
  10   2.0000     -11.308298      -307.7144
  11   2.0000     -11.300926      -307.5138
  12   2.0000     -11.259647      -306.3906
  13   2.0000     -11.258253      -306.3526
  14   2.0000     -11.255421      -306.2756
  15   2.0000     -11.251692      -306.1741
  16   2.0000     -11.243018      -305.9381
  17   2.0000     -11.238269      -305.8089
  18   2.0000     -11.238069      -305.8034
  19   2.0000     -11.219668      -305.3027
  20   2.0000      -8.893373      -242.0010
  21   2.0000      -6.574950      -178.9135
  22   2.0000      -6.572944      -178.8589
  23   2.0000      -6.572358      -178.8430
  24   2.0000      -1.445512       -39.3344
  25   2.0000      -1.416367       -38.5413
  26   2.0000      -1.354982       -36.8709
  27   2.0000      -1.339457       -36.4485
  28   2.0000      -1.237937       -33.6860
  29   2.0000      -1.157366       -31.4935
  30   2.0000      -1.119349       -30.4590
  31   2.0000      -1.042232       -28.3606
  32   2.0000      -1.034674       -28.1549
  33   2.0000      -1.015088       -27.6219
  34   2.0000      -0.994616       -27.0649
  35   2.0000      -0.983046       -26.7500
  36   2.0000      -0.922038       -25.0899
  37   2.0000      -0.894047       -24.3282
  38   2.0000      -0.846857       -23.0441
  39   2.0000      -0.837910       -22.8007
  40   2.0000      -0.833999       -22.6943
  41   2.0000      -0.819451       -22.2984
  42   2.0000      -0.749112       -20.3844
  43   2.0000      -0.730836       -19.8871
  44   2.0000      -0.719676       -19.5834
  45   2.0000      -0.695638       -18.9293
  46   2.0000      -0.687991       -18.7212
  47   2.0000      -0.679499       -18.4901
  48   2.0000      -0.668671       -18.1955
  49   2.0000      -0.655793       -17.8450
  50   2.0000      -0.650416       -17.6987
  51   2.0000      -0.644951       -17.5500
  52   2.0000      -0.634123       -17.2554
  53   2.0000      -0.607033       -16.5182
  54   2.0000      -0.601303       -16.3623
  55   2.0000      -0.598665       -16.2905
  56   2.0000      -0.597068       -16.2471
  57   2.0000      -0.582604       -15.8535
  58   2.0000      -0.574993       -15.6464
  59   2.0000      -0.570462       -15.5230
  60   2.0000      -0.562366       -15.3027
  61   2.0000      -0.538515       -14.6537
  62   2.0000      -0.535139       -14.5619
  63   2.0000      -0.524740       -14.2789
  64   2.0000      -0.520208       -14.1556
  65   2.0000      -0.512513       -13.9462
  66   2.0000      -0.501264       -13.6401
  67   2.0000      -0.499019       -13.5790
  68   2.0000      -0.483967       -13.1694
  69   2.0000      -0.463649       -12.6165
  70   2.0000      -0.455098       -12.3838
  71   2.0000      -0.439546       -11.9606
  72   2.0000      -0.353401        -9.6165
  73   2.0000      -0.349328        -9.5057
  74   2.0000      -0.327777        -8.9193
  75   2.0000      -0.321448        -8.7471
  76   2.0000      -0.315536        -8.5862
  77   0.0000       0.075764         2.0616
  78   0.0000       0.106753         2.9049
  79   0.0000       0.124942         3.3998
  80   0.0000       0.132635         3.6092
  81   0.0000       0.137860         3.7514

MULLIKEN ATOMIC CHARGES
-----------------------
   0 C :   -0.286123
   1 C :    0.049249
   2 O :   -0.370763
   3 C :    0.461608
   4 O :   -0.429433
   5 C :   -0.209954
   6 C :    0.149951
   7 C :   -0.272970
   8 N :   -0.120957
   9 C :    0.212723
  10 S :   -0.441126
  11 N :   -0.205155
  12 C :    0.059857
  13 C :    0.064891
  14 C :   -0.189949
  15 C :   -0.130008
  16 C :   -0.280565
  17 C :    0.315841
  18 O :   -0.356300
  19 C :   -0.269210
  20 H :    0.120441
  21 H :    0.093021
  22 H :    0.096416
  23 H :    0.093514
  24 H :    0.099968
  25 H :    0.132339
  26 H :    0.129449
  27 H :    0.095227
  28 H :    0.197213
  29 H :    0.194456
  30 H :    0.149184
  31 H :    0.150241
  32 H :    0.160512
  33 H :    0.130398
  34 H :    0.240718
  35 H :    0.165295
Sum of atomic charges:    0.0000000

LOEWDIN ATOMIC CHARGES
----------------------
   0 C :    0.103178
   1 C :   -0.011734
   2 O :    0.295271
   3 C :   -0.412381
   4 O :    0.109248
   5 C :   -0.094254
   6 C :   -0.059514
   7 C :    0.130754
   8 N :    0.406410
   9 C :   -0.456529
  10 S :   -0.036324
  11 N :    0.396295
  12 C :   -0.052504
  13 C :   -0.037692
  14 C :    0.014122
  15 C :    0.038663
  16 C :   -0.002692
  17 C :   -0.189669
  18 O :    0.395355
  19 C :    0.030983
  20 H :   -0.026655
  21 H :   -0.030146
  22 H :   -0.025909
  23 H :   -0.028421
  24 H :   -0.024716
  25 H :   -0.004850
  26 H :   -0.004426
  27 H :   -0.023488
  28 H :   -0.057713
  29 H :   -0.064779
  30 H :   -0.010820
  31 H :   -0.030331
  32 H :   -0.021415
  33 H :   -0.035692
  34 H :   -0.153906
  35 H :   -0.023718

  Mayer bond orders larger than 0.100000
B(  0-C ,  1-C ) :   0.9773 B(  0-C , 20-H ) :   0.9723 B(  0-C , 21-H ) :   0.9776
B(  0-C , 22-H ) :   0.9759 B(  1-C ,  2-O ) :   0.8918 B(  1-C , 23-H ) :   0.9731
B(  1-C , 24-H ) :   0.9829 B(  2-O ,  3-C ) :   1.1317 B(  3-C ,  4-O ) :   1.9734
B(  3-C ,  5-C ) :   1.0684 B(  5-C ,  6-C ) :   1.6556 B(  5-C , 12-C ) :   0.9740
B(  6-C ,  7-C ) :   0.9673 B(  6-C ,  8-N ) :   1.1617 B(  7-C , 25-H ) :   0.9596
B(  7-C , 26-H ) :   0.9611 B(  7-C , 27-H ) :   0.9909 B(  8-N ,  9-C ) :   1.1832
B(  8-N , 28-H ) :   0.9479 B(  9-C , 10-S ) :   1.6059 B(  9-C , 11-N ) :   1.3059
B( 11-N , 12-C ) :   0.9839 B( 11-N , 29-H ) :   0.9517 B( 12-C , 13-C ) :   0.9355
B( 12-C , 30-H ) :   1.0023 B( 13-C , 14-C ) :   1.3540 B( 13-C , 19-C ) :   1.3841
B( 14-C , 15-C ) :   1.3914 B( 14-C , 31-H ) :   0.9723 B( 15-C , 16-C ) :   1.3636
B( 15-C , 32-H ) :   0.9706 B( 16-C , 17-C ) :   1.3313 B( 16-C , 33-H ) :   0.9849
B( 17-C , 18-O ) :   1.1108 B( 17-C , 19-C ) :   1.3716 B( 18-O , 34-H ) :   0.9798
B( 19-C , 35-H ) :   0.9582

MP2 TOTAL ENERGY:    -1274.339758693 Eh
FINAL SINGLE POINT ENERGY     -1274.339758693495

DIPOLE MOMENT
-------------
                                X             Y             Z
Electronic contribution:     10.30214       9.80186       9.22484
Nuclear contribution   :    -11.35477     -11.51464      -9.52845
                        -----------------------------------------
Total Dipole Moment    :     -1.05264      -1.71278      -0.30361
                        -----------------------------------------
Magnitude (a.u.)       :      2.03318
Magnitude (Debye)      :      5.16794

Rotational constants in cm-1:     0.011525     0.008728     0.006088
Rotational constants in MHz :   345.514677   261.656473   182.517837

                             ****ORCA TERMINATED NORMALLY****
TOTAL RUN TIME: 0 days 2 hours 22 minutes 2 seconds 9 msec
