                         Program Version 5.0.0 -  RELEASE  -
|  1> ! ri-mp2 cc-pvtz cc-pvtz/c TightSCF NoKeepInts
|  2>
|  3> %scf
|  4>   MaxCore 4096
|  5> end
|  6> *xyz  0  1
|  7>     C       14.9761894   15.9697958   17.2734697
|  8>     C       15.7680181   14.6498762   17.1372335
|  9>     O       17.0544717   14.7632359   16.4730851
| 10>     C       17.8597150   15.8619138   16.2946328
| 11>     O       18.4817128   15.9915950   15.2568020
| 12>     C       17.8303431   16.9545312   17.3144513
| 13>     C       17.5138610   18.2194705   16.9511817
| 14>     C       17.0320037   18.6699823   15.5891226
| 15>     N       17.6341364   19.2664217   17.8669705
| 16>     C       18.1318900   19.1392504   19.1362989
| 17>     S       18.2400846   20.4290902   20.1652690
| 18>     N       18.5336784   17.8834869   19.5176467
| 19>     C       18.4401316   16.6601968   18.6959041
| 20>     C       17.7868112   15.5282852   19.4831058
| 21>     C       18.3213538   14.2274326   19.4150662
| 22>     C       17.7460557   13.1767748   20.1492129
| 23>     C       16.6306106   13.4280732   20.9658841
| 24>     C       16.1016010   14.7230536   21.0465298
| 25>     O       15.0229955   14.9691537   21.8311191
| 26>     C       16.6756160   15.7672410   20.3143350
| 27>     H       15.3796925   16.6255797   18.0502332
| 28>     H       13.9403785   15.7472697   17.5575848
| 29>     H       14.9457303   16.5099671   16.3202993
| 30>     H       15.8983222   14.2086699   18.1314287
| 31>     H       15.1586538   13.9387628   16.5647023
| 32>     H       16.4800155   17.8772031   15.0702098
| 33>     H       17.8871321   18.9324437   14.9529702
| 34>     H       16.3696194   19.5416534   15.6504589
| 35>     H       17.3685833   20.1999206   17.5953533
| 36>     H       18.8768128   17.8190601   20.4680199
| 37>     H       19.4751983   16.3435950   18.5021567
| 38>     H       19.1819007   14.0264588   18.7812371
| 39>     H       18.1651562   12.1737915   20.0831893
| 40>     H       16.1832527   12.6189787   21.5343274
| 41>     H       14.8062373   14.1478414   22.2982571
| 42>     H       16.2490349   16.7619438   20.3962512
| 43> *
| 44>
| 45>                          ****END OF INPUT****

CARTESIAN COORDINATES (ANGSTROEM)
---------------------------------
  C     14.976189   15.969796   17.273470
  C     15.768018   14.649876   17.137234
  O     17.054472   14.763236   16.473085
  C     17.859715   15.861914   16.294633
  O     18.481713   15.991595   15.256802
  C     17.830343   16.954531   17.314451
  C     17.513861   18.219470   16.951182
  C     17.032004   18.669982   15.589123
  N     17.634136   19.266422   17.866971
  C     18.131890   19.139250   19.136299
  S     18.240085   20.429090   20.165269
  N     18.533678   17.883487   19.517647
  C     18.440132   16.660197   18.695904
  C     17.786811   15.528285   19.483106
  C     18.321354   14.227433   19.415066
  C     17.746056   13.176775   20.149213
  C     16.630611   13.428073   20.965884
  C     16.101601   14.723054   21.046530
  O     15.022996   14.969154   21.831119
  C     16.675616   15.767241   20.314335
  H     15.379693   16.625580   18.050233
  H     13.940378   15.747270   17.557585
  H     14.945730   16.509967   16.320299
  H     15.898322   14.208670   18.131429
  H     15.158654   13.938763   16.564702
  H     16.480016   17.877203   15.070210
  H     17.887132   18.932444   14.952970
  H     16.369619   19.541653   15.650459
  H     17.368583   20.199921   17.595353
  H     18.876813   17.819060   20.468020
  H     19.475198   16.343595   18.502157
  H     19.181901   14.026459   18.781237
  H     18.165156   12.173792   20.083189
  H     16.183253   12.618979   21.534327
  H     14.806237   14.147841   22.298257
  H     16.249035   16.761944   20.396251

 Total Charge           Charge          ....    0
 Multiplicity           Mult            ....    1
 Number of Electrons    NEL             ....  154
 Basis Dimension        Dim             ....  828

ORBITAL ENERGIES
----------------

  NO   OCC          E(Eh)            E(eV)
   0   2.0000     -91.890109     -2500.4570
   1   2.0000     -20.605541      -560.7053
   2   2.0000     -20.591129      -560.3131
   3   2.0000     -20.549115      -559.1698
   4   2.0000     -15.626081      -425.2073
   5   2.0000     -15.612403      -424.8351
   6   2.0000     -11.396381      -310.1113
   7   2.0000     -11.386369      -309.8388
   8   2.0000     -11.326448      -308.2083
   9   2.0000     -11.323694      -308.1334
  10   2.0000     -11.319586      -308.0216
  11   2.0000     -11.303424      -307.5818
  12   2.0000     -11.271299      -306.7076
  13   2.0000     -11.264514      -306.5230
  14   2.0000     -11.259539      -306.3876
  15   2.0000     -11.256873      -306.3151
  16   2.0000     -11.253573      -306.2253
  17   2.0000     -11.248881      -306.0976
  18   2.0000     -11.248237      -306.0801
  19   2.0000     -11.234482      -305.7058
  20   2.0000      -8.895220      -242.0512
  21   2.0000      -6.576808      -178.9640
  22   2.0000      -6.574783      -178.9089
  23   2.0000      -6.574207      -178.8933
  24   2.0000      -1.440096       -39.1870
  25   2.0000      -1.425390       -38.7868
  26   2.0000      -1.353188       -36.8221
  27   2.0000      -1.339725       -36.4558
  28   2.0000      -1.240771       -33.7631
  29   2.0000      -1.166971       -31.7549
  30   2.0000      -1.123845       -30.5814
  31   2.0000      -1.051181       -28.6041
  32   2.0000      -1.036244       -28.1976
  33   2.0000      -1.025258       -27.8987
  34   2.0000      -1.003718       -27.3126
  35   2.0000      -0.989522       -26.9263
  36   2.0000      -0.928610       -25.2688
  37   2.0000      -0.899967       -24.4894
  38   2.0000      -0.851772       -23.1779
  39   2.0000      -0.845148       -22.9976
  40   2.0000      -0.842401       -22.9229
  41   2.0000      -0.829251       -22.5651
  42   2.0000      -0.748637       -20.3714
  43   2.0000      -0.739114       -20.1123
  44   2.0000      -0.721788       -19.6408
  45   2.0000      -0.704118       -19.1600
  46   2.0000      -0.690930       -18.8012
  47   2.0000      -0.677575       -18.4378
  48   2.0000      -0.675858       -18.3910
  49   2.0000      -0.660375       -17.9697
  50   2.0000      -0.656579       -17.8664
  51   2.0000      -0.651399       -17.7255
  52   2.0000      -0.638930       -17.3862
  53   2.0000      -0.619904       -16.8684
  54   2.0000      -0.614224       -16.7139
  55   2.0000      -0.608378       -16.5548
  56   2.0000      -0.604584       -16.4516
  57   2.0000      -0.583745       -15.8845
  58   2.0000      -0.578573       -15.7438
  59   2.0000      -0.568220       -15.4620
  60   2.0000      -0.566865       -15.4252
  61   2.0000      -0.554350       -15.0846
  62   2.0000      -0.540961       -14.7203
  63   2.0000      -0.533746       -14.5240
  64   2.0000      -0.527779       -14.3616
  65   2.0000      -0.516684       -14.0597
  66   2.0000      -0.505979       -13.7684
  67   2.0000      -0.496729       -13.5167
  68   2.0000      -0.488272       -13.2866
  69   2.0000      -0.468077       -12.7370
  70   2.0000      -0.451747       -12.2927
  71   2.0000      -0.446175       -12.1410
  72   2.0000      -0.360058        -9.7977
  73   2.0000      -0.350350        -9.5335
  74   2.0000      -0.332090        -9.0366
  75   2.0000      -0.329441        -8.9646
  76   2.0000      -0.318625        -8.6702
  77   0.0000       0.086345         2.3496
  78   0.0000       0.096773         2.6333
  79   0.0000       0.119295         3.2462
  80   0.0000       0.125450         3.4137
  81   0.0000       0.127914         3.4807

MULLIKEN ATOMIC CHARGES
-----------------------
   0 C :   -0.339809
   1 C :    0.032751
   2 O :   -0.330952
   3 C :    0.388603
   4 O :   -0.369832
   5 C :   -0.218960
   6 C :    0.154729
   7 C :   -0.293093
   8 N :   -0.133794
   9 C :    0.213748
  10 S :   -0.442272
  11 N :   -0.228083
  12 C :    0.091079
  13 C :   -0.009850
  14 C :   -0.180375
  15 C :   -0.133900
  16 C :   -0.275515
  17 C :    0.321755
  18 O :   -0.355560
  19 C :   -0.276677
  20 H :    0.113224
  21 H :    0.125538
  22 H :    0.106730
  23 H :    0.103723
  24 H :    0.128236
  25 H :    0.117166
  26 H :    0.146337
  27 H :    0.100479
  28 H :    0.196714
  29 H :    0.203971
  30 H :    0.162162
  31 H :    0.152765
  32 H :    0.164734
  33 H :    0.135023
  34 H :    0.242448
  35 H :    0.186754
Sum of atomic charges:    0.0000000

LOEWDIN ATOMIC CHARGES
----------------------
   0 C :    0.103196
   1 C :   -0.011660
   2 O :    0.292318
   3 C :   -0.421638
   4 O :    0.128493
   5 C :   -0.086143
   6 C :   -0.085718
   7 C :    0.128936
   8 N :    0.404407
   9 C :   -0.456150
  10 S :   -0.037877
  11 N :    0.396787
  12 C :   -0.051582
  13 C :   -0.043482
  14 C :    0.021011
  15 C :    0.044237
  16 C :    0.000268
  17 C :   -0.194108
  18 O :    0.397477
  19 C :    0.030038
  20 H :   -0.035917
  21 H :   -0.020465
  22 H :   -0.030465
  23 H :   -0.030926
  24 H :   -0.022069
  25 H :   -0.011859
  26 H :   -0.003898
  27 H :   -0.020199
  28 H :   -0.057469
  29 H :   -0.064521
  30 H :   -0.009138
  31 H :   -0.025708
  32 H :   -0.017830
  33 H :   -0.033184
  34 H :   -0.151850
  35 H :   -0.023311

  Mayer bond orders larger than 0.100000
B(  0-C ,  1-C ) :   0.9589 B(  0-C , 20-H ) :   0.9687 B(  0-C , 21-H ) :   0.9758
B(  0-C , 22-H ) :   0.9752 B(  1-C ,  2-O ) :   0.9041 B(  1-C , 23-H ) :   0.9678
B(  1-C , 24-H ) :   0.9831 B(  2-O ,  3-C ) :   1.1848 B(  3-C ,  4-O ) :   2.1131
B(  3-C ,  5-C ) :   0.9035 B(  5-C ,  6-C ) :   1.7142 B(  5-C , 12-C ) :   0.9507
B(  6-C ,  7-C ) :   0.9513 B(  6-C ,  8-N ) :   1.1301 B(  7-C , 25-H ) :   0.9749
B(  7-C , 26-H ) :   0.9597 B(  7-C , 27-H ) :   0.9822 B(  8-N ,  9-C ) :   1.2036
B(  8-N , 28-H ) :   0.9508 B(  9-C , 10-S ) :   1.6061 B(  9-C , 11-N ) :   1.2851
B( 11-N , 12-C ) :   0.9912 B( 11-N , 29-H ) :   0.9445 B( 12-C , 13-C ) :   0.9374
B( 12-C , 30-H ) :   1.0032 B( 13-C , 14-C ) :   1.3766 B( 13-C , 19-C ) :   1.3456
B( 14-C , 15-C ) :   1.4028 B( 14-C , 31-H ) :   0.9718 B( 15-C , 16-C ) :   1.3562
B( 15-C , 32-H ) :   0.9700 B( 16-C , 17-C ) :   1.3310 B( 16-C , 33-H ) :   0.9838
B( 17-C , 18-O ) :   1.1118 B( 17-C , 19-C ) :   1.3595 B( 18-O , 34-H ) :   0.9782
B( 19-C , 35-H ) :   0.9509

MP2 TOTAL ENERGY:    -1274.323171653 Eh
FINAL SINGLE POINT ENERGY     -1274.323171652714

DIPOLE MOMENT
-------------
                                X             Y             Z
Electronic contribution:      8.74267       5.71705       5.78005
Nuclear contribution   :    -10.00686      -7.33609      -5.55950
                        -----------------------------------------
Total Dipole Moment    :     -1.26420      -1.61903       0.22055
                        -----------------------------------------
Magnitude (a.u.)       :      2.06594
Magnitude (Debye)      :      5.25121

Rotational constants in cm-1:     0.012693     0.009196     0.006546
Rotational constants in MHz :   380.539459   275.685763   196.258197

                             ****ORCA TERMINATED NORMALLY****
TOTAL RUN TIME: 0 days 2 hours 11 minutes 4 seconds 572 msec
