                         Program Version 5.0.0 -  RELEASE  -
|  1> ! ri-mp2 cc-pvtz cc-pvtz/c TightSCF NoKeepInts
|  2>
|  3> %scf
|  4>   MaxCore 4096
|  5> end
|  6> *xyz  0  1
|  7>     C       16.1637595   13.1626980   15.7063614
|  8>     C       15.4994123   14.4797246   16.1409401
|  9>     O       16.5327707   15.3214285   16.6789769
| 10>     C       16.3735583   16.6791326   16.6719810
| 11>     O       15.4747707   17.2286412   16.0576639
| 12>     C       17.3661997   17.3834853   17.5553088
| 13>     C       17.4254036   18.7361199   17.6503305
| 14>     C       16.5534259   19.7443779   16.9330596
| 15>     N       18.3964699   19.3406433   18.4543320
| 16>     C       19.4026884   18.6751873   19.1022986
| 17>     S       20.5727377   19.4747272   19.9553046
| 18>     N       19.3930943   17.3070905   19.0055950
| 19>     C       18.3251404   16.5072457   18.3780912
| 20>     C       17.5868580   15.7038850   19.4452572
| 21>     C       17.6628770   14.2983770   19.4602953
| 22>     C       16.9816150   13.5557502   20.4393173
| 23>     C       16.2204459   14.2236623   21.4137271
| 24>     C       16.1458581   15.6233141   21.4042299
| 25>     O       15.4122735   16.2710276   22.3441125
| 26>     C       16.8244173   16.3596026   20.4282341
| 27>     H       16.6318187   12.6650875   16.5646949
| 28>     H       16.9352400   13.3499957   14.9491009
| 29>     H       15.4197617   12.4805563   15.2772981
| 30>     H       15.0334520   14.9417883   15.2596589
| 31>     H       14.7216766   14.2982297   16.8943693
| 32>     H       15.5004202   19.6089708   17.2115490
| 33>     H       16.6236967   19.6119768   15.8459312
| 34>     H       16.8242558   20.7826789   17.1575117
| 35>     H       18.4198227   20.3445722   18.5357654
| 36>     H       20.1256558   16.8421508   19.5261914
| 37>     H       18.8095788   15.8033426   17.6868201
| 38>     H       18.2457421   13.7795241   18.7040550
| 39>     H       17.0444181   12.4690240   20.4407952
| 40>     H       15.6927399   13.6547380   22.1720650
| 41>     H       15.0457021   15.6010282   22.9403200
| 42>     H       16.7592426   17.4422152   20.4424569
| 43> *
| 44>
| 45>                          ****END OF INPUT****

CARTESIAN COORDINATES (ANGSTROEM)
---------------------------------
  C     16.163760   13.162698   15.706361
  C     15.499412   14.479725   16.140940
  O     16.532771   15.321428   16.678977
  C     16.373558   16.679133   16.671981
  O     15.474771   17.228641   16.057664
  C     17.366200   17.383485   17.555309
  C     17.425404   18.736120   17.650330
  C     16.553426   19.744378   16.933060
  N     18.396470   19.340643   18.454332
  C     19.402688   18.675187   19.102299
  S     20.572738   19.474727   19.955305
  N     19.393094   17.307091   19.005595
  C     18.325140   16.507246   18.378091
  C     17.586858   15.703885   19.445257
  C     17.662877   14.298377   19.460295
  C     16.981615   13.555750   20.439317
  C     16.220446   14.223662   21.413727
  C     16.145858   15.623314   21.404230
  O     15.412273   16.271028   22.344113
  C     16.824417   16.359603   20.428234
  H     16.631819   12.665088   16.564695
  H     16.935240   13.349996   14.949101
  H     15.419762   12.480556   15.277298
  H     15.033452   14.941788   15.259659
  H     14.721677   14.298230   16.894369
  H     15.500420   19.608971   17.211549
  H     16.623697   19.611977   15.845931
  H     16.824256   20.782679   17.157512
  H     18.419823   20.344572   18.535765
  H     20.125656   16.842151   19.526191
  H     18.809579   15.803343   17.686820
  H     18.245742   13.779524   18.704055
  H     17.044418   12.469024   20.440795
  H     15.692740   13.654738   22.172065
  H     15.045702   15.601028   22.940320
  H     16.759243   17.442215   20.442457

 Total Charge           Charge          ....    0
 Multiplicity           Mult            ....    1
 Number of Electrons    NEL             ....  154
 Basis Dimension        Dim             ....  828

ORBITAL ENERGIES
----------------

  NO   OCC          E(Eh)            E(eV)
   0   2.0000     -91.888747     -2500.4199
   1   2.0000     -20.602222      -560.6150
   2   2.0000     -20.595783      -560.4397
   3   2.0000     -20.541452      -558.9613
   4   2.0000     -15.628886      -425.2836
   5   2.0000     -15.608093      -424.7178
   6   2.0000     -11.394587      -310.0625
   7   2.0000     -11.383841      -309.7701
   8   2.0000     -11.335734      -308.4610
   9   2.0000     -11.312912      -307.8400
  10   2.0000     -11.308777      -307.7275
  11   2.0000     -11.295658      -307.3705
  12   2.0000     -11.258918      -306.3707
  13   2.0000     -11.258702      -306.3648
  14   2.0000     -11.254439      -306.2489
  15   2.0000     -11.251750      -306.1757
  16   2.0000     -11.242315      -305.9189
  17   2.0000     -11.237816      -305.7965
  18   2.0000     -11.237554      -305.7894
  19   2.0000     -11.231515      -305.6251
  20   2.0000      -8.893808      -242.0128
  21   2.0000      -6.575382      -178.9252
  22   2.0000      -6.573378      -178.8707
  23   2.0000      -6.572791      -178.8547
  24   2.0000      -1.452063       -39.5127
  25   2.0000      -1.415440       -38.5161
  26   2.0000      -1.354925       -36.8694
  27   2.0000      -1.339845       -36.4590
  28   2.0000      -1.238284       -33.6954
  29   2.0000      -1.156966       -31.4826
  30   2.0000      -1.120166       -30.4813
  31   2.0000      -1.043427       -28.3931
  32   2.0000      -1.040014       -28.3002
  33   2.0000      -1.014397       -27.6032
  34   2.0000      -0.995605       -27.0918
  35   2.0000      -0.984215       -26.7818
  36   2.0000      -0.922174       -25.0936
  37   2.0000      -0.889069       -24.1928
  38   2.0000      -0.846486       -23.0341
  39   2.0000      -0.836922       -22.7738
  40   2.0000      -0.833308       -22.6755
  41   2.0000      -0.817576       -22.2474
  42   2.0000      -0.765358       -20.8264
  43   2.0000      -0.731837       -19.9143
  44   2.0000      -0.721247       -19.6261
  45   2.0000      -0.694949       -18.9105
  46   2.0000      -0.685853       -18.6630
  47   2.0000      -0.679249       -18.4833
  48   2.0000      -0.677994       -18.4492
  49   2.0000      -0.662141       -18.0178
  50   2.0000      -0.645975       -17.5779
  51   2.0000      -0.644757       -17.5447
  52   2.0000      -0.635468       -17.2920
  53   2.0000      -0.606083       -16.4923
  54   2.0000      -0.600521       -16.3410
  55   2.0000      -0.598482       -16.2855
  56   2.0000      -0.595092       -16.1933
  57   2.0000      -0.577357       -15.7107
  58   2.0000      -0.570459       -15.5230
  59   2.0000      -0.568732       -15.4760
  60   2.0000      -0.561905       -15.2902
  61   2.0000      -0.549093       -14.9416
  62   2.0000      -0.540003       -14.6942
  63   2.0000      -0.524643       -14.2763
  64   2.0000      -0.523734       -14.2515
  65   2.0000      -0.513135       -13.9631
  66   2.0000      -0.502756       -13.6807
  67   2.0000      -0.498348       -13.5607
  68   2.0000      -0.484968       -13.1967
  69   2.0000      -0.465385       -12.6638
  70   2.0000      -0.458786       -12.4842
  71   2.0000      -0.447030       -12.1643
  72   2.0000      -0.354156        -9.6371
  73   2.0000      -0.348760        -9.4902
  74   2.0000      -0.328048        -8.9266
  75   2.0000      -0.320534        -8.7222
  76   2.0000      -0.315797        -8.5933
  77   0.0000       0.076384         2.0785
  78   0.0000       0.106739         2.9045
  79   0.0000       0.124756         3.3948
  80   0.0000       0.132130         3.5954
  81   0.0000       0.136158         3.7051

MULLIKEN ATOMIC CHARGES
-----------------------
   0 C :   -0.267058
   1 C :    0.025880
   2 O :   -0.344824
   3 C :    0.462687
   4 O :   -0.433079
   5 C :   -0.220197
   6 C :    0.150181
   7 C :   -0.274205
   8 N :   -0.120974
   9 C :    0.210381
  10 S :   -0.439735
  11 N :   -0.202981
  12 C :    0.048445
  13 C :    0.067017
  14 C :   -0.183799
  15 C :   -0.131786
  16 C :   -0.278098
  17 C :    0.315865
  18 O :   -0.356606
  19 C :   -0.269951
  20 H :    0.091107
  21 H :    0.096563
  22 H :    0.095203
  23 H :    0.118859
  24 H :    0.095707
  25 H :    0.132544
  26 H :    0.130514
  27 H :    0.094885
  28 H :    0.197382
  29 H :    0.194385
  30 H :    0.150748
  31 H :    0.150470
  32 H :    0.159600
  33 H :    0.129547
  34 H :    0.240550
  35 H :    0.164773
Sum of atomic charges:   -0.0000000

LOEWDIN ATOMIC CHARGES
----------------------
   0 C :    0.106014
   1 C :   -0.014276
   2 O :    0.310031
   3 C :   -0.413619
   4 O :    0.095763
   5 C :   -0.094696
   6 C :   -0.058970
   7 C :    0.131538
   8 N :    0.406514
   9 C :   -0.456679
  10 S :   -0.035409
  11 N :    0.396527
  12 C :   -0.052634
  13 C :   -0.038730
  14 C :    0.014132
  15 C :    0.038504
  16 C :   -0.001606
  17 C :   -0.189515
  18 O :    0.395122
  19 C :    0.031673
  20 H :   -0.030769
  21 H :   -0.026396
  22 H :   -0.024397
  23 H :   -0.027137
  24 H :   -0.029351
  25 H :   -0.004373
  26 H :   -0.004072
  27 H :   -0.023460
  28 H :   -0.057587
  29 H :   -0.064557
  30 H :   -0.011124
  31 H :   -0.031351
  32 H :   -0.021700
  33 H :   -0.035688
  34 H :   -0.154040
  35 H :   -0.023682

  Mayer bond orders larger than 0.100000
B(  0-C ,  1-C ) :   0.9719 B(  0-C , 20-H ) :   0.9792 B(  0-C , 21-H ) :   0.9770
B(  0-C , 22-H ) :   0.9776 B(  1-C ,  2-O ) :   0.8930 B(  1-C , 23-H ) :   0.9785
B(  1-C , 24-H ) :   0.9753 B(  2-O ,  3-C ) :   1.1777 B(  3-C ,  4-O ) :   1.9740
B(  3-C ,  5-C ) :   1.0554 B(  5-C ,  6-C ) :   1.6588 B(  5-C , 12-C ) :   0.9719
B(  6-C ,  7-C ) :   0.9675 B(  6-C ,  8-N ) :   1.1642 B(  7-C , 25-H ) :   0.9601
B(  7-C , 26-H ) :   0.9605 B(  7-C , 27-H ) :   0.9903 B(  8-N ,  9-C ) :   1.1828
B(  8-N , 28-H ) :   0.9479 B(  9-C , 10-S ) :   1.6080 B(  9-C , 11-N ) :   1.3044
B( 11-N , 12-C ) :   0.9893 B( 11-N , 29-H ) :   0.9517 B( 12-C , 13-C ) :   0.9356
B( 12-C , 30-H ) :   1.0036 B( 13-C , 14-C ) :   1.3583 B( 13-C , 19-C ) :   1.3820
B( 14-C , 15-C ) :   1.3903 B( 14-C , 31-H ) :   0.9706 B( 15-C , 16-C ) :   1.3646
B( 15-C , 32-H ) :   0.9706 B( 16-C , 17-C ) :   1.3323 B( 16-C , 33-H ) :   0.9852
B( 17-C , 18-O ) :   1.1100 B( 17-C , 19-C ) :   1.3732 B( 18-O , 34-H ) :   0.9800
B( 19-C , 35-H ) :   0.9582

MP2 TOTAL ENERGY:    -1274.350886132 Eh
FINAL SINGLE POINT ENERGY     -1274.350886131557

DIPOLE MOMENT
-------------
                                X             Y             Z
Electronic contribution:      8.63862      10.97979       8.75464
Nuclear contribution   :     -9.83262     -12.57652      -9.16530
                        -----------------------------------------
Total Dipole Moment    :     -1.19400      -1.59673      -0.41066
                        -----------------------------------------
Magnitude (a.u.)       :      2.03564
Magnitude (Debye)      :      5.17419

Rotational constants in cm-1:     0.011408     0.008520     0.006142
Rotational constants in MHz :   342.017556   255.410625   184.133649

                             ****ORCA TERMINATED NORMALLY****
TOTAL RUN TIME: 0 days 1 hours 51 minutes 35 seconds 296 msec
