                         Program Version 5.0.0 -  RELEASE  -
|  1> ! ri-mp2 cc-pvtz cc-pvtz/c TightSCF NoKeepInts
|  2>
|  3> %scf
|  4>   MaxCore 4096
|  5> end
|  6> *xyz  0  1
|  7>     C       14.7129982   14.2847635   16.6793731
|  8>     C       15.5239697   15.5902945   16.6922705
|  9>     O       16.7676398   15.3203846   16.0151092
| 10>     C       17.9759567   15.6243607   16.5839513
| 11>     O       18.8681682   14.7967485   16.6110671
| 12>     C       18.0322882   16.8706286   17.4126529
| 13>     C       17.5302883   18.0637476   17.0115213
| 14>     C       16.8952581   18.3965847   15.6778638
| 15>     N       17.6622649   19.1846992   17.8347616
| 16>     C       18.3776576   19.2161688   19.0033863
| 17>     S       18.5466184   20.6073583   19.8807789
| 18>     N       18.9433055   18.0333624   19.4111031
| 19>     C       18.7443013   16.7246951   18.7577696
| 20>     C       17.9722920   15.7673762   19.6613679
| 21>     C       18.4010545   14.4361120   19.8132341
| 22>     C       17.6793200   13.5379426   20.6167969
| 23>     C       16.5154572   13.9725753   21.2731930
| 24>     C       16.0812618   15.2959449   21.1201959
| 25>     O       14.9500734   15.7157289   21.7403634
| 26>     C       16.8016310   16.1880958   20.3196935
| 27>     H       15.2562702   13.4903801   17.2072173
| 28>     H       14.5293613   13.9522348   15.6500305
| 29>     H       13.7448712   14.4258984   17.1749646
| 30>     H       14.9647893   16.3782528   16.1735339
| 31>     H       15.6809715   15.8922673   17.7358239
| 32>     H       17.0868243   17.6249911   14.9221957
| 33>     H       17.3014219   19.3318884   15.2719307
| 34>     H       15.8099210   18.5181586   15.7738543
| 35>     H       17.2664023   20.0660791   17.5472750
| 36>     H       19.4473773   18.0811295   20.2876774
| 37>     H       19.7375802   16.2920312   18.5665542
| 38>     H       19.2897091   14.0907721   19.2889520
| 39>     H       18.0197243   12.5090080   20.7208155
| 40>     H       15.9533214   13.2804911   21.8915185
| 41>     H       14.6314347   14.9834305   22.2897624
| 42>     H       16.4452149   17.2074147   20.2154405
| 43> *
| 44>
| 45>                          ****END OF INPUT****

CARTESIAN COORDINATES (ANGSTROEM)
---------------------------------
  C     14.712998   14.284763   16.679373
  C     15.523970   15.590294   16.692270
  O     16.767640   15.320385   16.015109
  C     17.975957   15.624361   16.583951
  O     18.868168   14.796748   16.611067
  C     18.032288   16.870629   17.412653
  C     17.530288   18.063748   17.011521
  C     16.895258   18.396585   15.677864
  N     17.662265   19.184699   17.834762
  C     18.377658   19.216169   19.003386
  S     18.546618   20.607358   19.880779
  N     18.943306   18.033362   19.411103
  C     18.744301   16.724695   18.757770
  C     17.972292   15.767376   19.661368
  C     18.401054   14.436112   19.813234
  C     17.679320   13.537943   20.616797
  C     16.515457   13.972575   21.273193
  C     16.081262   15.295945   21.120196
  O     14.950073   15.715729   21.740363
  C     16.801631   16.188096   20.319693
  H     15.256270   13.490380   17.207217
  H     14.529361   13.952235   15.650030
  H     13.744871   14.425898   17.174965
  H     14.964789   16.378253   16.173534
  H     15.680972   15.892267   17.735824
  H     17.086824   17.624991   14.922196
  H     17.301422   19.331888   15.271931
  H     15.809921   18.518159   15.773854
  H     17.266402   20.066079   17.547275
  H     19.447377   18.081129   20.287677
  H     19.737580   16.292031   18.566554
  H     19.289709   14.090772   19.288952
  H     18.019724   12.509008   20.720815
  H     15.953321   13.280491   21.891518
  H     14.631435   14.983431   22.289762
  H     16.445215   17.207415   20.215440

 Total Charge           Charge          ....    0
 Multiplicity           Mult            ....    1
 Number of Electrons    NEL             ....  154
 Basis Dimension        Dim             ....  828

ORBITAL ENERGIES
----------------

  NO   OCC          E(Eh)            E(eV)
   0   2.0000     -91.890982     -2500.4808
   1   2.0000     -20.599670      -560.5455
   2   2.0000     -20.596882      -560.4696
   3   2.0000     -20.550561      -559.2092
   4   2.0000     -15.629386      -425.2972
   5   2.0000     -15.611415      -424.8082
   6   2.0000     -11.396670      -310.1192
   7   2.0000     -11.387265      -309.8632
   8   2.0000     -11.334552      -308.4288
   9   2.0000     -11.316477      -307.9370
  10   2.0000     -11.312681      -307.8337
  11   2.0000     -11.303768      -307.5912
  12   2.0000     -11.266995      -306.5905
  13   2.0000     -11.264593      -306.5252
  14   2.0000     -11.262666      -306.4727
  15   2.0000     -11.256217      -306.2972
  16   2.0000     -11.245686      -306.0107
  17   2.0000     -11.242102      -305.9132
  18   2.0000     -11.238533      -305.8160
  19   2.0000     -11.229530      -305.5710
  20   2.0000      -8.896078      -242.0746
  21   2.0000      -6.577659      -178.9872
  22   2.0000      -6.575641      -178.9323
  23   2.0000      -6.575059      -178.9165
  24   2.0000      -1.448698       -39.4211
  25   2.0000      -1.419481       -38.6260
  26   2.0000      -1.359901       -37.0048
  27   2.0000      -1.341879       -36.5144
  28   2.0000      -1.240742       -33.7623
  29   2.0000      -1.160901       -31.5897
  30   2.0000      -1.125117       -30.6160
  31   2.0000      -1.048291       -28.5254
  32   2.0000      -1.037928       -28.2435
  33   2.0000      -1.018443       -27.7132
  34   2.0000      -1.005027       -27.3482
  35   2.0000      -0.989271       -26.9194
  36   2.0000      -0.927607       -25.2415
  37   2.0000      -0.880594       -23.9622
  38   2.0000      -0.856132       -23.2965
  39   2.0000      -0.842881       -22.9359
  40   2.0000      -0.836748       -22.7691
  41   2.0000      -0.835888       -22.7457
  42   2.0000      -0.755130       -20.5481
  43   2.0000      -0.739776       -20.1303
  44   2.0000      -0.731368       -19.9015
  45   2.0000      -0.697657       -18.9842
  46   2.0000      -0.688315       -18.7300
  47   2.0000      -0.680469       -18.5165
  48   2.0000      -0.677648       -18.4398
  49   2.0000      -0.662293       -18.0219
  50   2.0000      -0.656763       -17.8714
  51   2.0000      -0.649936       -17.6857
  52   2.0000      -0.641326       -17.4514
  53   2.0000      -0.611028       -16.6269
  54   2.0000      -0.607864       -16.5408
  55   2.0000      -0.603507       -16.4223
  56   2.0000      -0.594611       -16.1802
  57   2.0000      -0.583196       -15.8696
  58   2.0000      -0.578366       -15.7381
  59   2.0000      -0.571013       -15.5380
  60   2.0000      -0.563997       -15.3471
  61   2.0000      -0.559668       -15.2293
  62   2.0000      -0.546990       -14.8843
  63   2.0000      -0.526190       -14.3184
  64   2.0000      -0.516776       -14.0622
  65   2.0000      -0.515870       -14.0375
  66   2.0000      -0.502580       -13.6759
  67   2.0000      -0.499598       -13.5948
  68   2.0000      -0.489545       -13.3212
  69   2.0000      -0.471703       -12.8357
  70   2.0000      -0.456314       -12.4169
  71   2.0000      -0.450918       -12.2701
  72   2.0000      -0.357829        -9.7370
  73   2.0000      -0.351786        -9.5726
  74   2.0000      -0.330468        -8.9925
  75   2.0000      -0.323961        -8.8154
  76   2.0000      -0.319360        -8.6902
  77   0.0000       0.077555         2.1104
  78   0.0000       0.103746         2.8231
  79   0.0000       0.116755         3.1771
  80   0.0000       0.128901         3.5076
  81   0.0000       0.134799         3.6681

MULLIKEN ATOMIC CHARGES
-----------------------
   0 C :   -0.252778
   1 C :    0.009728
   2 O :   -0.327171
   3 C :    0.426102
   4 O :   -0.384216
   5 C :   -0.233893
   6 C :    0.169476
   7 C :   -0.329859
   8 N :   -0.134173
   9 C :    0.199959
  10 S :   -0.438395
  11 N :   -0.209260
  12 C :    0.072108
  13 C :    0.032704
  14 C :   -0.188960
  15 C :   -0.131850
  16 C :   -0.276508
  17 C :    0.324482
  18 O :   -0.358167
  19 C :   -0.300926
  20 H :    0.106850
  21 H :    0.100810
  22 H :    0.088090
  23 H :    0.092863
  24 H :    0.109998
  25 H :    0.139439
  26 H :    0.131986
  27 H :    0.121670
  28 H :    0.197518
  29 H :    0.197056
  30 H :    0.162200
  31 H :    0.167694
  32 H :    0.163928
  33 H :    0.132153
  34 H :    0.241599
  35 H :    0.177747
Sum of atomic charges:    0.0000000

LOEWDIN ATOMIC CHARGES
----------------------
   0 C :    0.110590
   1 C :   -0.021640
   2 O :    0.301751
   3 C :   -0.417628
   4 O :    0.124339
   5 C :   -0.088488
   6 C :   -0.087921
   7 C :    0.125911
   8 N :    0.403057
   9 C :   -0.457572
  10 S :   -0.035530
  11 N :    0.397133
  12 C :   -0.045459
  13 C :   -0.044388
  14 C :    0.022462
  15 C :    0.044824
  16 C :   -0.000242
  17 C :   -0.194472
  18 O :    0.394283
  19 C :    0.025918
  20 H :   -0.021663
  21 H :   -0.025877
  22 H :   -0.026427
  23 H :   -0.036213
  24 H :   -0.033437
  25 H :   -0.007107
  26 H :   -0.011855
  27 H :   -0.018001
  28 H :   -0.057053
  29 H :   -0.063488
  30 H :   -0.002784
  31 H :   -0.021923
  32 H :   -0.018705
  33 H :   -0.034714
  34 H :   -0.152964
  35 H :   -0.024718

  Mayer bond orders larger than 0.100000
B(  0-C ,  1-C ) :   0.9883 B(  0-C , 20-H ) :   0.9773 B(  0-C , 21-H ) :   0.9793
B(  0-C , 22-H ) :   0.9767 B(  1-C ,  2-O ) :   0.8946 B(  1-C , 23-H ) :   0.9765
B(  1-C , 24-H ) :   0.9592 B(  2-O ,  3-C ) :   1.1767 B(  3-C ,  4-O ) :   2.0831
B(  3-C ,  5-C ) :   0.9433 B(  5-C ,  6-C ) :   1.6705 B(  5-C , 12-C ) :   0.9572
B(  6-C ,  7-C ) :   0.9418 B(  6-C ,  8-N ) :   1.1303 B(  7-C , 25-H ) :   0.9746
B(  7-C , 26-H ) :   0.9747 B(  7-C , 27-H ) :   0.9660 B(  8-N ,  9-C ) :   1.1891
B(  8-N , 28-H ) :   0.9513 B(  9-C , 10-S ) :   1.6136 B(  9-C , 11-N ) :   1.2927
B( 11-N , 12-C ) :   0.9969 B( 11-N , 29-H ) :   0.9503 B( 12-C , 13-C ) :   0.9414
B( 12-C , 30-H ) :   0.9980 B( 13-C , 14-C ) :   1.3882 B( 13-C , 19-C ) :   1.3438
B( 14-C , 15-C ) :   1.3959 B( 14-C , 31-H ) :   0.9599 B( 15-C , 16-C ) :   1.3634
B( 15-C , 32-H ) :   0.9699 B( 16-C , 17-C ) :   1.3304 B( 16-C , 33-H ) :   0.9843
B( 17-C , 18-O ) :   1.1108 B( 17-C , 19-C ) :   1.3640 B( 18-O , 34-H ) :   0.9794
B( 19-C , 35-H ) :   0.9579

MP2 TOTAL ENERGY:    -1274.336274213 Eh
FINAL SINGLE POINT ENERGY     -1274.336274212667

DIPOLE MOMENT
-------------
                                X             Y             Z
Electronic contribution:     10.68426       8.63074       6.91178
Nuclear contribution   :    -12.18519      -9.58105      -7.26154
                        -----------------------------------------
Total Dipole Moment    :     -1.50093      -0.95030      -0.34976
                        -----------------------------------------
Magnitude (a.u.)       :      1.81058
Magnitude (Debye)      :      4.60214

Rotational constants in cm-1:     0.011822     0.009172     0.006721
Rotational constants in MHz :   354.411179   274.964479   201.488501

                             ****ORCA TERMINATED NORMALLY****
TOTAL RUN TIME: 0 days 1 hours 42 minutes 47 seconds 384 msec
