                         Program Version 5.0.0 -  RELEASE  -
|  1> ! ri-mp2 cc-pvtz cc-pvtz/c TightSCF NoKeepInts
|  2>
|  3> %scf
|  4>   MaxCore 4096
|  5> end
|  6> *xyz  0  1
|  7>     C       15.8636197   13.4409994   15.3891244
|  8>     C       15.5171354   14.4270939   16.5170245
|  9>     O       16.6334150   15.3236530   16.6608502
| 10>     C       16.4312690   16.6754644   16.6637900
| 11>     O       15.4743302   17.1926937   16.1131224
| 12>     C       17.3891820   17.4007135   17.5686144
| 13>     C       17.3845283   18.7516281   17.6999111
| 14>     C       16.4700851   19.7369068   17.0038401
| 15>     N       18.3226572   19.3792711   18.5249454
| 16>     C       19.3556617   18.7446306   19.1614831
| 17>     S       20.4816295   19.5747856   20.0440362
| 18>     N       19.4119433   17.3808676   19.0272450
| 19>     C       18.3878863   16.5486265   18.3696946
| 20>     C       17.6881336   15.6765722   19.4087232
| 21>     C       17.8622168   14.2797124   19.4011643
| 22>     C       17.2138626   13.4730892   20.3514549
| 23>     C       16.3872711   14.0679156   21.3198837
| 24>     C       16.2158169   15.4590036   21.3336509
| 25>     O       15.4192755   16.0363165   22.2680699
| 26>     C       16.8614193   16.2589676   20.3858363
| 27>     H       15.0515934   12.7174869   15.2478580
| 28>     H       16.7809517   12.8879722   15.6257609
| 29>     H       16.0144196   13.9763398   14.4432285
| 30>     H       14.5899347   14.9577620   16.2616470
| 31>     H       15.3527614   13.8847339   17.4573474
| 32>     H       15.4257276   19.5622052   17.2928282
| 33>     H       16.5317489   19.6187599   15.9145348
| 34>     H       16.7083027   20.7814936   17.2360014
| 35>     H       18.2976813   20.3805525   18.6339986
| 36>     H       20.1635146   16.9373613   19.5393902
| 37>     H       18.9088379   15.8915501   17.6590721
| 38>     H       18.4964815   13.8170186   18.6496824
| 39>     H       17.3536289   12.3935627   20.3362920
| 40>     H       15.8852614   13.4495234   22.0567269
| 41>     H       15.0942161   15.3327398   22.8495637
| 42>     H       16.7205999   17.3340269   20.4176033
| 43> *
| 44>
| 45>                          ****END OF INPUT****

CARTESIAN COORDINATES (ANGSTROEM)
---------------------------------
  C     15.863620   13.440999   15.389124
  C     15.517135   14.427094   16.517025
  O     16.633415   15.323653   16.660850
  C     16.431269   16.675464   16.663790
  O     15.474330   17.192694   16.113122
  C     17.389182   17.400713   17.568614
  C     17.384528   18.751628   17.699911
  C     16.470085   19.736907   17.003840
  N     18.322657   19.379271   18.524945
  C     19.355662   18.744631   19.161483
  S     20.481630   19.574786   20.044036
  N     19.411943   17.380868   19.027245
  C     18.387886   16.548627   18.369695
  C     17.688134   15.676572   19.408723
  C     17.862217   14.279712   19.401164
  C     17.213863   13.473089   20.351455
  C     16.387271   14.067916   21.319884
  C     16.215817   15.459004   21.333651
  O     15.419275   16.036317   22.268070
  C     16.861419   16.258968   20.385836
  H     15.051593   12.717487   15.247858
  H     16.780952   12.887972   15.625761
  H     16.014420   13.976340   14.443228
  H     14.589935   14.957762   16.261647
  H     15.352761   13.884734   17.457347
  H     15.425728   19.562205   17.292828
  H     16.531749   19.618760   15.914535
  H     16.708303   20.781494   17.236001
  H     18.297681   20.380553   18.633999
  H     20.163515   16.937361   19.539390
  H     18.908838   15.891550   17.659072
  H     18.496482   13.817019   18.649682
  H     17.353629   12.393563   20.336292
  H     15.885261   13.449523   22.056727
  H     15.094216   15.332740   22.849564
  H     16.720600   17.334027   20.417603

 Total Charge           Charge          ....    0
 Multiplicity           Mult            ....    1
 Number of Electrons    NEL             ....  154
 Basis Dimension        Dim             ....  828

ORBITAL ENERGIES
----------------

  NO   OCC          E(Eh)            E(eV)
   0   2.0000     -91.889100     -2500.4295
   1   2.0000     -20.597918      -560.4978
   2   2.0000     -20.597132      -560.4764
   3   2.0000     -20.542491      -558.9896
   4   2.0000     -15.629272      -425.2941
   5   2.0000     -15.608491      -424.7286
   6   2.0000     -11.394974      -310.0730
   7   2.0000     -11.384215      -309.7802
   8   2.0000     -11.335982      -308.4677
   9   2.0000     -11.314497      -307.8831
  10   2.0000     -11.309380      -307.7439
  11   2.0000     -11.294275      -307.3329
  12   2.0000     -11.260330      -306.4092
  13   2.0000     -11.258750      -306.3662
  14   2.0000     -11.256030      -306.2921
  15   2.0000     -11.252168      -306.1871
  16   2.0000     -11.243757      -305.9582
  17   2.0000     -11.239074      -305.8308
  18   2.0000     -11.238852      -305.8247
  19   2.0000     -11.227411      -305.5134
  20   2.0000      -8.894159      -242.0224
  21   2.0000      -6.575733      -178.9348
  22   2.0000      -6.573729      -178.8803
  23   2.0000      -6.573141      -178.8643
  24   2.0000      -1.450377       -39.4668
  25   2.0000      -1.416783       -38.5526
  26   2.0000      -1.354554       -36.8593
  27   2.0000      -1.340231       -36.4695
  28   2.0000      -1.238739       -33.7078
  29   2.0000      -1.158202       -31.5163
  30   2.0000      -1.120530       -30.4912
  31   2.0000      -1.043330       -28.3904
  32   2.0000      -1.038389       -28.2560
  33   2.0000      -1.015809       -27.6416
  34   2.0000      -0.995787       -27.0967
  35   2.0000      -0.984382       -26.7864
  36   2.0000      -0.922856       -25.1122
  37   2.0000      -0.887849       -24.1596
  38   2.0000      -0.847131       -23.0516
  39   2.0000      -0.838208       -22.8088
  40   2.0000      -0.834677       -22.7127
  41   2.0000      -0.819468       -22.2989
  42   2.0000      -0.763205       -20.7679
  43   2.0000      -0.733070       -19.9478
  44   2.0000      -0.723223       -19.6799
  45   2.0000      -0.696120       -18.9424
  46   2.0000      -0.687974       -18.7207
  47   2.0000      -0.679677       -18.4949
  48   2.0000      -0.672844       -18.3090
  49   2.0000      -0.654975       -17.8228
  50   2.0000      -0.646705       -17.5977
  51   2.0000      -0.643153       -17.5011
  52   2.0000      -0.630969       -17.1695
  53   2.0000      -0.614225       -16.7139
  54   2.0000      -0.607435       -16.5292
  55   2.0000      -0.600137       -16.3305
  56   2.0000      -0.598868       -16.2960
  57   2.0000      -0.578564       -15.7435
  58   2.0000      -0.571140       -15.5415
  59   2.0000      -0.566436       -15.4135
  60   2.0000      -0.563518       -15.3341
  61   2.0000      -0.540008       -14.6944
  62   2.0000      -0.534874       -14.5547
  63   2.0000      -0.528649       -14.3853
  64   2.0000      -0.525540       -14.3007
  65   2.0000      -0.513816       -13.9816
  66   2.0000      -0.501825       -13.6553
  67   2.0000      -0.496223       -13.5029
  68   2.0000      -0.487090       -13.2544
  69   2.0000      -0.464692       -12.6449
  70   2.0000      -0.455541       -12.3959
  71   2.0000      -0.447917       -12.1884
  72   2.0000      -0.354395        -9.6436
  73   2.0000      -0.350011        -9.5243
  74   2.0000      -0.328494        -8.9388
  75   2.0000      -0.322180        -8.7670
  76   2.0000      -0.316318        -8.6074
  77   0.0000       0.075062         2.0425
  78   0.0000       0.105593         2.8733
  79   0.0000       0.124159         3.3785
  80   0.0000       0.131657         3.5826
  81   0.0000       0.135601         3.6899

MULLIKEN ATOMIC CHARGES
-----------------------
   0 C :   -0.262860
   1 C :    0.016770
   2 O :   -0.363289
   3 C :    0.471695
   4 O :   -0.428655
   5 C :   -0.235845
   6 C :    0.154382
   7 C :   -0.272153
   8 N :   -0.121899
   9 C :    0.210994
  10 S :   -0.439522
  11 N :   -0.204603
  12 C :    0.059768
  13 C :    0.067981
  14 C :   -0.198142
  15 C :   -0.129695
  16 C :   -0.280575
  17 C :    0.316287
  18 O :   -0.356093
  19 C :   -0.267908
  20 H :    0.088978
  21 H :    0.089887
  22 H :    0.100081
  23 H :    0.121409
  24 H :    0.111182
  25 H :    0.132569
  26 H :    0.130365
  27 H :    0.095080
  28 H :    0.197625
  29 H :    0.194764
  30 H :    0.150205
  31 H :    0.152495
  32 H :    0.161924
  33 H :    0.130725
  34 H :    0.240733
  35 H :    0.165338
Sum of atomic charges:   -0.0000000

LOEWDIN ATOMIC CHARGES
----------------------
   0 C :    0.105156
   1 C :   -0.013232
   2 O :    0.307955
   3 C :   -0.414819
   4 O :    0.098380
   5 C :   -0.095658
   6 C :   -0.058877
   7 C :    0.131602
   8 N :    0.406604
   9 C :   -0.456457
  10 S :   -0.035166
  11 N :    0.396399
  12 C :   -0.052424
  13 C :   -0.038378
  14 C :    0.014270
  15 C :    0.038170
  16 C :   -0.002424
  17 C :   -0.189360
  18 O :    0.395478
  19 C :    0.031559
  20 H :   -0.026516
  21 H :   -0.030221
  22 H :   -0.024853
  23 H :   -0.028242
  24 H :   -0.030161
  25 H :   -0.004475
  26 H :   -0.003995
  27 H :   -0.023364
  28 H :   -0.057525
  29 H :   -0.064589
  30 H :   -0.010603
  31 H :   -0.030135
  32 H :   -0.021324
  33 H :   -0.035506
  34 H :   -0.153787
  35 H :   -0.023481

  Mayer bond orders larger than 0.100000
B(  0-C ,  1-C ) :   0.9767 B(  0-C , 20-H ) :   0.9758 B(  0-C , 21-H ) :   0.9795
B(  0-C , 22-H ) :   0.9788 B(  1-C ,  2-O ) :   0.8741 B(  1-C , 23-H ) :   0.9738
B(  1-C , 24-H ) :   0.9732 B(  2-O ,  3-C ) :   1.1548 B(  3-C ,  4-O ) :   1.9846
B(  3-C ,  5-C ) :   1.0595 B(  5-C ,  6-C ) :   1.6540 B(  5-C , 12-C ) :   0.9716
B(  6-C ,  7-C ) :   0.9668 B(  6-C ,  8-N ) :   1.1628 B(  7-C , 25-H ) :   0.9596
B(  7-C , 26-H ) :   0.9610 B(  7-C , 27-H ) :   0.9905 B(  8-N ,  9-C ) :   1.1831
B(  8-N , 28-H ) :   0.9478 B(  9-C , 10-S ) :   1.6078 B(  9-C , 11-N ) :   1.3050
B( 11-N , 12-C ) :   0.9874 B( 11-N , 29-H ) :   0.9517 B( 12-C , 13-C ) :   0.9351
B( 12-C , 30-H ) :   1.0024 B( 13-C , 14-C ) :   1.3509 B( 13-C , 19-C ) :   1.3839
B( 14-C , 15-C ) :   1.3890 B( 14-C , 31-H ) :   0.9721 B( 15-C , 16-C ) :   1.3620
B( 15-C , 32-H ) :   0.9704 B( 16-C , 17-C ) :   1.3313 B( 16-C , 33-H ) :   0.9849
B( 17-C , 18-O ) :   1.1110 B( 17-C , 19-C ) :   1.3715 B( 18-O , 34-H ) :   0.9798
B( 19-C , 35-H ) :   0.9580

MP2 TOTAL ENERGY:    -1274.346453102 Eh
FINAL SINGLE POINT ENERGY     -1274.346453102132

DIPOLE MOMENT
-------------
                                X             Y             Z
Electronic contribution:      9.29125      10.67052       8.96205
Nuclear contribution   :    -10.43932     -12.27060      -9.24148
                        -----------------------------------------
Total Dipole Moment    :     -1.14808      -1.60008      -0.27943
                        -----------------------------------------
Magnitude (a.u.)       :      1.98907
Magnitude (Debye)      :      5.05582

Rotational constants in cm-1:     0.011642     0.008519     0.006131
Rotational constants in MHz :   349.011772   255.404676   183.792302

                             ****ORCA TERMINATED NORMALLY****
TOTAL RUN TIME: 0 days 1 hours 59 minutes 47 seconds 687 msec
