                         Program Version 5.0.0 -  RELEASE  -
|  1> ! ri-mp2 cc-pvtz cc-pvtz/c TightSCF NoKeepInts
|  2>
|  3> %scf
|  4>   MaxCore 4096
|  5> end
|  6> *xyz  0  1
|  7>     C       15.2582360   14.8895306   17.2073999
|  8>     C       16.3418013   14.1688535   16.3785029
|  9>     O       17.6429506   14.7970482   16.4598611
| 10>     C       17.7805951   16.1045575   16.0940195
| 11>     O       17.4036260   16.4498259   14.9881128
| 12>     C       17.8101480   17.0400755   17.2726081
| 13>     C       17.3648232   18.3212611   17.2069432
| 14>     C       16.6341059   18.9864361   16.0602921
| 15>     N       17.6325412   19.2051300   18.2574186
| 16>     C       18.5434264   18.9658609   19.2532132
| 17>     S       18.9803073   20.1319216   20.3414839
| 18>     N       19.0768503   17.7017294   19.2978712
| 19>     C       18.5619198   16.5551457   18.5248268
| 20>     C       17.7348375   15.6555769   19.4398079
| 21>     C       18.0410489   14.2857975   19.5520703
| 22>     C       17.3032555   13.4541069   20.4111466
| 23>     C       16.2544813   13.9965801   21.1728608
| 24>     C       15.9512481   15.3611125   21.0722131
| 25>     O       14.9372111   15.8872918   21.8038078
| 26>     C       16.6846786   16.1858542   20.2133494
| 27>     H       15.4385734   14.7676809   18.2781562
| 28>     H       14.2757886   14.4515460   16.9941121
| 29>     H       15.2003359   15.9581102   16.9702972
| 30>     H       16.4200253   13.1281079   16.7179814
| 31>     H       16.0239066   14.1480796   15.3271704
| 32>     H       17.3024842   19.1088575   15.1983076
| 33>     H       16.2391057   19.9750819   16.3215910
| 34>     H       15.7867797   18.3716536   15.7317174
| 35>     H       17.2597701   20.1407263   18.2273053
| 36>     H       19.7253092   17.5433276   20.0585089
| 37>     H       19.4311195   15.9762440   18.1821287
| 38>     H       18.8510049   13.8618582   18.9640604
| 39>     H       17.5471116   12.3957521   20.4864966
| 40>     H       15.6828191   13.3584764   21.8387994
| 41>     H       14.5911773   15.1834862   22.3729100
| 42>     H       16.4335968   17.2393158   20.1566482
| 43> *
| 44>
| 45>                          ****END OF INPUT****

CARTESIAN COORDINATES (ANGSTROEM)
---------------------------------
  C     15.258236   14.889531   17.207400
  C     16.341801   14.168853   16.378503
  O     17.642951   14.797048   16.459861
  C     17.780595   16.104557   16.094020
  O     17.403626   16.449826   14.988113
  C     17.810148   17.040076   17.272608
  C     17.364823   18.321261   17.206943
  C     16.634106   18.986436   16.060292
  N     17.632541   19.205130   18.257419
  C     18.543426   18.965861   19.253213
  S     18.980307   20.131922   20.341484
  N     19.076850   17.701729   19.297871
  C     18.561920   16.555146   18.524827
  C     17.734838   15.655577   19.439808
  C     18.041049   14.285797   19.552070
  C     17.303255   13.454107   20.411147
  C     16.254481   13.996580   21.172861
  C     15.951248   15.361113   21.072213
  O     14.937211   15.887292   21.803808
  C     16.684679   16.185854   20.213349
  H     15.438573   14.767681   18.278156
  H     14.275789   14.451546   16.994112
  H     15.200336   15.958110   16.970297
  H     16.420025   13.128108   16.717981
  H     16.023907   14.148080   15.327170
  H     17.302484   19.108857   15.198308
  H     16.239106   19.975082   16.321591
  H     15.786780   18.371654   15.731717
  H     17.259770   20.140726   18.227305
  H     19.725309   17.543328   20.058509
  H     19.431120   15.976244   18.182129
  H     18.851005   13.861858   18.964060
  H     17.547112   12.395752   20.486497
  H     15.682819   13.358476   21.838799
  H     14.591177   15.183486   22.372910
  H     16.433597   17.239316   20.156648

 Total Charge           Charge          ....    0
 Multiplicity           Mult            ....    1
 Number of Electrons    NEL             ....  154
 Basis Dimension        Dim             ....  828

ORBITAL ENERGIES
----------------

  NO   OCC          E(Eh)            E(eV)
   0   2.0000     -91.891082     -2500.4835
   1   2.0000     -20.598317      -560.5087
   2   2.0000     -20.581276      -560.0450
   3   2.0000     -20.552259      -559.2554
   4   2.0000     -15.630776      -425.3350
   5   2.0000     -15.609424      -424.7540
   6   2.0000     -11.394562      -310.0618
   7   2.0000     -11.385427      -309.8132
   8   2.0000     -11.336314      -308.4768
   9   2.0000     -11.315689      -307.9155
  10   2.0000     -11.312516      -307.8292
  11   2.0000     -11.299352      -307.4710
  12   2.0000     -11.261544      -306.4422
  13   2.0000     -11.260779      -306.4214
  14   2.0000     -11.257329      -306.3275
  15   2.0000     -11.254404      -306.2479
  16   2.0000     -11.245673      -306.0103
  17   2.0000     -11.240153      -305.8601
  18   2.0000     -11.239602      -305.8451
  19   2.0000     -11.223598      -305.4096
  20   2.0000      -8.896093      -242.0750
  21   2.0000      -6.577657      -178.9871
  22   2.0000      -6.575665      -178.9329
  23   2.0000      -6.575066      -178.9166
  24   2.0000      -1.448985       -39.4289
  25   2.0000      -1.418113       -38.5888
  26   2.0000      -1.351278       -36.7701
  27   2.0000      -1.341906       -36.5151
  28   2.0000      -1.239989       -33.7418
  29   2.0000      -1.158903       -31.5353
  30   2.0000      -1.120891       -30.5010
  31   2.0000      -1.044146       -28.4126
  32   2.0000      -1.031819       -28.0772
  33   2.0000      -1.017255       -27.6809
  34   2.0000      -0.999394       -27.1949
  35   2.0000      -0.986562       -26.8457
  36   2.0000      -0.924638       -25.1607
  37   2.0000      -0.894764       -24.3478
  38   2.0000      -0.848099       -23.0779
  39   2.0000      -0.841665       -22.9029
  40   2.0000      -0.836046       -22.7500
  41   2.0000      -0.816997       -22.2316
  42   2.0000      -0.750458       -20.4210
  43   2.0000      -0.733922       -19.9710
  44   2.0000      -0.723480       -19.6869
  45   2.0000      -0.697619       -18.9832
  46   2.0000      -0.691140       -18.8069
  47   2.0000      -0.676707       -18.4141
  48   2.0000      -0.667990       -18.1769
  49   2.0000      -0.667013       -18.1503
  50   2.0000      -0.650366       -17.6973
  51   2.0000      -0.645712       -17.5707
  52   2.0000      -0.637515       -17.3477
  53   2.0000      -0.614145       -16.7117
  54   2.0000      -0.608213       -16.5503
  55   2.0000      -0.600843       -16.3498
  56   2.0000      -0.600458       -16.3393
  57   2.0000      -0.579326       -15.7643
  58   2.0000      -0.572563       -15.5802
  59   2.0000      -0.564594       -15.3634
  60   2.0000      -0.553859       -15.0713
  61   2.0000      -0.547313       -14.8932
  62   2.0000      -0.540796       -14.7158
  63   2.0000      -0.527343       -14.3497
  64   2.0000      -0.525161       -14.2903
  65   2.0000      -0.515271       -14.0212
  66   2.0000      -0.503232       -13.6936
  67   2.0000      -0.501821       -13.6552
  68   2.0000      -0.475023       -12.9260
  69   2.0000      -0.465004       -12.6534
  70   2.0000      -0.452766       -12.3204
  71   2.0000      -0.444912       -12.1067
  72   2.0000      -0.357755        -9.7350
  73   2.0000      -0.349979        -9.5234
  74   2.0000      -0.330132        -8.9833
  75   2.0000      -0.324355        -8.8261
  76   2.0000      -0.317725        -8.6457
  77   0.0000       0.066479         1.8090
  78   0.0000       0.104909         2.8547
  79   0.0000       0.119845         3.2611
  80   0.0000       0.129412         3.5215
  81   0.0000       0.132574         3.6075

MULLIKEN ATOMIC CHARGES
-----------------------
   0 C :   -0.324471
   1 C :    0.038347
   2 O :   -0.388689
   3 C :    0.472466
   4 O :   -0.401300
   5 C :   -0.225378
   6 C :    0.160864
   7 C :   -0.274812
   8 N :   -0.122467
   9 C :    0.189727
  10 S :   -0.431593
  11 N :   -0.191518
  12 C :    0.026076
  13 C :    0.045261
  14 C :   -0.183131
  15 C :   -0.137941
  16 C :   -0.271748
  17 C :    0.297588
  18 O :   -0.358615
  19 C :   -0.240720
  20 H :    0.117057
  21 H :    0.117264
  22 H :    0.099162
  23 H :    0.113493
  24 H :    0.118175
  25 H :    0.138490
  26 H :    0.094637
  27 H :    0.125216
  28 H :    0.198182
  29 H :    0.190283
  30 H :    0.149367
  31 H :    0.156839
  32 H :    0.162335
  33 H :    0.132343
  34 H :    0.240705
  35 H :    0.168506
Sum of atomic charges:    0.0000000

LOEWDIN ATOMIC CHARGES
----------------------
   0 C :    0.108298
   1 C :   -0.013193
   2 O :    0.278241
   3 C :   -0.419845
   4 O :    0.125565
   5 C :   -0.096283
   6 C :   -0.061940
   7 C :    0.129692
   8 N :    0.406886
   9 C :   -0.459632
  10 S :   -0.031183
  11 N :    0.396481
  12 C :   -0.052176
  13 C :   -0.039610
  14 C :    0.016723
  15 C :    0.038565
  16 C :   -0.002712
  17 C :   -0.192929
  18 O :    0.396608
  19 C :    0.032387
  20 H :   -0.028466
  21 H :   -0.023672
  22 H :   -0.030942
  23 H :   -0.022283
  24 H :   -0.028776
  25 H :   -0.003220
  26 H :   -0.022790
  27 H :   -0.008861
  28 H :   -0.057956
  29 H :   -0.065166
  30 H :   -0.006113
  31 H :   -0.028312
  32 H :   -0.020571
  33 H :   -0.035019
  34 H :   -0.153559
  35 H :   -0.024236

  Mayer bond orders larger than 0.100000
B(  0-C ,  1-C ) :   0.9583 B(  0-C , 20-H ) :   0.9703 B(  0-C , 21-H ) :   0.9784
B(  0-C , 22-H ) :   0.9723 B(  1-C ,  2-O ) :   0.8801 B(  1-C , 23-H ) :   0.9819
B(  1-C , 24-H ) :   0.9848 B(  2-O ,  3-C ) :   1.1016 B(  3-C ,  4-O ) :   2.0153
B(  3-C ,  5-C ) :   1.0493 B(  5-C ,  6-C ) :   1.6596 B(  5-C , 12-C ) :   0.9697
B(  6-C ,  7-C ) :   0.9695 B(  6-C ,  8-N ) :   1.1355 B(  7-C , 25-H ) :   0.9569
B(  7-C , 26-H ) :   0.9875 B(  7-C , 27-H ) :   0.9663 B(  8-N ,  9-C ) :   1.1782
B(  8-N , 28-H ) :   0.9489 B(  9-C , 10-S ) :   1.6227 B(  9-C , 11-N ) :   1.2957
B( 11-N , 12-C ) :   0.9890 B( 11-N , 29-H ) :   0.9538 B( 12-C , 13-C ) :   0.9361
B( 12-C , 30-H ) :   1.0066 B( 13-C , 14-C ) :   1.3707 B( 13-C , 19-C ) :   1.3685
B( 14-C , 15-C ) :   1.3880 B( 14-C , 31-H ) :   0.9665 B( 15-C , 16-C ) :   1.3614
B( 15-C , 32-H ) :   0.9709 B( 16-C , 17-C ) :   1.3311 B( 16-C , 33-H ) :   0.9845
B( 17-C , 18-O ) :   1.1136 B( 17-C , 19-C ) :   1.3793 B( 18-O , 34-H ) :   0.9797
B( 19-C , 35-H ) :   0.9566

MP2 TOTAL ENERGY:    -1274.322465193 Eh
FINAL SINGLE POINT ENERGY     -1274.322465193284

DIPOLE MOMENT
-------------
                                X             Y             Z
Electronic contribution:      9.87193       8.42744       5.85219
Nuclear contribution   :    -10.97060     -10.07076      -5.90032
                        -----------------------------------------
Total Dipole Moment    :     -1.09866      -1.64332      -0.04813
                        -----------------------------------------
Magnitude (a.u.)       :      1.97734
Magnitude (Debye)      :      5.02601

Rotational constants in cm-1:     0.011700     0.010017     0.006592
Rotational constants in MHz :   350.745736   300.314295   197.625062

                             ****ORCA TERMINATED NORMALLY****
TOTAL RUN TIME: 0 days 2 hours 18 minutes 13 seconds 745 msec
