                         Program Version 5.0.0 -  RELEASE  -
|  1> ! ri-mp2 cc-pvtz cc-pvtz/c TightSCF NoKeepInts
|  2>
|  3> %scf
|  4>   MaxCore 4096
|  5> end
|  6> *xyz  0  1
|  7>     C       15.0027206   14.2715654   16.8074575
|  8>     C       16.4429899   13.9445414   16.3504628
|  9>     O       17.3601423   15.0486720   16.5292367
| 10>     C       16.9900161   16.3614117   16.4178708
| 11>     O       16.1797617   16.7441794   15.5916866
| 12>     C       17.6932999   17.2486314   17.4073548
| 13>     C       17.5657239   18.5996799   17.3934023
| 14>     C       16.7496349   19.4329823   16.4285639
| 15>     N       18.2557858   19.3791491   18.3264546
| 16>     C       19.1461038   18.8960712   19.2476981
| 17>     S       19.9756655   19.8965938   20.2707877
| 18>     N       19.3167261   17.5356961   19.2802099
| 19>     C       18.5493525   16.5610472   18.4836781
| 20>     C       17.7045833   15.6892307   19.4085413
| 21>     C       18.0189674   14.3293032   19.5901990
| 22>     C       17.2337474   13.5197685   20.4281324
| 23>     C       16.1270908   14.0750404   21.0928531
| 24>     C       15.8153756   15.4305342   20.9196865
| 25>     O       14.7475054   15.9695159   21.5598113
| 26>     C       16.5983032   16.2335312   20.0847365
| 27>     H       15.0024572   14.7197957   17.8090828
| 28>     H       14.4043707   13.3537031   16.8497937
| 29>     H       14.5007746   14.9558864   16.1129515
| 30>     H       16.8166208   13.0776301   16.9102674
| 31>     H       16.4145414   13.6679142   15.2883807
| 32>     H       17.0572733   19.2370804   15.3934550
| 33>     H       16.8469446   20.5108232   16.6033194
| 34>     H       15.6847508   19.1787280   16.5062769
| 35>     H       18.1434800   20.3803311   18.3176870
| 36>     H       19.9503483   17.2071659   19.9974357
| 37>     H       19.2762885   15.9181346   17.9676305
| 38>     H       18.8709398   13.8965741   19.0726016
| 39>     H       17.4837926   12.4685860   20.5610001
| 40>     H       15.5177371   13.4541358   21.7413646
| 41>     H       14.3599233   15.2769497   22.1157462
| 42>     H       16.3432608   17.2814165   19.9681828
| 43> *
| 44>
| 45>                          ****END OF INPUT****

CARTESIAN COORDINATES (ANGSTROEM)
---------------------------------
  C     15.002721   14.271565   16.807458
  C     16.442990   13.944541   16.350463
  O     17.360142   15.048672   16.529237
  C     16.990016   16.361412   16.417871
  O     16.179762   16.744179   15.591687
  C     17.693300   17.248631   17.407355
  C     17.565724   18.599680   17.393402
  C     16.749635   19.432982   16.428564
  N     18.255786   19.379149   18.326455
  C     19.146104   18.896071   19.247698
  S     19.975665   19.896594   20.270788
  N     19.316726   17.535696   19.280210
  C     18.549352   16.561047   18.483678
  C     17.704583   15.689231   19.408541
  C     18.018967   14.329303   19.590199
  C     17.233747   13.519768   20.428132
  C     16.127091   14.075040   21.092853
  C     15.815376   15.430534   20.919686
  O     14.747505   15.969516   21.559811
  C     16.598303   16.233531   20.084736
  H     15.002457   14.719796   17.809083
  H     14.404371   13.353703   16.849794
  H     14.500775   14.955886   16.112952
  H     16.816621   13.077630   16.910267
  H     16.414541   13.667914   15.288381
  H     17.057273   19.237080   15.393455
  H     16.846945   20.510823   16.603319
  H     15.684751   19.178728   16.506277
  H     18.143480   20.380331   18.317687
  H     19.950348   17.207166   19.997436
  H     19.276288   15.918135   17.967630
  H     18.870940   13.896574   19.072602
  H     17.483793   12.468586   20.561000
  H     15.517737   13.454136   21.741365
  H     14.359923   15.276950   22.115746
  H     16.343261   17.281416   19.968183

 Total Charge           Charge          ....    0
 Multiplicity           Mult            ....    1
 Number of Electrons    NEL             ....  154
 Basis Dimension        Dim             ....  828

ORBITAL ENERGIES
----------------

  NO   OCC          E(Eh)            E(eV)
   0   2.0000     -91.889038     -2500.4279
   1   2.0000     -20.598931      -560.5254
   2   2.0000     -20.592935      -560.3623
   3   2.0000     -20.541575      -558.9647
   4   2.0000     -15.629108      -425.2897
   5   2.0000     -15.608550      -424.7302
   6   2.0000     -11.394564      -310.0619
   7   2.0000     -11.384243      -309.7810
   8   2.0000     -11.335862      -308.4645
   9   2.0000     -11.316380      -307.9343
  10   2.0000     -11.309169      -307.7381
  11   2.0000     -11.299718      -307.4810
  12   2.0000     -11.261984      -306.4542
  13   2.0000     -11.258256      -306.3527
  14   2.0000     -11.258066      -306.3476
  15   2.0000     -11.252065      -306.1843
  16   2.0000     -11.245679      -306.0105
  17   2.0000     -11.240697      -305.8749
  18   2.0000     -11.240653      -305.8737
  19   2.0000     -11.222331      -305.3751
  20   2.0000      -8.894103      -242.0209
  21   2.0000      -6.575678      -178.9333
  22   2.0000      -6.573673      -178.8787
  23   2.0000      -6.573087      -178.8628
  24   2.0000      -1.444909       -39.3180
  25   2.0000      -1.418641       -38.6032
  26   2.0000      -1.352120       -36.7931
  27   2.0000      -1.340117       -36.4664
  28   2.0000      -1.238789       -33.7092
  29   2.0000      -1.159915       -31.5629
  30   2.0000      -1.120701       -30.4958
  31   2.0000      -1.044089       -28.4111
  32   2.0000      -1.033421       -28.1208
  33   2.0000      -1.017683       -27.6926
  34   2.0000      -0.996086       -27.1049
  35   2.0000      -0.984689       -26.7947
  36   2.0000      -0.923343       -25.1254
  37   2.0000      -0.897284       -24.4163
  38   2.0000      -0.847601       -23.0644
  39   2.0000      -0.839676       -22.8487
  40   2.0000      -0.836420       -22.7602
  41   2.0000      -0.817040       -22.2328
  42   2.0000      -0.745918       -20.2975
  43   2.0000      -0.733246       -19.9526
  44   2.0000      -0.722032       -19.6475
  45   2.0000      -0.697783       -18.9876
  46   2.0000      -0.688989       -18.7484
  47   2.0000      -0.675194       -18.3730
  48   2.0000      -0.671408       -18.2700
  49   2.0000      -0.659810       -17.9543
  50   2.0000      -0.651245       -17.7213
  51   2.0000      -0.641551       -17.4575
  52   2.0000      -0.635466       -17.2919
  53   2.0000      -0.618582       -16.8325
  54   2.0000      -0.609150       -16.5758
  55   2.0000      -0.602078       -16.3834
  56   2.0000      -0.599735       -16.3196
  57   2.0000      -0.579208       -15.7611
  58   2.0000      -0.571076       -15.5398
  59   2.0000      -0.566944       -15.4273
  60   2.0000      -0.554720       -15.0947
  61   2.0000      -0.542587       -14.7646
  62   2.0000      -0.534582       -14.5467
  63   2.0000      -0.526687       -14.3319
  64   2.0000      -0.522216       -14.2102
  65   2.0000      -0.513883       -13.9835
  66   2.0000      -0.501839       -13.6557
  67   2.0000      -0.499721       -13.5981
  68   2.0000      -0.485450       -13.2098
  69   2.0000      -0.464462       -12.6386
  70   2.0000      -0.453782       -12.3480
  71   2.0000      -0.442735       -12.0474
  72   2.0000      -0.354232        -9.6392
  73   2.0000      -0.351482        -9.5643
  74   2.0000      -0.328744        -8.9456
  75   2.0000      -0.324045        -8.8177
  76   2.0000      -0.316539        -8.6135
  77   0.0000       0.075174         2.0456
  78   0.0000       0.103304         2.8110
  79   0.0000       0.124121         3.3775
  80   0.0000       0.131449         3.5769
  81   0.0000       0.136974         3.7273

MULLIKEN ATOMIC CHARGES
-----------------------
   0 C :   -0.322559
   1 C :    0.035710
   2 O :   -0.374490
   3 C :    0.471113
   4 O :   -0.427824
   5 C :   -0.240151
   6 C :    0.158082
   7 C :   -0.272145
   8 N :   -0.121423
   9 C :    0.212587
  10 S :   -0.440418
  11 N :   -0.207611
  12 C :    0.073315
  13 C :    0.044114
  14 C :   -0.186134
  15 C :   -0.131974
  16 C :   -0.274733
  17 C :    0.315603
  18 O :   -0.358839
  19 C :   -0.269073
  20 H :    0.107517
  21 H :    0.099363
  22 H :    0.127810
  23 H :    0.106974
  24 H :    0.116443
  25 H :    0.131886
  26 H :    0.095300
  27 H :    0.131306
  28 H :    0.197206
  29 H :    0.195345
  30 H :    0.150447
  31 H :    0.154910
  32 H :    0.162502
  33 H :    0.131866
  34 H :    0.241052
  35 H :    0.166922
Sum of atomic charges:   -0.0000000

LOEWDIN ATOMIC CHARGES
----------------------
   0 C :    0.105067
   1 C :   -0.012704
   2 O :    0.295971
   3 C :   -0.415955
   4 O :    0.103283
   5 C :   -0.095694
   6 C :   -0.059055
   7 C :    0.131667
   8 N :    0.406637
   9 C :   -0.455956
  10 S :   -0.035744
  11 N :    0.396325
  12 C :   -0.051837
  13 C :   -0.039259
  14 C :    0.015874
  15 C :    0.039268
  16 C :   -0.001854
  17 C :   -0.190598
  18 O :    0.396148
  19 C :    0.030852
  20 H :   -0.027210
  21 H :   -0.026311
  22 H :   -0.025883
  23 H :   -0.027045
  24 H :   -0.028508
  25 H :   -0.003622
  26 H :   -0.023427
  27 H :   -0.004832
  28 H :   -0.057551
  29 H :   -0.064677
  30 H :   -0.010840
  31 H :   -0.029477
  32 H :   -0.020953
  33 H :   -0.035164
  34 H :   -0.153394
  35 H :   -0.023541

  Mayer bond orders larger than 0.100000
B(  0-C ,  1-C ) :   0.9577 B(  0-C , 20-H ) :   0.9703 B(  0-C , 21-H ) :   0.9774
B(  0-C , 22-H ) :   0.9730 B(  1-C ,  2-O ) :   0.8888 B(  1-C , 23-H ) :   0.9808
B(  1-C , 24-H ) :   0.9858 B(  2-O ,  3-C ) :   1.1469 B(  3-C ,  4-O ) :   1.9865
B(  3-C ,  5-C ) :   1.0505 B(  5-C ,  6-C ) :   1.6518 B(  5-C , 12-C ) :   0.9687
B(  6-C ,  7-C ) :   0.9657 B(  6-C ,  8-N ) :   1.1640 B(  7-C , 25-H ) :   0.9605
B(  7-C , 26-H ) :   0.9903 B(  7-C , 27-H ) :   0.9604 B(  8-N ,  9-C ) :   1.1840
B(  8-N , 28-H ) :   0.9478 B(  9-C , 10-S ) :   1.6063 B(  9-C , 11-N ) :   1.3062
B( 11-N , 12-C ) :   0.9858 B( 11-N , 29-H ) :   0.9513 B( 12-C , 13-C ) :   0.9362
B( 12-C , 30-H ) :   1.0016 B( 13-C , 14-C ) :   1.3553 B( 13-C , 19-C ) :   1.3826
B( 14-C , 15-C ) :   1.3859 B( 14-C , 31-H ) :   0.9711 B( 15-C , 16-C ) :   1.3639
B( 15-C , 32-H ) :   0.9704 B( 16-C , 17-C ) :   1.3311 B( 16-C , 33-H ) :   0.9843
B( 17-C , 18-O ) :   1.1097 B( 17-C , 19-C ) :   1.3676 B( 18-O , 34-H ) :   0.9795
B( 19-C , 35-H ) :   0.9589

MP2 TOTAL ENERGY:    -1274.343846539 Eh
FINAL SINGLE POINT ENERGY     -1274.343846539269

DIPOLE MOMENT
-------------
                                X             Y             Z
Electronic contribution:     10.08172       9.73244       6.61769
Nuclear contribution   :    -11.08802     -11.48101      -6.83104
                        -----------------------------------------
Total Dipole Moment    :     -1.00631      -1.74856      -0.21335
                        -----------------------------------------
Magnitude (a.u.)       :      2.02870
Magnitude (Debye)      :      5.15656

Rotational constants in cm-1:     0.012644     0.008723     0.006411
Rotational constants in MHz :   379.061141   261.503385   192.205852

                             ****ORCA TERMINATED NORMALLY****
TOTAL RUN TIME: 0 days 2 hours 8 minutes 43 seconds 330 msec
