                         Program Version 5.0.0 -  RELEASE  -
|  1> ! ri-mp2 cc-pvtz cc-pvtz/c TightSCF NoKeepInts
|  2>
|  3> %scf
|  4>   MaxCore 4096
|  5> end
|  6> *xyz  0  1
|  7>     C       14.8857829   14.7095629   14.4083271
|  8>     C       15.3457973   14.5172937   15.8632069
|  9>     O       16.2107718   15.6217348   16.1854891
| 10>     C       17.3020911   15.4301495   16.9835963
| 11>     O       17.7237286   14.3188406   17.2596677
| 12>     C       17.7860473   16.6684368   17.6843956
| 13>     C       17.4792534   17.9427834   17.3233937
| 14>     C       16.6185832   18.4067623   16.1657423
| 15>     N       18.0452944   19.0164018   18.0193142
| 16>     C       19.0293718   18.9062994   18.9657977
| 17>     S       19.7400511   20.2370110   19.6438890
| 18>     N       19.3947124   17.6329489   19.3209354
| 19>     C       18.7008494   16.4061233   18.8867254
| 20>     C       17.9209461   15.7951595   20.0482552
| 21>     C       18.1348740   14.4559381   20.4236132
| 22>     C       17.4190368   13.8874546   21.4905484
| 23>     C       16.4798909   14.6642182   22.1899943
| 24>     C       16.2608820   15.9973190   21.8172489
| 25>     O       15.3503269   16.7482810   22.4868458
| 26>     C       16.9745595   16.5602027   20.7545522
| 27>     H       14.3450252   15.6572789   14.2948734
| 28>     H       14.2177120   13.8940366   14.1056231
| 29>     H       15.7472273   14.7171872   13.7288352
| 30>     H       14.4863856   14.4934009   16.5457546
| 31>     H       15.8718782   13.5554914   15.9338332
| 32>     H       16.9312721   17.9260127   15.2303807
| 33>     H       16.6737304   19.4900251   16.0036702
| 34>     H       15.5655287   18.1531826   16.3406606
| 35>     H       17.7903963   19.9593358   17.7727268
| 36>     H       20.0999055   17.5780488   20.0445319
| 37>     H       19.4691772   15.6851546   18.5719285
| 38>     H       18.8482956   13.8478115   19.8727363
| 39>     H       17.5897473   12.8484595   21.7664656
| 40>     H       15.9235620   14.2286057   23.0131713
| 41>     H       14.9923801   16.2001385   23.2010867
| 42>     H       16.7919254   17.5949091   20.4861832
| 43> *
| 44>
| 45>                          ****END OF INPUT****

CARTESIAN COORDINATES (ANGSTROEM)
---------------------------------
  C     14.885783   14.709563   14.408327
  C     15.345797   14.517294   15.863207
  O     16.210772   15.621735   16.185489
  C     17.302091   15.430149   16.983596
  O     17.723729   14.318841   17.259668
  C     17.786047   16.668437   17.684396
  C     17.479253   17.942783   17.323394
  C     16.618583   18.406762   16.165742
  N     18.045294   19.016402   18.019314
  C     19.029372   18.906299   18.965798
  S     19.740051   20.237011   19.643889
  N     19.394712   17.632949   19.320935
  C     18.700849   16.406123   18.886725
  C     17.920946   15.795160   20.048255
  C     18.134874   14.455938   20.423613
  C     17.419037   13.887455   21.490548
  C     16.479891   14.664218   22.189994
  C     16.260882   15.997319   21.817249
  O     15.350327   16.748281   22.486846
  C     16.974560   16.560203   20.754552
  H     14.345025   15.657279   14.294873
  H     14.217712   13.894037   14.105623
  H     15.747227   14.717187   13.728835
  H     14.486386   14.493401   16.545755
  H     15.871878   13.555491   15.933833
  H     16.931272   17.926013   15.230381
  H     16.673730   19.490025   16.003670
  H     15.565529   18.153183   16.340661
  H     17.790396   19.959336   17.772727
  H     20.099905   17.578049   20.044532
  H     19.469177   15.685155   18.571928
  H     18.848296   13.847812   19.872736
  H     17.589747   12.848459   21.766466
  H     15.923562   14.228606   23.013171
  H     14.992380   16.200139   23.201087
  H     16.791925   17.594909   20.486183

 Total Charge           Charge          ....    0
 Multiplicity           Mult            ....    1
 Number of Electrons    NEL             ....  154
 Basis Dimension        Dim             ....  828

ORBITAL ENERGIES
----------------

  NO   OCC          E(Eh)            E(eV)
   0   2.0000     -91.887928     -2500.3976
   1   2.0000     -20.603120      -560.6394
   2   2.0000     -20.591152      -560.3137
   3   2.0000     -20.545637      -559.0752
   4   2.0000     -15.628328      -425.2684
   5   2.0000     -15.606472      -424.6737
   6   2.0000     -11.396129      -310.1044
   7   2.0000     -11.382780      -309.7412
   8   2.0000     -11.336365      -308.4782
   9   2.0000     -11.306914      -307.6768
  10   2.0000     -11.305233      -307.6310
  11   2.0000     -11.298548      -307.4491
  12   2.0000     -11.260500      -306.4138
  13   2.0000     -11.258974      -306.3723
  14   2.0000     -11.252867      -306.2061
  15   2.0000     -11.247023      -306.0470
  16   2.0000     -11.236690      -305.7659
  17   2.0000     -11.233487      -305.6787
  18   2.0000     -11.232837      -305.6610
  19   2.0000     -11.229780      -305.5778
  20   2.0000      -8.892992      -241.9906
  21   2.0000      -6.574570      -178.9031
  22   2.0000      -6.572563      -178.8485
  23   2.0000      -6.571977      -178.8326
  24   2.0000      -1.453800       -39.5599
  25   2.0000      -1.410884       -38.3921
  26   2.0000      -1.357413       -36.9371
  27   2.0000      -1.339231       -36.4423
  28   2.0000      -1.236779       -33.6545
  29   2.0000      -1.151577       -31.3360
  30   2.0000      -1.119267       -30.4568
  31   2.0000      -1.044485       -28.4219
  32   2.0000      -1.036670       -28.2092
  33   2.0000      -1.008940       -27.4547
  34   2.0000      -0.997344       -27.1391
  35   2.0000      -0.982959       -26.7477
  36   2.0000      -0.920770       -25.0554
  37   2.0000      -0.888857       -24.1870
  38   2.0000      -0.847007       -23.0482
  39   2.0000      -0.834621       -22.7112
  40   2.0000      -0.827251       -22.5107
  41   2.0000      -0.817924       -22.2568
  42   2.0000      -0.761685       -20.7265
  43   2.0000      -0.735910       -20.0251
  44   2.0000      -0.724451       -19.7133
  45   2.0000      -0.689874       -18.7724
  46   2.0000      -0.684107       -18.6155
  47   2.0000      -0.680017       -18.5042
  48   2.0000      -0.674813       -18.3626
  49   2.0000      -0.653458       -17.7815
  50   2.0000      -0.651710       -17.7339
  51   2.0000      -0.642534       -17.4842
  52   2.0000      -0.633136       -17.2285
  53   2.0000      -0.607232       -16.5236
  54   2.0000      -0.600324       -16.3356
  55   2.0000      -0.599189       -16.3047
  56   2.0000      -0.594489       -16.1769
  57   2.0000      -0.580486       -15.7958
  58   2.0000      -0.572688       -15.5836
  59   2.0000      -0.562909       -15.3175
  60   2.0000      -0.561979       -15.2922
  61   2.0000      -0.544189       -14.8081
  62   2.0000      -0.543204       -14.7813
  63   2.0000      -0.528720       -14.3872
  64   2.0000      -0.516667       -14.0592
  65   2.0000      -0.509071       -13.8525
  66   2.0000      -0.499371       -13.5886
  67   2.0000      -0.494839       -13.4653
  68   2.0000      -0.481310       -13.0971
  69   2.0000      -0.462270       -12.5790
  70   2.0000      -0.462153       -12.5758
  71   2.0000      -0.452822       -12.3219
  72   2.0000      -0.354124        -9.6362
  73   2.0000      -0.343473        -9.3464
  74   2.0000      -0.327038        -8.8992
  75   2.0000      -0.315375        -8.5818
  76   2.0000      -0.313283        -8.5249
  77   0.0000       0.075858         2.0642
  78   0.0000       0.113513         3.0889
  79   0.0000       0.120663         3.2834
  80   0.0000       0.135952         3.6994
  81   0.0000       0.138942         3.7808

MULLIKEN ATOMIC CHARGES
-----------------------
   0 C :   -0.266240
   1 C :    0.022620
   2 O :   -0.344881
   3 C :    0.453718
   4 O :   -0.428140
   5 C :   -0.181056
   6 C :    0.142074
   7 C :   -0.287539
   8 N :   -0.121901
   9 C :    0.201295
  10 S :   -0.439369
  11 N :   -0.196913
  12 C :    0.034869
  13 C :    0.057083
  14 C :   -0.160223
  15 C :   -0.133891
  16 C :   -0.278921
  17 C :    0.311345
  18 O :   -0.359248
  19 C :   -0.272193
  20 H :    0.090483
  21 H :    0.096148
  22 H :    0.097612
  23 H :    0.097412
  24 H :    0.120443
  25 H :    0.126383
  26 H :    0.103628
  27 H :    0.127441
  28 H :    0.196762
  29 H :    0.193554
  30 H :    0.153638
  31 H :    0.153071
  32 H :    0.158800
  33 H :    0.127806
  34 H :    0.239987
  35 H :    0.164343
Sum of atomic charges:    0.0000000

LOEWDIN ATOMIC CHARGES
----------------------
   0 C :    0.104721
   1 C :   -0.011638
   2 O :    0.306115
   3 C :   -0.413951
   4 O :    0.104045
   5 C :   -0.091164
   6 C :   -0.065784
   7 C :    0.124805
   8 N :    0.404817
   9 C :   -0.458954
  10 S :   -0.036059
  11 N :    0.397875
  12 C :   -0.046488
  13 C :   -0.038776
  14 C :    0.022277
  15 C :    0.040959
  16 C :   -0.002352
  17 C :   -0.192627
  18 O :    0.392910
  19 C :    0.028393
  20 H :   -0.030379
  21 H :   -0.024420
  22 H :   -0.025884
  23 H :   -0.030404
  24 H :   -0.027083
  25 H :   -0.008730
  26 H :   -0.020993
  27 H :   -0.010034
  28 H :   -0.059199
  29 H :   -0.063663
  30 H :   -0.005037
  31 H :   -0.025346
  32 H :   -0.021295
  33 H :   -0.036478
  34 H :   -0.154979
  35 H :   -0.025198

  Mayer bond orders larger than 0.100000
B(  0-C ,  1-C ) :   0.9728 B(  0-C , 20-H ) :   0.9795 B(  0-C , 21-H ) :   0.9770
B(  0-C , 22-H ) :   0.9777 B(  1-C ,  2-O ) :   0.8875 B(  1-C , 23-H ) :   0.9781
B(  1-C , 24-H ) :   0.9750 B(  2-O ,  3-C ) :   1.1612 B(  3-C ,  4-O ) :   1.9886
B(  3-C ,  5-C ) :   1.0497 B(  5-C ,  6-C ) :   1.6462 B(  5-C , 12-C ) :   0.9659
B(  6-C ,  7-C ) :   0.9543 B(  6-C ,  8-N ) :   1.1479 B(  7-C , 25-H ) :   0.9661
B(  7-C , 26-H ) :   0.9921 B(  7-C , 27-H ) :   0.9634 B(  8-N ,  9-C ) :   1.1782
B(  8-N , 28-H ) :   0.9489 B(  9-C , 10-S ) :   1.6107 B(  9-C , 11-N ) :   1.3044
B( 11-N , 12-C ) :   0.9922 B( 11-N , 29-H ) :   0.9520 B( 12-C , 13-C ) :   0.9479
B( 12-C , 30-H ) :   0.9998 B( 13-C , 14-C ) :   1.3763 B( 13-C , 19-C ) :   1.3691
B( 14-C , 15-C ) :   1.3948 B( 14-C , 31-H ) :   0.9649 B( 15-C , 16-C ) :   1.3626
B( 15-C , 32-H ) :   0.9715 B( 16-C , 17-C ) :   1.3315 B( 16-C , 33-H ) :   0.9861
B( 17-C , 18-O ) :   1.1078 B( 17-C , 19-C ) :   1.3794 B( 18-O , 34-H ) :   0.9807
B( 19-C , 35-H ) :   0.9585

MP2 TOTAL ENERGY:    -1274.346097017 Eh
FINAL SINGLE POINT ENERGY     -1274.346097017145

DIPOLE MOMENT
-------------
                                X             Y             Z
Electronic contribution:     11.36627       8.54614      12.13764
Nuclear contribution   :    -13.01471      -9.74033     -13.04082
                        -----------------------------------------
Total Dipole Moment    :     -1.64844      -1.19418      -0.90318
                        -----------------------------------------
Magnitude (a.u.)       :      2.22692
Magnitude (Debye)      :      5.66037

Rotational constants in cm-1:     0.010434     0.008726     0.005738
Rotational constants in MHz :   312.798022   261.584823   172.006123

                             ****ORCA TERMINATED NORMALLY****
TOTAL RUN TIME: 0 days 1 hours 55 minutes 49 seconds 175 msec
