                         Program Version 5.0.0 -  RELEASE  -
|  1> ! ri-mp2 cc-pvtz cc-pvtz/c TightSCF NoKeepInts
|  2>
|  3> %scf
|  4>   MaxCore 4096
|  5> end
|  6> *xyz  0  1
|  7>     C       15.2403995   13.7322951   15.7582602
|  8>     C       15.1784361   15.0456609   16.5644468
|  9>     O       16.2065618   15.9497763   16.1153592
| 10>     C       17.4789814   15.8152047   16.5946694
| 11>     O       17.9965270   14.7217557   16.7472410
| 12>     C       17.8664524   16.9759965   17.4602049
| 13>     C       17.4978961   18.2582806   17.2136735
| 14>     C       16.6895408   18.7738866   16.0412494
| 15>     N       17.9399627   19.2830011   18.0559891
| 16>     C       18.8488129   19.1250276   19.0693086
| 17>     S       19.4036407   20.4105608   19.9496435
| 18>     N       19.2749392   17.8440372   19.3166303
| 19>     C       18.7246795   16.6314909   18.6811012
| 20>     C       17.9210770   15.8146777   19.6896957
| 21>     C       18.2227270   14.4583050   19.9110442
| 22>     C       17.4764887   13.6985229   20.8273729
| 23>     C       16.4176685   14.2991833   21.5293065
| 24>     C       16.1110233   15.6487063   21.3087244
| 25>     O       15.0833983   16.2293997   21.9779419
| 26>     C       16.8549323   16.4020624   20.3952646
| 27>     H       16.1439042   13.1579630   15.9955472
| 28>     H       15.2345658   13.9384253   14.6809115
| 29>     H       14.3742362   13.1013186   15.9906931
| 30>     H       14.1983512   15.5113752   16.4003716
| 31>     H       15.2824618   14.8412803   17.6393587
| 32>     H       16.9889499   18.2784411   15.1091505
| 33>     H       16.8179961   19.8519670   15.8853568
| 34>     H       15.6202956   18.5818091   16.1943496
| 35>     H       17.6392953   20.2302619   17.8900850
| 36>     H       19.9220244   17.7522196   20.0891907
| 37>     H       19.5713031   16.0205469   18.3357934
| 38>     H       19.0288049   13.9864028   19.3543054
| 39>     H       17.7168886   12.6485617   20.9847710
| 40>     H       15.8376851   13.7154007   22.2363266
| 41>     H       14.7338679   15.5726421   22.5988733
| 42>     H       16.6022247   17.4455534   20.2417880
| 43> *
| 44>
| 45>                          ****END OF INPUT****

CARTESIAN COORDINATES (ANGSTROEM)
---------------------------------
  C     15.240400   13.732295   15.758260
  C     15.178436   15.045661   16.564447
  O     16.206562   15.949776   16.115359
  C     17.478981   15.815205   16.594669
  O     17.996527   14.721756   16.747241
  C     17.866452   16.975997   17.460205
  C     17.497896   18.258281   17.213673
  C     16.689541   18.773887   16.041249
  N     17.939963   19.283001   18.055989
  C     18.848813   19.125028   19.069309
  S     19.403641   20.410561   19.949644
  N     19.274939   17.844037   19.316630
  C     18.724680   16.631491   18.681101
  C     17.921077   15.814678   19.689696
  C     18.222727   14.458305   19.911044
  C     17.476489   13.698523   20.827373
  C     16.417669   14.299183   21.529306
  C     16.111023   15.648706   21.308724
  O     15.083398   16.229400   21.977942
  C     16.854932   16.402062   20.395265
  H     16.143904   13.157963   15.995547
  H     15.234566   13.938425   14.680911
  H     14.374236   13.101319   15.990693
  H     14.198351   15.511375   16.400372
  H     15.282462   14.841280   17.639359
  H     16.988950   18.278441   15.109151
  H     16.817996   19.851967   15.885357
  H     15.620296   18.581809   16.194350
  H     17.639295   20.230262   17.890085
  H     19.922024   17.752220   20.089191
  H     19.571303   16.020547   18.335793
  H     19.028805   13.986403   19.354305
  H     17.716889   12.648562   20.984771
  H     15.837685   13.715401   22.236327
  H     14.733868   15.572642   22.598873
  H     16.602225   17.445553   20.241788

 Total Charge           Charge          ....    0
 Multiplicity           Mult            ....    1
 Number of Electrons    NEL             ....  154
 Basis Dimension        Dim             ....  828

ORBITAL ENERGIES
----------------

  NO   OCC          E(Eh)            E(eV)
   0   2.0000     -91.888265     -2500.4068
   1   2.0000     -20.595215      -560.4243
   2   2.0000     -20.588058      -560.2295
   3   2.0000     -20.555159      -559.3343
   4   2.0000     -15.627661      -425.2503
   5   2.0000     -15.607809      -424.7101
   6   2.0000     -11.396647      -310.1185
   7   2.0000     -11.383694      -309.7660
   8   2.0000     -11.332464      -308.3720
   9   2.0000     -11.311479      -307.8010
  10   2.0000     -11.308133      -307.7099
  11   2.0000     -11.301185      -307.5209
  12   2.0000     -11.259350      -306.3825
  13   2.0000     -11.259226      -306.3791
  14   2.0000     -11.257050      -306.3199
  15   2.0000     -11.251643      -306.1728
  16   2.0000     -11.241276      -305.8907
  17   2.0000     -11.237112      -305.7774
  18   2.0000     -11.234399      -305.7035
  19   2.0000     -11.219253      -305.2914
  20   2.0000      -8.893345      -242.0002
  21   2.0000      -6.574925      -178.9128
  22   2.0000      -6.572914      -178.8581
  23   2.0000      -6.572331      -178.8422
  24   2.0000      -1.451910       -39.5085
  25   2.0000      -1.414992       -38.5039
  26   2.0000      -1.358175       -36.9578
  27   2.0000      -1.338927       -36.4340
  28   2.0000      -1.237260       -33.6676
  29   2.0000      -1.155571       -31.4447
  30   2.0000      -1.120665       -30.4948
  31   2.0000      -1.043690       -28.4003
  32   2.0000      -1.031037       -28.0560
  33   2.0000      -1.013036       -27.5661
  34   2.0000      -0.998039       -27.1580
  35   2.0000      -0.983293       -26.7568
  36   2.0000      -0.922794       -25.1105
  37   2.0000      -0.886237       -24.1157
  38   2.0000      -0.848277       -23.0828
  39   2.0000      -0.838147       -22.8071
  40   2.0000      -0.831664       -22.6307
  41   2.0000      -0.823732       -22.4149
  42   2.0000      -0.749902       -20.4059
  43   2.0000      -0.731983       -19.9183
  44   2.0000      -0.727672       -19.8010
  45   2.0000      -0.693689       -18.8762
  46   2.0000      -0.685942       -18.6654
  47   2.0000      -0.681380       -18.5413
  48   2.0000      -0.672114       -18.2892
  49   2.0000      -0.664368       -18.0784
  50   2.0000      -0.646625       -17.5956
  51   2.0000      -0.642289       -17.4776
  52   2.0000      -0.634724       -17.2717
  53   2.0000      -0.604712       -16.4551
  54   2.0000      -0.602782       -16.4025
  55   2.0000      -0.599005       -16.2998
  56   2.0000      -0.593287       -16.1442
  57   2.0000      -0.585921       -15.9437
  58   2.0000      -0.575670       -15.6648
  59   2.0000      -0.569991       -15.5102
  60   2.0000      -0.561597       -15.2818
  61   2.0000      -0.547967       -14.9110
  62   2.0000      -0.535005       -14.5582
  63   2.0000      -0.520576       -14.1656
  64   2.0000      -0.515835       -14.0366
  65   2.0000      -0.511042       -13.9062
  66   2.0000      -0.502648       -13.6777
  67   2.0000      -0.497079       -13.5262
  68   2.0000      -0.480992       -13.0885
  69   2.0000      -0.464627       -12.6431
  70   2.0000      -0.454393       -12.3647
  71   2.0000      -0.450180       -12.2500
  72   2.0000      -0.353457        -9.6181
  73   2.0000      -0.347332        -9.4514
  74   2.0000      -0.327604        -8.9146
  75   2.0000      -0.318644        -8.6707
  76   2.0000      -0.315145        -8.5755
  77   0.0000       0.072693         1.9781
  78   0.0000       0.106658         2.9023
  79   0.0000       0.120317         3.2740
  80   0.0000       0.132841         3.6148
  81   0.0000       0.137283         3.7357

MULLIKEN ATOMIC CHARGES
-----------------------
   0 C :   -0.279989
   1 C :    0.043834
   2 O :   -0.370766
   3 C :    0.436039
   4 O :   -0.407060
   5 C :   -0.162051
   6 C :    0.134509
   7 C :   -0.280955
   8 N :   -0.123751
   9 C :    0.203104
  10 S :   -0.440493
  11 N :   -0.200841
  12 C :    0.051805
  13 C :    0.042754
  14 C :   -0.163126
  15 C :   -0.133649
  16 C :   -0.280889
  17 C :    0.311538
  18 O :   -0.358482
  19 C :   -0.274540
  20 H :    0.121223
  21 H :    0.091438
  22 H :    0.088577
  23 H :    0.099364
  24 H :    0.098707
  25 H :    0.122891
  26 H :    0.102794
  27 H :    0.126150
  28 H :    0.196994
  29 H :    0.194104
  30 H :    0.155137
  31 H :    0.156207
  32 H :    0.160724
  33 H :    0.130400
  34 H :    0.240592
  35 H :    0.167709
Sum of atomic charges:   -0.0000000

LOEWDIN ATOMIC CHARGES
----------------------
   0 C :    0.105225
   1 C :   -0.014361
   2 O :    0.289078
   3 C :   -0.412449
   4 O :    0.128942
   5 C :   -0.092691
   6 C :   -0.073643
   7 C :    0.125979
   8 N :    0.403989
   9 C :   -0.457618
  10 S :   -0.036941
  11 N :    0.397106
  12 C :   -0.045469
  13 C :   -0.040614
  14 C :    0.020702
  15 C :    0.040976
  16 C :   -0.002461
  17 C :   -0.193909
  18 O :    0.393583
  19 C :    0.028255
  20 H :   -0.026483
  21 H :   -0.028801
  22 H :   -0.030293
  23 H :   -0.025472
  24 H :   -0.027130
  25 H :   -0.008378
  26 H :   -0.019776
  27 H :   -0.009632
  28 H :   -0.058824
  29 H :   -0.064100
  30 H :   -0.005056
  31 H :   -0.024906
  32 H :   -0.020557
  33 H :   -0.035760
  34 H :   -0.154264
  35 H :   -0.024251

  Mayer bond orders larger than 0.100000
B(  0-C ,  1-C ) :   0.9770 B(  0-C , 20-H ) :   0.9715 B(  0-C , 21-H ) :   0.9763
B(  0-C , 22-H ) :   0.9760 B(  1-C ,  2-O ) :   0.8986 B(  1-C , 23-H ) :   0.9833
B(  1-C , 24-H ) :   0.9714 B(  2-O ,  3-C ) :   1.0829 B(  3-C ,  4-O ) :   1.9959
B(  3-C ,  5-C ) :   1.0363 B(  5-C ,  6-C ) :   1.6682 B(  5-C , 12-C ) :   0.9621
B(  6-C ,  7-C ) :   0.9523 B(  6-C ,  8-N ) :   1.1380 B(  7-C , 25-H ) :   0.9703
B(  7-C , 26-H ) :   0.9886 B(  7-C , 27-H ) :   0.9628 B(  8-N ,  9-C ) :   1.1847
B(  8-N , 28-H ) :   0.9499 B(  9-C , 10-S ) :   1.6099 B(  9-C , 11-N ) :   1.2998
B( 11-N , 12-C ) :   0.9936 B( 11-N , 29-H ) :   0.9516 B( 12-C , 13-C ) :   0.9440
B( 12-C , 30-H ) :   0.9986 B( 13-C , 14-C ) :   1.3776 B( 13-C , 19-C ) :   1.3691
B( 14-C , 15-C ) :   1.3945 B( 14-C , 31-H ) :   0.9640 B( 15-C , 16-C ) :   1.3634
B( 15-C , 32-H ) :   0.9710 B( 16-C , 17-C ) :   1.3304 B( 16-C , 33-H ) :   0.9851
B( 17-C , 18-O ) :   1.1098 B( 17-C , 19-C ) :   1.3758 B( 18-O , 34-H ) :   0.9800
B( 19-C , 35-H ) :   0.9578

MP2 TOTAL ENERGY:    -1274.326926410 Eh
FINAL SINGLE POINT ENERGY     -1274.326926410363

DIPOLE MOMENT
-------------
                                X             Y             Z
Electronic contribution:     10.57399      10.63040       8.48371
Nuclear contribution   :    -12.08192     -11.80838      -9.07758
                        -----------------------------------------
Total Dipole Moment    :     -1.50793      -1.17799      -0.59387
                        -----------------------------------------
Magnitude (a.u.)       :      2.00354
Magnitude (Debye)      :      5.09260

Rotational constants in cm-1:     0.011616     0.008999     0.006255
Rotational constants in MHz :   348.247022   269.784665   187.533030

                             ****ORCA TERMINATED NORMALLY****
TOTAL RUN TIME: 0 days 1 hours 37 minutes 26 seconds 32 msec
