                         Program Version 5.0.0 -  RELEASE  -
|  1> ! ri-mp2 cc-pvtz cc-pvtz/c TightSCF NoKeepInts
|  2>
|  3> %scf
|  4>   MaxCore 4096
|  5> end
|  6> *xyz  0  1
|  7>     C       14.7595240   14.0699152   16.0942917
|  8>     C       15.6735061   14.9045101   15.1896015
|  9>     O       16.1593863   15.9931637   16.0003398
| 10>     C       17.2662811   15.8362007   16.7819521
| 11>     O       17.7002813   14.7216276   17.0177853
| 12>     C       17.7019639   17.0267547   17.5955357
| 13>     C       17.3490736   18.3247697   17.3788844
| 14>     C       16.4300670   18.9028665   16.3155550
| 15>     N       17.9121811   19.3314371   18.1823316
| 16>     C       18.8315043   19.1164305   19.1839833
| 17>     S       19.4715771   20.3547211   20.0679472
| 18>     N       19.2196322   17.8242695   19.4201408
| 19>     C       18.6662586   16.6581070   18.7352838
| 20>     C       17.9931827   15.7639219   19.7672639
| 21>     C       18.4773974   14.4678281   20.0050711
| 22>     C       17.8343675   13.6348802   20.9328834
| 23>     C       16.7078969   14.1050398   21.6369285
| 24>     C       16.2255665   15.4066958   21.4120306
| 25>     O       15.1367810   15.9107291   22.0708703
| 26>     C       16.8722262   16.2264554   20.4806828
| 27>     H       15.3620562   13.6022274   16.8857162
| 28>     H       14.2866231   13.2662722   15.5234253
| 29>     H       13.9913526   14.6892080   16.5711174
| 30>     H       16.4583761   14.3048984   14.7019471
| 31>     H       15.0321358   15.3267048   14.4005969
| 32>     H       15.9818526   18.1843516   15.6322686
| 33>     H       16.9727404   19.5984605   15.6684608
| 34>     H       15.5867610   19.4224034   16.7834706
| 35>     H       17.6663440   20.3008481   18.0220601
| 36>     H       19.8753125   17.6716635   20.1816430
| 37>     H       19.5207224   16.1271655   18.2905892
| 38>     H       19.3371276   14.0984194   19.4498741
| 39>     H       18.2111602   12.6274386   21.0959633
| 40>     H       16.2210733   13.4522998   22.3508099
| 41>     H       14.7579982   15.2699804   22.6942587
| 42>     H       16.4967091   17.2293349   20.3124359
| 43> *
| 44>
| 45>                          ****END OF INPUT****

CARTESIAN COORDINATES (ANGSTROEM)
---------------------------------
  C     14.759524   14.069915   16.094292
  C     15.673506   14.904510   15.189602
  O     16.159386   15.993164   16.000340
  C     17.266281   15.836201   16.781952
  O     17.700281   14.721628   17.017785
  C     17.701964   17.026755   17.595536
  C     17.349074   18.324770   17.378884
  C     16.430067   18.902866   16.315555
  N     17.912181   19.331437   18.182332
  C     18.831504   19.116430   19.183983
  S     19.471577   20.354721   20.067947
  N     19.219632   17.824269   19.420141
  C     18.666259   16.658107   18.735284
  C     17.993183   15.763922   19.767264
  C     18.477397   14.467828   20.005071
  C     17.834367   13.634880   20.932883
  C     16.707897   14.105040   21.636928
  C     16.225566   15.406696   21.412031
  O     15.136781   15.910729   22.070870
  C     16.872226   16.226455   20.480683
  H     15.362056   13.602227   16.885716
  H     14.286623   13.266272   15.523425
  H     13.991353   14.689208   16.571117
  H     16.458376   14.304898   14.701947
  H     15.032136   15.326705   14.400597
  H     15.981853   18.184352   15.632269
  H     16.972740   19.598461   15.668461
  H     15.586761   19.422403   16.783471
  H     17.666344   20.300848   18.022060
  H     19.875312   17.671664   20.181643
  H     19.520722   16.127166   18.290589
  H     19.337128   14.098419   19.449874
  H     18.211160   12.627439   21.095963
  H     16.221073   13.452300   22.350810
  H     14.757998   15.269980   22.694259
  H     16.496709   17.229335   20.312436

 Total Charge           Charge          ....    0
 Multiplicity           Mult            ....    1
 Number of Electrons    NEL             ....  154
 Basis Dimension        Dim             ....  828

ORBITAL ENERGIES
----------------

  NO   OCC          E(Eh)            E(eV)
   0   2.0000     -91.885621     -2500.3349
   1   2.0000     -20.602685      -560.6276
   2   2.0000     -20.589364      -560.2651
   3   2.0000     -20.543450      -559.0157
   4   2.0000     -15.628217      -425.2654
   5   2.0000     -15.605649      -424.6513
   6   2.0000     -11.395939      -310.0993
   7   2.0000     -11.382800      -309.7417
   8   2.0000     -11.338958      -308.5487
   9   2.0000     -11.307776      -307.7002
  10   2.0000     -11.302567      -307.5585
  11   2.0000     -11.300527      -307.5030
  12   2.0000     -11.265419      -306.5476
  13   2.0000     -11.256114      -306.2944
  14   2.0000     -11.249967      -306.1272
  15   2.0000     -11.244988      -305.9917
  16   2.0000     -11.236343      -305.7564
  17   2.0000     -11.231262      -305.6182
  18   2.0000     -11.228354      -305.5390
  19   2.0000     -11.220588      -305.3277
  20   2.0000      -8.890906      -241.9339
  21   2.0000      -6.572501      -178.8468
  22   2.0000      -6.570482      -178.7919
  23   2.0000      -6.569895      -178.7759
  24   2.0000      -1.455453       -39.6049
  25   2.0000      -1.401057       -38.1247
  26   2.0000      -1.355701       -36.8905
  27   2.0000      -1.335720       -36.3468
  28   2.0000      -1.238059       -33.6893
  29   2.0000      -1.150064       -31.2948
  30   2.0000      -1.116924       -30.3930
  31   2.0000      -1.040813       -28.3220
  32   2.0000      -1.033632       -28.1266
  33   2.0000      -1.008058       -27.4307
  34   2.0000      -0.997392       -27.1404
  35   2.0000      -0.982300       -26.7297
  36   2.0000      -0.918879       -25.0040
  37   2.0000      -0.889421       -24.2024
  38   2.0000      -0.846998       -23.0480
  39   2.0000      -0.831951       -22.6385
  40   2.0000      -0.826060       -22.4782
  41   2.0000      -0.815753       -22.1978
  42   2.0000      -0.755410       -20.5558
  43   2.0000      -0.736264       -20.0348
  44   2.0000      -0.725073       -19.7302
  45   2.0000      -0.687166       -18.6987
  46   2.0000      -0.682925       -18.5833
  47   2.0000      -0.679761       -18.4972
  48   2.0000      -0.671161       -18.2632
  49   2.0000      -0.653434       -17.7809
  50   2.0000      -0.647752       -17.6262
  51   2.0000      -0.641707       -17.4617
  52   2.0000      -0.630706       -17.1624
  53   2.0000      -0.611836       -16.6489
  54   2.0000      -0.603454       -16.4208
  55   2.0000      -0.597000       -16.2452
  56   2.0000      -0.589242       -16.0341
  57   2.0000      -0.582398       -15.8479
  58   2.0000      -0.570081       -15.5127
  59   2.0000      -0.561038       -15.2666
  60   2.0000      -0.559397       -15.2220
  61   2.0000      -0.541420       -14.7328
  62   2.0000      -0.531613       -14.4659
  63   2.0000      -0.523218       -14.2375
  64   2.0000      -0.514922       -14.0117
  65   2.0000      -0.506302       -13.7772
  66   2.0000      -0.499822       -13.6008
  67   2.0000      -0.491790       -13.3823
  68   2.0000      -0.482354       -13.1255
  69   2.0000      -0.463497       -12.6124
  70   2.0000      -0.455207       -12.3868
  71   2.0000      -0.448298       -12.1988
  72   2.0000      -0.353542        -9.6204
  73   2.0000      -0.341009        -9.2793
  74   2.0000      -0.325305        -8.8520
  75   2.0000      -0.314490        -8.5577
  76   2.0000      -0.312719        -8.5095
  77   0.0000       0.078181         2.1274
  78   0.0000       0.114811         3.1242
  79   0.0000       0.121357         3.3023
  80   0.0000       0.136849         3.7238
  81   0.0000       0.142535         3.8786

MULLIKEN ATOMIC CHARGES
-----------------------
   0 C :   -0.288576
   1 C :    0.038056
   2 O :   -0.348468
   3 C :    0.448695
   4 O :   -0.427935
   5 C :   -0.220437
   6 C :    0.174560
   7 C :   -0.305308
   8 N :   -0.136524
   9 C :    0.209812
  10 S :   -0.445070
  11 N :   -0.192491
  12 C :    0.061432
  13 C :    0.035873
  14 C :   -0.135530
  15 C :   -0.135668
  16 C :   -0.275684
  17 C :    0.299937
  18 O :   -0.364605
  19 C :   -0.259701
  20 H :    0.120158
  21 H :    0.091692
  22 H :    0.095763
  23 H :    0.105917
  24 H :    0.099334
  25 H :    0.143422
  26 H :    0.114178
  27 H :    0.114789
  28 H :    0.199363
  29 H :    0.198738
  30 H :    0.146727
  31 H :    0.144582
  32 H :    0.157418
  33 H :    0.133859
  34 H :    0.240020
  35 H :    0.161673
Sum of atomic charges:    0.0000000

LOEWDIN ATOMIC CHARGES
----------------------
   0 C :    0.102861
   1 C :   -0.017275
   2 O :    0.307809
   3 C :   -0.418408
   4 O :    0.113172
   5 C :   -0.086294
   6 C :   -0.065734
   7 C :    0.128998
   8 N :    0.398174
   9 C :   -0.456949
  10 S :   -0.036656
  11 N :    0.397542
  12 C :   -0.053963
  13 C :   -0.040663
  14 C :    0.023065
  15 C :    0.040450
  16 C :    0.000742
  17 C :   -0.181394
  18 O :    0.381962
  19 C :    0.029685
  20 H :   -0.022024
  21 H :   -0.030618
  22 H :   -0.027811
  23 H :   -0.025771
  24 H :   -0.026586
  25 H :   -0.021145
  26 H :   -0.016690
  27 H :   -0.014570
  28 H :   -0.052312
  29 H :   -0.055137
  30 H :   -0.007653
  31 H :   -0.025609
  32 H :   -0.022187
  33 H :   -0.038017
  34 H :   -0.155347
  35 H :   -0.025646

  Mayer bond orders larger than 0.100000
B(  0-C ,  1-C ) :   0.9653 B(  0-C , 20-H ) :   0.9743 B(  0-C , 21-H ) :   0.9763
B(  0-C , 22-H ) :   0.9768 B(  1-C ,  2-O ) :   0.8854 B(  1-C , 23-H ) :   0.9764
B(  1-C , 24-H ) :   0.9860 B(  2-O ,  3-C ) :   1.1598 B(  3-C ,  4-O ) :   1.9690
B(  3-C ,  5-C ) :   1.0724 B(  5-C ,  6-C ) :   1.6246 B(  5-C , 12-C ) :   0.9713
B(  6-C ,  7-C ) :   0.9549 B(  6-C ,  8-N ) :   1.1559 B(  7-C , 25-H ) :   0.9692
B(  7-C , 26-H ) :   0.9688 B(  7-C , 27-H ) :   0.9692 B(  8-N ,  9-C ) :   1.1803
B(  8-N , 28-H ) :   0.9490 B(  9-C , 10-S ) :   1.6076 B(  9-C , 11-N ) :   1.3099
B( 11-N , 12-C ) :   0.9965 B( 11-N , 29-H ) :   0.9485 B( 12-C , 13-C ) :   0.9477
B( 12-C , 30-H ) :   1.0012 B( 13-C , 14-C ) :   1.3686 B( 13-C , 19-C ) :   1.3773
B( 14-C , 15-C ) :   1.4011 B( 14-C , 31-H ) :   0.9690 B( 15-C , 16-C ) :   1.3617
B( 15-C , 32-H ) :   0.9724 B( 16-C , 17-C ) :   1.3452 B( 16-C , 33-H ) :   0.9808
B( 17-C , 18-O ) :   1.1061 B( 17-C , 19-C ) :   1.3690 B( 18-O , 34-H ) :   0.9798
B( 19-C , 35-H ) :   0.9590

MP2 TOTAL ENERGY:    -1274.340205027 Eh
FINAL SINGLE POINT ENERGY     -1274.340205026916

DIPOLE MOMENT
-------------
                                X             Y             Z
Electronic contribution:     10.66629       9.73118       9.59607
Nuclear contribution   :    -12.02224     -10.89107     -10.87035
                        -----------------------------------------
Total Dipole Moment    :     -1.35596      -1.15989      -1.27428
                        -----------------------------------------
Magnitude (a.u.)       :      2.19266
Magnitude (Debye)      :      5.57330

Rotational constants in cm-1:     0.010907     0.008967     0.005992
Rotational constants in MHz :   326.996547   268.832498   179.624286

                             ****ORCA TERMINATED NORMALLY****
TOTAL RUN TIME: 0 days 2 hours 14 minutes 23 seconds 746 msec
