                         Program Version 5.0.0 -  RELEASE  -
|  1> ! ri-mp2 cc-pvtz cc-pvtz/c TightSCF NoKeepInts
|  2>
|  3> %scf
|  4>   MaxCore 4096
|  5> end
|  6> *xyz  0  1
|  7>     C       15.3023431   14.2702130   17.1991160
|  8>     C       16.4597288   14.0276189   16.2097194
|  9>     O       17.5325438   14.9634654   16.4440613
| 10>     C       17.3320206   16.2856466   16.1614509
| 11>     O       16.6393151   16.6275570   15.2181326
| 12>     C       17.7014250   17.1923967   17.3043485
| 13>     C       17.3893137   18.5141855   17.3167003
| 14>     C       16.5920461   19.2819676   16.2838884
| 15>     N       17.8657663   19.3354899   18.3435668
| 16>     C       18.8042696   18.9602921   19.2680041
| 17>     S       19.4490078   20.0341998   20.3482062
| 18>     N       19.1921608   17.6447666   19.2424203
| 19>     C       18.5313500   16.5906621   18.4512577
| 20>     C       17.7077020   15.7094081   19.3847383
| 21>     C       18.1139611   14.3892891   19.6569570
| 22>     C       17.3774986   13.5820654   20.5405443
| 23>     C       16.2269195   14.0995656   21.1599468
| 24>     C       15.8223959   15.4153066   20.8953383
| 25>     O       14.7121252   15.9178580   21.4914468
| 26>     C       16.5573226   16.2162973   20.0158466
| 27>     H       15.6240868   14.0813561   18.2280908
| 28>     H       14.4688558   13.5921951   16.9801777
| 29>     H       14.9257146   15.2983528   17.1318530
| 30>     H       16.8345051   13.0047191   16.3422436
| 31>     H       16.0942757   14.1195283   15.1776721
| 32>     H       17.0865468   19.2394818   15.3050419
| 33>     H       16.4596376   20.3390094   16.5425513
| 34>     H       15.5928698   18.8438352   16.1648003
| 35>     H       17.5988014   20.3066860   18.3680616
| 36>     H       19.8636729   17.3895797   19.9549590
| 37>     H       19.3209116   15.9724168   18.0013639
| 38>     H       19.0036660   13.9867851   19.1800792
| 39>     H       17.6997924   12.5623071   20.7440591
| 40>     H       15.6553726   13.4804353   21.8436110
| 41>     H       14.3747088   15.2413392   22.0976191
| 42>     H       16.2343667   17.2357219   19.8361256
| 43> *
| 44>
| 45>                          ****END OF INPUT****

CARTESIAN COORDINATES (ANGSTROEM)
---------------------------------
  C     15.302343   14.270213   17.199116
  C     16.459729   14.027619   16.209719
  O     17.532544   14.963465   16.444061
  C     17.332021   16.285647   16.161451
  O     16.639315   16.627557   15.218133
  C     17.701425   17.192397   17.304348
  C     17.389314   18.514185   17.316700
  C     16.592046   19.281968   16.283888
  N     17.865766   19.335490   18.343567
  C     18.804270   18.960292   19.268004
  S     19.449008   20.034200   20.348206
  N     19.192161   17.644767   19.242420
  C     18.531350   16.590662   18.451258
  C     17.707702   15.709408   19.384738
  C     18.113961   14.389289   19.656957
  C     17.377499   13.582065   20.540544
  C     16.226920   14.099566   21.159947
  C     15.822396   15.415307   20.895338
  O     14.712125   15.917858   21.491447
  C     16.557323   16.216297   20.015847
  H     15.624087   14.081356   18.228091
  H     14.468856   13.592195   16.980178
  H     14.925715   15.298353   17.131853
  H     16.834505   13.004719   16.342244
  H     16.094276   14.119528   15.177672
  H     17.086547   19.239482   15.305042
  H     16.459638   20.339009   16.542551
  H     15.592870   18.843835   16.164800
  H     17.598801   20.306686   18.368062
  H     19.863673   17.389580   19.954959
  H     19.320912   15.972417   18.001364
  H     19.003666   13.986785   19.180079
  H     17.699792   12.562307   20.744059
  H     15.655373   13.480435   21.843611
  H     14.374709   15.241339   22.097619
  H     16.234367   17.235722   19.836126

 Total Charge           Charge          ....    0
 Multiplicity           Mult            ....    1
 Number of Electrons    NEL             ....  154
 Basis Dimension        Dim             ....  828

ORBITAL ENERGIES
----------------

  NO   OCC          E(Eh)            E(eV)
   0   2.0000     -91.889962     -2500.4530
   1   2.0000     -20.598625      -560.5171
   2   2.0000     -20.591650      -560.3273
   3   2.0000     -20.544148      -559.0347
   4   2.0000     -15.630504      -425.3276
   5   2.0000     -15.608728      -424.7351
   6   2.0000     -11.394436      -310.0584
   7   2.0000     -11.384637      -309.7917
   8   2.0000     -11.337177      -308.5003
   9   2.0000     -11.315988      -307.9237
  10   2.0000     -11.310265      -307.7680
  11   2.0000     -11.295703      -307.3717
  12   2.0000     -11.261226      -306.4335
  13   2.0000     -11.260034      -306.4011
  14   2.0000     -11.257588      -306.3345
  15   2.0000     -11.252936      -306.2080
  16   2.0000     -11.245328      -306.0009
  17   2.0000     -11.239932      -305.8541
  18   2.0000     -11.239838      -305.8515
  19   2.0000     -11.220806      -305.3337
  20   2.0000      -8.894994      -242.0451
  21   2.0000      -6.576561      -178.9573
  22   2.0000      -6.574566      -178.9030
  23   2.0000      -6.573972      -178.8869
  24   2.0000      -1.448985       -39.4289
  25   2.0000      -1.418309       -38.5942
  26   2.0000      -1.352082       -36.7920
  27   2.0000      -1.341429       -36.5021
  28   2.0000      -1.239613       -33.7316
  29   2.0000      -1.159229       -31.5442
  30   2.0000      -1.120896       -30.5011
  31   2.0000      -1.043828       -28.4040
  32   2.0000      -1.032211       -28.0879
  33   2.0000      -1.017145       -27.6779
  34   2.0000      -0.997051       -27.1311
  35   2.0000      -0.985257       -26.8102
  36   2.0000      -0.923866       -25.1397
  37   2.0000      -0.893709       -24.3191
  38   2.0000      -0.847821       -23.0704
  39   2.0000      -0.840302       -22.8658
  40   2.0000      -0.835720       -22.7411
  41   2.0000      -0.814883       -22.1741
  42   2.0000      -0.752925       -20.4881
  43   2.0000      -0.733809       -19.9680
  44   2.0000      -0.722759       -19.6673
  45   2.0000      -0.697986       -18.9932
  46   2.0000      -0.690247       -18.7826
  47   2.0000      -0.677206       -18.4277
  48   2.0000      -0.668944       -18.2029
  49   2.0000      -0.665437       -18.1075
  50   2.0000      -0.648932       -17.6583
  51   2.0000      -0.643490       -17.5103
  52   2.0000      -0.635873       -17.3030
  53   2.0000      -0.609274       -16.5792
  54   2.0000      -0.609171       -16.5764
  55   2.0000      -0.601045       -16.3553
  56   2.0000      -0.599871       -16.3233
  57   2.0000      -0.579446       -15.7675
  58   2.0000      -0.571261       -15.5448
  59   2.0000      -0.565872       -15.3981
  60   2.0000      -0.553733       -15.0679
  61   2.0000      -0.544212       -14.8088
  62   2.0000      -0.535980       -14.5848
  63   2.0000      -0.529591       -14.4109
  64   2.0000      -0.526968       -14.3395
  65   2.0000      -0.514606       -14.0032
  66   2.0000      -0.503318       -13.6960
  67   2.0000      -0.500798       -13.6274
  68   2.0000      -0.476131       -12.9562
  69   2.0000      -0.464993       -12.6531
  70   2.0000      -0.452694       -12.3184
  71   2.0000      -0.444608       -12.0984
  72   2.0000      -0.356533        -9.7018
  73   2.0000      -0.351393        -9.5619
  74   2.0000      -0.329348        -8.9620
  75   2.0000      -0.324161        -8.8209
  76   2.0000      -0.316913        -8.6237
  77   0.0000       0.071264         1.9392
  78   0.0000       0.105423         2.8687
  79   0.0000       0.122493         3.3332
  80   0.0000       0.130643         3.5550
  81   0.0000       0.136238         3.7072

MULLIKEN ATOMIC CHARGES
-----------------------
   0 C :   -0.316722
   1 C :    0.030152
   2 O :   -0.378067
   3 C :    0.459628
   4 O :   -0.424182
   5 C :   -0.216773
   6 C :    0.150454
   7 C :   -0.270054
   8 N :   -0.123903
   9 C :    0.209882
  10 S :   -0.436987
  11 N :   -0.199615
  12 C :    0.041865
  13 C :    0.058181
  14 C :   -0.184802
  15 C :   -0.131126
  16 C :   -0.277924
  17 C :    0.303692
  18 O :   -0.358510
  19 C :   -0.245446
  20 H :    0.107829
  21 H :    0.111706
  22 H :    0.106473
  23 H :    0.112264
  24 H :    0.119549
  25 H :    0.133583
  26 H :    0.094852
  27 H :    0.129996
  28 H :    0.198501
  29 H :    0.192757
  30 H :    0.150974
  31 H :    0.152139
  32 H :    0.160952
  33 H :    0.131460
  34 H :    0.241218
  35 H :    0.166002
Sum of atomic charges:    0.0000000

LOEWDIN ATOMIC CHARGES
----------------------
   0 C :    0.106552
   1 C :   -0.015891
   2 O :    0.292119
   3 C :   -0.416788
   4 O :    0.105248
   5 C :   -0.096309
   6 C :   -0.057943
   7 C :    0.131112
   8 N :    0.406940
   9 C :   -0.456918
  10 S :   -0.033275
  11 N :    0.396724
  12 C :   -0.052601
  13 C :   -0.037873
  14 C :    0.012982
  15 C :    0.039337
  16 C :   -0.002699
  17 C :   -0.190425
  18 O :    0.396423
  19 C :    0.033199
  20 H :   -0.027352
  21 H :   -0.025748
  22 H :   -0.027559
  23 H :   -0.024372
  24 H :   -0.028574
  25 H :   -0.003322
  26 H :   -0.023324
  27 H :   -0.005538
  28 H :   -0.057565
  29 H :   -0.065070
  30 H :   -0.007798
  31 H :   -0.029461
  32 H :   -0.020747
  33 H :   -0.035240
  34 H :   -0.153385
  35 H :   -0.024860

  Mayer bond orders larger than 0.100000
B(  0-C ,  1-C ) :   0.9575 B(  0-C , 20-H ) :   0.9720 B(  0-C , 21-H ) :   0.9782
B(  0-C , 22-H ) :   0.9737 B(  1-C ,  2-O ) :   0.8857 B(  1-C , 23-H ) :   0.9840
B(  1-C , 24-H ) :   0.9822 B(  2-O ,  3-C ) :   1.1225 B(  3-C ,  4-O ) :   1.9844
B(  3-C ,  5-C ) :   1.0687 B(  5-C ,  6-C ) :   1.6527 B(  5-C , 12-C ) :   0.9723
B(  6-C ,  7-C ) :   0.9696 B(  6-C ,  8-N ) :   1.1566 B(  7-C , 25-H ) :   0.9583
B(  7-C , 26-H ) :   0.9897 B(  7-C , 27-H ) :   0.9623 B(  8-N ,  9-C ) :   1.1793
B(  8-N , 28-H ) :   0.9480 B(  9-C , 10-S ) :   1.6121 B(  9-C , 11-N ) :   1.3037
B( 11-N , 12-C ) :   0.9788 B( 11-N , 29-H ) :   0.9535 B( 12-C , 13-C ) :   0.9391
B( 12-C , 30-H ) :   1.0036 B( 13-C , 14-C ) :   1.3558 B( 13-C , 19-C ) :   1.3778
B( 14-C , 15-C ) :   1.3878 B( 14-C , 31-H ) :   0.9714 B( 15-C , 16-C ) :   1.3610
B( 15-C , 32-H ) :   0.9718 B( 16-C , 17-C ) :   1.3310 B( 16-C , 33-H ) :   0.9851
B( 17-C , 18-O ) :   1.1129 B( 17-C , 19-C ) :   1.3759 B( 18-O , 34-H ) :   0.9795
B( 19-C , 35-H ) :   0.9569

MP2 TOTAL ENERGY:    -1274.342001381 Eh
FINAL SINGLE POINT ENERGY     -1274.342001380819

DIPOLE MOMENT
-------------
                                X             Y             Z
Electronic contribution:      9.41434       9.73362       5.66939
Nuclear contribution   :    -10.34613     -11.42121      -5.78327
                        -----------------------------------------
Total Dipole Moment    :     -0.93179      -1.68759      -0.11388
                        -----------------------------------------
Magnitude (a.u.)       :      1.93111
Magnitude (Debye)      :      4.90848

Rotational constants in cm-1:     0.012138     0.009325     0.006544
Rotational constants in MHz :   363.898501   279.550170   196.170739

                             ****ORCA TERMINATED NORMALLY****
TOTAL RUN TIME: 0 days 2 hours 7 minutes 26 seconds 887 msec
