                         Program Version 5.0.0 -  RELEASE  -
|  1> ! ri-mp2 cc-pvtz cc-pvtz/c TightSCF NoKeepInts
|  2>
|  3> %scf
|  4>   MaxCore 4096
|  5> end
|  6> *xyz  0  1
|  7>     C       15.2536519   14.0122336   16.5047313
|  8>     C       15.5128786   15.0417203   15.3797416
|  9>     O       16.4544907   16.0759300   15.7531487
| 10>     C       17.5025623   15.8737489   16.6066029
| 11>     O       18.0899733   14.8078797   16.6881550
| 12>     C       17.8061469   17.0299931   17.5164804
| 13>     C       17.3620828   18.3033055   17.3459188
| 14>     C       16.5048544   18.8537011   16.2244477
| 15>     N       17.7534570   19.3008242   18.2453798
| 16>     C       18.6783685   19.1403975   19.2429094
| 17>     S       19.1701056   20.4060139   20.1873989
| 18>     N       19.1741460   17.8737882   19.4183771
| 19>     C       18.6797914   16.6706268   18.7234926
| 20>     C       17.9204236   15.7662277   19.6910497
| 21>     C       18.2837148   14.4147277   19.8375456
| 22>     C       17.5802626   13.5747122   20.7169165
| 23>     C       16.5027136   14.0894555   21.4574969
| 24>     C       16.1349837   15.4339096   21.3118631
| 25>     O       15.0900788   15.9321181   22.0198375
| 26>     C       16.8366159   16.2673584   20.4352210
| 27>     H       16.0937288   13.3164289   16.6191014
| 28>     H       14.3660614   13.4127556   16.2696893
| 29>     H       15.0788029   14.5130175   17.4654894
| 30>     H       15.8970156   14.5043355   14.5027234
| 31>     H       14.5651372   15.5129154   15.0894875
| 32>     H       15.4849190   18.4542712   16.2850478
| 33>     H       16.9194884   18.5783632   15.2466138
| 34>     H       16.4316253   19.9477976   16.2447291
| 35>     H       17.4012878   20.2380343   18.1335586
| 36>     H       19.8313747   17.7749420   20.1813884
| 37>     H       19.5555642   16.1194776   18.3511716
| 38>     H       19.1046773   14.0094002   19.2509130
| 39>     H       17.8678243   12.5295490   20.8158106
| 40>     H       15.9554587   13.4436684   22.1360214
| 41>     H       14.7663041   15.2232486   22.5956035
| 42>     H       16.5364278   17.3051229   20.3399368
| 43> *
| 44>
| 45>                          ****END OF INPUT****

CARTESIAN COORDINATES (ANGSTROEM)
---------------------------------
  C     15.253652   14.012234   16.504731
  C     15.512879   15.041720   15.379742
  O     16.454491   16.075930   15.753149
  C     17.502562   15.873749   16.606603
  O     18.089973   14.807880   16.688155
  C     17.806147   17.029993   17.516480
  C     17.362083   18.303306   17.345919
  C     16.504854   18.853701   16.224448
  N     17.753457   19.300824   18.245380
  C     18.678368   19.140397   19.242909
  S     19.170106   20.406014   20.187399
  N     19.174146   17.873788   19.418377
  C     18.679791   16.670627   18.723493
  C     17.920424   15.766228   19.691050
  C     18.283715   14.414728   19.837546
  C     17.580263   13.574712   20.716916
  C     16.502714   14.089455   21.457497
  C     16.134984   15.433910   21.311863
  O     15.090079   15.932118   22.019838
  C     16.836616   16.267358   20.435221
  H     16.093729   13.316429   16.619101
  H     14.366061   13.412756   16.269689
  H     15.078803   14.513017   17.465489
  H     15.897016   14.504335   14.502723
  H     14.565137   15.512915   15.089488
  H     15.484919   18.454271   16.285048
  H     16.919488   18.578363   15.246614
  H     16.431625   19.947798   16.244729
  H     17.401288   20.238034   18.133559
  H     19.831375   17.774942   20.181388
  H     19.555564   16.119478   18.351172
  H     19.104677   14.009400   19.250913
  H     17.867824   12.529549   20.815811
  H     15.955459   13.443668   22.136021
  H     14.766304   15.223249   22.595603
  H     16.536428   17.305123   20.339937

 Total Charge           Charge          ....    0
 Multiplicity           Mult            ....    1
 Number of Electrons    NEL             ....  154
 Basis Dimension        Dim             ....  828

ORBITAL ENERGIES
----------------

  NO   OCC          E(Eh)            E(eV)
   0   2.0000     -91.888085     -2500.4019
   1   2.0000     -20.596593      -560.4618
   2   2.0000     -20.592887      -560.3609
   3   2.0000     -20.545874      -559.0817
   4   2.0000     -15.628263      -425.2667
   5   2.0000     -15.606866      -424.6844
   6   2.0000     -11.396473      -310.1138
   7   2.0000     -11.382993      -309.7470
   8   2.0000     -11.336042      -308.4694
   9   2.0000     -11.308807      -307.7283
  10   2.0000     -11.305544      -307.6395
  11   2.0000     -11.305043      -307.6259
  12   2.0000     -11.260016      -306.4006
  13   2.0000     -11.258477      -306.3587
  14   2.0000     -11.254396      -306.2477
  15   2.0000     -11.248836      -306.0964
  16   2.0000     -11.238557      -305.8167
  17   2.0000     -11.234641      -305.7101
  18   2.0000     -11.231430      -305.6227
  19   2.0000     -11.225970      -305.4742
  20   2.0000      -8.893150      -241.9949
  21   2.0000      -6.574728      -178.9074
  22   2.0000      -6.572720      -178.8528
  23   2.0000      -6.572135      -178.8369
  24   2.0000      -1.448231       -39.4084
  25   2.0000      -1.412653       -38.4402
  26   2.0000      -1.355627       -36.8885
  27   2.0000      -1.339247       -36.4428
  28   2.0000      -1.236999       -33.6604
  29   2.0000      -1.153161       -31.3791
  30   2.0000      -1.119359       -30.4593
  31   2.0000      -1.042058       -28.3558
  32   2.0000      -1.033348       -28.1188
  33   2.0000      -1.010569       -27.4990
  34   2.0000      -0.997773       -27.1508
  35   2.0000      -0.983171       -26.7535
  36   2.0000      -0.921923       -25.0868
  37   2.0000      -0.897210       -24.4143
  38   2.0000      -0.847988       -23.0749
  39   2.0000      -0.836144       -22.7526
  40   2.0000      -0.829017       -22.5587
  41   2.0000      -0.816767       -22.2254
  42   2.0000      -0.744716       -20.2648
  43   2.0000      -0.731532       -19.9060
  44   2.0000      -0.725389       -19.7388
  45   2.0000      -0.691003       -18.8032
  46   2.0000      -0.685099       -18.6425
  47   2.0000      -0.677237       -18.4285
  48   2.0000      -0.671851       -18.2820
  49   2.0000      -0.659970       -17.9587
  50   2.0000      -0.651313       -17.7231
  51   2.0000      -0.644402       -17.5351
  52   2.0000      -0.632834       -17.2203
  53   2.0000      -0.618524       -16.8309
  54   2.0000      -0.601301       -16.3622
  55   2.0000      -0.600293       -16.3348
  56   2.0000      -0.596366       -16.2280
  57   2.0000      -0.577725       -15.7207
  58   2.0000      -0.574218       -15.6253
  59   2.0000      -0.564282       -15.3549
  60   2.0000      -0.555395       -15.1131
  61   2.0000      -0.543869       -14.7994
  62   2.0000      -0.537523       -14.6267
  63   2.0000      -0.525158       -14.2903
  64   2.0000      -0.517154       -14.0725
  65   2.0000      -0.510193       -13.8831
  66   2.0000      -0.501565       -13.6483
  67   2.0000      -0.495774       -13.4907
  68   2.0000      -0.479056       -13.0358
  69   2.0000      -0.463281       -12.6065
  70   2.0000      -0.456988       -12.4353
  71   2.0000      -0.449488       -12.2312
  72   2.0000      -0.353811        -9.6277
  73   2.0000      -0.345054        -9.3894
  74   2.0000      -0.327269        -8.9054
  75   2.0000      -0.316201        -8.6043
  76   2.0000      -0.314486        -8.5576
  77   0.0000       0.075188         2.0460
  78   0.0000       0.111230         3.0267
  79   0.0000       0.121392         3.3033
  80   0.0000       0.134751         3.6668
  81   0.0000       0.140971         3.8360

MULLIKEN ATOMIC CHARGES
-----------------------
   0 C :   -0.316066
   1 C :    0.052508
   2 O :   -0.360829
   3 C :    0.451664
   4 O :   -0.424609
   5 C :   -0.180863
   6 C :    0.143439
   7 C :   -0.281984
   8 N :   -0.121799
   9 C :    0.202210
  10 S :   -0.439581
  11 N :   -0.199636
  12 C :    0.044573
  13 C :    0.054182
  14 C :   -0.165889
  15 C :   -0.133002
  16 C :   -0.279985
  17 C :    0.312534
  18 O :   -0.359005
  19 C :   -0.277033
  20 H :    0.128072
  21 H :    0.099562
  22 H :    0.103009
  23 H :    0.098628
  24 H :    0.099792
  25 H :    0.124056
  26 H :    0.128684
  27 H :    0.102126
  28 H :    0.196773
  29 H :    0.194140
  30 H :    0.154325
  31 H :    0.155500
  32 H :    0.159676
  33 H :    0.128838
  34 H :    0.240238
  35 H :    0.165750
Sum of atomic charges:   -0.0000000

LOEWDIN ATOMIC CHARGES
----------------------
   0 C :    0.105463
   1 C :   -0.010765
   2 O :    0.294334
   3 C :   -0.415872
   4 O :    0.110876
   5 C :   -0.092012
   6 C :   -0.066024
   7 C :    0.125096
   8 N :    0.404778
   9 C :   -0.458731
  10 S :   -0.036236
  11 N :    0.397891
  12 C :   -0.046416
  13 C :   -0.039576
  14 C :    0.022307
  15 C :    0.040694
  16 C :   -0.002517
  17 C :   -0.193444
  18 O :    0.393138
  19 C :    0.027739
  20 H :   -0.024021
  21 H :   -0.026596
  22 H :   -0.026237
  23 H :   -0.028586
  24 H :   -0.026347
  25 H :   -0.010229
  26 H :   -0.007551
  27 H :   -0.021207
  28 H :   -0.059181
  29 H :   -0.063711
  30 H :   -0.005193
  31 H :   -0.025010
  32 H :   -0.021069
  33 H :   -0.036235
  34 H :   -0.154718
  35 H :   -0.024832

  Mayer bond orders larger than 0.100000
B(  0-C ,  1-C ) :   0.9601 B(  0-C , 20-H ) :   0.9720 B(  0-C , 21-H ) :   0.9756
B(  0-C , 22-H ) :   0.9719 B(  1-C ,  2-O ) :   0.9010 B(  1-C , 23-H ) :   0.9837
B(  1-C , 24-H ) :   0.9828 B(  2-O ,  3-C ) :   1.1382 B(  3-C ,  4-O ) :   1.9906
B(  3-C ,  5-C ) :   1.0419 B(  5-C ,  6-C ) :   1.6514 B(  5-C , 12-C ) :   0.9627
B(  6-C ,  7-C ) :   0.9546 B(  6-C ,  8-N ) :   1.1495 B(  7-C , 25-H ) :   0.9646
B(  7-C , 26-H ) :   0.9651 B(  7-C , 27-H ) :   0.9912 B(  8-N ,  9-C ) :   1.1795
B(  8-N , 28-H ) :   0.9487 B(  9-C , 10-S ) :   1.6103 B(  9-C , 11-N ) :   1.3042
B( 11-N , 12-C ) :   0.9917 B( 11-N , 29-H ) :   0.9518 B( 12-C , 13-C ) :   0.9456
B( 12-C , 30-H ) :   1.0001 B( 13-C , 14-C ) :   1.3771 B( 13-C , 19-C ) :   1.3674
B( 14-C , 15-C ) :   1.3942 B( 14-C , 31-H ) :   0.9638 B( 15-C , 16-C ) :   1.3621
B( 15-C , 32-H ) :   0.9712 B( 16-C , 17-C ) :   1.3316 B( 16-C , 33-H ) :   0.9856
B( 17-C , 18-O ) :   1.1087 B( 17-C , 19-C ) :   1.3767 B( 18-O , 34-H ) :   0.9804
B( 19-C , 35-H ) :   0.9583

MP2 TOTAL ENERGY:    -1274.340284205 Eh
FINAL SINGLE POINT ENERGY     -1274.340284205025

DIPOLE MOMENT
-------------
                                X             Y             Z
Electronic contribution:     10.08884      10.15575       8.46789
Nuclear contribution   :    -11.65781     -11.41724      -9.43551
                        -----------------------------------------
Total Dipole Moment    :     -1.56897      -1.26149      -0.96762
                        -----------------------------------------
Magnitude (a.u.)       :      2.23368
Magnitude (Debye)      :      5.67756

Rotational constants in cm-1:     0.011171     0.009236     0.006208
Rotational constants in MHz :   334.906429   276.895965   186.096203

                             ****ORCA TERMINATED NORMALLY****
TOTAL RUN TIME: 0 days 2 hours 4 minutes 31 seconds 868 msec
