                         Program Version 5.0.0 -  RELEASE  -
|  1> ! ri-mp2 cc-pvtz cc-pvtz/c TightSCF NoKeepInts
|  2>
|  3> %scf
|  4>   MaxCore 4096
|  5> end
|  6> *xyz  0  1
|  7>     C       14.2632140   15.0074056   16.1232280
|  8>     C       15.6591799   14.9211365   16.7619030
|  9>     O       16.5475971   15.7307475   15.9756916
| 10>     C       17.8164999   15.8682184   16.4493407
| 11>     O       18.5445220   14.8940397   16.5294691
| 12>     C       17.9294724   17.0026308   17.4219242
| 13>     C       17.3019366   18.1933815   17.2574254
| 14>     C       16.4304960   18.6161755   16.0935343
| 15>     N       17.4954158   19.2157253   18.1911170
| 16>     C       18.3987854   19.1714084   19.2209283
| 17>     S       18.6503738   20.4691622   20.2145819
| 18>     N       19.0828549   17.9927182   19.3868632
| 19>     C       18.8099144   16.7450870   18.6475146
| 20>     C       18.1617580   15.7078933   19.5610504
| 21>     C       18.7010179   14.4124963   19.6639036
| 22>     C       18.0961673   13.4475268   20.4865027
| 23>     C       16.9399932   13.7789988   21.2130502
| 24>     C       16.3970239   15.0666981   21.1106150
| 25>     O       15.2738655   15.3870320   21.8009163
| 26>     C       17.0007658   16.0247825   20.2903182
| 27>     H       13.5466305   14.3941401   16.6830629
| 28>     H       14.2900497   14.6446642   15.0880298
| 29>     H       13.9003285   16.0423254   16.1194102
| 30>     H       15.6157727   15.2863553   17.7969021
| 31>     H       16.0056055   13.8785242   16.7750130
| 32>     H       15.4157672   18.2145742   16.2032709
| 33>     H       16.8352213   18.2464631   15.1429566
| 34>     H       16.3529271   19.7066727   16.0042689
| 35>     H       17.0044043   20.0892785   18.0848067
| 36>     H       19.7226019   17.9783372   20.1709239
| 37>     H       19.7719834   16.3455156   18.2949923
| 38>     H       19.5836343   14.1472489   19.0864603
| 39>     H       18.5208622   12.4472654   20.5522005
| 40>     H       16.4684485   13.0356664   21.8473562
| 41>     H       15.0475813   14.6259198   22.3566971
| 42>     H       16.5643276   17.0157847   20.2277710
| 43> *
| 44>
| 45>                          ****END OF INPUT****

CARTESIAN COORDINATES (ANGSTROEM)
---------------------------------
  C     14.263214   15.007406   16.123228
  C     15.659180   14.921136   16.761903
  O     16.547597   15.730747   15.975692
  C     17.816500   15.868218   16.449341
  O     18.544522   14.894040   16.529469
  C     17.929472   17.002631   17.421924
  C     17.301937   18.193382   17.257425
  C     16.430496   18.616176   16.093534
  N     17.495416   19.215725   18.191117
  C     18.398785   19.171408   19.220928
  S     18.650374   20.469162   20.214582
  N     19.082855   17.992718   19.386863
  C     18.809914   16.745087   18.647515
  C     18.161758   15.707893   19.561050
  C     18.701018   14.412496   19.663904
  C     18.096167   13.447527   20.486503
  C     16.939993   13.778999   21.213050
  C     16.397024   15.066698   21.110615
  O     15.273865   15.387032   21.800916
  C     17.000766   16.024783   20.290318
  H     13.546630   14.394140   16.683063
  H     14.290050   14.644664   15.088030
  H     13.900329   16.042325   16.119410
  H     15.615773   15.286355   17.796902
  H     16.005606   13.878524   16.775013
  H     15.415767   18.214574   16.203271
  H     16.835221   18.246463   15.142957
  H     16.352927   19.706673   16.004269
  H     17.004404   20.089278   18.084807
  H     19.722602   17.978337   20.170924
  H     19.771983   16.345516   18.294992
  H     19.583634   14.147249   19.086460
  H     18.520862   12.447265   20.552201
  H     16.468449   13.035666   21.847356
  H     15.047581   14.625920   22.356697
  H     16.564328   17.015785   20.227771

 Total Charge           Charge          ....    0
 Multiplicity           Mult            ....    1
 Number of Electrons    NEL             ....  154
 Basis Dimension        Dim             ....  828

ORBITAL ENERGIES
----------------

  NO   OCC          E(Eh)            E(eV)
   0   2.0000     -91.889855     -2500.4501
   1   2.0000     -20.596966      -560.4719
   2   2.0000     -20.582123      -560.0680
   3   2.0000     -20.556983      -559.3840
   4   2.0000     -15.629596      -425.3029
   5   2.0000     -15.609211      -424.7482
   6   2.0000     -11.393450      -310.0315
   7   2.0000     -11.385344      -309.8110
   8   2.0000     -11.334407      -308.4249
   9   2.0000     -11.313164      -307.8468
  10   2.0000     -11.309501      -307.7472
  11   2.0000     -11.298141      -307.4380
  12   2.0000     -11.261772      -306.4484
  13   2.0000     -11.260183      -306.4052
  14   2.0000     -11.258639      -306.3631
  15   2.0000     -11.253147      -306.2137
  16   2.0000     -11.242796      -305.9320
  17   2.0000     -11.238663      -305.8196
  18   2.0000     -11.235703      -305.7390
  19   2.0000     -11.232903      -305.6628
  20   2.0000      -8.894922      -242.0431
  21   2.0000      -6.576498      -178.9556
  22   2.0000      -6.574490      -178.9010
  23   2.0000      -6.573903      -178.8850
  24   2.0000      -1.453586       -39.5541
  25   2.0000      -1.416782       -38.5526
  26   2.0000      -1.357179       -36.9307
  27   2.0000      -1.340634       -36.4805
  28   2.0000      -1.238789       -33.7092
  29   2.0000      -1.157223       -31.4896
  30   2.0000      -1.122167       -30.5357
  31   2.0000      -1.045557       -28.4511
  32   2.0000      -1.035562       -28.1791
  33   2.0000      -1.014798       -27.6141
  34   2.0000      -1.000462       -27.2240
  35   2.0000      -0.986225       -26.8366
  36   2.0000      -0.924319       -25.1520
  37   2.0000      -0.879870       -23.9425
  38   2.0000      -0.849677       -23.1209
  39   2.0000      -0.840214       -22.8634
  40   2.0000      -0.833250       -22.6739
  41   2.0000      -0.829311       -22.5667
  42   2.0000      -0.757377       -20.6093
  43   2.0000      -0.736002       -20.0276
  44   2.0000      -0.729258       -19.8441
  45   2.0000      -0.694980       -18.9114
  46   2.0000      -0.686922       -18.6921
  47   2.0000      -0.681857       -18.5543
  48   2.0000      -0.675450       -18.3799
  49   2.0000      -0.656744       -17.8709
  50   2.0000      -0.650930       -17.7127
  51   2.0000      -0.642375       -17.4799
  52   2.0000      -0.631194       -17.1757
  53   2.0000      -0.623323       -16.9615
  54   2.0000      -0.605552       -16.4779
  55   2.0000      -0.603985       -16.4353
  56   2.0000      -0.600547       -16.3417
  57   2.0000      -0.579169       -15.7600
  58   2.0000      -0.576138       -15.6775
  59   2.0000      -0.564964       -15.3735
  60   2.0000      -0.558047       -15.1852
  61   2.0000      -0.548696       -14.9308
  62   2.0000      -0.539068       -14.6688
  63   2.0000      -0.522770       -14.2253
  64   2.0000      -0.521530       -14.1915
  65   2.0000      -0.513284       -13.9672
  66   2.0000      -0.503761       -13.7080
  67   2.0000      -0.498418       -13.5627
  68   2.0000      -0.481965       -13.1149
  69   2.0000      -0.465672       -12.6716
  70   2.0000      -0.458003       -12.4629
  71   2.0000      -0.453084       -12.3290
  72   2.0000      -0.355759        -9.6807
  73   2.0000      -0.348721        -9.4892
  74   2.0000      -0.329117        -8.9557
  75   2.0000      -0.320355        -8.7173
  76   2.0000      -0.316937        -8.6243
  77   0.0000       0.069266         1.8848
  78   0.0000       0.103372         2.8129
  79   0.0000       0.118632         3.2281
  80   0.0000       0.131459         3.5772
  81   0.0000       0.134586         3.6623

MULLIKEN ATOMIC CHARGES
-----------------------
   0 C :   -0.267389
   1 C :    0.034434
   2 O :   -0.370878
   3 C :    0.473045
   4 O :   -0.392152
   5 C :   -0.223218
   6 C :    0.138982
   7 C :   -0.282895
   8 N :   -0.123691
   9 C :    0.199299
  10 S :   -0.437898
  11 N :   -0.201445
  12 C :    0.056285
  13 C :    0.051003
  14 C :   -0.164001
  15 C :   -0.133848
  16 C :   -0.278469
  17 C :    0.323551
  18 O :   -0.360272
  19 C :   -0.305783
  20 H :    0.096029
  21 H :    0.103839
  22 H :    0.088805
  23 H :    0.093958
  24 H :    0.112291
  25 H :    0.122131
  26 H :    0.126126
  27 H :    0.108254
  28 H :    0.197433
  29 H :    0.194277
  30 H :    0.156758
  31 H :    0.159155
  32 H :    0.161642
  33 H :    0.131133
  34 H :    0.241112
  35 H :    0.172395
Sum of atomic charges:   -0.0000000

LOEWDIN ATOMIC CHARGES
----------------------
   0 C :    0.110207
   1 C :   -0.018974
   2 O :    0.288257
   3 C :   -0.419122
   4 O :    0.134330
   5 C :   -0.095334
   6 C :   -0.075407
   7 C :    0.126734
   8 N :    0.404292
   9 C :   -0.457854
  10 S :   -0.035119
  11 N :    0.397016
  12 C :   -0.045404
  13 C :   -0.041277
  14 C :    0.022141
  15 C :    0.042789
  16 C :   -0.001821
  17 C :   -0.195144
  18 O :    0.393603
  19 C :    0.027163
  20 H :   -0.023423
  21 H :   -0.024309
  22 H :   -0.031489
  23 H :   -0.033520
  24 H :   -0.026229
  25 H :   -0.011555
  26 H :   -0.007012
  27 H :   -0.018852
  28 H :   -0.058519
  29 H :   -0.064021
  30 H :   -0.004083
  31 H :   -0.023979
  32 H :   -0.019922
  33 H :   -0.035416
  34 H :   -0.153680
  35 H :   -0.025067

  Mayer bond orders larger than 0.100000
B(  0-C ,  1-C ) :   0.9778 B(  0-C , 20-H ) :   0.9764 B(  0-C , 21-H ) :   0.9784
B(  0-C , 22-H ) :   0.9785 B(  1-C ,  2-O ) :   0.8923 B(  1-C , 23-H ) :   0.9630
B(  1-C , 24-H ) :   0.9801 B(  2-O ,  3-C ) :   1.0956 B(  3-C ,  4-O ) :   2.0417
B(  3-C ,  5-C ) :   1.0118 B(  5-C ,  6-C ) :   1.6652 B(  5-C , 12-C ) :   0.9605
B(  6-C ,  7-C ) :   0.9537 B(  6-C ,  8-N ) :   1.1372 B(  7-C , 25-H ) :   0.9635
B(  7-C , 26-H ) :   0.9702 B(  7-C , 27-H ) :   0.9873 B(  8-N ,  9-C ) :   1.1833
B(  8-N , 28-H ) :   0.9498 B(  9-C , 10-S ) :   1.6135 B(  9-C , 11-N ) :   1.2987
B( 11-N , 12-C ) :   0.9930 B( 11-N , 29-H ) :   0.9519 B( 12-C , 13-C ) :   0.9453
B( 12-C , 30-H ) :   0.9987 B( 13-C , 14-C ) :   1.3816 B( 13-C , 19-C ) :   1.3519
B( 14-C , 15-C ) :   1.3947 B( 14-C , 31-H ) :   0.9622 B( 15-C , 16-C ) :   1.3644
B( 15-C , 32-H ) :   0.9706 B( 16-C , 17-C ) :   1.3313 B( 16-C , 33-H ) :   0.9846
B( 17-C , 18-O ) :   1.1095 B( 17-C , 19-C ) :   1.3662 B( 18-O , 34-H ) :   0.9798
B( 19-C , 35-H ) :   0.9596

MP2 TOTAL ENERGY:    -1274.323476566 Eh
FINAL SINGLE POINT ENERGY     -1274.323476565678

DIPOLE MOMENT
-------------
                                X             Y             Z
Electronic contribution:     11.73722       8.28198       7.56826
Nuclear contribution   :    -13.03139      -9.50631      -8.06249
                        -----------------------------------------
Total Dipole Moment    :     -1.29417      -1.22432      -0.49422
                        -----------------------------------------
Magnitude (a.u.)       :      1.84881
Magnitude (Debye)      :      4.69930

Rotational constants in cm-1:     0.011305     0.009297     0.006696
Rotational constants in MHz :   338.919560   278.714015   200.741062

                             ****ORCA TERMINATED NORMALLY****
TOTAL RUN TIME: 0 days 2 hours 1 minutes 50 seconds 311 msec
