                         Program Version 5.0.0 -  RELEASE  -
|  1> ! ri-mp2 cc-pvtz cc-pvtz/c TightSCF NoKeepInts
|  2>
|  3> %scf
|  4>   MaxCore 4096
|  5> end
|  6> *xyz  0  1
|  7>     C       15.1822402   14.1962556   17.1590049
|  8>     C       15.3793408   15.6211698   16.6095127
|  9>     O       16.5868814   15.6461177   15.8218036
| 10>     C       17.7926259   15.7127599   16.4603307
| 11>     O       18.5076922   14.7303039   16.5407090
| 12>     C       17.9767571   16.9107877   17.3416617
| 13>     C       17.5285370   18.1516820   17.0295031
| 14>     C       16.8310317   18.5818852   15.7559962
| 15>     N       17.7676669   19.2166775   17.9022384
| 16>     C       18.5373315   19.1426068   19.0337189
| 17>     S       18.8365736   20.4727192   19.9693916
| 18>     N       19.0436722   17.9072864   19.3534005
| 19>     C       18.7259252   16.6498888   18.6494523
| 20>     C       17.9161165   15.7174462   19.5450508
| 21>     C       18.3305837   14.3888458   19.7502604
| 22>     C       17.5718514   13.5175205   20.5495247
| 23>     C       16.3856173   13.9767684   21.1467038
| 24>     C       15.9670949   15.2981389   20.9409702
| 25>     O       14.8149890   15.7414296   21.5036470
| 26>     C       16.7252206   16.1638707   20.1466654
| 27>     H       15.9969354   13.9223710   17.8412376
| 28>     H       15.1603337   13.4655737   16.3408188
| 29>     H       14.2382398   14.1233929   17.7121984
| 30>     H       14.5253471   15.8715132   15.9671048
| 31>     H       15.4086084   16.3455307   17.4336563
| 32>     H       17.1926463   18.0109380   14.8912756
| 33>     H       17.0095218   19.6401178   15.5278192
| 34>     H       15.7473716   18.4330473   15.8294247
| 35>     H       17.4115947   20.1335985   17.6824436
| 36>     H       19.5858591   17.8769088   20.2075851
| 37>     H       19.6756161   16.1542524   18.3998211
| 38>     H       19.2350720   14.0239898   19.2688290
| 39>     H       17.9002359   12.4896977   20.6945433
| 40>     H       15.7943735   13.3050745   21.7603024
| 41>     H       14.4731008   15.0283359   22.0642412
| 42>     H       16.3843948   17.1834974   20.0031528
| 43> *
| 44>
| 45>                          ****END OF INPUT****

CARTESIAN COORDINATES (ANGSTROEM)
---------------------------------
  C     15.182240   14.196256   17.159005
  C     15.379341   15.621170   16.609513
  O     16.586881   15.646118   15.821804
  C     17.792626   15.712760   16.460331
  O     18.507692   14.730304   16.540709
  C     17.976757   16.910788   17.341662
  C     17.528537   18.151682   17.029503
  C     16.831032   18.581885   15.755996
  N     17.767667   19.216677   17.902238
  C     18.537332   19.142607   19.033719
  S     18.836574   20.472719   19.969392
  N     19.043672   17.907286   19.353400
  C     18.725925   16.649889   18.649452
  C     17.916117   15.717446   19.545051
  C     18.330584   14.388846   19.750260
  C     17.571851   13.517520   20.549525
  C     16.385617   13.976768   21.146704
  C     15.967095   15.298139   20.940970
  O     14.814989   15.741430   21.503647
  C     16.725221   16.163871   20.146665
  H     15.996935   13.922371   17.841238
  H     15.160334   13.465574   16.340819
  H     14.238240   14.123393   17.712198
  H     14.525347   15.871513   15.967105
  H     15.408608   16.345531   17.433656
  H     17.192646   18.010938   14.891276
  H     17.009522   19.640118   15.527819
  H     15.747372   18.433047   15.829425
  H     17.411595   20.133599   17.682444
  H     19.585859   17.876909   20.207585
  H     19.675616   16.154252   18.399821
  H     19.235072   14.023990   19.268829
  H     17.900236   12.489698   20.694543
  H     15.794373   13.305074   21.760302
  H     14.473101   15.028336   22.064241
  H     16.384395   17.183497   20.003153

 Total Charge           Charge          ....    0
 Multiplicity           Mult            ....    1
 Number of Electrons    NEL             ....  154
 Basis Dimension        Dim             ....  828

ORBITAL ENERGIES
----------------

  NO   OCC          E(Eh)            E(eV)
   0   2.0000     -91.891101     -2500.4840
   1   2.0000     -20.599327      -560.5362
   2   2.0000     -20.588267      -560.2352
   3   2.0000     -20.553857      -559.2989
   4   2.0000     -15.630747      -425.3342
   5   2.0000     -15.610879      -424.7936
   6   2.0000     -11.394889      -310.0707
   7   2.0000     -11.386964      -309.8550
   8   2.0000     -11.336298      -308.4763
   9   2.0000     -11.315707      -307.9160
  10   2.0000     -11.310995      -307.7878
  11   2.0000     -11.303577      -307.5860
  12   2.0000     -11.264709      -306.5283
  13   2.0000     -11.262036      -306.4556
  14   2.0000     -11.261172      -306.4321
  15   2.0000     -11.255408      -306.2752
  16   2.0000     -11.245063      -305.9937
  17   2.0000     -11.241489      -305.8965
  18   2.0000     -11.238112      -305.8046
  19   2.0000     -11.222304      -305.3744
  20   2.0000      -8.896179      -242.0773
  21   2.0000      -6.577755      -178.9898
  22   2.0000      -6.575744      -178.9351
  23   2.0000      -6.575158      -178.9191
  24   2.0000      -1.449089       -39.4317
  25   2.0000      -1.419100       -38.6157
  26   2.0000      -1.358728       -36.9729
  27   2.0000      -1.342187       -36.5228
  28   2.0000      -1.240563       -33.7574
  29   2.0000      -1.160090       -31.5676
  30   2.0000      -1.124247       -30.5923
  31   2.0000      -1.047297       -28.4984
  32   2.0000      -1.031596       -28.0712
  33   2.0000      -1.017428       -27.6856
  34   2.0000      -1.003567       -27.3084
  35   2.0000      -0.988538       -26.8995
  36   2.0000      -0.926800       -25.2195
  37   2.0000      -0.885068       -24.0839
  38   2.0000      -0.853931       -23.2366
  39   2.0000      -0.842078       -22.9141
  40   2.0000      -0.835854       -22.7447
  41   2.0000      -0.832345       -22.6493
  42   2.0000      -0.748352       -20.3637
  43   2.0000      -0.735576       -20.0160
  44   2.0000      -0.730689       -19.8831
  45   2.0000      -0.697464       -18.9790
  46   2.0000      -0.687588       -18.7102
  47   2.0000      -0.680003       -18.5038
  48   2.0000      -0.676554       -18.4100
  49   2.0000      -0.664954       -18.0943
  50   2.0000      -0.653169       -17.7736
  51   2.0000      -0.649234       -17.6666
  52   2.0000      -0.639856       -17.4114
  53   2.0000      -0.611347       -16.6356
  54   2.0000      -0.608487       -16.5578
  55   2.0000      -0.604405       -16.4467
  56   2.0000      -0.599749       -16.3200
  57   2.0000      -0.581292       -15.8177
  58   2.0000      -0.576869       -15.6974
  59   2.0000      -0.570164       -15.5150
  60   2.0000      -0.558590       -15.2000
  61   2.0000      -0.555309       -15.1107
  62   2.0000      -0.540081       -14.6963
  63   2.0000      -0.526965       -14.3395
  64   2.0000      -0.519926       -14.1479
  65   2.0000      -0.513400       -13.9703
  66   2.0000      -0.502297       -13.6682
  67   2.0000      -0.492763       -13.4088
  68   2.0000      -0.487270       -13.2593
  69   2.0000      -0.469145       -12.7661
  70   2.0000      -0.459676       -12.5084
  71   2.0000      -0.447932       -12.1889
  72   2.0000      -0.357466        -9.7271
  73   2.0000      -0.351580        -9.5670
  74   2.0000      -0.330466        -8.9924
  75   2.0000      -0.323089        -8.7917
  76   2.0000      -0.318914        -8.6781
  77   0.0000       0.071822         1.9544
  78   0.0000       0.102689         2.7943
  79   0.0000       0.117645         3.2013
  80   0.0000       0.128342         3.4924
  81   0.0000       0.136617         3.7175

MULLIKEN ATOMIC CHARGES
-----------------------
   0 C :   -0.271825
   1 C :   -0.002834
   2 O :   -0.358349
   3 C :    0.453409
   4 O :   -0.385255
   5 C :   -0.243996
   6 C :    0.162117
   7 C :   -0.296446
   8 N :   -0.127337
   9 C :    0.201237
  10 S :   -0.437452
  11 N :   -0.203419
  12 C :    0.062791
  13 C :    0.037316
  14 C :   -0.171466
  15 C :   -0.131992
  16 C :   -0.276280
  17 C :    0.317109
  18 O :   -0.360666
  19 C :   -0.293614
  20 H :    0.110625
  21 H :    0.109428
  22 H :    0.091216
  23 H :    0.120591
  24 H :    0.099185
  25 H :    0.137317
  26 H :    0.114709
  27 H :    0.120662
  28 H :    0.197532
  29 H :    0.195364
  30 H :    0.157632
  31 H :    0.160348
  32 H :    0.162844
  33 H :    0.131882
  34 H :    0.241988
  35 H :    0.175627
Sum of atomic charges:   -0.0000000

LOEWDIN ATOMIC CHARGES
----------------------
   0 C :    0.109736
   1 C :   -0.024875
   2 O :    0.292194
   3 C :   -0.419257
   4 O :    0.130705
   5 C :   -0.093996
   6 C :   -0.080123
   7 C :    0.128257
   8 N :    0.403948
   9 C :   -0.457557
  10 S :   -0.034416
  11 N :    0.397229
  12 C :   -0.046099
  13 C :   -0.043466
  14 C :    0.022241
  15 C :    0.043499
  16 C :   -0.000138
  17 C :   -0.193518
  18 O :    0.394008
  19 C :    0.027896
  20 H :   -0.023919
  21 H :   -0.023545
  22 H :   -0.027564
  23 H :   -0.025522
  24 H :   -0.039303
  25 H :   -0.005724
  26 H :   -0.016327
  27 H :   -0.013263
  28 H :   -0.058008
  29 H :   -0.063525
  30 H :   -0.003849
  31 H :   -0.023256
  32 H :   -0.019317
  33 H :   -0.034887
  34 H :   -0.152987
  35 H :   -0.025269

  Mayer bond orders larger than 0.100000
B(  0-C ,  1-C ) :   0.9841 B(  0-C , 20-H ) :   0.9678 B(  0-C , 21-H ) :   0.9783
B(  0-C , 22-H ) :   0.9759 B(  1-C ,  2-O ) :   0.8944 B(  1-C , 23-H ) :   0.9789
B(  1-C , 24-H ) :   0.9625 B(  2-O ,  3-C ) :   1.1265 B(  3-C ,  4-O ) :   2.0729
B(  3-C ,  5-C ) :   0.9665 B(  5-C ,  6-C ) :   1.6648 B(  5-C , 12-C ) :   0.9644
B(  6-C ,  7-C ) :   0.9482 B(  6-C ,  8-N ) :   1.1392 B(  7-C , 25-H ) :   0.9697
B(  7-C , 26-H ) :   0.9846 B(  7-C , 27-H ) :   0.9636 B(  8-N ,  9-C ) :   1.1845
B(  8-N , 28-H ) :   0.9497 B(  9-C , 10-S ) :   1.6135 B(  9-C , 11-N ) :   1.2977
B( 11-N , 12-C ) :   0.9963 B( 11-N , 29-H ) :   0.9513 B( 12-C , 13-C ) :   0.9418
B( 12-C , 30-H ) :   0.9980 B( 13-C , 14-C ) :   1.3838 B( 13-C , 19-C ) :   1.3523
B( 14-C , 15-C ) :   1.3923 B( 14-C , 31-H ) :   0.9629 B( 15-C , 16-C ) :   1.3631
B( 15-C , 32-H ) :   0.9709 B( 16-C , 17-C ) :   1.3313 B( 16-C , 33-H ) :   0.9846
B( 17-C , 18-O ) :   1.1093 B( 17-C , 19-C ) :   1.3686 B( 18-O , 34-H ) :   0.9792
B( 19-C , 35-H ) :   0.9570

MP2 TOTAL ENERGY:    -1274.334239069 Eh
FINAL SINGLE POINT ENERGY     -1274.334239068532

DIPOLE MOMENT
-------------
                                X             Y             Z
Electronic contribution:     10.06924       8.76047       5.55798
Nuclear contribution   :    -11.52041      -9.65877      -5.89709
                        -----------------------------------------
Total Dipole Moment    :     -1.45117      -0.89830      -0.33911
                        -----------------------------------------
Magnitude (a.u.)       :      1.74007
Magnitude (Debye)      :      4.42290

Rotational constants in cm-1:     0.012501     0.009253     0.006837
Rotational constants in MHz :   374.760844   277.385987   204.957417

                             ****ORCA TERMINATED NORMALLY****
TOTAL RUN TIME: 0 days 1 hours 40 minutes 36 seconds 866 msec
