                         Program Version 5.0.0 -  RELEASE  -
|  1> ! ri-mp2 cc-pvtz cc-pvtz/c TightSCF NoKeepInts
|  2>
|  3> %scf
|  4>   MaxCore 4096
|  5> end
|  6> *xyz  0  1
|  7>     C       15.1818069   15.3726505   17.4498290
|  8>     C       15.5236233   15.3620726   15.9447510
|  9>     O       16.9419189   15.2838755   15.6488306
| 10>     C       18.0001692   15.5766107   16.4748181
| 11>     O       18.9324869   14.7972467   16.5505492
| 12>     C       17.9204136   16.7788214   17.3706392
| 13>     C       17.3805765   17.9685093   17.0026644
| 14>     C       16.8009577   18.3576612   15.6591616
| 15>     N       17.4325452   19.0569143   17.8776709
| 16>     C       18.1529178   19.0910132   19.0419948
| 17>     S       18.2527698   20.4604275   19.9632991
| 18>     N       18.7891722   17.9303239   19.4022591
| 19>     C       18.6259607   16.6291340   18.7250561
| 20>     C       17.9062962   15.6281185   19.6264565
| 21>     C       18.3420351   14.2913091   19.6847042
| 22>     C       17.6807942   13.3551557   20.4968327
| 23>     C       16.5723260   13.7572311   21.2606883
| 24>     C       16.1339673   15.0869100   21.2071046
| 25>     O       15.0575760   15.4765293   21.9352064
| 26>     C       16.7942597   16.0169265   20.3979334
| 27>     H       15.7523955   14.6046231   17.9873243
| 28>     H       14.1175826   15.1481187   17.5909389
| 29>     H       15.3637564   16.3490674   17.9098616
| 30>     H       15.0392232   14.4895210   15.4871579
| 31>     H       15.0840783   16.2456272   15.4688383
| 32>     H       17.1036527   17.6706844   14.8602417
| 33>     H       17.1532808   19.3508430   15.3523497
| 34>     H       15.7060436   18.3924079   15.6948276
| 35>     H       16.9866333   19.9239840   17.6224509
| 36>     H       19.3009401   17.9766379   20.2743321
| 37>     H       19.6347899   16.2358775   18.5303393
| 38>     H       19.1918843   13.9726164   19.0846096
| 39>     H       18.0265917   12.3232421   20.5270311
| 40>     H       16.0572804   13.0364386   21.8870977
| 41>     H       14.7739394   14.7156015   22.4641424
| 42>     H       16.4323544   17.0392683   20.3720079
| 43> *
| 44>
| 45>                          ****END OF INPUT****

CARTESIAN COORDINATES (ANGSTROEM)
---------------------------------
  C     15.181807   15.372650   17.449829
  C     15.523623   15.362073   15.944751
  O     16.941919   15.283876   15.648831
  C     18.000169   15.576611   16.474818
  O     18.932487   14.797247   16.550549
  C     17.920414   16.778821   17.370639
  C     17.380577   17.968509   17.002664
  C     16.800958   18.357661   15.659162
  N     17.432545   19.056914   17.877671
  C     18.152918   19.091013   19.041995
  S     18.252770   20.460428   19.963299
  N     18.789172   17.930324   19.402259
  C     18.625961   16.629134   18.725056
  C     17.906296   15.628118   19.626456
  C     18.342035   14.291309   19.684704
  C     17.680794   13.355156   20.496833
  C     16.572326   13.757231   21.260688
  C     16.133967   15.086910   21.207105
  O     15.057576   15.476529   21.935206
  C     16.794260   16.016927   20.397933
  H     15.752396   14.604623   17.987324
  H     14.117583   15.148119   17.590939
  H     15.363756   16.349067   17.909862
  H     15.039223   14.489521   15.487158
  H     15.084078   16.245627   15.468838
  H     17.103653   17.670684   14.860242
  H     17.153281   19.350843   15.352350
  H     15.706044   18.392408   15.694828
  H     16.986633   19.923984   17.622451
  H     19.300940   17.976638   20.274332
  H     19.634790   16.235878   18.530339
  H     19.191884   13.972616   19.084610
  H     18.026592   12.323242   20.527031
  H     16.057280   13.036439   21.887098
  H     14.773939   14.715601   22.464142
  H     16.432354   17.039268   20.372008

 Total Charge           Charge          ....    0
 Multiplicity           Mult            ....    1
 Number of Electrons    NEL             ....  154
 Basis Dimension        Dim             ....  828

ORBITAL ENERGIES
----------------

  NO   OCC          E(Eh)            E(eV)
   0   2.0000     -91.891000     -2500.4812
   1   2.0000     -20.597261      -560.4800
   2   2.0000     -20.594215      -560.3971
   3   2.0000     -20.548550      -559.1545
   4   2.0000     -15.630053      -425.3154
   5   2.0000     -15.610487      -424.7829
   6   2.0000     -11.399200      -310.1880
   7   2.0000     -11.386718      -309.8483
   8   2.0000     -11.336257      -308.4752
   9   2.0000     -11.313626      -307.8594
  10   2.0000     -11.311215      -307.7938
  11   2.0000     -11.310921      -307.7858
  12   2.0000     -11.267390      -306.6013
  13   2.0000     -11.266729      -306.5833
  14   2.0000     -11.260118      -306.4034
  15   2.0000     -11.253923      -306.2348
  16   2.0000     -11.243545      -305.9524
  17   2.0000     -11.238947      -305.8273
  18   2.0000     -11.235556      -305.7350
  19   2.0000     -11.233605      -305.6819
  20   2.0000      -8.896085      -242.0748
  21   2.0000      -6.577668      -178.9874
  22   2.0000      -6.575649      -178.9325
  23   2.0000      -6.575067      -178.9167
  24   2.0000      -1.443334       -39.2751
  25   2.0000      -1.417081       -38.5607
  26   2.0000      -1.355691       -36.8902
  27   2.0000      -1.342652       -36.5354
  28   2.0000      -1.240811       -33.7642
  29   2.0000      -1.158234       -31.5171
  30   2.0000      -1.123924       -30.5835
  31   2.0000      -1.046413       -28.4743
  32   2.0000      -1.038916       -28.2704
  33   2.0000      -1.016386       -27.6573
  34   2.0000      -1.005532       -27.3619
  35   2.0000      -0.989538       -26.9267
  36   2.0000      -0.927604       -25.2414
  37   2.0000      -0.899987       -24.4899
  38   2.0000      -0.854475       -23.2514
  39   2.0000      -0.840873       -22.8813
  40   2.0000      -0.834036       -22.6953
  41   2.0000      -0.826371       -22.4867
  42   2.0000      -0.744921       -20.2703
  43   2.0000      -0.734017       -19.9736
  44   2.0000      -0.730228       -19.8705
  45   2.0000      -0.694905       -18.9093
  46   2.0000      -0.686632       -18.6842
  47   2.0000      -0.680414       -18.5150
  48   2.0000      -0.674710       -18.3598
  49   2.0000      -0.661295       -17.9948
  50   2.0000      -0.657209       -17.8836
  51   2.0000      -0.651504       -17.7283
  52   2.0000      -0.641191       -17.4477
  53   2.0000      -0.621933       -16.9237
  54   2.0000      -0.608719       -16.5641
  55   2.0000      -0.605233       -16.4692
  56   2.0000      -0.601590       -16.3701
  57   2.0000      -0.587234       -15.9795
  58   2.0000      -0.576023       -15.6744
  59   2.0000      -0.565249       -15.3812
  60   2.0000      -0.564192       -15.3524
  61   2.0000      -0.552624       -15.0377
  62   2.0000      -0.542981       -14.7753
  63   2.0000      -0.533914       -14.5286
  64   2.0000      -0.522091       -14.2068
  65   2.0000      -0.513123       -13.9628
  66   2.0000      -0.500778       -13.6269
  67   2.0000      -0.492943       -13.4137
  68   2.0000      -0.484112       -13.1734
  69   2.0000      -0.471465       -12.8292
  70   2.0000      -0.456904       -12.4330
  71   2.0000      -0.448347       -12.2002
  72   2.0000      -0.357464        -9.7271
  73   2.0000      -0.348338        -9.4787
  74   2.0000      -0.330400        -8.9906
  75   2.0000      -0.322350        -8.7716
  76   2.0000      -0.319117        -8.6836
  77   0.0000       0.075952         2.0668
  78   0.0000       0.107869         2.9353
  79   0.0000       0.115307         3.1377
  80   0.0000       0.131096         3.5673
  81   0.0000       0.133347         3.6286

MULLIKEN ATOMIC CHARGES
-----------------------
   0 C :   -0.344440
   1 C :    0.035237
   2 O :   -0.344290
   3 C :    0.445867
   4 O :   -0.386430
   5 C :   -0.228122
   6 C :    0.162099
   7 C :   -0.342948
   8 N :   -0.132617
   9 C :    0.193450
  10 S :   -0.437917
  11 N :   -0.211946
  12 C :    0.065534
  13 C :    0.026257
  14 C :   -0.199071
  15 C :   -0.134452
  16 C :   -0.279218
  17 C :    0.318293
  18 O :   -0.358915
  19 C :   -0.273096
  20 H :    0.131441
  21 H :    0.121632
  22 H :    0.111319
  23 H :    0.129221
  24 H :    0.088275
  25 H :    0.144121
  26 H :    0.133106
  27 H :    0.121210
  28 H :    0.197803
  29 H :    0.198518
  30 H :    0.164398
  31 H :    0.173276
  32 H :    0.163458
  33 H :    0.131690
  34 H :    0.240999
  35 H :    0.176256
Sum of atomic charges:   -0.0000000

LOEWDIN ATOMIC CHARGES
----------------------
   0 C :    0.104083
   1 C :   -0.015543
   2 O :    0.288525
   3 C :   -0.416992
   4 O :    0.123007
   5 C :   -0.084644
   6 C :   -0.084610
   7 C :    0.125313
   8 N :    0.403836
   9 C :   -0.460020
  10 S :   -0.035522
  11 N :    0.398099
  12 C :   -0.044193
  13 C :   -0.043279
  14 C :    0.019828
  15 C :    0.041964
  16 C :   -0.001812
  17 C :   -0.193889
  18 O :    0.394744
  19 C :    0.029389
  20 H :   -0.018499
  21 H :   -0.021887
  22 H :   -0.035092
  23 H :   -0.019748
  24 H :   -0.037693
  25 H :   -0.007111
  26 H :   -0.011176
  27 H :   -0.018769
  28 H :   -0.057080
  29 H :   -0.063049
  30 H :   -0.002369
  31 H :   -0.022279
  32 H :   -0.019112
  33 H :   -0.035134
  34 H :   -0.153694
  35 H :   -0.025594

  Mayer bond orders larger than 0.100000
B(  0-C ,  1-C ) :   0.9601 B(  0-C , 20-H ) :   0.9665 B(  0-C , 21-H ) :   0.9761
B(  0-C , 22-H ) :   0.9712 B(  1-C ,  2-O ) :   0.9011 B(  1-C , 23-H ) :   0.9812
B(  1-C , 24-H ) :   0.9745 B(  2-O ,  3-C ) :   1.1618 B(  3-C ,  4-O ) :   2.0720
B(  3-C ,  5-C ) :   0.9464 B(  5-C ,  6-C ) :   1.6787 B(  5-C , 12-C ) :   0.9601
B(  6-C ,  7-C ) :   0.9423 B(  6-C ,  8-N ) :   1.1188 B(  7-C , 25-H ) :   0.9737
B(  7-C , 26-H ) :   0.9769 B(  7-C , 27-H ) :   0.9650 B(  8-N ,  9-C ) :   1.1875
B(  8-N , 28-H ) :   0.9511 B(  9-C , 10-S ) :   1.6133 B(  9-C , 11-N ) :   1.2937
B( 11-N , 12-C ) :   0.9891 B( 11-N , 29-H ) :   0.9503 B( 12-C , 13-C ) :   0.9467
B( 12-C , 30-H ) :   0.9973 B( 13-C , 14-C ) :   1.3902 B( 13-C , 19-C ) :   1.3424
B( 14-C , 15-C ) :   1.3974 B( 14-C , 31-H ) :   0.9580 B( 15-C , 16-C ) :   1.3604
B( 15-C , 32-H ) :   0.9705 B( 16-C , 17-C ) :   1.3301 B( 16-C , 33-H ) :   0.9848
B( 17-C , 18-O ) :   1.1101 B( 17-C , 19-C ) :   1.3716 B( 18-O , 34-H ) :   0.9798
B( 19-C , 35-H ) :   0.9572

MP2 TOTAL ENERGY:    -1274.330749624 Eh
FINAL SINGLE POINT ENERGY     -1274.330749623535

DIPOLE MOMENT
-------------
                                X             Y             Z
Electronic contribution:      9.45322       6.33645       6.16326
Nuclear contribution   :    -11.06109      -7.31971      -6.71254
                        -----------------------------------------
Total Dipole Moment    :     -1.60786      -0.98326      -0.54929
                        -----------------------------------------
Magnitude (a.u.)       :      1.96310
Magnitude (Debye)      :      4.98979

Rotational constants in cm-1:     0.011510     0.009760     0.006814
Rotational constants in MHz :   345.056988   292.594620   204.286001

                             ****ORCA TERMINATED NORMALLY****
TOTAL RUN TIME: 0 days 2 hours 15 minutes 22 seconds 847 msec
