                         Program Version 5.0.0 -  RELEASE  -
|  1> ! ri-mp2 cc-pvtz cc-pvtz/c TightSCF NoKeepInts
|  2>
|  3> %scf
|  4>   MaxCore 4096
|  5> end
|  6> *xyz  0  1
|  7>     C       15.1728420   14.4374976   17.0585092
|  8>     C       16.4519358   13.9832897   16.3203518
|  9>     O       17.5267576   14.9381541   16.4611920
| 10>     C       17.3165154   16.2622273   16.1982995
| 11>     O       16.6239372   16.6160620   15.2594560
| 12>     C       17.7464505   17.1623383   17.3251175
| 13>     C       17.4932942   18.4963362   17.3277100
| 14>     C       16.7229032   19.2877661   16.2924976
| 15>     N       18.0117061   19.3048613   18.3442859
| 16>     C       18.9273922   18.8937237   19.2763146
| 17>     S       19.6164741   19.9452956   20.3510088
| 18>     N       19.2503277   17.5604947   19.2668521
| 19>     C       18.5522357   16.5318779   18.4737146
| 20>     C       17.6867790   15.6804513   19.3976870
| 21>     C       17.9719323   14.3142718   19.5821697
| 22>     C       17.1838409   13.5284451   20.4398708
| 23>     C       16.1048800   14.1140816   21.1238671
| 24>     C       15.8225031   15.4757833   20.9488796
| 25>     O       14.7810369   16.0439248   21.6069806
| 26>     C       16.6070886   16.2547496   20.0927991
| 27>     H       15.3718942   14.6076280   18.1214547
| 28>     H       14.4007579   13.6624983   16.9838733
| 29>     H       14.7592507   15.3573489   16.6275539
| 30>     H       16.7763816   13.0122434   16.7155551
| 31>     H       16.2192330   13.8517348   15.2550623
| 32>     H       17.2023314   19.2056787   15.3086773
| 33>     H       16.6471337   20.3539100   16.5361250
| 34>     H       15.7016580   18.8985735   16.1919401
| 35>     H       17.7911226   20.2878388   18.3589837
| 36>     H       19.9053493   17.2801313   19.9853185
| 37>     H       19.3206192   15.8854622   18.0267566
| 38>     H       18.8045821   13.8584585   19.0529605
| 39>     H       17.4114055   12.4723265   20.5740478
| 40>     H       15.4940991   13.5116607   21.7882847
| 41>     H       14.3944861   15.3667984   22.1823259
| 42>     H       16.3758629   17.3080760   19.9775168
| 43> *
| 44>
| 45>                          ****END OF INPUT****

CARTESIAN COORDINATES (ANGSTROEM)
---------------------------------
  C     15.172842   14.437498   17.058509
  C     16.451936   13.983290   16.320352
  O     17.526758   14.938154   16.461192
  C     17.316515   16.262227   16.198300
  O     16.623937   16.616062   15.259456
  C     17.746451   17.162338   17.325117
  C     17.493294   18.496336   17.327710
  C     16.722903   19.287766   16.292498
  N     18.011706   19.304861   18.344286
  C     18.927392   18.893724   19.276315
  S     19.616474   19.945296   20.351009
  N     19.250328   17.560495   19.266852
  C     18.552236   16.531878   18.473715
  C     17.686779   15.680451   19.397687
  C     17.971932   14.314272   19.582170
  C     17.183841   13.528445   20.439871
  C     16.104880   14.114082   21.123867
  C     15.822503   15.475783   20.948880
  O     14.781037   16.043925   21.606981
  C     16.607089   16.254750   20.092799
  H     15.371894   14.607628   18.121455
  H     14.400758   13.662498   16.983873
  H     14.759251   15.357349   16.627554
  H     16.776382   13.012243   16.715555
  H     16.219233   13.851735   15.255062
  H     17.202331   19.205679   15.308677
  H     16.647134   20.353910   16.536125
  H     15.701658   18.898574   16.191940
  H     17.791123   20.287839   18.358984
  H     19.905349   17.280131   19.985319
  H     19.320619   15.885462   18.026757
  H     18.804582   13.858458   19.052961
  H     17.411406   12.472326   20.574048
  H     15.494099   13.511661   21.788285
  H     14.394486   15.366798   22.182326
  H     16.375863   17.308076   19.977517

 Total Charge           Charge          ....    0
 Multiplicity           Mult            ....    1
 Number of Electrons    NEL             ....  154
 Basis Dimension        Dim             ....  828

ORBITAL ENERGIES
----------------

  NO   OCC          E(Eh)            E(eV)
   0   2.0000     -91.890202     -2500.4595
   1   2.0000     -20.598794      -560.5217
   2   2.0000     -20.590075      -560.2844
   3   2.0000     -20.543633      -559.0207
   4   2.0000     -15.630604      -425.3303
   5   2.0000     -15.609024      -424.7431
   6   2.0000     -11.394357      -310.0562
   7   2.0000     -11.384921      -309.7995
   8   2.0000     -11.337155      -308.4997
   9   2.0000     -11.316345      -307.9334
  10   2.0000     -11.310408      -307.7718
  11   2.0000     -11.298258      -307.4412
  12   2.0000     -11.261619      -306.4442
  13   2.0000     -11.259749      -306.3934
  14   2.0000     -11.257942      -306.3442
  15   2.0000     -11.252921      -306.2075
  16   2.0000     -11.245796      -306.0137
  17   2.0000     -11.240597      -305.8722
  18   2.0000     -11.240339      -305.8652
  19   2.0000     -11.221127      -305.3424
  20   2.0000      -8.895235      -242.0517
  21   2.0000      -6.576803      -178.9639
  22   2.0000      -6.574806      -178.9096
  23   2.0000      -6.574213      -178.8934
  24   2.0000      -1.447470       -39.3877
  25   2.0000      -1.418527       -38.6001
  26   2.0000      -1.351628       -36.7797
  27   2.0000      -1.341482       -36.5036
  28   2.0000      -1.239685       -33.7335
  29   2.0000      -1.159674       -31.5563
  30   2.0000      -1.121068       -30.5058
  31   2.0000      -1.044166       -28.4132
  32   2.0000      -1.032024       -28.0828
  33   2.0000      -1.017648       -27.6916
  34   2.0000      -0.997039       -27.1308
  35   2.0000      -0.985616       -26.8200
  36   2.0000      -0.924011       -25.1436
  37   2.0000      -0.895851       -24.3773
  38   2.0000      -0.847994       -23.0751
  39   2.0000      -0.840707       -22.8768
  40   2.0000      -0.836368       -22.7587
  41   2.0000      -0.815984       -22.2041
  42   2.0000      -0.749129       -20.3848
  43   2.0000      -0.733969       -19.9723
  44   2.0000      -0.722817       -19.6689
  45   2.0000      -0.698035       -18.9945
  46   2.0000      -0.690699       -18.7949
  47   2.0000      -0.675594       -18.3838
  48   2.0000      -0.669515       -18.2184
  49   2.0000      -0.663725       -18.0609
  50   2.0000      -0.649828       -17.6827
  51   2.0000      -0.642782       -17.4910
  52   2.0000      -0.635359       -17.2890
  53   2.0000      -0.617579       -16.8052
  54   2.0000      -0.609099       -16.5744
  55   2.0000      -0.601947       -16.3798
  56   2.0000      -0.600010       -16.3271
  57   2.0000      -0.579597       -15.7716
  58   2.0000      -0.571295       -15.5457
  59   2.0000      -0.565903       -15.3990
  60   2.0000      -0.551382       -15.0039
  61   2.0000      -0.544223       -14.8091
  62   2.0000      -0.532841       -14.4993
  63   2.0000      -0.530871       -14.4457
  64   2.0000      -0.526780       -14.3344
  65   2.0000      -0.514813       -14.0088
  66   2.0000      -0.502925       -13.6853
  67   2.0000      -0.501305       -13.6412
  68   2.0000      -0.477960       -13.0060
  69   2.0000      -0.465134       -12.6569
  70   2.0000      -0.453287       -12.3346
  71   2.0000      -0.444143       -12.0857
  72   2.0000      -0.356255        -9.6942
  73   2.0000      -0.351528        -9.5656
  74   2.0000      -0.329543        -8.9673
  75   2.0000      -0.324563        -8.8318
  76   2.0000      -0.317135        -8.6297
  77   0.0000       0.071139         1.9358
  78   0.0000       0.104993         2.8570
  79   0.0000       0.123315         3.3556
  80   0.0000       0.130226         3.5436
  81   0.0000       0.136253         3.7076

MULLIKEN ATOMIC CHARGES
-----------------------
   0 C :   -0.326836
   1 C :    0.030959
   2 O :   -0.384483
   3 C :    0.476631
   4 O :   -0.426247
   5 C :   -0.219858
   6 C :    0.149482
   7 C :   -0.270986
   8 N :   -0.123342
   9 C :    0.205870
  10 S :   -0.436105
  11 N :   -0.198679
  12 C :    0.042232
  13 C :    0.037837
  14 C :   -0.173461
  15 C :   -0.137339
  16 C :   -0.270176
  17 C :    0.300236
  18 O :   -0.359191
  19 C :   -0.245422
  20 H :    0.112125
  21 H :    0.106415
  22 H :    0.116443
  23 H :    0.113496
  24 H :    0.120721
  25 H :    0.133405
  26 H :    0.095113
  27 H :    0.130624
  28 H :    0.198461
  29 H :    0.192579
  30 H :    0.152418
  31 H :    0.156194
  32 H :    0.161570
  33 H :    0.131965
  34 H :    0.240919
  35 H :    0.166430
Sum of atomic charges:   -0.0000000

LOEWDIN ATOMIC CHARGES
----------------------
   0 C :    0.107021
   1 C :   -0.014702
   2 O :    0.290700
   3 C :   -0.417662
   4 O :    0.105305
   5 C :   -0.096009
   6 C :   -0.057462
   7 C :    0.131479
   8 N :    0.406794
   9 C :   -0.457745
  10 S :   -0.032973
  11 N :    0.396767
  12 C :   -0.052250
  13 C :   -0.039895
  14 C :    0.015423
  15 C :    0.039223
  16 C :   -0.002042
  17 C :   -0.191420
  18 O :    0.396512
  19 C :    0.031529
  20 H :   -0.028307
  21 H :   -0.025137
  22 H :   -0.027419
  23 H :   -0.024870
  24 H :   -0.028328
  25 H :   -0.003258
  26 H :   -0.023312
  27 H :   -0.005353
  28 H :   -0.057522
  29 H :   -0.064805
  30 H :   -0.008029
  31 H :   -0.029000
  32 H :   -0.020821
  33 H :   -0.035072
  34 H :   -0.153392
  35 H :   -0.023970

  Mayer bond orders larger than 0.100000
B(  0-C ,  1-C ) :   0.9558 B(  0-C , 20-H ) :   0.9689 B(  0-C , 21-H ) :   0.9782
B(  0-C , 22-H ) :   0.9736 B(  1-C ,  2-O ) :   0.8847 B(  1-C , 23-H ) :   0.9821
B(  1-C , 24-H ) :   0.9855 B(  2-O ,  3-C ) :   1.1230 B(  3-C ,  4-O ) :   1.9865
B(  3-C ,  5-C ) :   1.0662 B(  5-C ,  6-C ) :   1.6530 B(  5-C , 12-C ) :   0.9703
B(  6-C ,  7-C ) :   0.9683 B(  6-C ,  8-N ) :   1.1561 B(  7-C , 25-H ) :   0.9585
B(  7-C , 26-H ) :   0.9898 B(  7-C , 27-H ) :   0.9622 B(  8-N ,  9-C ) :   1.1795
B(  8-N , 28-H ) :   0.9480 B(  9-C , 10-S ) :   1.6143 B(  9-C , 11-N ) :   1.3022
B( 11-N , 12-C ) :   0.9848 B( 11-N , 29-H ) :   0.9532 B( 12-C , 13-C ) :   0.9355
B( 12-C , 30-H ) :   1.0030 B( 13-C , 14-C ) :   1.3627 B( 13-C , 19-C ) :   1.3817
B( 14-C , 15-C ) :   1.3853 B( 14-C , 31-H ) :   0.9694 B( 15-C , 16-C ) :   1.3626
B( 15-C , 32-H ) :   0.9712 B( 16-C , 17-C ) :   1.3316 B( 16-C , 33-H ) :   0.9846
B( 17-C , 18-O ) :   1.1129 B( 17-C , 19-C ) :   1.3758 B( 18-O , 34-H ) :   0.9796
B( 19-C , 35-H ) :   0.9571

MP2 TOTAL ENERGY:    -1274.341630315 Eh
FINAL SINGLE POINT ENERGY     -1274.341630314611

DIPOLE MOMENT
-------------
                                X             Y             Z
Electronic contribution:      9.92768       9.32169       6.03415
Nuclear contribution   :    -10.94609     -10.99192      -6.14048
                        -----------------------------------------
Total Dipole Moment    :     -1.01841      -1.67023      -0.10634
                        -----------------------------------------
Magnitude (a.u.)       :      1.95912
Magnitude (Debye)      :      4.97968

Rotational constants in cm-1:     0.012206     0.009291     0.006528
Rotational constants in MHz :   365.939198   278.539107   195.703644

                             ****ORCA TERMINATED NORMALLY****
TOTAL RUN TIME: 0 days 2 hours 8 minutes 26 seconds 858 msec
