                         Program Version 5.0.0 -  RELEASE  -
|  1> ! ri-mp2 cc-pvtz cc-pvtz/c TightSCF NoKeepInts
|  2>
|  3> %scf
|  4>   MaxCore 4096
|  5> end
|  6> *xyz  0  1
|  7>     C       15.2261587   14.2565203   17.2068484
|  8>     C       15.3574468   15.6236599   16.5078691
|  9>     O       16.5944078   15.6600347   15.7662704
| 10>     C       17.7815047   15.7081751   16.4412248
| 11>     O       18.4904896   14.7215119   16.5248269
| 12>     C       17.9551379   16.8981389   17.3369759
| 13>     C       17.5104376   18.1430900   17.0331272
| 14>     C       16.8230127   18.5901302   15.7594433
| 15>     N       17.7514072   19.2014790   17.9135083
| 16>     C       18.5307299   19.1216793   19.0376898
| 17>     S       18.8383169   20.4468394   19.9777106
| 18>     N       19.0412768   17.8851707   19.3445719
| 19>     C       18.7114728   16.6312197   18.6403351
| 20>     C       17.9086489   15.7023381   19.5449651
| 21>     C       18.3340104   14.3795501   19.7651336
| 22>     C       17.5852430   13.5132051   20.5791492
| 23>     C       16.3987699   13.9718482   21.1764725
| 24>     C       15.9697935   15.2875741   20.9561303
| 25>     O       14.8178222   15.7300852   21.5197473
| 26>     C       16.7177301   16.1483187   20.1468514
| 27>     H       16.0221637   14.1079394   17.9459809
| 28>     H       15.2852333   13.4418930   16.4742047
| 29>     H       14.2640944   14.1812567   17.7276484
| 30>     H       14.5166501   15.7509784   15.8139016
| 31>     H       15.3086391   16.4287758   17.2522298
| 32>     H       17.1885117   18.0280315   14.8906183
| 33>     H       17.0083203   19.6498628   15.5438775
| 34>     H       15.7380883   18.4469291   15.8230802
| 35>     H       17.3936141   20.1196287   17.7018840
| 36>     H       19.5913017   17.8499755   20.1935216
| 37>     H       19.6570864   16.1318516   18.3828210
| 38>     H       19.2394815   14.0154782   19.2850266
| 39>     H       17.9216946   12.4897464   20.7360187
| 40>     H       15.8154567   13.3040154   21.8017559
| 41>     H       14.4831848   15.0211834   22.0899058
| 42>     H       16.3696617   17.1638855   19.9926742
| 43> *
| 44>
| 45>                          ****END OF INPUT****

CARTESIAN COORDINATES (ANGSTROEM)
---------------------------------
  C     15.226159   14.256520   17.206848
  C     15.357447   15.623660   16.507869
  O     16.594408   15.660035   15.766270
  C     17.781505   15.708175   16.441225
  O     18.490490   14.721512   16.524827
  C     17.955138   16.898139   17.336976
  C     17.510438   18.143090   17.033127
  C     16.823013   18.590130   15.759443
  N     17.751407   19.201479   17.913508
  C     18.530730   19.121679   19.037690
  S     18.838317   20.446839   19.977711
  N     19.041277   17.885171   19.344572
  C     18.711473   16.631220   18.640335
  C     17.908649   15.702338   19.544965
  C     18.334010   14.379550   19.765134
  C     17.585243   13.513205   20.579149
  C     16.398770   13.971848   21.176472
  C     15.969793   15.287574   20.956130
  O     14.817822   15.730085   21.519747
  C     16.717730   16.148319   20.146851
  H     16.022164   14.107939   17.945981
  H     15.285233   13.441893   16.474205
  H     14.264094   14.181257   17.727648
  H     14.516650   15.750978   15.813902
  H     15.308639   16.428776   17.252230
  H     17.188512   18.028032   14.890618
  H     17.008320   19.649863   15.543877
  H     15.738088   18.446929   15.823080
  H     17.393614   20.119629   17.701884
  H     19.591302   17.849975   20.193522
  H     19.657086   16.131852   18.382821
  H     19.239482   14.015478   19.285027
  H     17.921695   12.489746   20.736019
  H     15.815457   13.304015   21.801756
  H     14.483185   15.021183   22.089906
  H     16.369662   17.163885   19.992674

 Total Charge           Charge          ....    0
 Multiplicity           Mult            ....    1
 Number of Electrons    NEL             ....  154
 Basis Dimension        Dim             ....  828

ORBITAL ENERGIES
----------------

  NO   OCC          E(Eh)            E(eV)
   0   2.0000     -91.891005     -2500.4814
   1   2.0000     -20.599095      -560.5299
   2   2.0000     -20.588040      -560.2291
   3   2.0000     -20.553679      -559.2940
   4   2.0000     -15.630817      -425.3361
   5   2.0000     -15.610633      -424.7869
   6   2.0000     -11.395099      -310.0764
   7   2.0000     -11.386763      -309.8496
   8   2.0000     -11.336929      -308.4935
   9   2.0000     -11.315511      -307.9107
  10   2.0000     -11.310653      -307.7785
  11   2.0000     -11.304711      -307.6168
  12   2.0000     -11.264615      -306.5258
  13   2.0000     -11.262496      -306.4681
  14   2.0000     -11.260857      -306.4235
  15   2.0000     -11.255437      -306.2760
  16   2.0000     -11.244983      -305.9915
  17   2.0000     -11.241130      -305.8867
  18   2.0000     -11.238043      -305.8027
  19   2.0000     -11.222319      -305.3748
  20   2.0000      -8.896082      -242.0747
  21   2.0000      -6.577659      -178.9872
  22   2.0000      -6.575647      -178.9325
  23   2.0000      -6.575062      -178.9165
  24   2.0000      -1.448458       -39.4146
  25   2.0000      -1.418852       -38.6089
  26   2.0000      -1.358426       -36.9647
  27   2.0000      -1.342322       -36.5264
  28   2.0000      -1.240588       -33.7581
  29   2.0000      -1.159874       -31.5618
  30   2.0000      -1.124011       -30.5859
  31   2.0000      -1.047085       -28.4926
  32   2.0000      -1.031523       -28.0692
  33   2.0000      -1.017215       -27.6798
  34   2.0000      -1.003638       -27.3104
  35   2.0000      -0.988397       -26.8957
  36   2.0000      -0.926767       -25.2186
  37   2.0000      -0.887079       -24.1386
  38   2.0000      -0.853814       -23.2335
  39   2.0000      -0.841912       -22.9096
  40   2.0000      -0.835666       -22.7396
  41   2.0000      -0.831207       -22.6183
  42   2.0000      -0.747201       -20.3324
  43   2.0000      -0.734951       -19.9990
  44   2.0000      -0.730382       -19.8747
  45   2.0000      -0.697215       -18.9722
  46   2.0000      -0.687407       -18.7053
  47   2.0000      -0.680318       -18.5124
  48   2.0000      -0.676685       -18.4135
  49   2.0000      -0.664629       -18.0855
  50   2.0000      -0.653164       -17.7735
  51   2.0000      -0.649130       -17.6637
  52   2.0000      -0.639599       -17.4044
  53   2.0000      -0.614063       -16.7095
  54   2.0000      -0.608222       -16.5506
  55   2.0000      -0.604944       -16.4614
  56   2.0000      -0.600800       -16.3486
  57   2.0000      -0.581562       -15.8251
  58   2.0000      -0.576649       -15.6914
  59   2.0000      -0.568957       -15.4821
  60   2.0000      -0.556628       -15.1466
  61   2.0000      -0.553623       -15.0649
  62   2.0000      -0.540182       -14.6991
  63   2.0000      -0.528251       -14.3744
  64   2.0000      -0.520968       -14.1763
  65   2.0000      -0.513158       -13.9637
  66   2.0000      -0.502027       -13.6609
  67   2.0000      -0.491212       -13.3666
  68   2.0000      -0.487238       -13.2584
  69   2.0000      -0.468699       -12.7539
  70   2.0000      -0.459823       -12.5124
  71   2.0000      -0.448016       -12.1911
  72   2.0000      -0.357803        -9.7363
  73   2.0000      -0.351482        -9.5643
  74   2.0000      -0.330375        -8.9900
  75   2.0000      -0.323055        -8.7908
  76   2.0000      -0.318854        -8.6764
  77   0.0000       0.071621         1.9489
  78   0.0000       0.102893         2.7998
  79   0.0000       0.117659         3.2017
  80   0.0000       0.128708         3.5023
  81   0.0000       0.137066         3.7297

MULLIKEN ATOMIC CHARGES
-----------------------
   0 C :   -0.276037
   1 C :    0.004434
   2 O :   -0.360073
   3 C :    0.451039
   4 O :   -0.384869
   5 C :   -0.241198
   6 C :    0.160380
   7 C :   -0.298479
   8 N :   -0.127173
   9 C :    0.201287
  10 S :   -0.437659
  11 N :   -0.201708
  12 C :    0.060389
  13 C :    0.021205
  14 C :   -0.162587
  15 C :   -0.132000
  16 C :   -0.275324
  17 C :    0.311676
  18 O :   -0.360807
  19 C :   -0.273649
  20 H :    0.109448
  21 H :    0.111292
  22 H :    0.093281
  23 H :    0.122186
  24 H :    0.092379
  25 H :    0.138549
  26 H :    0.115445
  27 H :    0.120686
  28 H :    0.197539
  29 H :    0.195057
  30 H :    0.157458
  31 H :    0.159332
  32 H :    0.162145
  33 H :    0.131904
  34 H :    0.241861
  35 H :    0.172588
Sum of atomic charges:    0.0000000

LOEWDIN ATOMIC CHARGES
----------------------
   0 C :    0.110424
   1 C :   -0.024600
   2 O :    0.290482
   3 C :   -0.419200
   4 O :    0.130214
   5 C :   -0.093471
   6 C :   -0.079098
   7 C :    0.128018
   8 N :    0.404084
   9 C :   -0.457968
  10 S :   -0.034466
  11 N :    0.397416
  12 C :   -0.046158
  13 C :   -0.043950
  14 C :    0.021700
  15 C :    0.043571
  16 C :   -0.000230
  17 C :   -0.193042
  18 O :    0.394181
  19 C :    0.028023
  20 H :   -0.025042
  21 H :   -0.023051
  22 H :   -0.026990
  23 H :   -0.023589
  24 H :   -0.040197
  25 H :   -0.005835
  26 H :   -0.016279
  27 H :   -0.013866
  28 H :   -0.057950
  29 H :   -0.063452
  30 H :   -0.003818
  31 H :   -0.023387
  32 H :   -0.019295
  33 H :   -0.034878
  34 H :   -0.153076
  35 H :   -0.025224

  Mayer bond orders larger than 0.100000
B(  0-C ,  1-C ) :   0.9821 B(  0-C , 20-H ) :   0.9670 B(  0-C , 21-H ) :   0.9781
B(  0-C , 22-H ) :   0.9758 B(  1-C ,  2-O ) :   0.8961 B(  1-C , 23-H ) :   0.9788
B(  1-C , 24-H ) :   0.9652 B(  2-O ,  3-C ) :   1.1221 B(  3-C ,  4-O ) :   2.0730
B(  3-C ,  5-C ) :   0.9697 B(  5-C ,  6-C ) :   1.6646 B(  5-C , 12-C ) :   0.9652
B(  6-C ,  7-C ) :   0.9471 B(  6-C ,  8-N ) :   1.1392 B(  7-C , 25-H ) :   0.9692
B(  7-C , 26-H ) :   0.9850 B(  7-C , 27-H ) :   0.9642 B(  8-N ,  9-C ) :   1.1839
B(  8-N , 28-H ) :   0.9497 B(  9-C , 10-S ) :   1.6132 B(  9-C , 11-N ) :   1.2987
B( 11-N , 12-C ) :   0.9961 B( 11-N , 29-H ) :   0.9516 B( 12-C , 13-C ) :   0.9416
B( 12-C , 30-H ) :   0.9978 B( 13-C , 14-C ) :   1.3836 B( 13-C , 19-C ) :   1.3609
B( 14-C , 15-C ) :   1.3919 B( 14-C , 31-H ) :   0.9634 B( 15-C , 16-C ) :   1.3635
B( 15-C , 32-H ) :   0.9712 B( 16-C , 17-C ) :   1.3312 B( 16-C , 33-H ) :   0.9846
B( 17-C , 18-O ) :   1.1091 B( 17-C , 19-C ) :   1.3712 B( 18-O , 34-H ) :   0.9792
B( 19-C , 35-H ) :   0.9576

MP2 TOTAL ENERGY:    -1274.334658349 Eh
FINAL SINGLE POINT ENERGY     -1274.334658348692

DIPOLE MOMENT
-------------
                                X             Y             Z
Electronic contribution:      9.95758       8.54955       5.50546
Nuclear contribution   :    -11.42298      -9.44063      -5.84945
                        -----------------------------------------
Total Dipole Moment    :     -1.46540      -0.89108      -0.34399
                        -----------------------------------------
Magnitude (a.u.)       :      1.74921
Magnitude (Debye)      :      4.44615

Rotational constants in cm-1:     0.012348     0.009328     0.006831
Rotational constants in MHz :   370.182899   279.635722   204.785038

                             ****ORCA TERMINATED NORMALLY****
TOTAL RUN TIME: 0 days 1 hours 40 minutes 54 seconds 342 msec
