                         Program Version 5.0.0 -  RELEASE  -
|  1> ! ri-mp2 cc-pvtz cc-pvtz/c TightSCF NoKeepInts
|  2>
|  3> %scf
|  4>   MaxCore 4096
|  5> end
|  6> *xyz  0  1
|  7>     C       15.8469263   13.8921141   14.7752564
|  8>     C       15.0619736   15.0613578   15.4105586
|  9>     O       15.8662451   15.9857818   16.1871486
| 10>     C       16.9898931   15.6835118   16.9114173
| 11>     O       17.4226226   14.5532748   17.0569486
| 12>     C       17.5581870   16.8470226   17.6774884
| 13>     C       17.2590878   18.1558747   17.4594381
| 14>     C       16.3217373   18.7462214   16.4252750
| 15>     N       17.9095191   19.1492479   18.1997720
| 16>     C       18.9661175   18.9338695   19.0442401
| 17>     S       19.7688954   20.1829078   19.7731011
| 18>     N       19.3231870   17.6264147   19.2522925
| 19>     C       18.5576233   16.4598152   18.7751335
| 20>     C       17.8547107   15.7700301   19.9418488
| 21>     C       18.0506432   14.3970184   20.1798845
| 22>     C       17.4060561   13.7559299   21.2510687
| 23>     C       16.5570560   14.4934399   22.0935723
| 24>     C       16.3559806   15.8602510   21.8580975
| 25>     O       15.5320492   16.5739158   22.6663780
| 26>     C       16.9986720   16.4954727   20.7908852
| 27>     H       16.7752136   14.2465963   14.3102444
| 28>     H       15.2419795   13.4090642   13.9986083
| 29>     H       16.0934923   13.1241889   15.5188319
| 30>     H       14.5524003   15.6242104   14.6180632
| 31>     H       14.2839727   14.6361398   16.0580199
| 32>     H       15.2809203   18.4836713   16.6523492
| 33>     H       16.5577754   18.3659688   15.4236922
| 34>     H       16.3801939   19.8402482   16.3750005
| 35>     H       17.6614718   20.1157333   18.0613146
| 36>     H       20.0844840   17.4908067   19.9048723
| 37>     H       19.2757683   15.7501500   18.3394391
| 38>     H       18.6929143   13.8204669   19.5185723
| 39>     H       17.5611315   12.6918536   21.4196055
| 40>     H       16.0555866   14.0018697   22.9204366
| 41>     H       15.2110954   15.9728329   23.3551083
| 42>     H       16.8314170   17.5547272   20.6300364
| 43> *
| 44>
| 45>                          ****END OF INPUT****

CARTESIAN COORDINATES (ANGSTROEM)
---------------------------------
  C     15.846926   13.892114   14.775256
  C     15.061974   15.061358   15.410559
  O     15.866245   15.985782   16.187149
  C     16.989893   15.683512   16.911417
  O     17.422623   14.553275   17.056949
  C     17.558187   16.847023   17.677488
  C     17.259088   18.155875   17.459438
  C     16.321737   18.746221   16.425275
  N     17.909519   19.149248   18.199772
  C     18.966117   18.933869   19.044240
  S     19.768895   20.182908   19.773101
  N     19.323187   17.626415   19.252292
  C     18.557623   16.459815   18.775133
  C     17.854711   15.770030   19.941849
  C     18.050643   14.397018   20.179885
  C     17.406056   13.755930   21.251069
  C     16.557056   14.493440   22.093572
  C     16.355981   15.860251   21.858097
  O     15.532049   16.573916   22.666378
  C     16.998672   16.495473   20.790885
  H     16.775214   14.246596   14.310244
  H     15.241979   13.409064   13.998608
  H     16.093492   13.124189   15.518832
  H     14.552400   15.624210   14.618063
  H     14.283973   14.636140   16.058020
  H     15.280920   18.483671   16.652349
  H     16.557775   18.365969   15.423692
  H     16.380194   19.840248   16.375000
  H     17.661472   20.115733   18.061315
  H     20.084484   17.490807   19.904872
  H     19.275768   15.750150   18.339439
  H     18.692914   13.820467   19.518572
  H     17.561131   12.691854   21.419605
  H     16.055587   14.001870   22.920437
  H     15.211095   15.972833   23.355108
  H     16.831417   17.554727   20.630036

 Total Charge           Charge          ....    0
 Multiplicity           Mult            ....    1
 Number of Electrons    NEL             ....  154
 Basis Dimension        Dim             ....  828

ORBITAL ENERGIES
----------------

  NO   OCC          E(Eh)            E(eV)
   0   2.0000     -91.887247     -2500.3791
   1   2.0000     -20.602172      -560.6136
   2   2.0000     -20.590235      -560.2888
   3   2.0000     -20.543654      -559.0212
   4   2.0000     -15.627378      -425.2426
   5   2.0000     -15.605719      -424.6532
   6   2.0000     -11.398442      -310.1674
   7   2.0000     -11.381938      -309.7183
   8   2.0000     -11.335408      -308.4521
   9   2.0000     -11.306508      -307.6657
  10   2.0000     -11.305973      -307.6512
  11   2.0000     -11.304185      -307.6025
  12   2.0000     -11.259782      -306.3942
  13   2.0000     -11.258143      -306.3496
  14   2.0000     -11.251939      -306.1808
  15   2.0000     -11.246164      -306.0237
  16   2.0000     -11.235780      -305.7411
  17   2.0000     -11.231859      -305.6344
  18   2.0000     -11.228858      -305.5528
  19   2.0000     -11.225599      -305.4641
  20   2.0000      -8.892316      -241.9722
  21   2.0000      -6.573896      -178.8848
  22   2.0000      -6.571888      -178.8302
  23   2.0000      -6.571304      -178.8143
  24   2.0000      -1.446956       -39.3737
  25   2.0000      -1.409964       -38.3671
  26   2.0000      -1.356911       -36.9234
  27   2.0000      -1.338466       -36.4215
  28   2.0000      -1.235995       -33.6331
  29   2.0000      -1.150526       -31.3074
  30   2.0000      -1.117851       -30.4183
  31   2.0000      -1.041363       -28.3369
  32   2.0000      -1.034444       -28.1486
  33   2.0000      -1.007981       -27.4286
  34   2.0000      -0.996118       -27.1057
  35   2.0000      -0.981616       -26.7111
  36   2.0000      -0.920494       -25.0479
  37   2.0000      -0.897311       -24.4171
  38   2.0000      -0.847262       -23.0552
  39   2.0000      -0.834645       -22.7119
  40   2.0000      -0.826398       -22.4874
  41   2.0000      -0.816654       -22.2223
  42   2.0000      -0.744281       -20.2529
  43   2.0000      -0.727851       -19.8058
  44   2.0000      -0.723448       -19.6860
  45   2.0000      -0.689641       -18.7661
  46   2.0000      -0.683824       -18.6078
  47   2.0000      -0.677458       -18.4346
  48   2.0000      -0.670568       -18.2471
  49   2.0000      -0.665621       -18.1125
  50   2.0000      -0.644824       -17.5466
  51   2.0000      -0.642319       -17.4784
  52   2.0000      -0.633499       -17.2384
  53   2.0000      -0.606955       -16.5161
  54   2.0000      -0.598854       -16.2956
  55   2.0000      -0.597808       -16.2672
  56   2.0000      -0.593326       -16.1452
  57   2.0000      -0.585495       -15.9321
  58   2.0000      -0.571289       -15.5456
  59   2.0000      -0.567342       -15.4382
  60   2.0000      -0.559048       -15.2125
  61   2.0000      -0.542926       -14.7738
  62   2.0000      -0.536751       -14.6057
  63   2.0000      -0.522979       -14.2310
  64   2.0000      -0.516152       -14.0452
  65   2.0000      -0.510622       -13.8947
  66   2.0000      -0.500119       -13.6089
  67   2.0000      -0.494302       -13.4507
  68   2.0000      -0.479791       -13.0558
  69   2.0000      -0.461689       -12.5632
  70   2.0000      -0.454530       -12.3684
  71   2.0000      -0.447365       -12.1734
  72   2.0000      -0.353223        -9.6117
  73   2.0000      -0.342544        -9.3211
  74   2.0000      -0.326380        -8.8812
  75   2.0000      -0.314614        -8.5611
  76   2.0000      -0.312333        -8.4990
  77   0.0000       0.077286         2.1031
  78   0.0000       0.115140         3.1331
  79   0.0000       0.120990         3.2923
  80   0.0000       0.136966         3.7270
  81   0.0000       0.140017         3.8100

MULLIKEN ATOMIC CHARGES
-----------------------
   0 C :   -0.296126
   1 C :    0.049888
   2 O :   -0.352867
   3 C :    0.445669
   4 O :   -0.433173
   5 C :   -0.157961
   6 C :    0.140262
   7 C :   -0.285656
   8 N :   -0.120490
   9 C :    0.200744
  10 S :   -0.440358
  11 N :   -0.196003
  12 C :    0.030293
  13 C :    0.059807
  14 C :   -0.161806
  15 C :   -0.133988
  16 C :   -0.278854
  17 C :    0.311642
  18 O :   -0.359231
  19 C :   -0.271114
  20 H :    0.097066
  21 H :    0.096334
  22 H :    0.125130
  23 H :    0.097334
  24 H :    0.092060
  25 H :    0.129221
  26 H :    0.123351
  27 H :    0.102631
  28 H :    0.196456
  29 H :    0.193157
  30 H :    0.153691
  31 H :    0.153060
  32 H :    0.158381
  33 H :    0.127464
  34 H :    0.239816
  35 H :    0.164170
Sum of atomic charges:   -0.0000000

LOEWDIN ATOMIC CHARGES
----------------------
   0 C :    0.102811
   1 C :   -0.008945
   2 O :    0.295902
   3 C :   -0.413991
   4 O :    0.110823
   5 C :   -0.089913
   6 C :   -0.065054
   7 C :    0.124298
   8 N :    0.404651
   9 C :   -0.459386
  10 S :   -0.036845
  11 N :    0.397967
  12 C :   -0.046631
  13 C :   -0.038409
  14 C :    0.021811
  15 C :    0.040637
  16 C :   -0.002433
  17 C :   -0.192377
  18 O :    0.392944
  19 C :    0.028792
  20 H :   -0.026938
  21 H :   -0.028323
  22 H :   -0.024276
  23 H :   -0.026253
  24 H :   -0.027935
  25 H :   -0.009372
  26 H :   -0.009466
  27 H :   -0.021387
  28 H :   -0.059478
  29 H :   -0.063686
  30 H :   -0.005539
  31 H :   -0.025577
  32 H :   -0.021503
  33 H :   -0.036598
  34 H :   -0.155111
  35 H :   -0.025211

  Mayer bond orders larger than 0.100000
B(  0-C ,  1-C ) :   0.9718 B(  0-C , 20-H ) :   0.9760 B(  0-C , 21-H ) :   0.9755
B(  0-C , 22-H ) :   0.9714 B(  1-C ,  2-O ) :   0.9007 B(  1-C , 23-H ) :   0.9825
B(  1-C , 24-H ) :   0.9797 B(  2-O ,  3-C ) :   1.1608 B(  3-C ,  4-O ) :   1.9652
B(  3-C ,  5-C ) :   1.0635 B(  5-C ,  6-C ) :   1.6448 B(  5-C , 12-C ) :   0.9661
B(  6-C ,  7-C ) :   0.9555 B(  6-C ,  8-N ) :   1.1503 B(  7-C , 25-H ) :   0.9634
B(  7-C , 26-H ) :   0.9660 B(  7-C , 27-H ) :   0.9923 B(  8-N ,  9-C ) :   1.1779
B(  8-N , 28-H ) :   0.9490 B(  9-C , 10-S ) :   1.6100 B(  9-C , 11-N ) :   1.3048
B( 11-N , 12-C ) :   0.9935 B( 11-N , 29-H ) :   0.9521 B( 12-C , 13-C ) :   0.9480
B( 12-C , 30-H ) :   1.0005 B( 13-C , 14-C ) :   1.3749 B( 13-C , 19-C ) :   1.3699
B( 14-C , 15-C ) :   1.3949 B( 14-C , 31-H ) :   0.9652 B( 15-C , 16-C ) :   1.3626
B( 15-C , 32-H ) :   0.9716 B( 16-C , 17-C ) :   1.3315 B( 16-C , 33-H ) :   0.9862
B( 17-C , 18-O ) :   1.1078 B( 17-C , 19-C ) :   1.3796 B( 18-O , 34-H ) :   0.9808
B( 19-C , 35-H ) :   0.9583

MP2 TOTAL ENERGY:    -1274.339579886 Eh
FINAL SINGLE POINT ENERGY     -1274.339579886074

DIPOLE MOMENT
-------------
                                X             Y             Z
Electronic contribution:      9.45559       9.71058      11.83212
Nuclear contribution   :    -11.13842     -10.82967     -12.89619
                        -----------------------------------------
Total Dipole Moment    :     -1.68283      -1.11910      -1.06406
                        -----------------------------------------
Magnitude (a.u.)       :      2.28397
Magnitude (Debye)      :      5.80539

Rotational constants in cm-1:     0.010565     0.008773     0.005758
Rotational constants in MHz :   316.726435   263.008427   172.608841

                             ****ORCA TERMINATED NORMALLY****
TOTAL RUN TIME: 0 days 1 hours 50 minutes 43 seconds 756 msec
