                         Program Version 5.0.0 -  RELEASE  -
|  1> ! ri-mp2 cc-pvtz cc-pvtz/c TightSCF NoKeepInts
|  2>
|  3> %scf
|  4>   MaxCore 4096
|  5> end
|  6> *xyz  0  1
|  7>     C       15.8487037   13.6832456   15.0847830
|  8>     C       15.5050681   14.3598537   16.4225209
|  9>     O       16.5716780   15.2744997   16.7324255
| 10>     C       16.3368697   16.6212907   16.7591653
| 11>     O       15.3715858   17.1277389   16.2126914
| 12>     C       17.3215727   17.3639051   17.6198149
| 13>     C       17.3049922   18.7153031   17.7449660
| 14>     C       16.3485868   19.6852882   17.0847678
| 15>     N       18.2691665   19.3589945   18.5265048
| 16>     C       19.3362629   18.7406549   19.1215293
| 17>     S       20.4884480   19.5895483   19.9508292
| 18>     N       19.4035040   17.3768903   18.9922915
| 19>     C       18.3623758   16.5286344   18.3836771
| 20>     C       17.7154247   15.6566967   19.4563349
| 21>     C       17.8897448   14.2599513   19.4413325
| 22>     C       17.2921299   13.4540880   20.4249943
| 23>     C       16.5161597   14.0494997   21.4341118
| 24>     C       16.3441005   15.4404213   21.4546772
| 25>     O       15.5963223   16.0183112   22.4282585
| 26>     C       16.9395169   16.2396818   20.4739763
| 27>     H       15.9005152   14.4278195   14.2803395
| 28>     H       15.0823878   12.9450477   14.8190417
| 29>     H       16.8160716   13.1696391   15.1461590
| 30>     H       14.5301989   14.8620152   16.3568023
| 31>     H       15.4400864   13.5974034   17.2095667
| 32>     H       15.3180130   19.4883734   17.4070104
| 33>     H       16.3767357   19.5733857   15.9934204
| 34>     H       16.5731987   20.7333243   17.3149012
| 35>     H       18.2365641   20.3605200   18.6311150
| 36>     H       20.1814592   16.9453315   19.4743532
| 37>     H       18.8611811   15.8723678   17.6566442
| 38>     H       18.4849091   13.7968017   18.6588350
| 39>     H       17.4315699   12.3746581   20.4038625
| 40>     H       16.0532089   13.4316427   22.1964956
| 41>     H       15.2989220   15.3145022   23.0240628
| 42>     H       16.7997655   17.3146702   20.5117383
| 43> *
| 44>
| 45>                          ****END OF INPUT****

CARTESIAN COORDINATES (ANGSTROEM)
---------------------------------
  C     15.848704   13.683246   15.084783
  C     15.505068   14.359854   16.422521
  O     16.571678   15.274500   16.732426
  C     16.336870   16.621291   16.759165
  O     15.371586   17.127739   16.212691
  C     17.321573   17.363905   17.619815
  C     17.304992   18.715303   17.744966
  C     16.348587   19.685288   17.084768
  N     18.269167   19.358995   18.526505
  C     19.336263   18.740655   19.121529
  S     20.488448   19.589548   19.950829
  N     19.403504   17.376890   18.992291
  C     18.362376   16.528634   18.383677
  C     17.715425   15.656697   19.456335
  C     17.889745   14.259951   19.441333
  C     17.292130   13.454088   20.424994
  C     16.516160   14.049500   21.434112
  C     16.344100   15.440421   21.454677
  O     15.596322   16.018311   22.428258
  C     16.939517   16.239682   20.473976
  H     15.900515   14.427819   14.280339
  H     15.082388   12.945048   14.819042
  H     16.816072   13.169639   15.146159
  H     14.530199   14.862015   16.356802
  H     15.440086   13.597403   17.209567
  H     15.318013   19.488373   17.407010
  H     16.376736   19.573386   15.993420
  H     16.573199   20.733324   17.314901
  H     18.236564   20.360520   18.631115
  H     20.181459   16.945331   19.474353
  H     18.861181   15.872368   17.656644
  H     18.484909   13.796802   18.658835
  H     17.431570   12.374658   20.403862
  H     16.053209   13.431643   22.196496
  H     15.298922   15.314502   23.024063
  H     16.799765   17.314670   20.511738

 Total Charge           Charge          ....    0
 Multiplicity           Mult            ....    1
 Number of Electrons    NEL             ....  154
 Basis Dimension        Dim             ....  828

ORBITAL ENERGIES
----------------

  NO   OCC          E(Eh)            E(eV)
   0   2.0000     -91.888907     -2500.4243
   1   2.0000     -20.600195      -560.5598
   2   2.0000     -20.596283      -560.4534
   3   2.0000     -20.542093      -558.9788
   4   2.0000     -15.629107      -425.2896
   5   2.0000     -15.608242      -424.7218
   6   2.0000     -11.395386      -310.0842
   7   2.0000     -11.384010      -309.7746
   8   2.0000     -11.335965      -308.4673
   9   2.0000     -11.313483      -307.8555
  10   2.0000     -11.308964      -307.7326
  11   2.0000     -11.295269      -307.3599
  12   2.0000     -11.259460      -306.3855
  13   2.0000     -11.258799      -306.3675
  14   2.0000     -11.255049      -306.2655
  15   2.0000     -11.252035      -306.1834
  16   2.0000     -11.242813      -305.9325
  17   2.0000     -11.238223      -305.8076
  18   2.0000     -11.238035      -305.8025
  19   2.0000     -11.226894      -305.4993
  20   2.0000      -8.893966      -242.0171
  21   2.0000      -6.575540      -178.9295
  22   2.0000      -6.573536      -178.8750
  23   2.0000      -6.572949      -178.8590
  24   2.0000      -1.451045       -39.4849
  25   2.0000      -1.415933       -38.5295
  26   2.0000      -1.354866       -36.8678
  27   2.0000      -1.340045       -36.4645
  28   2.0000      -1.238484       -33.7009
  29   2.0000      -1.157406       -31.4946
  30   2.0000      -1.120343       -30.4861
  31   2.0000      -1.042892       -28.3785
  32   2.0000      -1.038263       -28.2526
  33   2.0000      -1.014856       -27.6156
  34   2.0000      -0.995514       -27.0893
  35   2.0000      -0.984130       -26.7796
  36   2.0000      -0.922446       -25.1010
  37   2.0000      -0.890012       -24.2185
  38   2.0000      -0.846916       -23.0458
  39   2.0000      -0.837540       -22.7906
  40   2.0000      -0.833833       -22.6898
  41   2.0000      -0.818572       -22.2745
  42   2.0000      -0.762469       -20.7478
  43   2.0000      -0.732354       -19.9284
  44   2.0000      -0.723051       -19.6752
  45   2.0000      -0.695359       -18.9217
  46   2.0000      -0.687796       -18.7159
  47   2.0000      -0.680140       -18.5076
  48   2.0000      -0.672233       -18.2924
  49   2.0000      -0.654499       -17.8098
  50   2.0000      -0.646224       -17.5847
  51   2.0000      -0.643738       -17.5170
  52   2.0000      -0.629905       -17.1406
  53   2.0000      -0.613925       -16.7057
  54   2.0000      -0.606535       -16.5047
  55   2.0000      -0.599368       -16.3096
  56   2.0000      -0.598491       -16.2858
  57   2.0000      -0.578370       -15.7382
  58   2.0000      -0.571040       -15.5388
  59   2.0000      -0.568171       -15.4607
  60   2.0000      -0.563650       -15.3377
  61   2.0000      -0.539793       -14.6885
  62   2.0000      -0.534552       -14.5459
  63   2.0000      -0.530551       -14.4370
  64   2.0000      -0.524798       -14.2805
  65   2.0000      -0.513437       -13.9713
  66   2.0000      -0.501398       -13.6437
  67   2.0000      -0.496784       -13.5182
  68   2.0000      -0.486503       -13.2384
  69   2.0000      -0.464230       -12.6323
  70   2.0000      -0.453972       -12.3532
  71   2.0000      -0.449198       -12.2233
  72   2.0000      -0.354310        -9.6413
  73   2.0000      -0.349179        -9.5017
  74   2.0000      -0.328238        -8.9318
  75   2.0000      -0.321210        -8.7406
  76   2.0000      -0.316030        -8.5996
  77   0.0000       0.075952         2.0668
  78   0.0000       0.106477         2.8974
  79   0.0000       0.124391         3.3848
  80   0.0000       0.132341         3.6012
  81   0.0000       0.136183         3.7057

MULLIKEN ATOMIC CHARGES
-----------------------
   0 C :   -0.268020
   1 C :    0.025507
   2 O :   -0.357009
   3 C :    0.468793
   4 O :   -0.433338
   5 C :   -0.226453
   6 C :    0.152172
   7 C :   -0.273373
   8 N :   -0.121013
   9 C :    0.210574
  10 S :   -0.439633
  11 N :   -0.203837
  12 C :    0.053718
  13 C :    0.068064
  14 C :   -0.189308
  15 C :   -0.131616
  16 C :   -0.279484
  17 C :    0.316185
  18 O :   -0.356521
  19 C :   -0.268741
  20 H :    0.101832
  21 H :    0.090387
  22 H :    0.090695
  23 H :    0.114220
  24 H :    0.107970
  25 H :    0.132345
  26 H :    0.130531
  27 H :    0.095039
  28 H :    0.197480
  29 H :    0.194587
  30 H :    0.150748
  31 H :    0.151039
  32 H :    0.161061
  33 H :    0.129932
  34 H :    0.240627
  35 H :    0.164840
Sum of atomic charges:    0.0000000

LOEWDIN ATOMIC CHARGES
----------------------
   0 C :    0.104555
   1 C :   -0.013524
   2 O :    0.309993
   3 C :   -0.414466
   4 O :    0.095649
   5 C :   -0.094892
   6 C :   -0.058790
   7 C :    0.131575
   8 N :    0.406579
   9 C :   -0.456568
  10 S :   -0.035275
  11 N :    0.396500
  12 C :   -0.052537
  13 C :   -0.038597
  14 C :    0.014401
  15 C :    0.038258
  16 C :   -0.001961
  17 C :   -0.189415
  18 O :    0.395225
  19 C :    0.031556
  20 H :   -0.024755
  21 H :   -0.026799
  22 H :   -0.029591
  23 H :   -0.028014
  24 H :   -0.029249
  25 H :   -0.004481
  26 H :   -0.004016
  27 H :   -0.023402
  28 H :   -0.057556
  29 H :   -0.064561
  30 H :   -0.010892
  31 H :   -0.030183
  32 H :   -0.021520
  33 H :   -0.035645
  34 H :   -0.153940
  35 H :   -0.023663

  Mayer bond orders larger than 0.100000
B(  0-C ,  1-C ) :   0.9736 B(  0-C , 20-H ) :   0.9788 B(  0-C , 21-H ) :   0.9755
B(  0-C , 22-H ) :   0.9790 B(  1-C ,  2-O ) :   0.8800 B(  1-C , 23-H ) :   0.9739
B(  1-C , 24-H ) :   0.9777 B(  2-O ,  3-C ) :   1.1640 B(  3-C ,  4-O ) :   1.9701
B(  3-C ,  5-C ) :   1.0616 B(  5-C ,  6-C ) :   1.6553 B(  5-C , 12-C ) :   0.9722
B(  6-C ,  7-C ) :   0.9671 B(  6-C ,  8-N ) :   1.1641 B(  7-C , 25-H ) :   0.9600
B(  7-C , 26-H ) :   0.9606 B(  7-C , 27-H ) :   0.9905 B(  8-N ,  9-C ) :   1.1827
B(  8-N , 28-H ) :   0.9479 B(  9-C , 10-S ) :   1.6079 B(  9-C , 11-N ) :   1.3048
B( 11-N , 12-C ) :   0.9885 B( 11-N , 29-H ) :   0.9517 B( 12-C , 13-C ) :   0.9360
B( 12-C , 30-H ) :   1.0027 B( 13-C , 14-C ) :   1.3530 B( 13-C , 19-C ) :   1.3830
B( 14-C , 15-C ) :   1.3899 B( 14-C , 31-H ) :   0.9717 B( 15-C , 16-C ) :   1.3633
B( 15-C , 32-H ) :   0.9705 B( 16-C , 17-C ) :   1.3315 B( 16-C , 33-H ) :   0.9851
B( 17-C , 18-O ) :   1.1101 B( 17-C , 19-C ) :   1.3724 B( 18-O , 34-H ) :   0.9799
B( 19-C , 35-H ) :   0.9582

MP2 TOTAL ENERGY:    -1274.348599817 Eh
FINAL SINGLE POINT ENERGY     -1274.348599817172

DIPOLE MOMENT
-------------
                                X             Y             Z
Electronic contribution:      9.28426      10.20443       9.69576
Nuclear contribution   :    -10.42920     -11.83095     -10.01048
                        -----------------------------------------
Total Dipole Moment    :     -1.14494      -1.62652      -0.31472
                        -----------------------------------------
Magnitude (a.u.)       :      2.01383
Magnitude (Debye)      :      5.11874

Rotational constants in cm-1:     0.011243     0.008626     0.006071
Rotational constants in MHz :   337.052032   258.604385   181.997555

                             ****ORCA TERMINATED NORMALLY****
TOTAL RUN TIME: 0 days 2 hours 18 minutes 39 seconds 954 msec
