                         Program Version 5.0.0 -  RELEASE  -
|  1> ! ri-mp2 cc-pvtz cc-pvtz/c TightSCF NoKeepInts
|  2>
|  3> %scf
|  4>   MaxCore 4096
|  5> end
|  6> *xyz  0  1
|  7>     C       14.3642371   14.6744566   16.5578323
|  8>     C       15.4629884   15.6292574   17.0511745
|  9>     O       16.6979943   15.1963233   16.4531967
| 10>     C       17.8488021   15.9425898   16.4204453
| 11>     O       18.8777958   15.4144803   16.0428591
| 12>     C       17.9099804   17.0457641   17.4228773
| 13>     C       17.3584960   18.2584358   17.1925128
| 14>     C       16.6275001   18.7017556   15.9433554
| 15>     N       17.5083711   19.2799160   18.1325403
| 16>     C       18.2775567   19.1897404   19.2640029
| 17>     S       18.4471294   20.4660577   20.3013146
| 18>     N       18.8976379   17.9858043   19.4961172
| 19>     C       18.7249776   16.7639121   18.6841617
| 20>     C       18.1013869   15.6302425   19.4931393
| 21>     C       18.5401322   14.3076156   19.2992307
| 22>     C       17.9584448   13.2472302   20.0134955
| 23>     C       16.9260587   13.5095680   20.9297067
| 24>     C       16.4815598   14.8243034   21.1221588
| 25>     O       15.4745947   15.0795885   21.9946028
| 26>     C       17.0616417   15.8785582   20.4093388
| 27>     H       13.3915481   14.9523908   16.9814676
| 28>     H       14.5881242   13.6434166   16.8597331
| 29>     H       14.2862645   14.7042800   15.4638417
| 30>     H       15.1996955   16.6448626   16.7396571
| 31>     H       15.5290564   15.5969268   18.1460616
| 32>     H       15.5942371   18.9920077   16.1706641
| 33>     H       16.5934677   17.9189086   15.1756866
| 34>     H       17.1281910   19.5669070   15.4897343
| 35>     H       17.0782431   20.1773854   17.9718057
| 36>     H       19.4450689   17.9444990   20.3466747
| 37>     H       19.7248420   16.4363891   18.3623402
| 38>     H       19.3257521   14.0989545   18.5756697
| 39>     H       18.3041682   12.2280419   19.8487810
| 40>     H       16.4719169   12.6924486   21.4804853
| 41>     H       15.2440652   14.2423050   22.4251784
| 42>     H       16.6950732   16.8866766   20.5721565
| 43> *
| 44>
| 45>                          ****END OF INPUT****

CARTESIAN COORDINATES (ANGSTROEM)
---------------------------------
  C     14.364237   14.674457   16.557832
  C     15.462988   15.629257   17.051174
  O     16.697994   15.196323   16.453197
  C     17.848802   15.942590   16.420445
  O     18.877796   15.414480   16.042859
  C     17.909980   17.045764   17.422877
  C     17.358496   18.258436   17.192513
  C     16.627500   18.701756   15.943355
  N     17.508371   19.279916   18.132540
  C     18.277557   19.189740   19.264003
  S     18.447129   20.466058   20.301315
  N     18.897638   17.985804   19.496117
  C     18.724978   16.763912   18.684162
  C     18.101387   15.630242   19.493139
  C     18.540132   14.307616   19.299231
  C     17.958445   13.247230   20.013496
  C     16.926059   13.509568   20.929707
  C     16.481560   14.824303   21.122159
  O     15.474595   15.079588   21.994603
  C     17.061642   15.878558   20.409339
  H     13.391548   14.952391   16.981468
  H     14.588124   13.643417   16.859733
  H     14.286264   14.704280   15.463842
  H     15.199695   16.644863   16.739657
  H     15.529056   15.596927   18.146062
  H     15.594237   18.992008   16.170664
  H     16.593468   17.918909   15.175687
  H     17.128191   19.566907   15.489734
  H     17.078243   20.177385   17.971806
  H     19.445069   17.944499   20.346675
  H     19.724842   16.436389   18.362340
  H     19.325752   14.098954   18.575670
  H     18.304168   12.228042   19.848781
  H     16.471917   12.692449   21.480485
  H     15.244065   14.242305   22.425178
  H     16.695073   16.886677   20.572156

 Total Charge           Charge          ....    0
 Multiplicity           Mult            ....    1
 Number of Electrons    NEL             ....  154
 Basis Dimension        Dim             ....  828

ORBITAL ENERGIES
----------------

  NO   OCC          E(Eh)            E(eV)
   0   2.0000     -91.889305     -2500.4351
   1   2.0000     -20.601966      -560.6080
   2   2.0000     -20.599820      -560.5496
   3   2.0000     -20.552556      -559.2635
   4   2.0000     -15.625162      -425.1823
   5   2.0000     -15.611699      -424.8159
   6   2.0000     -11.397665      -310.1462
   7   2.0000     -11.386315      -309.8374
   8   2.0000     -11.326305      -308.2044
   9   2.0000     -11.316733      -307.9440
  10   2.0000     -11.316581      -307.9398
  11   2.0000     -11.302058      -307.5446
  12   2.0000     -11.271056      -306.7010
  13   2.0000     -11.265137      -306.5399
  14   2.0000     -11.264070      -306.5109
  15   2.0000     -11.256878      -306.3152
  16   2.0000     -11.245989      -306.0189
  17   2.0000     -11.242031      -305.9112
  18   2.0000     -11.239188      -305.8338
  19   2.0000     -11.232824      -305.6607
  20   2.0000      -8.894434      -242.0299
  21   2.0000      -6.576027      -178.9428
  22   2.0000      -6.573996      -178.8875
  23   2.0000      -6.573425      -178.8720
  24   2.0000      -1.450862       -39.4800
  25   2.0000      -1.419654       -38.6307
  26   2.0000      -1.361020       -37.0352
  27   2.0000      -1.339188       -36.4412
  28   2.0000      -1.239494       -33.7283
  29   2.0000      -1.161315       -31.6010
  30   2.0000      -1.125614       -30.6295
  31   2.0000      -1.049340       -28.5540
  32   2.0000      -1.040577       -28.3155
  33   2.0000      -1.019150       -27.7325
  34   2.0000      -1.005318       -27.3561
  35   2.0000      -0.989092       -26.9146
  36   2.0000      -0.928071       -25.2541
  37   2.0000      -0.881084       -23.9755
  38   2.0000      -0.855500       -23.2793
  39   2.0000      -0.841689       -22.9035
  40   2.0000      -0.837393       -22.7866
  41   2.0000      -0.836593       -22.7649
  42   2.0000      -0.757491       -20.6124
  43   2.0000      -0.739096       -20.1118
  44   2.0000      -0.732023       -19.9193
  45   2.0000      -0.697474       -18.9792
  46   2.0000      -0.688377       -18.7317
  47   2.0000      -0.681093       -18.5335
  48   2.0000      -0.677963       -18.4483
  49   2.0000      -0.665278       -18.1031
  50   2.0000      -0.655365       -17.8334
  51   2.0000      -0.651396       -17.7254
  52   2.0000      -0.639510       -17.4020
  53   2.0000      -0.612547       -16.6682
  54   2.0000      -0.608035       -16.5455
  55   2.0000      -0.603643       -16.4260
  56   2.0000      -0.595154       -16.1950
  57   2.0000      -0.584029       -15.8922
  58   2.0000      -0.577217       -15.7069
  59   2.0000      -0.572458       -15.5774
  60   2.0000      -0.564588       -15.3632
  61   2.0000      -0.559463       -15.2238
  62   2.0000      -0.551454       -15.0058
  63   2.0000      -0.526703       -14.3323
  64   2.0000      -0.520379       -14.1602
  65   2.0000      -0.514871       -14.0104
  66   2.0000      -0.507586       -13.8121
  67   2.0000      -0.502416       -13.6714
  68   2.0000      -0.487448       -13.2641
  69   2.0000      -0.468986       -12.7618
  70   2.0000      -0.453613       -12.3434
  71   2.0000      -0.451384       -12.2828
  72   2.0000      -0.356883        -9.7113
  73   2.0000      -0.351473        -9.5641
  74   2.0000      -0.329099        -8.9552
  75   2.0000      -0.324431        -8.8282
  76   2.0000      -0.317971        -8.6524
  77   0.0000       0.090370         2.4591
  78   0.0000       0.104026         2.8307
  79   0.0000       0.110223         2.9993
  80   0.0000       0.128242         3.4897
  81   0.0000       0.130037         3.5385

MULLIKEN ATOMIC CHARGES
-----------------------
   0 C :   -0.260197
   1 C :    0.021759
   2 O :   -0.301659
   3 C :    0.382853
   4 O :   -0.377497
   5 C :   -0.159276
   6 C :    0.127748
   7 C :   -0.326170
   8 N :   -0.139782
   9 C :    0.207039
  10 S :   -0.442725
  11 N :   -0.221351
  12 C :    0.070607
  13 C :    0.024737
  14 C :   -0.193198
  15 C :   -0.133082
  16 C :   -0.274280
  17 C :    0.324413
  18 O :   -0.358376
  19 C :   -0.288414
  20 H :    0.088465
  21 H :    0.106768
  22 H :    0.099149
  23 H :    0.080697
  24 H :    0.114307
  25 H :    0.119623
  26 H :    0.118991
  27 H :    0.142898
  28 H :    0.194915
  29 H :    0.200656
  30 H :    0.166424
  31 H :    0.166385
  32 H :    0.163807
  33 H :    0.132609
  34 H :    0.241479
  35 H :    0.179678
Sum of atomic charges:    0.0000000

LOEWDIN ATOMIC CHARGES
----------------------
   0 C :    0.111187
   1 C :   -0.025453
   2 O :    0.314078
   3 C :   -0.418482
   4 O :    0.127648
   5 C :   -0.078343
   6 C :   -0.109356
   7 C :    0.121677
   8 N :    0.400503
   9 C :   -0.455346
  10 S :   -0.039242
  11 N :    0.397503
  12 C :   -0.042700
  13 C :   -0.042736
  14 C :    0.023813
  15 C :    0.046171
  16 C :   -0.000404
  17 C :   -0.194557
  18 O :    0.394945
  19 C :    0.026054
  20 H :   -0.025540
  21 H :   -0.023361
  22 H :   -0.026163
  23 H :   -0.038210
  24 H :   -0.031058
  25 H :   -0.017510
  26 H :   -0.009997
  27 H :   -0.008834
  28 H :   -0.058396
  29 H :   -0.063745
  30 H :   -0.002013
  31 H :   -0.021740
  32 H :   -0.018267
  33 H :   -0.034624
  34 H :   -0.152932
  35 H :   -0.024567

  Mayer bond orders larger than 0.100000
B(  0-C ,  1-C ) :   0.9851 B(  0-C , 20-H ) :   0.9769 B(  0-C , 21-H ) :   0.9796
B(  0-C , 22-H ) :   0.9783 B(  1-C ,  2-O ) :   0.9147 B(  1-C , 23-H ) :   0.9722
B(  1-C , 24-H ) :   0.9599 B(  2-O ,  3-C ) :   1.1677 B(  3-C ,  4-O ) :   2.0951
B(  3-C ,  5-C ) :   0.9187 B(  5-C ,  6-C ) :   1.6982 B(  5-C , 12-C ) :   0.9622
B(  6-C ,  7-C ) :   0.9430 B(  6-C ,  8-N ) :   1.1129 B(  7-C , 25-H ) :   0.9680
B(  7-C , 26-H ) :   0.9830 B(  7-C , 27-H ) :   0.9668 B(  8-N ,  9-C ) :   1.2003
B(  8-N , 28-H ) :   0.9534 B(  9-C , 10-S ) :   1.6081 B(  9-C , 11-N ) :   1.2853
B( 11-N , 12-C ) :   0.9922 B( 11-N , 29-H ) :   0.9475 B( 12-C , 13-C ) :   0.9444
B( 12-C , 30-H ) :   0.9975 B( 13-C , 14-C ) :   1.3865 B( 13-C , 19-C ) :   1.3422
B( 14-C , 15-C ) :   1.3983 B( 14-C , 31-H ) :   0.9625 B( 15-C , 16-C ) :   1.3621
B( 15-C , 32-H ) :   0.9698 B( 16-C , 17-C ) :   1.3307 B( 16-C , 33-H ) :   0.9844
B( 17-C , 18-O ) :   1.1082 B( 17-C , 19-C ) :   1.3619 B( 18-O , 34-H ) :   0.9793
B( 19-C , 35-H ) :   0.9584

MP2 TOTAL ENERGY:    -1274.328278144 Eh
FINAL SINGLE POINT ENERGY     -1274.328278144374

DIPOLE MOMENT
-------------
                                X             Y             Z
Electronic contribution:     11.39709       7.44283       7.47822
Nuclear contribution   :    -12.99929      -8.50332      -7.93005
                        -----------------------------------------
Total Dipole Moment    :     -1.60220      -1.06049      -0.45183
                        -----------------------------------------
Magnitude (a.u.)       :      1.97378
Magnitude (Debye)      :      5.01696

Rotational constants in cm-1:     0.011878     0.009076     0.006693
Rotational constants in MHz :   356.086867   272.094762   200.641117

                             ****ORCA TERMINATED NORMALLY****
TOTAL RUN TIME: 0 days 2 hours 8 minutes 29 seconds 48 msec
