                         Program Version 5.0.0 -  RELEASE  -
|  1> ! ri-mp2 cc-pvtz cc-pvtz/c TightSCF NoKeepInts
|  2>
|  3> %scf
|  4>   MaxCore 4096
|  5> end
|  6> *xyz  0  1
|  7>     C       15.8359294   14.3432121   14.3256369
|  8>     C       15.0723980   14.8163590   15.5781352
|  9>     O       15.8286707   15.8610945   16.2183720
| 10>     C       16.8862567   15.5478195   17.0247555
| 11>     O       17.2422454   14.3966140   17.2195238
| 12>     C       17.5327999   16.7184722   17.7123426
| 13>     C       17.3002041   18.0279913   17.4282090
| 14>     C       16.3659958   18.6125511   16.3881638
| 15>     N       18.0214296   19.0219227   18.0989369
| 16>     C       19.0813598   18.7933134   18.9358347
| 17>     S       19.9678069   20.0325410   19.5794282
| 18>     N       19.3684006   17.4810524   19.2115539
| 19>     C       18.5302248   16.3352330   18.8125304
| 20>     C       17.8132832   15.7498775   20.0266979
| 21>     C       17.9368209   14.3826018   20.3357370
| 22>     C       17.2786007   13.8373582   21.4508097
| 23>     C       16.4889140   14.6659107   22.2659421
| 24>     C       16.3600382   16.0274451   21.9599176
| 25>     O       15.5934491   16.8290244   22.7417400
| 26>     C       17.0160356   16.5671513   20.8491041
| 27>     H       16.0360136   15.1850714   13.6515152
| 28>     H       15.2470599   13.5975539   13.7779451
| 29>     H       16.7932795   13.8821701   14.5993567
| 30>     H       14.0970622   15.2138576   15.2695841
| 31>     H       14.8958891   13.9775419   16.2657203
| 32>     H       16.5832320   18.2006434   15.3947781
| 33>     H       16.4470218   19.7034006   16.3092997
| 34>     H       15.3217946   18.3794779   16.6313636
| 35>     H       17.8257919   19.9918902   17.9099273
| 36>     H       20.1339949   17.3386666   19.8576761
| 37>     H       19.1989812   15.5637112   18.4041844
| 38>     H       18.5330004   13.7359190   19.6964861
| 39>     H       17.3773696   12.7767384   21.6746102
| 40>     H       15.9771989   14.2485461   23.1266477
| 41>     H       15.2531923   16.2850810   23.4677216
| 42>     H       16.9052548   17.6241855   20.6338127
| 43> *
| 44>
| 45>                          ****END OF INPUT****

CARTESIAN COORDINATES (ANGSTROEM)
---------------------------------
  C     15.835929   14.343212   14.325637
  C     15.072398   14.816359   15.578135
  O     15.828671   15.861095   16.218372
  C     16.886257   15.547819   17.024755
  O     17.242245   14.396614   17.219524
  C     17.532800   16.718472   17.712343
  C     17.300204   18.027991   17.428209
  C     16.365996   18.612551   16.388164
  N     18.021430   19.021923   18.098937
  C     19.081360   18.793313   18.935835
  S     19.967807   20.032541   19.579428
  N     19.368401   17.481052   19.211554
  C     18.530225   16.335233   18.812530
  C     17.813283   15.749877   20.026698
  C     17.936821   14.382602   20.335737
  C     17.278601   13.837358   21.450810
  C     16.488914   14.665911   22.265942
  C     16.360038   16.027445   21.959918
  O     15.593449   16.829024   22.741740
  C     17.016036   16.567151   20.849104
  H     16.036014   15.185071   13.651515
  H     15.247060   13.597554   13.777945
  H     16.793280   13.882170   14.599357
  H     14.097062   15.213858   15.269584
  H     14.895889   13.977542   16.265720
  H     16.583232   18.200643   15.394778
  H     16.447022   19.703401   16.309300
  H     15.321795   18.379478   16.631364
  H     17.825792   19.991890   17.909927
  H     20.133995   17.338667   19.857676
  H     19.198981   15.563711   18.404184
  H     18.533000   13.735919   19.696486
  H     17.377370   12.776738   21.674610
  H     15.977199   14.248546   23.126648
  H     15.253192   16.285081   23.467722
  H     16.905255   17.624185   20.633813

 Total Charge           Charge          ....    0
 Multiplicity           Mult            ....    1
 Number of Electrons    NEL             ....  154
 Basis Dimension        Dim             ....  828

ORBITAL ENERGIES
----------------

  NO   OCC          E(Eh)            E(eV)
   0   2.0000     -91.888094     -2500.4021
   1   2.0000     -20.604870      -560.6870
   2   2.0000     -20.590556      -560.2975
   3   2.0000     -20.545069      -559.0598
   4   2.0000     -15.628645      -425.2771
   5   2.0000     -15.606530      -424.6753
   6   2.0000     -11.396998      -310.1281
   7   2.0000     -11.382818      -309.7422
   8   2.0000     -11.337301      -308.5037
   9   2.0000     -11.306342      -307.6612
  10   2.0000     -11.304982      -307.6242
  11   2.0000     -11.301047      -307.5171
  12   2.0000     -11.261008      -306.4276
  13   2.0000     -11.258880      -306.3697
  14   2.0000     -11.252406      -306.1935
  15   2.0000     -11.246470      -306.0320
  16   2.0000     -11.236136      -305.7508
  17   2.0000     -11.232342      -305.6476
  18   2.0000     -11.229242      -305.5632
  19   2.0000     -11.227673      -305.5205
  20   2.0000      -8.893152      -241.9950
  21   2.0000      -6.574728      -178.9074
  22   2.0000      -6.572723      -178.8529
  23   2.0000      -6.572136      -178.8369
  24   2.0000      -1.454265       -39.5726
  25   2.0000      -1.410288       -38.3759
  26   2.0000      -1.357413       -36.9371
  27   2.0000      -1.339512       -36.4500
  28   2.0000      -1.236935       -33.6587
  29   2.0000      -1.151180       -31.3252
  30   2.0000      -1.119144       -30.4535
  31   2.0000      -1.041995       -28.3541
  32   2.0000      -1.034884       -28.1606
  33   2.0000      -1.008466       -27.4417
  34   2.0000      -0.997034       -27.1307
  35   2.0000      -0.982631       -26.7387
  36   2.0000      -0.920908       -25.0592
  37   2.0000      -0.894155       -24.3312
  38   2.0000      -0.847644       -23.0656
  39   2.0000      -0.834683       -22.7129
  40   2.0000      -0.826762       -22.4973
  41   2.0000      -0.816458       -22.2170
  42   2.0000      -0.755112       -20.5477
  43   2.0000      -0.735060       -20.0020
  44   2.0000      -0.724162       -19.7055
  45   2.0000      -0.689978       -18.7753
  46   2.0000      -0.684855       -18.6358
  47   2.0000      -0.679665       -18.4946
  48   2.0000      -0.671418       -18.2702
  49   2.0000      -0.658328       -17.9140
  50   2.0000      -0.647220       -17.6117
  51   2.0000      -0.641920       -17.4675
  52   2.0000      -0.630151       -17.1473
  53   2.0000      -0.613258       -16.6876
  54   2.0000      -0.599721       -16.3192
  55   2.0000      -0.598471       -16.2852
  56   2.0000      -0.593801       -16.1581
  57   2.0000      -0.584718       -15.9110
  58   2.0000      -0.572121       -15.5682
  59   2.0000      -0.564822       -15.3696
  60   2.0000      -0.560438       -15.2503
  61   2.0000      -0.545585       -14.8461
  62   2.0000      -0.534478       -14.5439
  63   2.0000      -0.530101       -14.4248
  64   2.0000      -0.516220       -14.0471
  65   2.0000      -0.510001       -13.8778
  66   2.0000      -0.499268       -13.5858
  67   2.0000      -0.494800       -13.4642
  68   2.0000      -0.480154       -13.0656
  69   2.0000      -0.464188       -12.6312
  70   2.0000      -0.456421       -12.4198
  71   2.0000      -0.454541       -12.3687
  72   2.0000      -0.354389        -9.6434
  73   2.0000      -0.343090        -9.3359
  74   2.0000      -0.327150        -8.9022
  75   2.0000      -0.315404        -8.5826
  76   2.0000      -0.312704        -8.5091
  77   0.0000       0.075981         2.0675
  78   0.0000       0.114769         3.1230
  79   0.0000       0.121203         3.2981
  80   0.0000       0.136782         3.7220
  81   0.0000       0.140923         3.8347

MULLIKEN ATOMIC CHARGES
-----------------------
   0 C :   -0.294051
   1 C :    0.031267
   2 O :   -0.344196
   3 C :    0.455688
   4 O :   -0.440108
   5 C :   -0.179328
   6 C :    0.147448
   7 C :   -0.284221
   8 N :   -0.119801
   9 C :    0.200703
  10 S :   -0.438857
  11 N :   -0.195930
  12 C :    0.031837
  13 C :    0.059057
  14 C :   -0.159924
  15 C :   -0.133886
  16 C :   -0.278555
  17 C :    0.311714
  18 O :   -0.359251
  19 C :   -0.272181
  20 H :    0.090772
  21 H :    0.096791
  22 H :    0.116826
  23 H :    0.107634
  24 H :    0.107936
  25 H :    0.125850
  26 H :    0.101503
  27 H :    0.129263
  28 H :    0.196608
  29 H :    0.193383
  30 H :    0.153103
  31 H :    0.152673
  32 H :    0.158552
  33 H :    0.127615
  34 H :    0.239923
  35 H :    0.164143
Sum of atomic charges:    0.0000000

LOEWDIN ATOMIC CHARGES
----------------------
   0 C :    0.104537
   1 C :   -0.016464
   2 O :    0.306592
   3 C :   -0.413464
   4 O :    0.100903
   5 C :   -0.090495
   6 C :   -0.063808
   7 C :    0.124864
   8 N :    0.405039
   9 C :   -0.459260
  10 S :   -0.035654
  11 N :    0.398065
  12 C :   -0.046742
  13 C :   -0.038702
  14 C :    0.022302
  15 C :    0.040904
  16 C :   -0.002178
  17 C :   -0.192400
  18 O :    0.392965
  19 C :    0.028513
  20 H :   -0.030932
  21 H :   -0.026370
  22 H :   -0.024436
  23 H :   -0.026010
  24 H :   -0.026364
  25 H :   -0.009253
  26 H :   -0.021332
  27 H :   -0.009037
  28 H :   -0.059236
  29 H :   -0.063546
  30 H :   -0.005343
  31 H :   -0.025489
  32 H :   -0.021370
  33 H :   -0.036489
  34 H :   -0.155008
  35 H :   -0.025301

  Mayer bond orders larger than 0.100000
B(  0-C ,  1-C ) :   0.9634 B(  0-C , 20-H ) :   0.9777 B(  0-C , 21-H ) :   0.9764
B(  0-C , 22-H ) :   0.9744 B(  1-C ,  2-O ) :   0.8971 B(  1-C , 23-H ) :   0.9848
B(  1-C , 24-H ) :   0.9763 B(  2-O ,  3-C ) :   1.1638 B(  3-C ,  4-O ) :   1.9463
B(  3-C ,  5-C ) :   1.0804 B(  5-C ,  6-C ) :   1.6406 B(  5-C , 12-C ) :   0.9681
B(  6-C ,  7-C ) :   0.9559 B(  6-C ,  8-N ) :   1.1548 B(  7-C , 25-H ) :   0.9648
B(  7-C , 26-H ) :   0.9914 B(  7-C , 27-H ) :   0.9638 B(  8-N ,  9-C ) :   1.1762
B(  8-N , 28-H ) :   0.9486 B(  9-C , 10-S ) :   1.6111 B(  9-C , 11-N ) :   1.3052
B( 11-N , 12-C ) :   0.9936 B( 11-N , 29-H ) :   0.9519 B( 12-C , 13-C ) :   0.9470
B( 12-C , 30-H ) :   1.0008 B( 13-C , 14-C ) :   1.3742 B( 13-C , 19-C ) :   1.3697
B( 14-C , 15-C ) :   1.3946 B( 14-C , 31-H ) :   0.9654 B( 15-C , 16-C ) :   1.3625
B( 15-C , 32-H ) :   0.9716 B( 16-C , 17-C ) :   1.3316 B( 16-C , 33-H ) :   0.9861
B( 17-C , 18-O ) :   1.1078 B( 17-C , 19-C ) :   1.3796 B( 18-O , 34-H ) :   0.9807
B( 19-C , 35-H ) :   0.9583

MP2 TOTAL ENERGY:    -1274.349650151 Eh
FINAL SINGLE POINT ENERGY     -1274.349650150682

DIPOLE MOMENT
-------------
                                X             Y             Z
Electronic contribution:      9.50086       8.73337      12.45745
Nuclear contribution   :    -11.20494      -9.77251     -13.38047
                        -----------------------------------------
Total Dipole Moment    :     -1.70408      -1.03914      -0.92302
                        -----------------------------------------
Magnitude (a.u.)       :      2.19901
Magnitude (Debye)      :      5.58943

Rotational constants in cm-1:     0.010596     0.008679     0.005698
Rotational constants in MHz :   317.660104   260.180519   170.811011

                             ****ORCA TERMINATED NORMALLY****
TOTAL RUN TIME: 0 days 1 hours 32 minutes 13 seconds 277 msec
