                         Program Version 5.0.0 -  RELEASE  -
|  1> ! ri-mp2 cc-pvtz cc-pvtz/c TightSCF NoKeepInts
|  2>
|  3> %scf
|  4>   MaxCore 4096
|  5> end
|  6> *xyz  0  1
|  7>     C       14.5572076   15.9745351   16.4504704
|  8>     C       15.5344971   15.0920809   17.2477714
|  9>     O       16.7579292   14.8896296   16.5088228
| 10>     C       17.8250334   15.7515383   16.4450855
| 11>     O       18.8750766   15.3696074   15.9645967
| 12>     C       17.8224012   16.8838636   17.4128364
| 13>     C       17.3650639   18.1052200   17.0589533
| 14>     C       16.7975364   18.5042944   15.7137074
| 15>     N       17.4907905   19.1796611   17.9414568
| 16>     C       18.1447581   19.1270454   19.1448690
| 17>     S       18.2705091   20.4532324   20.1243608
| 18>     N       18.6927906   17.9182089   19.4985137
| 19>     C       18.5783323   16.6640329   18.7265097
| 20>     C       17.9872864   15.5322155   19.5630988
| 21>     C       18.4270770   14.2113586   19.3576466
| 22>     C       17.8851815   13.1506237   20.1018946
| 23>     C       16.8943449   13.4107195   21.0633543
| 24>     C       16.4518729   14.7236440   21.2718661
| 25>     O       15.4867730   14.9768539   22.1908076
| 26>     C       16.9909653   15.7783070   20.5279054
| 27>     H       14.7422633   17.0364111   16.6325098
| 28>     H       13.5263498   15.7685205   16.7639932
| 29>     H       14.6300200   15.7725331   15.3742488
| 30>     H       15.7081188   15.5143152   18.2424944
| 31>     H       15.0650337   14.1099989   17.3901000
| 32>     H       16.5912516   17.6400710   15.0708874
| 33>     H       17.5102555   19.1401532   15.1729331
| 34>     H       15.8616057   19.0657351   15.8236095
| 35>     H       17.1221176   20.0827687   17.6873922
| 36>     H       19.1607374   17.9084524   20.3962078
| 37>     H       19.6000753   16.3604676   18.4533330
| 38>     H       19.1848717   14.0043011   18.6042936
| 39>     H       18.2319611   12.1330950   19.9284317
| 40>     H       16.4724770   12.5935488   21.6393839
| 41>     H       15.2816630   14.1409101   22.6366626
| 42>     H       16.6227716   16.7840461   20.7029916
| 43> *
| 44>
| 45>                          ****END OF INPUT****

CARTESIAN COORDINATES (ANGSTROEM)
---------------------------------
  C     14.557208   15.974535   16.450470
  C     15.534497   15.092081   17.247771
  O     16.757929   14.889630   16.508823
  C     17.825033   15.751538   16.445086
  O     18.875077   15.369607   15.964597
  C     17.822401   16.883864   17.412836
  C     17.365064   18.105220   17.058953
  C     16.797536   18.504294   15.713707
  N     17.490790   19.179661   17.941457
  C     18.144758   19.127045   19.144869
  S     18.270509   20.453232   20.124361
  N     18.692791   17.918209   19.498514
  C     18.578332   16.664033   18.726510
  C     17.987286   15.532215   19.563099
  C     18.427077   14.211359   19.357647
  C     17.885181   13.150624   20.101895
  C     16.894345   13.410720   21.063354
  C     16.451873   14.723644   21.271866
  O     15.486773   14.976854   22.190808
  C     16.990965   15.778307   20.527905
  H     14.742263   17.036411   16.632510
  H     13.526350   15.768520   16.763993
  H     14.630020   15.772533   15.374249
  H     15.708119   15.514315   18.242494
  H     15.065034   14.109999   17.390100
  H     16.591252   17.640071   15.070887
  H     17.510255   19.140153   15.172933
  H     15.861606   19.065735   15.823609
  H     17.122118   20.082769   17.687392
  H     19.160737   17.908452   20.396208
  H     19.600075   16.360468   18.453333
  H     19.184872   14.004301   18.604294
  H     18.231961   12.133095   19.928432
  H     16.472477   12.593549   21.639384
  H     15.281663   14.140910   22.636663
  H     16.622772   16.784046   20.702992

 Total Charge           Charge          ....    0
 Multiplicity           Mult            ....    1
 Number of Electrons    NEL             ....  154
 Basis Dimension        Dim             ....  828

ORBITAL ENERGIES
----------------

  NO   OCC          E(Eh)            E(eV)
   0   2.0000     -91.889323     -2500.4356
   1   2.0000     -20.601904      -560.6063
   2   2.0000     -20.600372      -560.5646
   3   2.0000     -20.552616      -559.2651
   4   2.0000     -15.624261      -425.1578
   5   2.0000     -15.612422      -424.8356
   6   2.0000     -11.398775      -310.1764
   7   2.0000     -11.386406      -309.8399
   8   2.0000     -11.325101      -308.1717
   9   2.0000     -11.319446      -308.0178
  10   2.0000     -11.319032      -308.0065
  11   2.0000     -11.302307      -307.5514
  12   2.0000     -11.267467      -306.6034
  13   2.0000     -11.266760      -306.5841
  14   2.0000     -11.264853      -306.5322
  15   2.0000     -11.259914      -306.3978
  16   2.0000     -11.248470      -306.0864
  17   2.0000     -11.244370      -305.9749
  18   2.0000     -11.242046      -305.9116
  19   2.0000     -11.235589      -305.7359
  20   2.0000      -8.894453      -242.0304
  21   2.0000      -6.576048      -178.9434
  22   2.0000      -6.574014      -178.8880
  23   2.0000      -6.573445      -178.8725
  24   2.0000      -1.448029       -39.4029
  25   2.0000      -1.421717       -38.6869
  26   2.0000      -1.360046       -37.0087
  27   2.0000      -1.338991       -36.4358
  28   2.0000      -1.239898       -33.7393
  29   2.0000      -1.163465       -31.6595
  30   2.0000      -1.125884       -30.6369
  31   2.0000      -1.050317       -28.5806
  32   2.0000      -1.040204       -28.3054
  33   2.0000      -1.021594       -27.7990
  34   2.0000      -1.005232       -27.3538
  35   2.0000      -0.989967       -26.9384
  36   2.0000      -0.928646       -25.2697
  37   2.0000      -0.895639       -24.3716
  38   2.0000      -0.852828       -23.2066
  39   2.0000      -0.842315       -22.9206
  40   2.0000      -0.838624       -22.8201
  41   2.0000      -0.835751       -22.7419
  42   2.0000      -0.754556       -20.5325
  43   2.0000      -0.735162       -20.0048
  44   2.0000      -0.729842       -19.8600
  45   2.0000      -0.699331       -19.0298
  46   2.0000      -0.691297       -18.8112
  47   2.0000      -0.680001       -18.5038
  48   2.0000      -0.677616       -18.4389
  49   2.0000      -0.666806       -18.1447
  50   2.0000      -0.654785       -17.8176
  51   2.0000      -0.640233       -17.4216
  52   2.0000      -0.636246       -17.3131
  53   2.0000      -0.624251       -16.9867
  54   2.0000      -0.611476       -16.6391
  55   2.0000      -0.608495       -16.5580
  56   2.0000      -0.605072       -16.4648
  57   2.0000      -0.587540       -15.9878
  58   2.0000      -0.579143       -15.7593
  59   2.0000      -0.572879       -15.5888
  60   2.0000      -0.567665       -15.4470
  61   2.0000      -0.557856       -15.1800
  62   2.0000      -0.541730       -14.7412
  63   2.0000      -0.536900       -14.6098
  64   2.0000      -0.523861       -14.2550
  65   2.0000      -0.515743       -14.0341
  66   2.0000      -0.504018       -13.7150
  67   2.0000      -0.501213       -13.6387
  68   2.0000      -0.488433       -13.2909
  69   2.0000      -0.470148       -12.7934
  70   2.0000      -0.452185       -12.3046
  71   2.0000      -0.450840       -12.2680
  72   2.0000      -0.356884        -9.7113
  73   2.0000      -0.352646        -9.5960
  74   2.0000      -0.329240        -8.9591
  75   2.0000      -0.326946        -8.8966
  76   2.0000      -0.318750        -8.6736
  77   0.0000       0.094218         2.5638
  78   0.0000       0.103620         2.8197
  79   0.0000       0.115927         3.1545
  80   0.0000       0.127108         3.4588
  81   0.0000       0.128071         3.4850

MULLIKEN ATOMIC CHARGES
-----------------------
   0 C :   -0.324409
   1 C :    0.041026
   2 O :   -0.318443
   3 C :    0.385535
   4 O :   -0.375759
   5 C :   -0.168890
   6 C :    0.125860
   7 C :   -0.330558
   8 N :   -0.139915
   9 C :    0.214126
  10 S :   -0.444425
  11 N :   -0.233111
  12 C :    0.093434
  13 C :   -0.000925
  14 C :   -0.197340
  15 C :   -0.134974
  16 C :   -0.272812
  17 C :    0.315944
  18 O :   -0.355336
  19 C :   -0.266355
  20 H :    0.095687
  21 H :    0.114358
  22 H :    0.113943
  23 H :    0.101650
  24 H :    0.122264
  25 H :    0.118920
  26 H :    0.150726
  27 H :    0.114939
  28 H :    0.195139
  29 H :    0.204878
  30 H :    0.164885
  31 H :    0.166194
  32 H :    0.165152
  33 H :    0.133709
  34 H :    0.241702
  35 H :    0.183182
Sum of atomic charges:   -0.0000000

LOEWDIN ATOMIC CHARGES
----------------------
   0 C :    0.103187
   1 C :   -0.017736
   2 O :    0.307818
   3 C :   -0.419563
   4 O :    0.126605
   5 C :   -0.078607
   6 C :   -0.109558
   7 C :    0.123136
   8 N :    0.401031
   9 C :   -0.454688
  10 S :   -0.039875
  11 N :    0.397510
  12 C :   -0.042936
  13 C :   -0.043715
  14 C :    0.023034
  15 C :    0.046735
  16 C :    0.000022
  17 C :   -0.193497
  18 O :    0.396018
  19 C :    0.024706
  20 H :   -0.034112
  21 H :   -0.022525
  22 H :   -0.024913
  23 H :   -0.036477
  24 H :   -0.019528
  25 H :   -0.010505
  26 H :   -0.007959
  27 H :   -0.017987
  28 H :   -0.058367
  29 H :   -0.064124
  30 H :   -0.002856
  31 H :   -0.021327
  32 H :   -0.017587
  33 H :   -0.034180
  34 H :   -0.152506
  35 H :   -0.024673

  Mayer bond orders larger than 0.100000
B(  0-C ,  1-C ) :   0.9584 B(  0-C , 20-H ) :   0.9775 B(  0-C , 21-H ) :   0.9803
B(  0-C , 22-H ) :   0.9738 B(  1-C ,  2-O ) :   0.8957 B(  1-C , 23-H ) :   0.9588
B(  1-C , 24-H ) :   0.9848 B(  2-O ,  3-C ) :   1.1721 B(  3-C ,  4-O ) :   2.1025
B(  3-C ,  5-C ) :   0.8965 B(  5-C ,  6-C ) :   1.7139 B(  5-C , 12-C ) :   0.9499
B(  6-C ,  7-C ) :   0.9513 B(  6-C ,  8-N ) :   1.1058 B(  7-C , 25-H ) :   0.9807
B(  7-C , 26-H ) :   0.9639 B(  7-C , 27-H ) :   0.9708 B(  8-N ,  9-C ) :   1.2064
B(  8-N , 28-H ) :   0.9528 B(  9-C , 10-S ) :   1.6042 B(  9-C , 11-N ) :   1.2842
B( 11-N , 12-C ) :   0.9888 B( 11-N , 29-H ) :   0.9446 B( 12-C , 13-C ) :   0.9575
B( 12-C , 30-H ) :   0.9966 B( 13-C , 14-C ) :   1.3896 B( 13-C , 19-C ) :   1.3332
B( 14-C , 15-C ) :   1.4004 B( 14-C , 31-H ) :   0.9641 B( 15-C , 16-C ) :   1.3593
B( 15-C , 32-H ) :   0.9692 B( 16-C , 17-C ) :   1.3313 B( 16-C , 33-H ) :   0.9841
B( 17-C , 18-O ) :   1.1099 B( 17-C , 19-C ) :   1.3656 B( 18-O , 34-H ) :   0.9789
B( 19-C , 35-H ) :   0.9574

MP2 TOTAL ENERGY:    -1274.326894497 Eh
FINAL SINGLE POINT ENERGY     -1274.326894497241

DIPOLE MOMENT
-------------
                                X             Y             Z
Electronic contribution:     10.20598       5.10593       7.64125
Nuclear contribution   :    -11.73292      -6.38808      -7.89322
                        -----------------------------------------
Total Dipole Moment    :     -1.52694      -1.28215      -0.25197
                        -----------------------------------------
Magnitude (a.u.)       :      2.00971
Magnitude (Debye)      :      5.10829

Rotational constants in cm-1:     0.011910     0.009209     0.006665
Rotational constants in MHz :   357.050805   276.067284   199.799067

                             ****ORCA TERMINATED NORMALLY****
TOTAL RUN TIME: 0 days 1 hours 45 minutes 8 seconds 981 msec
