                         Program Version 5.0.0 -  RELEASE  -
|  1> ! ri-mp2 cc-pvtz cc-pvtz/c TightSCF NoKeepInts
|  2>
|  3> %scf
|  4>   MaxCore 4096
|  5> end
|  6> *xyz  0  1
|  7>     C       15.3198917   14.7455564   17.3551434
|  8>     C       16.2963186   14.2990531   16.2523231
|  9>     O       17.6250539   14.8341632   16.4485043
| 10>     C       17.8550932   16.1335525   16.0986600
| 11>     O       17.5840106   16.4966292   14.9675354
| 12>     C       17.8147159   17.0687968   17.2750324
| 13>     C       17.3241149   18.3320951   17.1946051
| 14>     C       16.5927017   18.9636010   16.0297339
| 15>     N       17.5282145   19.2259556   18.2505705
| 16>     C       18.4151744   19.0195602   19.2748098
| 17>     S       18.7728019   20.1999482   20.3765060
| 18>     N       18.9962704   17.7772255   19.3350521
| 19>     C       18.5547124   16.6123794   18.5440565
| 20>     C       17.7536578   15.6708241   19.4386410
| 21>     C       18.1528961   14.3293038   19.5920234
| 22>     C       17.4497017   13.4659333   20.4491639
| 23>     C       16.3404171   13.9478980   21.1647890
| 24>     C       15.9422829   15.2838779   21.0197415
| 25>     O       14.8696133   15.7513961   21.7061651
| 26>     C       16.6429502   16.1405104   20.1647840
| 27>     H       15.5847444   14.2858003   18.3120492
| 28>     H       14.3012010   14.4234964   17.1081203
| 29>     H       15.3073945   15.8354659   17.4700184
| 30>     H       16.3493204   13.2028449   16.2597225
| 31>     H       15.9088461   14.5999685   15.2691825
| 32>     H       15.8025235   18.2976564   15.6609058
| 33>     H       17.2830805   19.1446872   15.1958205
| 34>     H       16.1209141   19.9183967   16.2895970
| 35>     H       17.1224380   20.1472465   18.2081135
| 36>     H       19.6258078   17.6431333   20.1160083
| 37>     H       19.4582116   16.0771486   18.2197137
| 38>     H       19.0105224   13.9524180   19.0408673
| 39>     H       17.7662807   12.4299601   20.5578279
| 40>     H       15.7948911   13.2850617   21.8284663
| 41>     H       14.5578566   15.0376744   22.2827110
| 42>     H       16.3223739   17.1727812   20.0770354
| 43> *
| 44>
| 45>                          ****END OF INPUT****

CARTESIAN COORDINATES (ANGSTROEM)
---------------------------------
  C     15.319892   14.745556   17.355143
  C     16.296319   14.299053   16.252323
  O     17.625054   14.834163   16.448504
  C     17.855093   16.133553   16.098660
  O     17.584011   16.496629   14.967535
  C     17.814716   17.068797   17.275032
  C     17.324115   18.332095   17.194605
  C     16.592702   18.963601   16.029734
  N     17.528215   19.225956   18.250570
  C     18.415174   19.019560   19.274810
  S     18.772802   20.199948   20.376506
  N     18.996270   17.777226   19.335052
  C     18.554712   16.612379   18.544056
  C     17.753658   15.670824   19.438641
  C     18.152896   14.329304   19.592023
  C     17.449702   13.465933   20.449164
  C     16.340417   13.947898   21.164789
  C     15.942283   15.283878   21.019741
  O     14.869613   15.751396   21.706165
  C     16.642950   16.140510   20.164784
  H     15.584744   14.285800   18.312049
  H     14.301201   14.423496   17.108120
  H     15.307394   15.835466   17.470018
  H     16.349320   13.202845   16.259722
  H     15.908846   14.599968   15.269182
  H     15.802523   18.297656   15.660906
  H     17.283081   19.144687   15.195820
  H     16.120914   19.918397   16.289597
  H     17.122438   20.147247   18.208113
  H     19.625808   17.643133   20.116008
  H     19.458212   16.077149   18.219714
  H     19.010522   13.952418   19.040867
  H     17.766281   12.429960   20.557828
  H     15.794891   13.285062   21.828466
  H     14.557857   15.037674   22.282711
  H     16.322374   17.172781   20.077035

 Total Charge           Charge          ....    0
 Multiplicity           Mult            ....    1
 Number of Electrons    NEL             ....  154
 Basis Dimension        Dim             ....  828

ORBITAL ENERGIES
----------------

  NO   OCC          E(Eh)            E(eV)
   0   2.0000     -91.890755     -2500.4746
   1   2.0000     -20.598065      -560.5018
   2   2.0000     -20.582166      -560.0692
   3   2.0000     -20.554215      -559.3086
   4   2.0000     -15.630262      -425.3211
   5   2.0000     -15.609373      -424.7526
   6   2.0000     -11.394882      -310.0705
   7   2.0000     -11.385219      -309.8076
   8   2.0000     -11.335522      -308.4552
   9   2.0000     -11.315231      -307.9031
  10   2.0000     -11.312882      -307.8392
  11   2.0000     -11.297816      -307.4292
  12   2.0000     -11.261054      -306.4289
  13   2.0000     -11.261003      -306.4275
  14   2.0000     -11.256827      -306.3138
  15   2.0000     -11.254501      -306.2506
  16   2.0000     -11.245299      -306.0002
  17   2.0000     -11.239626      -305.8458
  18   2.0000     -11.239507      -305.8425
  19   2.0000     -11.221796      -305.3606
  20   2.0000      -8.895769      -242.0662
  21   2.0000      -6.577334      -178.9784
  22   2.0000      -6.575341      -178.9241
  23   2.0000      -6.574744      -178.9079
  24   2.0000      -1.450318       -39.4652
  25   2.0000      -1.417835       -38.5813
  26   2.0000      -1.352462       -36.8024
  27   2.0000      -1.341616       -36.5072
  28   2.0000      -1.239897       -33.7393
  29   2.0000      -1.158604       -31.5272
  30   2.0000      -1.121031       -30.5048
  31   2.0000      -1.044029       -28.4095
  32   2.0000      -1.032249       -28.0889
  33   2.0000      -1.016766       -27.6676
  34   2.0000      -0.999506       -27.1980
  35   2.0000      -0.986324       -26.8392
  36   2.0000      -0.924671       -25.1616
  37   2.0000      -0.891389       -24.2559
  38   2.0000      -0.847871       -23.0717
  39   2.0000      -0.841279       -22.8924
  40   2.0000      -0.835718       -22.7410
  41   2.0000      -0.817717       -22.2512
  42   2.0000      -0.754239       -20.5239
  43   2.0000      -0.733657       -19.9638
  44   2.0000      -0.724141       -19.7049
  45   2.0000      -0.697639       -18.9837
  46   2.0000      -0.690672       -18.7941
  47   2.0000      -0.678876       -18.4731
  48   2.0000      -0.669129       -18.2079
  49   2.0000      -0.667164       -18.1545
  50   2.0000      -0.649998       -17.6873
  51   2.0000      -0.646575       -17.5942
  52   2.0000      -0.637092       -17.3362
  53   2.0000      -0.608607       -16.5610
  54   2.0000      -0.605306       -16.4712
  55   2.0000      -0.600554       -16.3419
  56   2.0000      -0.596868       -16.2416
  57   2.0000      -0.579131       -15.7589
  58   2.0000      -0.573356       -15.6018
  59   2.0000      -0.564857       -15.3705
  60   2.0000      -0.562812       -15.3149
  61   2.0000      -0.549983       -14.9658
  62   2.0000      -0.540316       -14.7027
  63   2.0000      -0.526117       -14.3164
  64   2.0000      -0.519088       -14.1251
  65   2.0000      -0.514931       -14.0120
  66   2.0000      -0.503825       -13.7098
  67   2.0000      -0.502783       -13.6814
  68   2.0000      -0.474694       -12.9171
  69   2.0000      -0.464499       -12.6397
  70   2.0000      -0.452959       -12.3256
  71   2.0000      -0.446242       -12.1429
  72   2.0000      -0.357525        -9.7287
  73   2.0000      -0.349434        -9.5086
  74   2.0000      -0.329818        -8.9748
  75   2.0000      -0.323970        -8.8157
  76   2.0000      -0.317483        -8.6392
  77   0.0000       0.067230         1.8294
  78   0.0000       0.104998         2.8571
  79   0.0000       0.118180         3.2158
  80   0.0000       0.129801         3.5321
  81   0.0000       0.131880         3.5886

MULLIKEN ATOMIC CHARGES
-----------------------
   0 C :   -0.319900
   1 C :    0.040618
   2 O :   -0.382290
   3 C :    0.475879
   4 O :   -0.399218
   5 C :   -0.237292
   6 C :    0.162478
   7 C :   -0.275339
   8 N :   -0.122960
   9 C :    0.192980
  10 S :   -0.432725
  11 N :   -0.190207
  12 C :    0.025655
  13 C :    0.066928
  14 C :   -0.184971
  15 C :   -0.131545
  16 C :   -0.278962
  17 C :    0.305241
  18 O :   -0.358308
  19 C :   -0.255110
  20 H :    0.112229
  21 H :    0.118497
  22 H :    0.097604
  23 H :    0.110003
  24 H :    0.112439
  25 H :    0.122873
  26 H :    0.140084
  27 H :    0.094651
  28 H :    0.198255
  29 H :    0.190384
  30 H :    0.148264
  31 H :    0.150684
  32 H :    0.161582
  33 H :    0.131875
  34 H :    0.240879
  35 H :    0.168742
Sum of atomic charges:   -0.0000000

LOEWDIN ATOMIC CHARGES
----------------------
   0 C :    0.105203
   1 C :   -0.013942
   2 O :    0.279820
   3 C :   -0.417136
   4 O :    0.129488
   5 C :   -0.095633
   6 C :   -0.065437
   7 C :    0.129028
   8 N :    0.406448
   9 C :   -0.459024
  10 S :   -0.031683
  11 N :    0.396707
  12 C :   -0.052341
  13 C :   -0.038761
  14 C :    0.015696
  15 C :    0.038743
  16 C :   -0.002836
  17 C :   -0.192121
  18 O :    0.396497
  19 C :    0.034554
  20 H :   -0.025669
  21 H :   -0.025376
  22 H :   -0.033260
  23 H :   -0.022310
  24 H :   -0.029524
  25 H :   -0.008416
  26 H :   -0.003479
  27 H :   -0.022694
  28 H :   -0.058009
  29 H :   -0.065099
  30 H :   -0.006618
  31 H :   -0.028861
  32 H :   -0.020593
  33 H :   -0.035147
  34 H :   -0.153580
  35 H :   -0.024632

  Mayer bond orders larger than 0.100000
B(  0-C ,  1-C ) :   0.9611 B(  0-C , 20-H ) :   0.9737 B(  0-C , 21-H ) :   0.9777
B(  0-C , 22-H ) :   0.9709 B(  1-C ,  2-O ) :   0.8818 B(  1-C , 23-H ) :   0.9852
B(  1-C , 24-H ) :   0.9808 B(  2-O ,  3-C ) :   1.1061 B(  3-C ,  4-O ) :   2.0168
B(  3-C ,  5-C ) :   1.0379 B(  5-C ,  6-C ) :   1.6641 B(  5-C , 12-C ) :   0.9696
B(  6-C ,  7-C ) :   0.9676 B(  6-C ,  8-N ) :   1.1341 B(  7-C , 25-H ) :   0.9678
B(  7-C , 26-H ) :   0.9573 B(  7-C , 27-H ) :   0.9869 B(  8-N ,  9-C ) :   1.1798
B(  8-N , 28-H ) :   0.9490 B(  9-C , 10-S ) :   1.6211 B(  9-C , 11-N ) :   1.2951
B( 11-N , 12-C ) :   0.9920 B( 11-N , 29-H ) :   0.9539 B( 12-C , 13-C ) :   0.9387
B( 12-C , 30-H ) :   1.0082 B( 13-C , 14-C ) :   1.3657 B( 13-C , 19-C ) :   1.3615
B( 14-C , 15-C ) :   1.3897 B( 14-C , 31-H ) :   0.9692 B( 15-C , 16-C ) :   1.3600
B( 15-C , 32-H ) :   0.9713 B( 16-C , 17-C ) :   1.3314 B( 16-C , 33-H ) :   0.9849
B( 17-C , 18-O ) :   1.1133 B( 17-C , 19-C ) :   1.3773 B( 18-O , 34-H ) :   0.9797
B( 19-C , 35-H ) :   0.9574

MP2 TOTAL ENERGY:    -1274.320894818 Eh
FINAL SINGLE POINT ENERGY     -1274.320894817503

DIPOLE MOMENT
-------------
                                X             Y             Z
Electronic contribution:      9.52580       8.71377       5.70756
Nuclear contribution   :    -10.58901     -10.37483      -5.81049
                        -----------------------------------------
Total Dipole Moment    :     -1.06321      -1.66105      -0.10292
                        -----------------------------------------
Magnitude (a.u.)       :      1.97487
Magnitude (Debye)      :      5.01972

Rotational constants in cm-1:     0.011697     0.010000     0.006592
Rotational constants in MHz :   350.653493   299.802055   197.615724

                             ****ORCA TERMINATED NORMALLY****
TOTAL RUN TIME: 0 days 1 hours 43 minutes 54 seconds 870 msec
