                         Program Version 5.0.0 -  RELEASE  -
|  1> ! ri-mp2 cc-pvtz cc-pvtz/c TightSCF NoKeepInts
|  2>
|  3> %scf
|  4>   MaxCore 4096
|  5> end
|  6> *xyz  0  1
|  7>     C       15.2719398   14.8252331   17.3115240
|  8>     C       16.2890805   14.2232006   16.3227219
|  9>     O       17.6083385   14.8030522   16.4476469
| 10>     C       17.7897880   16.1065370   16.0848247
| 11>     O       17.4489402   16.4602290   14.9698283
| 12>     C       17.8062666   17.0442552   17.2610074
| 13>     C       17.3494406   18.3210783   17.1915346
| 14>     C       16.6109410   18.9750131   16.0435176
| 15>     N       17.6064040   19.2095646   18.2406733
| 16>     C       18.5159664   18.9800325   19.2399295
| 17>     S       18.9384904   20.1517802   20.3277801
| 18>     N       19.0619134   17.7213444   19.2874773
| 19>     C       18.5617122   16.5685927   18.5139647
| 20>     C       17.7469595   15.6604471   19.4307630
| 21>     C       18.0918422   14.3025285   19.5712380
| 22>     C       17.3723382   13.4666867   20.4419101
| 23>     C       16.3023436   13.9930744   21.1854103
| 24>     C       15.9591924   15.3456248   21.0544367
| 25>     O       14.9244202   15.8560685   21.7679234
| 26>     C       16.6748916   16.1744934   20.1846528
| 27>     H       15.4907613   14.5048718   18.3338310
| 28>     H       14.2626005   14.4709433   17.0702321
| 29>     H       15.2575045   15.9203258   17.2713894
| 30>     H       16.3532847   13.1417486   16.4983511
| 31>     H       15.9238942   14.3664270   15.2964436
| 32>     H       17.2819403   19.1172232   15.1865998
| 33>     H       16.1912840   19.9527130   16.3075677
| 34>     H       15.7802299   18.3423751   15.7064106
| 35>     H       17.2255487   20.1418075   18.2075790
| 36>     H       19.7092438   17.5703171   20.0505739
| 37>     H       19.4379600   16.0001583   18.1717606
| 38>     H       18.9188996   13.8913281   18.9982591
| 39>     H       17.6465099   12.4176542   20.5400250
| 40>     H       15.7447541   13.3517151   21.8600864
| 41>     H       14.5959218   15.1541754   22.3496577
| 42>     H       16.3954532   17.2193802   20.1064685
| 43> *
| 44>
| 45>                          ****END OF INPUT****

CARTESIAN COORDINATES (ANGSTROEM)
---------------------------------
  C     15.271940   14.825233   17.311524
  C     16.289081   14.223201   16.322722
  O     17.608338   14.803052   16.447647
  C     17.789788   16.106537   16.084825
  O     17.448940   16.460229   14.969828
  C     17.806267   17.044255   17.261007
  C     17.349441   18.321078   17.191535
  C     16.610941   18.975013   16.043518
  N     17.606404   19.209565   18.240673
  C     18.515966   18.980032   19.239929
  S     18.938490   20.151780   20.327780
  N     19.061913   17.721344   19.287477
  C     18.561712   16.568593   18.513965
  C     17.746959   15.660447   19.430763
  C     18.091842   14.302528   19.571238
  C     17.372338   13.466687   20.441910
  C     16.302344   13.993074   21.185410
  C     15.959192   15.345625   21.054437
  O     14.924420   15.856068   21.767923
  C     16.674892   16.174493   20.184653
  H     15.490761   14.504872   18.333831
  H     14.262600   14.470943   17.070232
  H     15.257504   15.920326   17.271389
  H     16.353285   13.141749   16.498351
  H     15.923894   14.366427   15.296444
  H     17.281940   19.117223   15.186600
  H     16.191284   19.952713   16.307568
  H     15.780230   18.342375   15.706411
  H     17.225549   20.141807   18.207579
  H     19.709244   17.570317   20.050574
  H     19.437960   16.000158   18.171761
  H     18.918900   13.891328   18.998259
  H     17.646510   12.417654   20.540025
  H     15.744754   13.351715   21.860086
  H     14.595922   15.154175   22.349658
  H     16.395453   17.219380   20.106468

 Total Charge           Charge          ....    0
 Multiplicity           Mult            ....    1
 Number of Electrons    NEL             ....  154
 Basis Dimension        Dim             ....  828

ORBITAL ENERGIES
----------------

  NO   OCC          E(Eh)            E(eV)
   0   2.0000     -91.890936     -2500.4795
   1   2.0000     -20.598194      -560.5053
   2   2.0000     -20.581816      -560.0597
   3   2.0000     -20.553082      -559.2778
   4   2.0000     -15.630587      -425.3299
   5   2.0000     -15.609381      -424.7528
   6   2.0000     -11.394688      -310.0652
   7   2.0000     -11.385322      -309.8104
   8   2.0000     -11.336017      -308.4687
   9   2.0000     -11.315466      -307.9095
  10   2.0000     -11.312613      -307.8318
  11   2.0000     -11.298409      -307.4453
  12   2.0000     -11.261240      -306.4339
  13   2.0000     -11.260925      -306.4253
  14   2.0000     -11.257117      -306.3217
  15   2.0000     -11.254400      -306.2478
  16   2.0000     -11.245521      -306.0062
  17   2.0000     -11.239857      -305.8521
  18   2.0000     -11.239567      -305.8442
  19   2.0000     -11.222610      -305.3828
  20   2.0000      -8.895946      -242.0710
  21   2.0000      -6.577511      -178.9832
  22   2.0000      -6.575518      -178.9289
  23   2.0000      -6.574920      -178.9127
  24   2.0000      -1.449596       -39.4455
  25   2.0000      -1.417975       -38.5851
  26   2.0000      -1.351744       -36.7828
  27   2.0000      -1.341808       -36.5125
  28   2.0000      -1.239960       -33.7410
  29   2.0000      -1.158765       -31.5316
  30   2.0000      -1.120987       -30.5036
  31   2.0000      -1.044078       -28.4108
  32   2.0000      -1.031902       -28.0795
  33   2.0000      -1.016988       -27.6737
  34   2.0000      -0.999477       -27.1971
  35   2.0000      -0.986448       -26.8426
  36   2.0000      -0.924644       -25.1609
  37   2.0000      -0.893136       -24.3035
  38   2.0000      -0.847991       -23.0750
  39   2.0000      -0.841465       -22.8974
  40   2.0000      -0.835858       -22.7449
  41   2.0000      -0.817165       -22.2362
  42   2.0000      -0.752303       -20.4712
  43   2.0000      -0.733808       -19.9679
  44   2.0000      -0.723780       -19.6950
  45   2.0000      -0.697662       -18.9844
  46   2.0000      -0.690909       -18.8006
  47   2.0000      -0.677757       -18.4427
  48   2.0000      -0.668109       -18.1802
  49   2.0000      -0.667563       -18.1653
  50   2.0000      -0.650115       -17.6905
  51   2.0000      -0.646152       -17.5827
  52   2.0000      -0.637334       -17.3428
  53   2.0000      -0.609872       -16.5955
  54   2.0000      -0.607722       -16.5369
  55   2.0000      -0.600546       -16.3417
  56   2.0000      -0.599522       -16.3138
  57   2.0000      -0.579239       -15.7619
  58   2.0000      -0.572806       -15.5868
  59   2.0000      -0.564595       -15.3634
  60   2.0000      -0.557954       -15.1827
  61   2.0000      -0.549065       -14.9408
  62   2.0000      -0.540552       -14.7092
  63   2.0000      -0.526549       -14.3281
  64   2.0000      -0.522381       -14.2147
  65   2.0000      -0.515165       -14.0184
  66   2.0000      -0.503233       -13.6937
  67   2.0000      -0.502637       -13.6774
  68   2.0000      -0.474351       -12.9077
  69   2.0000      -0.464938       -12.6516
  70   2.0000      -0.452534       -12.3141
  71   2.0000      -0.445504       -12.1228
  72   2.0000      -0.357643        -9.7319
  73   2.0000      -0.349827        -9.5193
  74   2.0000      -0.329987        -8.9794
  75   2.0000      -0.324201        -8.8220
  76   2.0000      -0.317587        -8.6420
  77   0.0000       0.066660         1.8139
  78   0.0000       0.105108         2.8601
  79   0.0000       0.119187         3.2432
  80   0.0000       0.129597         3.5265
  81   0.0000       0.132255         3.5988

MULLIKEN ATOMIC CHARGES
-----------------------
   0 C :   -0.322211
   1 C :    0.039776
   2 O :   -0.385847
   3 C :    0.476221
   4 O :   -0.400309
   5 C :   -0.234078
   6 C :    0.161772
   7 C :   -0.274868
   8 N :   -0.122768
   9 C :    0.191767
  10 S :   -0.432145
  11 N :   -0.190499
  12 C :    0.025127
  13 C :    0.056679
  14 C :   -0.187456
  15 C :   -0.132337
  16 C :   -0.275893
  17 C :    0.299351
  18 O :   -0.358350
  19 C :   -0.243372
  20 H :    0.113946
  21 H :    0.118587
  22 H :    0.097549
  23 H :    0.111962
  24 H :    0.115584
  25 H :    0.139370
  26 H :    0.094549
  27 H :    0.124188
  28 H :    0.198234
  29 H :    0.190219
  30 H :    0.148643
  31 H :    0.154332
  32 H :    0.161753
  33 H :    0.132007
  34 H :    0.240822
  35 H :    0.167694
Sum of atomic charges:   -0.0000000

LOEWDIN ATOMIC CHARGES
----------------------
   0 C :    0.106895
   1 C :   -0.013813
   2 O :    0.278615
   3 C :   -0.418021
   4 O :    0.127378
   5 C :   -0.096209
   6 C :   -0.063614
   7 C :    0.129356
   8 N :    0.406720
   9 C :   -0.459297
  10 S :   -0.031356
  11 N :    0.396626
  12 C :   -0.052367
  13 C :   -0.039045
  14 C :    0.016009
  15 C :    0.038599
  16 C :   -0.002883
  17 C :   -0.192598
  18 O :    0.396575
  19 C :    0.033747
  20 H :   -0.027017
  21 H :   -0.024579
  22 H :   -0.032296
  23 H :   -0.021943
  24 H :   -0.029195
  25 H :   -0.003335
  26 H :   -0.022779
  27 H :   -0.008495
  28 H :   -0.057974
  29 H :   -0.065146
  30 H :   -0.006280
  31 H :   -0.028572
  32 H :   -0.020563
  33 H :   -0.035082
  34 H :   -0.153571
  35 H :   -0.024488

  Mayer bond orders larger than 0.100000
B(  0-C ,  1-C ) :   0.9583 B(  0-C , 20-H ) :   0.9729 B(  0-C , 21-H ) :   0.9782
B(  0-C , 22-H ) :   0.9714 B(  1-C ,  2-O ) :   0.8812 B(  1-C , 23-H ) :   0.9838
B(  1-C , 24-H ) :   0.9832 B(  2-O ,  3-C ) :   1.1036 B(  3-C ,  4-O ) :   2.0157
B(  3-C ,  5-C ) :   1.0444 B(  5-C ,  6-C ) :   1.6618 B(  5-C , 12-C ) :   0.9689
B(  6-C ,  7-C ) :   0.9689 B(  6-C ,  8-N ) :   1.1349 B(  7-C , 25-H ) :   0.9572
B(  7-C , 26-H ) :   0.9872 B(  7-C , 27-H ) :   0.9667 B(  8-N ,  9-C ) :   1.1788
B(  8-N , 28-H ) :   0.9489 B(  9-C , 10-S ) :   1.6219 B(  9-C , 11-N ) :   1.2956
B( 11-N , 12-C ) :   0.9904 B( 11-N , 29-H ) :   0.9539 B( 12-C , 13-C ) :   0.9383
B( 12-C , 30-H ) :   1.0074 B( 13-C , 14-C ) :   1.3672 B( 13-C , 19-C ) :   1.3658
B( 14-C , 15-C ) :   1.3886 B( 14-C , 31-H ) :   0.9676 B( 15-C , 16-C ) :   1.3604
B( 15-C , 32-H ) :   0.9712 B( 16-C , 17-C ) :   1.3311 B( 16-C , 33-H ) :   0.9848
B( 17-C , 18-O ) :   1.1137 B( 17-C , 19-C ) :   1.3798 B( 18-O , 34-H ) :   0.9797
B( 19-C , 35-H ) :   0.9570

MP2 TOTAL ENERGY:    -1274.321969907 Eh
FINAL SINGLE POINT ENERGY     -1274.321969906752

DIPOLE MOMENT
-------------
                                X             Y             Z
Electronic contribution:      9.81869       8.51633       5.62214
Nuclear contribution   :    -10.91152     -10.15923      -5.67642
                        -----------------------------------------
Total Dipole Moment    :     -1.09284      -1.64289      -0.05428
                        -----------------------------------------
Magnitude (a.u.)       :      1.97391
Magnitude (Debye)      :      5.01729

Rotational constants in cm-1:     0.011696     0.010013     0.006597
Rotational constants in MHz :   350.636249   300.196406   197.758397

                             ****ORCA TERMINATED NORMALLY****
TOTAL RUN TIME: 0 days 2 hours 11 minutes 31 seconds 396 msec
