                         Program Version 5.0.0 -  RELEASE  -
|  1> ! RI-MP2 cc-pVTZ cc-pVTZ/c TightSCF KeepDens NoKeepInts
|  2>
|  3> %pointcharges "srfp_output"
|  4>
|  5> *xyz  0  1
|  6>     C     3.8149064    0.5724486    5.7865940
|  7>     C     2.7561707    0.4196156    4.6695743
|  8>     O     1.9319694   -0.7812277    4.8307394
|  9>     C     0.7901063   -0.8079862    5.5908020
| 10>     O     0.3369272    0.2490147    6.1036570
| 11>     C     0.0987212   -2.1589068    5.7397089
| 12>     C     0.4152951   -3.2151610    5.0430639
| 13>     C     1.5072763   -3.3982455    3.9552095
| 14>     N    -0.2024484   -4.4005878    5.2361376
| 15>     C    -1.3178287   -4.5060347    6.0313969
| 16>     S    -2.1075132   -5.9398669    6.0368052
| 17>     N    -1.7561005   -3.3736815    6.6149742
| 18>     C    -1.0322983   -2.1666882    6.7603776
| 19>     C    -0.5091189   -2.1121189    8.2006288
| 20>     C    -0.9624739   -1.1162123    9.0913909
| 21>     C    -0.5421714   -1.0726093   10.4352486
| 22>     C     0.3431695   -2.0948281   10.9323303
| 23>     C     0.8040093   -3.1143578   10.0304738
| 24>     O     1.5765507   -4.1375421   10.5304399
| 25>     C     0.3990153   -3.0736040    8.6749293
| 26>     H     3.3753059    0.8491292    6.7527164
| 27>     H     4.5146407    1.3744756    5.5214248
| 28>     H     4.3615448   -0.3597026    5.9749291
| 29>     H     2.0491050    1.2541298    4.7522423
| 30>     H     3.2697346    0.4664701    3.7014594
| 31>     H     2.5255673   -3.3047616    4.3521166
| 32>     H     1.3513918   -2.6318479    3.1861033
| 33>     H     1.4537847   -4.3659869    3.4415969
| 34>     H     0.0864608   -5.2418769    4.7516476
| 35>     H    -2.5589787   -3.4715324    7.2247103
| 36>     H    -1.6637309   -1.3133275    6.4842239
| 37>     H    -1.7139051   -0.4070954    8.7568601
| 38>     H    -0.8926880   -0.2948371   11.1072638
| 39>     H     0.7504277   -2.1308469   11.9384314
| 40>     H     1.2669558   -4.9962301   10.1934901
| 41>     H     0.6814350   -3.9145844    8.0485206
| 42> *
| 43>
| 44>                          ****END OF INPUT****

CARTESIAN COORDINATES (ANGSTROEM)
---------------------------------
  C      3.814906    0.572449    5.786594
  C      2.756171    0.419616    4.669574
  O      1.931969   -0.781228    4.830739
  C      0.790106   -0.807986    5.590802
  O      0.336927    0.249015    6.103657
  C      0.098721   -2.158907    5.739709
  C      0.415295   -3.215161    5.043064
  C      1.507276   -3.398245    3.955210
  N     -0.202448   -4.400588    5.236138
  C     -1.317829   -4.506035    6.031397
  S     -2.107513   -5.939867    6.036805
  N     -1.756101   -3.373681    6.614974
  C     -1.032298   -2.166688    6.760378
  C     -0.509119   -2.112119    8.200629
  C     -0.962474   -1.116212    9.091391
  C     -0.542171   -1.072609   10.435249
  C      0.343170   -2.094828   10.932330
  C      0.804009   -3.114358   10.030474
  O      1.576551   -4.137542   10.530440
  C      0.399015   -3.073604    8.674929
  H      3.375306    0.849129    6.752716
  H      4.514641    1.374476    5.521425
  H      4.361545   -0.359703    5.974929
  H      2.049105    1.254130    4.752242
  H      3.269735    0.466470    3.701459
  H      2.525567   -3.304762    4.352117
  H      1.351392   -2.631848    3.186103
  H      1.453785   -4.365987    3.441597
  H      0.086461   -5.241877    4.751648
  H     -2.558979   -3.471532    7.224710
  H     -1.663731   -1.313327    6.484224
  H     -1.713905   -0.407095    8.756860
  H     -0.892688   -0.294837   11.107264
  H      0.750428   -2.130847   11.938431
  H      1.266956   -4.996230   10.193490
  H      0.681435   -3.914584    8.048521

 Total Charge           Charge          ....    0
 Multiplicity           Mult            ....    1
 Number of Electrons    NEL             ....  154
 Basis Dimension        Dim             ....  828

ORBITAL ENERGIES
----------------

  NO   OCC          E(Eh)            E(eV)
   0   2.0000     -92.525466     -2517.7459
   1   2.0000     -21.204841      -577.0130
   2   2.0000     -21.188272      -576.5622
   3   2.0000     -21.161335      -575.8292
   4   2.0000     -16.228795      -441.6080
   5   2.0000     -16.223635      -441.4675
   6   2.0000     -12.021644      -327.1256
   7   2.0000     -12.006491      -326.7132
   8   2.0000     -11.922828      -324.4366
   9   2.0000     -11.918230      -324.3115
  10   2.0000     -11.907646      -324.0235
  11   2.0000     -11.892138      -323.6015
  12   2.0000     -11.863040      -322.8097
  13   2.0000     -11.857658      -322.6633
  14   2.0000     -11.855720      -322.6105
  15   2.0000     -11.850788      -322.4763
  16   2.0000     -11.846447      -322.3582
  17   2.0000     -11.842409      -322.2483
  18   2.0000     -11.839408      -322.1667
  19   2.0000     -11.815113      -321.5056
  20   2.0000      -9.533094      -259.4087
  21   2.0000      -7.215196      -196.3355
  22   2.0000      -7.213062      -196.2774
  23   2.0000      -7.212633      -196.2657
  24   2.0000      -2.044124       -55.6235
  25   2.0000      -1.999150       -54.3996
  26   2.0000      -1.968839       -53.5748
  27   2.0000      -1.949811       -53.0570
  28   2.0000      -1.866124       -50.7798
  29   2.0000      -1.757861       -47.8338
  30   2.0000      -1.729116       -47.0516
  31   2.0000      -1.640017       -44.6271
  32   2.0000      -1.630742       -44.3747
  33   2.0000      -1.610612       -43.8270
  34   2.0000      -1.607898       -43.7531
  35   2.0000      -1.589540       -43.2536
  36   2.0000      -1.535921       -41.7945
  37   2.0000      -1.490793       -40.5665
  38   2.0000      -1.458807       -39.6962
  39   2.0000      -1.441580       -39.2274
  40   2.0000      -1.426845       -38.8264
  41   2.0000      -1.414127       -38.4803
  42   2.0000      -1.362102       -37.0647
  43   2.0000      -1.350126       -36.7388
  44   2.0000      -1.336629       -36.3715
  45   2.0000      -1.300156       -35.3791
  46   2.0000      -1.291434       -35.1417
  47   2.0000      -1.281966       -34.8841
  48   2.0000      -1.276004       -34.7218
  49   2.0000      -1.263119       -34.3712
  50   2.0000      -1.251066       -34.0432
  51   2.0000      -1.238381       -33.6981
  52   2.0000      -1.225853       -33.3572
  53   2.0000      -1.220786       -33.2193
  54   2.0000      -1.210803       -32.9476
  55   2.0000      -1.201369       -32.6909
  56   2.0000      -1.193975       -32.4897
  57   2.0000      -1.170194       -31.8426
  58   2.0000      -1.167407       -31.7668
  59   2.0000      -1.161756       -31.6130
  60   2.0000      -1.153947       -31.4005
  61   2.0000      -1.142688       -31.0941
  62   2.0000      -1.135398       -30.8958
  63   2.0000      -1.126097       -30.6426
  64   2.0000      -1.119705       -30.4687
  65   2.0000      -1.110516       -30.2187
  66   2.0000      -1.106021       -30.0964
  67   2.0000      -1.085828       -29.5469
  68   2.0000      -1.078356       -29.3435
  69   2.0000      -1.075863       -29.2757
  70   2.0000      -1.069552       -29.1040
  71   2.0000      -1.057521       -28.7766
  72   2.0000      -0.980062       -26.6688
  73   2.0000      -0.973144       -26.4806
  74   2.0000      -0.955211       -25.9926
  75   2.0000      -0.938247       -25.5310
  76   2.0000      -0.927249       -25.2317
  77   0.0000      -0.533955       -14.5297
  78   0.0000      -0.495858       -13.4930
  79   0.0000      -0.470105       -12.7922
  80   0.0000      -0.454508       -12.3678
  81   0.0000      -0.453511       -12.3407

MULLIKEN ATOMIC CHARGES
-----------------------
   0 C :   -0.282523
   1 C :    0.028727
   2 O :   -0.339582
   3 C :    0.526505
   4 O :   -0.617684
   5 C :   -0.187221
   6 C :    0.148010
   7 C :   -0.276338
   8 N :   -0.107087
   9 C :    0.315800
  10 S :   -0.716861
  11 N :   -0.154800
  12 C :    0.054134
  13 C :    0.032688
  14 C :   -0.186688
  15 C :   -0.188052
  16 C :   -0.256223
  17 C :    0.261404
  18 O :   -0.474438
  19 C :   -0.296387
  20 H :    0.104765
  21 H :    0.108732
  22 H :    0.101206
  23 H :    0.108894
  24 H :    0.131976
  25 H :    0.133490
  26 H :    0.127709
  27 H :    0.120311
  28 H :    0.262399
  29 H :    0.242333
  30 H :    0.171403
  31 H :    0.185837
  32 H :    0.205654
  33 H :    0.191224
  34 H :    0.339882
  35 H :    0.180798
Sum of atomic charges:    0.0000000

LOEWDIN ATOMIC CHARGES
----------------------
   0 C :    0.110768
   1 C :    0.014163
   2 O :    0.298464
   3 C :   -0.321097
   4 O :   -0.062705
   5 C :   -0.095988
   6 C :   -0.088804
   7 C :    0.148635
   8 N :    0.432237
   9 C :   -0.436481
  10 S :   -0.190295
  11 N :    0.443612
  12 C :   -0.062510
  13 C :   -0.042445
  14 C :    0.012821
  15 C :    0.034574
  16 C :    0.020110
  17 C :   -0.181937
  18 O :    0.330696
  19 C :    0.018167
  20 H :   -0.025634
  21 H :   -0.018330
  22 H :   -0.026594
  23 H :   -0.032793
  24 H :   -0.018450
  25 H :   -0.010081
  26 H :   -0.009971
  27 H :   -0.013515
  28 H :   -0.019176
  29 H :   -0.018316
  30 H :    0.004973
  31 H :   -0.018720
  32 H :   -0.015843
  33 H :   -0.026754
  34 H :   -0.110770
  35 H :   -0.022011

  Mayer bond orders larger than 0.100000
B(  0-C ,  1-C ) :   0.9666 B(  0-C , 20-H ) :   0.9767 B(  0-C , 21-H ) :   0.9730
B(  0-C , 22-H ) :   0.9746 B(  1-C ,  2-O ) :   0.8533 B(  1-C , 23-H ) :   0.9772
B(  1-C , 24-H ) :   0.9802 B(  2-O ,  3-C ) :   1.2254 B(  3-C ,  4-O ) :   1.8167
B(  3-C ,  5-C ) :   1.1168 B(  5-C ,  6-C ) :   1.6167 B(  5-C , 12-C ) :   0.9747
B(  6-C ,  7-C ) :   0.9532 B(  6-C ,  8-N ) :   1.1748 B(  7-C , 25-H ) :   0.9612
B(  7-C , 26-H ) :   0.9645 B(  7-C , 27-H ) :   0.9877 B(  8-N ,  9-C ) :   1.2344
B(  8-N , 28-H ) :   0.9195 B(  9-C , 10-S ) :   1.2903 B(  9-C , 11-N ) :   1.4321
B( 11-N , 12-C ) :   0.9756 B( 11-N , 29-H ) :   0.9297 B( 12-C , 13-C ) :   0.9577
B( 12-C , 30-H ) :   0.9861 B( 13-C , 14-C ) :   1.3395 B( 13-C , 19-C ) :   1.3200
B( 14-C , 15-C ) :   1.3820 B( 14-C , 31-H ) :   0.9622 B( 15-C , 16-C ) :   1.3673
B( 15-C , 32-H ) :   0.9568 B( 16-C , 17-C ) :   1.3580 B( 16-C , 33-H ) :   0.9528
B( 17-C , 18-O ) :   1.0679 B( 17-C , 19-C ) :   1.3827 B( 18-O , 34-H ) :   0.9060
B( 19-C , 35-H ) :   0.9575

MP2 TOTAL ENERGY:    -1274.445876770 Eh
FINAL SINGLE POINT ENERGY     -1274.445876769651

DIPOLE MOMENT
-------------
                                X             Y             Z
Electronic contribution:    -12.57435     -10.54284       2.81039
Nuclear contribution   :     14.48691      11.25082      -4.19205
                        -----------------------------------------
Total Dipole Moment    :      1.91256       0.70798      -1.38166
                        -----------------------------------------
Magnitude (a.u.)       :      2.46335
Magnitude (Debye)      :      6.26133

Rotational constants in cm-1:     0.010580     0.008908     0.005954
Rotational constants in MHz :   317.186273   267.041479   178.510901

                             ****ORCA TERMINATED NORMALLY****
TOTAL RUN TIME: 0 days 1 hours 52 minutes 34 seconds 541 msec
