                         Program Version 5.0.0 -  RELEASE  -
|  1> ! RI-MP2 cc-pVTZ cc-pVTZ/c TightSCF KeepDens NoKeepInts
|  2>
|  3> *xyz  0  1
|  4>     C     3.8149064    0.5724486    5.7865940
|  5>     C     2.7561707    0.4196156    4.6695743
|  6>     O     1.9319694   -0.7812277    4.8307394
|  7>     C     0.7901063   -0.8079862    5.5908020
|  8>     O     0.3369272    0.2490147    6.1036570
|  9>     C     0.0987212   -2.1589068    5.7397089
| 10>     C     0.4152951   -3.2151610    5.0430639
| 11>     C     1.5072763   -3.3982455    3.9552095
| 12>     N    -0.2024484   -4.4005878    5.2361376
| 13>     C    -1.3178287   -4.5060347    6.0313969
| 14>     S    -2.1075132   -5.9398669    6.0368052
| 15>     N    -1.7561005   -3.3736815    6.6149742
| 16>     C    -1.0322983   -2.1666882    6.7603776
| 17>     C    -0.5091189   -2.1121189    8.2006288
| 18>     C    -0.9624739   -1.1162123    9.0913909
| 19>     C    -0.5421714   -1.0726093   10.4352486
| 20>     C     0.3431695   -2.0948281   10.9323303
| 21>     C     0.8040093   -3.1143578   10.0304738
| 22>     O     1.5765507   -4.1375421   10.5304399
| 23>     C     0.3990153   -3.0736040    8.6749293
| 24>     H     3.3753059    0.8491292    6.7527164
| 25>     H     4.5146407    1.3744756    5.5214248
| 26>     H     4.3615448   -0.3597026    5.9749291
| 27>     H     2.0491050    1.2541298    4.7522423
| 28>     H     3.2697346    0.4664701    3.7014594
| 29>     H     2.5255673   -3.3047616    4.3521166
| 30>     H     1.3513918   -2.6318479    3.1861033
| 31>     H     1.4537847   -4.3659869    3.4415969
| 32>     H     0.0864608   -5.2418769    4.7516476
| 33>     H    -2.5589787   -3.4715324    7.2247103
| 34>     H    -1.6637309   -1.3133275    6.4842239
| 35>     H    -1.7139051   -0.4070954    8.7568601
| 36>     H    -0.8926880   -0.2948371   11.1072638
| 37>     H     0.7504277   -2.1308469   11.9384314
| 38>     H     1.2669558   -4.9962301   10.1934901
| 39>     H     0.6814350   -3.9145844    8.0485206
| 40> *
| 41>
| 42>                          ****END OF INPUT****

CARTESIAN COORDINATES (ANGSTROEM)
---------------------------------
  C      3.814906    0.572449    5.786594
  C      2.756171    0.419616    4.669574
  O      1.931969   -0.781228    4.830739
  C      0.790106   -0.807986    5.590802
  O      0.336927    0.249015    6.103657
  C      0.098721   -2.158907    5.739709
  C      0.415295   -3.215161    5.043064
  C      1.507276   -3.398245    3.955210
  N     -0.202448   -4.400588    5.236138
  C     -1.317829   -4.506035    6.031397
  S     -2.107513   -5.939867    6.036805
  N     -1.756101   -3.373681    6.614974
  C     -1.032298   -2.166688    6.760378
  C     -0.509119   -2.112119    8.200629
  C     -0.962474   -1.116212    9.091391
  C     -0.542171   -1.072609   10.435249
  C      0.343170   -2.094828   10.932330
  C      0.804009   -3.114358   10.030474
  O      1.576551   -4.137542   10.530440
  C      0.399015   -3.073604    8.674929
  H      3.375306    0.849129    6.752716
  H      4.514641    1.374476    5.521425
  H      4.361545   -0.359703    5.974929
  H      2.049105    1.254130    4.752242
  H      3.269735    0.466470    3.701459
  H      2.525567   -3.304762    4.352117
  H      1.351392   -2.631848    3.186103
  H      1.453785   -4.365987    3.441597
  H      0.086461   -5.241877    4.751648
  H     -2.558979   -3.471532    7.224710
  H     -1.663731   -1.313327    6.484224
  H     -1.713905   -0.407095    8.756860
  H     -0.892688   -0.294837   11.107264
  H      0.750428   -2.130847   11.938431
  H      1.266956   -4.996230   10.193490
  H      0.681435   -3.914584    8.048521

 Total Charge           Charge          ....    0
 Multiplicity           Mult            ....    1
 Number of Electrons    NEL             ....  154
 Basis Dimension        Dim             ....  828

ORBITAL ENERGIES
----------------

  NO   OCC          E(Eh)            E(eV)
   0   2.0000     -91.891989     -2500.5082
   1   2.0000     -20.603263      -560.6433
   2   2.0000     -20.588314      -560.2365
   3   2.0000     -20.541004      -558.9491
   4   2.0000     -15.626280      -425.2127
   5   2.0000     -15.613585      -424.8672
   6   2.0000     -11.403360      -310.3012
   7   2.0000     -11.383682      -309.7657
   8   2.0000     -11.324158      -308.1460
   9   2.0000     -11.312936      -307.8406
  10   2.0000     -11.304902      -307.6220
  11   2.0000     -11.303378      -307.5805
  12   2.0000     -11.259234      -306.3793
  13   2.0000     -11.258029      -306.3466
  14   2.0000     -11.255213      -306.2699
  15   2.0000     -11.253712      -306.2291
  16   2.0000     -11.245476      -306.0050
  17   2.0000     -11.242816      -305.9326
  18   2.0000     -11.238046      -305.8028
  19   2.0000     -11.230266      -305.5911
  20   2.0000      -8.897909      -242.1244
  21   2.0000      -6.579563      -179.0390
  22   2.0000      -6.577489      -178.9826
  23   2.0000      -6.576872      -178.9658
  24   2.0000      -1.436672       -39.0938
  25   2.0000      -1.397614       -38.0310
  26   2.0000      -1.362913       -37.0867
  27   2.0000      -1.332588       -36.2616
  28   2.0000      -1.262857       -34.3641
  29   2.0000      -1.151369       -31.3304
  30   2.0000      -1.123524       -30.5727
  31   2.0000      -1.040205       -28.3054
  32   2.0000      -1.030716       -28.0472
  33   2.0000      -1.006473       -27.3875
  34   2.0000      -1.002362       -27.2757
  35   2.0000      -0.990341       -26.9486
  36   2.0000      -0.931613       -25.3505
  37   2.0000      -0.894210       -24.3327
  38   2.0000      -0.853863       -23.2348
  39   2.0000      -0.838144       -22.8071
  40   2.0000      -0.825785       -22.4707
  41   2.0000      -0.811991       -22.0954
  42   2.0000      -0.756397       -20.5826
  43   2.0000      -0.746695       -20.3186
  44   2.0000      -0.734895       -19.9975
  45   2.0000      -0.699252       -19.0276
  46   2.0000      -0.685750       -18.6602
  47   2.0000      -0.674902       -18.3650
  48   2.0000      -0.672113       -18.2891
  49   2.0000      -0.659293       -17.9403
  50   2.0000      -0.646076       -17.5806
  51   2.0000      -0.637016       -17.3341
  52   2.0000      -0.624749       -17.0003
  53   2.0000      -0.618806       -16.8386
  54   2.0000      -0.610756       -16.6195
  55   2.0000      -0.599472       -16.3125
  56   2.0000      -0.596502       -16.2316
  57   2.0000      -0.576414       -15.6850
  58   2.0000      -0.568540       -15.4708
  59   2.0000      -0.560975       -15.2649
  60   2.0000      -0.559282       -15.2188
  61   2.0000      -0.536171       -14.5899
  62   2.0000      -0.532417       -14.4878
  63   2.0000      -0.524722       -14.2784
  64   2.0000      -0.516776       -14.0622
  65   2.0000      -0.508851       -13.8466
  66   2.0000      -0.500211       -13.6114
  67   2.0000      -0.487803       -13.2738
  68   2.0000      -0.478880       -13.0310
  69   2.0000      -0.470631       -12.8065
  70   2.0000      -0.453239       -12.3333
  71   2.0000      -0.448096       -12.1933
  72   2.0000      -0.363131        -9.8813
  73   2.0000      -0.343998        -9.3607
  74   2.0000      -0.333126        -9.0648
  75   2.0000      -0.323208        -8.7949
  76   2.0000      -0.316133        -8.6024
  77   0.0000       0.079386         2.1602
  78   0.0000       0.107368         2.9216
  79   0.0000       0.118734         3.2309
  80   0.0000       0.131153         3.5689
  81   0.0000       0.139850         3.8055

MULLIKEN ATOMIC CHARGES
-----------------------
   0 C :   -0.286661
   1 C :    0.031027
   2 O :   -0.358938
   3 C :    0.457428
   4 O :   -0.463268
   5 C :   -0.191512
   6 C :    0.128789
   7 C :   -0.280736
   8 N :   -0.089419
   9 C :    0.169272
  10 S :   -0.440123
  11 N :   -0.142487
  12 C :    0.038450
  13 C :    0.033319
  14 C :   -0.125472
  15 C :   -0.138681
  16 C :   -0.224436
  17 C :    0.255073
  18 O :   -0.375234
  19 C :   -0.291974
  20 H :    0.115442
  21 H :    0.096360
  22 H :    0.094125
  23 H :    0.114338
  24 H :    0.113249
  25 H :    0.126772
  26 H :    0.123076
  27 H :    0.098922
  28 H :    0.200410
  29 H :    0.182019
  30 H :    0.155872
  31 H :    0.146176
  32 H :    0.166156
  33 H :    0.169703
  34 H :    0.246126
  35 H :    0.146841
Sum of atomic charges:    0.0000000

LOEWDIN ATOMIC CHARGES
----------------------
   0 C :    0.107853
   1 C :    0.007694
   2 O :    0.282544
   3 C :   -0.350092
   4 O :    0.034408
   5 C :   -0.099297
   6 C :   -0.110829
   7 C :    0.137983
   8 N :    0.412787
   9 C :   -0.473206
  10 S :   -0.017293
  11 N :    0.420685
  12 C :   -0.070254
  13 C :   -0.037723
  14 C :    0.022800
  15 C :    0.046377
  16 C :    0.034230
  17 C :   -0.172325
  18 O :    0.366305
  19 C :    0.011529
  20 H :   -0.022061
  21 H :   -0.023860
  22 H :   -0.029831
  23 H :   -0.030085
  24 H :   -0.027087
  25 H :   -0.014754
  26 H :   -0.013624
  27 H :   -0.024508
  28 H :   -0.048896
  29 H :   -0.048523
  30 H :   -0.000663
  31 H :   -0.026629
  32 H :   -0.025535
  33 H :   -0.031779
  34 H :   -0.153568
  35 H :   -0.032772

  Mayer bond orders larger than 0.100000
B(  0-C ,  1-C ) :   0.9661 B(  0-C , 20-H ) :   0.9770 B(  0-C , 21-H ) :   0.9748
B(  0-C , 22-H ) :   0.9760 B(  1-C ,  2-O ) :   0.8720 B(  1-C , 23-H ) :   0.9748
B(  1-C , 24-H ) :   0.9832 B(  2-O ,  3-C ) :   1.1731 B(  3-C ,  4-O ) :   1.9221
B(  3-C ,  5-C ) :   1.0773 B(  5-C ,  6-C ) :   1.6302 B(  5-C , 12-C ) :   0.9780
B(  6-C ,  7-C ) :   0.9527 B(  6-C ,  8-N ) :   1.1759 B(  7-C , 25-H ) :   0.9637
B(  7-C , 26-H ) :   0.9678 B(  7-C , 27-H ) :   0.9927 B(  8-N ,  9-C ) :   1.1497
B(  8-N , 28-H ) :   0.9433 B(  9-C , 10-S ) :   1.6366 B(  9-C , 11-N ) :   1.3274
B( 11-N , 12-C ) :   0.9815 B( 11-N , 29-H ) :   0.9607 B( 12-C , 13-C ) :   0.9654
B( 12-C , 30-H ) :   0.9882 B( 13-C , 14-C ) :   1.3686 B( 13-C , 19-C ) :   1.3337
B( 14-C , 15-C ) :   1.3851 B( 14-C , 31-H ) :   0.9709 B( 15-C , 16-C ) :   1.3736
B( 15-C , 32-H ) :   0.9697 B( 16-C , 17-C ) :   1.3709 B( 16-C , 33-H ) :   0.9606
B( 17-C , 18-O ) :   1.0506 B( 17-C , 19-C ) :   1.3902 B( 18-O , 34-H ) :   0.9736
B( 19-C , 35-H ) :   0.9654

MP2 TOTAL ENERGY:    -1274.319550854 Eh
FINAL SINGLE POINT ENERGY     -1274.319550853508

DIPOLE MOMENT
-------------
                                X             Y             Z
Electronic contribution:    -13.26047     -10.70523       3.37251
Nuclear contribution   :     14.48691      11.25082      -4.19205
                        -----------------------------------------
Total Dipole Moment    :      1.22644       0.54559      -0.81954
                        -----------------------------------------
Magnitude (a.u.)       :      1.57272
Magnitude (Debye)      :      3.99754

Rotational constants in cm-1:     0.010580     0.008908     0.005954
Rotational constants in MHz :   317.186273   267.041479   178.510901

                             ****ORCA TERMINATED NORMALLY****
TOTAL RUN TIME: 0 days 1 hours 59 minutes 30 seconds 278 msec
