                         Program Version 5.0.0 -  RELEASE  -
|  1> ! RI-MP2 cc-pVTZ cc-pVTZ/c TightSCF KeepDens NoKeepInts
|  2>
|  3> %pointcharges "srfp_output"
|  4>
|  5> *xyz  0  1
|  6>     C   -12.3323159  -11.3573565   -1.9503030
|  7>     C   -13.8287328  -11.2635651   -2.3073496
|  8>     O   -14.0756297   -9.8743022   -2.0674088
|  9>     C   -15.3220843   -9.4280451   -2.4914099
| 10>     O   -16.0248148  -10.1252766   -3.1536295
| 11>     C   -15.4923461   -7.9922560   -2.2280012
| 12>     C   -16.2987463   -7.1640613   -2.9630758
| 13>     C   -17.0783125   -7.5829374   -4.1742329
| 14>     N   -16.3486694   -5.8205340   -2.6654562
| 15>     C   -15.5492629   -5.1507809   -1.7550697
| 16>     S   -15.4659759   -3.5297277   -1.6400252
| 17>     N   -14.8580289   -5.9770119   -0.9010604
| 18>     C   -14.6734807   -7.4665637   -1.0473506
| 19>     C   -15.1527370   -8.1675853    0.3051474
| 20>     C   -14.2552091   -9.1319670    0.8876257
| 21>     C   -14.6644806   -9.9037791    1.9954694
| 22>     C   -15.9194461   -9.6364661    2.5050813
| 23>     C   -16.7461103   -8.6479625    2.0398161
| 24>     O   -17.8975323   -8.3452747    2.7056768
| 25>     C   -16.4580571   -8.0016216    0.8082001
| 26>     H   -11.9517646  -11.0165219   -0.9796305
| 27>     H   -11.7863592  -10.7441443   -2.6776901
| 28>     H   -12.0214222  -12.3991941   -2.0955927
| 29>     H   -13.9196738  -11.5504636   -3.3621528
| 30>     H   -14.4034457  -11.8232109   -1.5592245
| 31>     H   -16.5205438   -8.2055069   -4.8845079
| 32>     H   -17.5445761   -6.8433388   -4.8366389
| 33>     H   -17.9737204   -8.0862339   -3.7893550
| 34>     H   -16.9082152   -5.1898065   -3.2267563
| 35>     H   -14.4305873   -5.6121635   -0.0583589
| 36>     H   -13.5986104   -7.6497910   -1.1668131
| 37>     H   -13.2703727   -9.1840994    0.4328931
| 38>     H   -14.0130232  -10.6015826    2.5132237
| 39>     H   -16.2591510  -10.2868452    3.3057083
| 40>     H   -18.1724495   -7.4192191    2.5891768
| 41>     H   -17.1930217   -7.3313792    0.3723121
| 42> *
| 43>
| 44>                          ****END OF INPUT****

CARTESIAN COORDINATES (ANGSTROEM)
---------------------------------
  C    -12.332316  -11.357356   -1.950303
  C    -13.828733  -11.263565   -2.307350
  O    -14.075630   -9.874302   -2.067409
  C    -15.322084   -9.428045   -2.491410
  O    -16.024815  -10.125277   -3.153629
  C    -15.492346   -7.992256   -2.228001
  C    -16.298746   -7.164061   -2.963076
  C    -17.078312   -7.582937   -4.174233
  N    -16.348669   -5.820534   -2.665456
  C    -15.549263   -5.150781   -1.755070
  S    -15.465976   -3.529728   -1.640025
  N    -14.858029   -5.977012   -0.901060
  C    -14.673481   -7.466564   -1.047351
  C    -15.152737   -8.167585    0.305147
  C    -14.255209   -9.131967    0.887626
  C    -14.664481   -9.903779    1.995469
  C    -15.919446   -9.636466    2.505081
  C    -16.746110   -8.647963    2.039816
  O    -17.897532   -8.345275    2.705677
  C    -16.458057   -8.001622    0.808200
  H    -11.951765  -11.016522   -0.979630
  H    -11.786359  -10.744144   -2.677690
  H    -12.021422  -12.399194   -2.095593
  H    -13.919674  -11.550464   -3.362153
  H    -14.403446  -11.823211   -1.559225
  H    -16.520544   -8.205507   -4.884508
  H    -17.544576   -6.843339   -4.836639
  H    -17.973720   -8.086234   -3.789355
  H    -16.908215   -5.189806   -3.226756
  H    -14.430587   -5.612163   -0.058359
  H    -13.598610   -7.649791   -1.166813
  H    -13.270373   -9.184099    0.432893
  H    -14.013023  -10.601583    2.513224
  H    -16.259151  -10.286845    3.305708
  H    -18.172449   -7.419219    2.589177
  H    -17.193022   -7.331379    0.372312

 Total Charge           Charge          ....    0
 Multiplicity           Mult            ....    1
 Number of Electrons    NEL             ....  154
 Basis Dimension        Dim             ....  828

ORBITAL ENERGIES
----------------

  NO   OCC          E(Eh)            E(eV)
   0   2.0000     -93.266483     -2537.9100
   1   2.0000     -21.957865      -597.5039
   2   2.0000     -21.943718      -597.1189
   3   2.0000     -21.920624      -596.4905
   4   2.0000     -16.981644      -462.0940
   5   2.0000     -16.962333      -461.5685
   6   2.0000     -12.756631      -347.1256
   7   2.0000     -12.754974      -347.0805
   8   2.0000     -12.696863      -345.4992
   9   2.0000     -12.670204      -344.7738
  10   2.0000     -12.668683      -344.7324
  11   2.0000     -12.644068      -344.0626
  12   2.0000     -12.623697      -343.5083
  13   2.0000     -12.609444      -343.1204
  14   2.0000     -12.607882      -343.0779
  15   2.0000     -12.604910      -342.9970
  16   2.0000     -12.599255      -342.8432
  17   2.0000     -12.597610      -342.7984
  18   2.0000     -12.591569      -342.6340
  19   2.0000     -12.569250      -342.0267
  20   2.0000     -10.273681      -279.5611
  21   2.0000      -7.955660      -216.4845
  22   2.0000      -7.953529      -216.4265
  23   2.0000      -7.953004      -216.4122
  24   2.0000      -2.827864       -76.9501
  25   2.0000      -2.760889       -75.1276
  26   2.0000      -2.733548       -74.3836
  27   2.0000      -2.693448       -73.2925
  28   2.0000      -2.584957       -70.3403
  29   2.0000      -2.514728       -68.4292
  30   2.0000      -2.481115       -67.5146
  31   2.0000      -2.396872       -65.2222
  32   2.0000      -2.392402       -65.1006
  33   2.0000      -2.369751       -64.4842
  34   2.0000      -2.358232       -64.1708
  35   2.0000      -2.347394       -63.8758
  36   2.0000      -2.273373       -61.8616
  37   2.0000      -2.238856       -60.9224
  38   2.0000      -2.206570       -60.0438
  39   2.0000      -2.204699       -59.9929
  40   2.0000      -2.173713       -59.1497
  41   2.0000      -2.166027       -58.9406
  42   2.0000      -2.123394       -57.7805
  43   2.0000      -2.093255       -56.9604
  44   2.0000      -2.083000       -56.6813
  45   2.0000      -2.061798       -56.1044
  46   2.0000      -2.049189       -55.7613
  47   2.0000      -2.044221       -55.6261
  48   2.0000      -2.026415       -55.1416
  49   2.0000      -2.022045       -55.0226
  50   2.0000      -2.005563       -54.5741
  51   2.0000      -1.994304       -54.2678
  52   2.0000      -1.985347       -54.0240
  53   2.0000      -1.979278       -53.8589
  54   2.0000      -1.961586       -53.3775
  55   2.0000      -1.952116       -53.1198
  56   2.0000      -1.948341       -53.0171
  57   2.0000      -1.937237       -52.7149
  58   2.0000      -1.924769       -52.3756
  59   2.0000      -1.913079       -52.0575
  60   2.0000      -1.904438       -51.8224
  61   2.0000      -1.897699       -51.6390
  62   2.0000      -1.889577       -51.4180
  63   2.0000      -1.885991       -51.3204
  64   2.0000      -1.876524       -51.0628
  65   2.0000      -1.868862       -50.8543
  66   2.0000      -1.857944       -50.5572
  67   2.0000      -1.849578       -50.3296
  68   2.0000      -1.844230       -50.1840
  69   2.0000      -1.828204       -49.7479
  70   2.0000      -1.817337       -49.4523
  71   2.0000      -1.813257       -49.3412
  72   2.0000      -1.717376       -46.7322
  73   2.0000      -1.716588       -46.7107
  74   2.0000      -1.705230       -46.4017
  75   2.0000      -1.686303       -45.8866
  76   2.0000      -1.679548       -45.7028
  77   0.0000      -1.286428       -35.0055
  78   0.0000      -1.251844       -34.0644
  79   0.0000      -1.225971       -33.3604
  80   0.0000      -1.217985       -33.1431
  81   0.0000      -1.202124       -32.7114

MULLIKEN ATOMIC CHARGES
-----------------------
   0 C :   -0.285542
   1 C :    0.013687
   2 O :   -0.353475
   3 C :    0.450732
   4 O :   -0.512516
   5 C :   -0.196625
   6 C :    0.179247
   7 C :   -0.292646
   8 N :   -0.125216
   9 C :    0.304539
  10 S :   -0.595003
  11 N :   -0.239819
  12 C :    0.087972
  13 C :   -0.010548
  14 C :   -0.203290
  15 C :   -0.141807
  16 C :   -0.270275
  17 C :    0.242951
  18 O :   -0.437982
  19 C :   -0.301438
  20 H :    0.114663
  21 H :    0.087907
  22 H :    0.101896
  23 H :    0.123477
  24 H :    0.112640
  25 H :    0.126040
  26 H :    0.136436
  27 H :    0.125861
  28 H :    0.248398
  29 H :    0.245923
  30 H :    0.178081
  31 H :    0.186195
  32 H :    0.200824
  33 H :    0.177117
  34 H :    0.329262
  35 H :    0.192332
Sum of atomic charges:    0.0000000

LOEWDIN ATOMIC CHARGES
----------------------
   0 C :    0.100588
   1 C :   -0.018744
   2 O :    0.299297
   3 C :   -0.430948
   4 O :    0.079544
   5 C :   -0.111077
   6 C :   -0.053454
   7 C :    0.135634
   8 N :    0.420321
   9 C :   -0.449749
  10 S :   -0.110218
  11 N :    0.395858
  12 C :   -0.013977
  13 C :   -0.027684
  14 C :    0.027803
  15 C :    0.033100
  16 C :   -0.023392
  17 C :   -0.216294
  18 O :    0.355317
  19 C :    0.023682
  20 H :   -0.027909
  21 H :   -0.028517
  22 H :   -0.022945
  23 H :   -0.023865
  24 H :   -0.029066
  25 H :   -0.005753
  26 H :   -0.005941
  27 H :   -0.002804
  28 H :   -0.024429
  29 H :   -0.044261
  30 H :   -0.014875
  31 H :   -0.026594
  32 H :   -0.009771
  33 H :   -0.018481
  34 H :   -0.110833
  35 H :   -0.019563

  Mayer bond orders larger than 0.100000
B(  0-C ,  1-C ) :   0.9716 B(  0-C , 20-H ) :   0.9747 B(  0-C , 21-H ) :   0.9760
B(  0-C , 22-H ) :   0.9806 B(  1-C ,  2-O ) :   0.8839 B(  1-C , 23-H ) :   0.9780
B(  1-C , 24-H ) :   0.9761 B(  2-O ,  3-C ) :   1.1760 B(  3-C ,  4-O ) :   1.9484
B(  3-C ,  5-C ) :   1.0684 B(  5-C ,  6-C ) :   1.6122 B(  5-C , 12-C ) :   0.9591
B(  6-C ,  7-C ) :   0.9599 B(  6-C ,  8-N ) :   1.2037 B(  7-C , 25-H ) :   0.9667
B(  7-C , 26-H ) :   0.9791 B(  7-C , 27-H ) :   0.9600 B(  8-N ,  9-C ) :   1.2055
B(  8-N , 28-H ) :   0.9249 B(  9-C , 10-S ) :   1.4509 B(  9-C , 11-N ) :   1.3648
B( 11-N , 12-C ) :   0.9671 B( 11-N , 29-H ) :   0.9254 B( 12-C , 13-C ) :   0.9471
B( 12-C , 30-H ) :   0.9911 B( 13-C , 14-C ) :   1.3359 B( 13-C , 19-C ) :   1.3409
B( 14-C , 15-C ) :   1.4028 B( 14-C , 31-H ) :   0.9586 B( 15-C , 16-C ) :   1.3349
B( 15-C , 32-H ) :   0.9557 B( 16-C , 17-C ) :   1.3744 B( 16-C , 33-H ) :   0.9591
B( 17-C , 18-O ) :   1.1153 B( 17-C , 19-C ) :   1.3449 B( 18-O , 34-H ) :   0.9088
B( 19-C , 35-H ) :   0.9506

MP2 TOTAL ENERGY:    -1274.409032194 Eh
FINAL SINGLE POINT ENERGY     -1274.409032194415

DIPOLE MOMENT
-------------
                                X             Y             Z
Electronic contribution:     -6.07854      14.69640       3.14904
Nuclear contribution   :      6.42654     -15.63031      -3.47120
                        -----------------------------------------
Total Dipole Moment    :      0.34800      -0.93391      -0.32216
                        -----------------------------------------
Magnitude (a.u.)       :      1.04741
Magnitude (Debye)      :      2.66231

Rotational constants in cm-1:     0.011036     0.008504     0.006037
Rotational constants in MHz :   330.837660   254.932262   180.992174

                             ****ORCA TERMINATED NORMALLY****
TOTAL RUN TIME: 0 days 2 hours 2 minutes 53 seconds 106 msec
