                         Program Version 5.0.0 -  RELEASE  -
|  1> ! RI-MP2 cc-pVTZ cc-pVTZ/c TightSCF KeepDens NoKeepInts
|  2>
|  3> *xyz  0  1
|  4>     C   -12.3323159  -11.3573565   -1.9503030
|  5>     C   -13.8287328  -11.2635651   -2.3073496
|  6>     O   -14.0756297   -9.8743022   -2.0674088
|  7>     C   -15.3220843   -9.4280451   -2.4914099
|  8>     O   -16.0248148  -10.1252766   -3.1536295
|  9>     C   -15.4923461   -7.9922560   -2.2280012
| 10>     C   -16.2987463   -7.1640613   -2.9630758
| 11>     C   -17.0783125   -7.5829374   -4.1742329
| 12>     N   -16.3486694   -5.8205340   -2.6654562
| 13>     C   -15.5492629   -5.1507809   -1.7550697
| 14>     S   -15.4659759   -3.5297277   -1.6400252
| 15>     N   -14.8580289   -5.9770119   -0.9010604
| 16>     C   -14.6734807   -7.4665637   -1.0473506
| 17>     C   -15.1527370   -8.1675853    0.3051474
| 18>     C   -14.2552091   -9.1319670    0.8876257
| 19>     C   -14.6644806   -9.9037791    1.9954694
| 20>     C   -15.9194461   -9.6364661    2.5050813
| 21>     C   -16.7461103   -8.6479625    2.0398161
| 22>     O   -17.8975323   -8.3452747    2.7056768
| 23>     C   -16.4580571   -8.0016216    0.8082001
| 24>     H   -11.9517646  -11.0165219   -0.9796305
| 25>     H   -11.7863592  -10.7441443   -2.6776901
| 26>     H   -12.0214222  -12.3991941   -2.0955927
| 27>     H   -13.9196738  -11.5504636   -3.3621528
| 28>     H   -14.4034457  -11.8232109   -1.5592245
| 29>     H   -16.5205438   -8.2055069   -4.8845079
| 30>     H   -17.5445761   -6.8433388   -4.8366389
| 31>     H   -17.9737204   -8.0862339   -3.7893550
| 32>     H   -16.9082152   -5.1898065   -3.2267563
| 33>     H   -14.4305873   -5.6121635   -0.0583589
| 34>     H   -13.5986104   -7.6497910   -1.1668131
| 35>     H   -13.2703727   -9.1840994    0.4328931
| 36>     H   -14.0130232  -10.6015826    2.5132237
| 37>     H   -16.2591510  -10.2868452    3.3057083
| 38>     H   -18.1724495   -7.4192191    2.5891768
| 39>     H   -17.1930217   -7.3313792    0.3723121
| 40> *
| 41>
| 42>                          ****END OF INPUT****

CARTESIAN COORDINATES (ANGSTROEM)
---------------------------------
  C    -12.332316  -11.357356   -1.950303
  C    -13.828733  -11.263565   -2.307350
  O    -14.075630   -9.874302   -2.067409
  C    -15.322084   -9.428045   -2.491410
  O    -16.024815  -10.125277   -3.153629
  C    -15.492346   -7.992256   -2.228001
  C    -16.298746   -7.164061   -2.963076
  C    -17.078312   -7.582937   -4.174233
  N    -16.348669   -5.820534   -2.665456
  C    -15.549263   -5.150781   -1.755070
  S    -15.465976   -3.529728   -1.640025
  N    -14.858029   -5.977012   -0.901060
  C    -14.673481   -7.466564   -1.047351
  C    -15.152737   -8.167585    0.305147
  C    -14.255209   -9.131967    0.887626
  C    -14.664481   -9.903779    1.995469
  C    -15.919446   -9.636466    2.505081
  C    -16.746110   -8.647963    2.039816
  O    -17.897532   -8.345275    2.705677
  C    -16.458057   -8.001622    0.808200
  H    -11.951765  -11.016522   -0.979630
  H    -11.786359  -10.744144   -2.677690
  H    -12.021422  -12.399194   -2.095593
  H    -13.919674  -11.550464   -3.362153
  H    -14.403446  -11.823211   -1.559225
  H    -16.520544   -8.205507   -4.884508
  H    -17.544576   -6.843339   -4.836639
  H    -17.973720   -8.086234   -3.789355
  H    -16.908215   -5.189806   -3.226756
  H    -14.430587   -5.612163   -0.058359
  H    -13.598610   -7.649791   -1.166813
  H    -13.270373   -9.184099    0.432893
  H    -14.013023  -10.601583    2.513224
  H    -16.259151  -10.286845    3.305708
  H    -18.172449   -7.419219    2.589177
  H    -17.193022   -7.331379    0.372312

 Total Charge           Charge          ....    0
 Multiplicity           Mult            ....    1
 Number of Electrons    NEL             ....  154
 Basis Dimension        Dim             ....  828

ORBITAL ENERGIES
----------------

  NO   OCC          E(Eh)            E(eV)
   0   2.0000     -91.896179     -2500.6222
   1   2.0000     -20.593219      -560.3700
   2   2.0000     -20.589950      -560.2810
   3   2.0000     -20.543771      -559.0244
   4   2.0000     -15.630248      -425.3207
   5   2.0000     -15.605421      -424.6451
   6   2.0000     -11.388568      -309.8987
   7   2.0000     -11.382774      -309.7410
   8   2.0000     -11.340313      -308.5856
   9   2.0000     -11.313438      -307.8543
  10   2.0000     -11.310680      -307.7793
  11   2.0000     -11.291842      -307.2666
  12   2.0000     -11.265787      -306.5577
  13   2.0000     -11.254351      -306.2465
  14   2.0000     -11.254029      -306.2377
  15   2.0000     -11.250366      -306.1380
  16   2.0000     -11.248006      -306.0738
  17   2.0000     -11.242414      -305.9216
  18   2.0000     -11.230933      -305.6092
  19   2.0000     -11.224283      -305.4283
  20   2.0000      -8.902079      -242.2379
  21   2.0000      -6.583716      -179.1520
  22   2.0000      -6.581650      -179.0958
  23   2.0000      -6.580995      -179.0780
  24   2.0000      -1.456418       -39.6311
  25   2.0000      -1.404841       -38.2277
  26   2.0000      -1.362373       -37.0721
  27   2.0000      -1.339027       -36.4368
  28   2.0000      -1.231452       -33.5095
  29   2.0000      -1.154949       -31.4278
  30   2.0000      -1.123020       -30.5589
  31   2.0000      -1.042147       -28.3583
  32   2.0000      -1.036052       -28.1924
  33   2.0000      -1.012246       -27.5446
  34   2.0000      -0.996467       -27.1152
  35   2.0000      -0.993950       -27.0468
  36   2.0000      -0.917967       -24.9791
  37   2.0000      -0.882596       -24.0166
  38   2.0000      -0.851148       -23.1609
  39   2.0000      -0.848895       -23.0996
  40   2.0000      -0.819459       -22.2986
  41   2.0000      -0.808164       -21.9913
  42   2.0000      -0.763461       -20.7748
  43   2.0000      -0.737672       -20.0731
  44   2.0000      -0.722207       -19.6523
  45   2.0000      -0.695555       -18.9270
  46   2.0000      -0.686194       -18.6723
  47   2.0000      -0.680668       -18.5219
  48   2.0000      -0.672644       -18.3036
  49   2.0000      -0.667327       -18.1589
  50   2.0000      -0.649729       -17.6800
  51   2.0000      -0.641981       -17.4692
  52   2.0000      -0.625371       -17.0172
  53   2.0000      -0.622956       -16.9515
  54   2.0000      -0.604406       -16.4467
  55   2.0000      -0.596147       -16.2220
  56   2.0000      -0.589508       -16.0413
  57   2.0000      -0.578658       -15.7461
  58   2.0000      -0.567426       -15.4404
  59   2.0000      -0.557094       -15.1593
  60   2.0000      -0.551110       -14.9965
  61   2.0000      -0.542089       -14.7510
  62   2.0000      -0.537298       -14.6206
  63   2.0000      -0.525725       -14.3057
  64   2.0000      -0.518308       -14.1039
  65   2.0000      -0.514577       -14.0024
  66   2.0000      -0.500775       -13.6268
  67   2.0000      -0.491903       -13.3854
  68   2.0000      -0.485607       -13.2140
  69   2.0000      -0.463320       -12.6076
  70   2.0000      -0.460475       -12.5302
  71   2.0000      -0.445614       -12.1258
  72   2.0000      -0.355838        -9.6828
  73   2.0000      -0.349679        -9.5153
  74   2.0000      -0.334062        -9.0903
  75   2.0000      -0.321655        -8.7527
  76   2.0000      -0.317355        -8.6357
  77   0.0000       0.076574         2.0837
  78   0.0000       0.104809         2.8520
  79   0.0000       0.120960         3.2915
  80   0.0000       0.131368         3.5747
  81   0.0000       0.132773         3.6129

MULLIKEN ATOMIC CHARGES
-----------------------
   0 C :   -0.281688
   1 C :    0.031795
   2 O :   -0.356045
   3 C :    0.418342
   4 O :   -0.404274
   5 C :   -0.173908
   6 C :    0.148930
   7 C :   -0.297437
   8 N :   -0.120811
   9 C :    0.208526
  10 S :   -0.412031
  11 N :   -0.228469
  12 C :    0.073806
  13 C :   -0.017793
  14 C :   -0.191745
  15 C :   -0.132017
  16 C :   -0.198003
  17 C :    0.287858
  18 O :   -0.369868
  19 C :   -0.294887
  20 H :    0.100230
  21 H :    0.090502
  22 H :    0.086908
  23 H :    0.119122
  24 H :    0.098725
  25 H :    0.133296
  26 H :    0.110923
  27 H :    0.127081
  28 H :    0.193921
  29 H :    0.195155
  30 H :    0.166084
  31 H :    0.158033
  32 H :    0.168689
  33 H :    0.155841
  34 H :    0.246445
  35 H :    0.158762
Sum of atomic charges:    0.0000000

LOEWDIN ATOMIC CHARGES
----------------------
   0 C :    0.095880
   1 C :   -0.018124
   2 O :    0.296164
   3 C :   -0.439910
   4 O :    0.148243
   5 C :   -0.104305
   6 C :   -0.073074
   7 C :    0.128235
   8 N :    0.402437
   9 C :   -0.478751
  10 S :    0.007547
  11 N :    0.378539
  12 C :   -0.020634
  13 C :   -0.029304
  14 C :    0.021950
  15 C :    0.035869
  16 C :    0.004941
  17 C :   -0.188097
  18 O :    0.383180
  19 C :    0.021018
  20 H :   -0.032414
  21 H :   -0.027758
  22 H :   -0.029835
  23 H :   -0.023816
  24 H :   -0.032469
  25 H :   -0.003374
  26 H :   -0.019219
  27 H :   -0.003955
  28 H :   -0.053154
  29 H :   -0.069696
  30 H :   -0.019984
  31 H :   -0.035762
  32 H :   -0.019130
  33 H :   -0.019629
  34 H :   -0.150684
  35 H :   -0.030925

  Mayer bond orders larger than 0.100000
B(  0-C ,  1-C ) :   0.9663 B(  0-C , 20-H ) :   0.9772 B(  0-C , 21-H ) :   0.9774
B(  0-C , 22-H ) :   0.9828 B(  1-C ,  2-O ) :   0.9022 B(  1-C , 23-H ) :   0.9787
B(  1-C , 24-H ) :   0.9806 B(  2-O ,  3-C ) :   1.1472 B(  3-C ,  4-O ) :   2.0161
B(  3-C ,  5-C ) :   1.0321 B(  5-C ,  6-C ) :   1.6497 B(  5-C , 12-C ) :   0.9598
B(  6-C ,  7-C ) :   0.9690 B(  6-C ,  8-N ) :   1.1869 B(  7-C , 25-H ) :   0.9641
B(  7-C , 26-H ) :   0.9848 B(  7-C , 27-H ) :   0.9611 B(  8-N ,  9-C ) :   1.1478
B(  8-N , 28-H ) :   0.9499 B(  9-C , 10-S ) :   1.6633 B(  9-C , 11-N ) :   1.2937
B( 11-N , 12-C ) :   0.9655 B( 11-N , 29-H ) :   0.9521 B( 12-C , 13-C ) :   0.9474
B( 12-C , 30-H ) :   0.9946 B( 13-C , 14-C ) :   1.3531 B( 13-C , 19-C ) :   1.3690
B( 14-C , 15-C ) :   1.3975 B( 14-C , 31-H ) :   0.9664 B( 15-C , 16-C ) :   1.3533
B( 15-C , 32-H ) :   0.9675 B( 16-C , 17-C ) :   1.3848 B( 16-C , 33-H ) :   0.9666
B( 17-C , 18-O ) :   1.0815 B( 17-C , 19-C ) :   1.3461 B( 18-O , 34-H ) :   0.9730
B( 19-C , 35-H ) :   0.9622

MP2 TOTAL ENERGY:    -1274.313364570 Eh
FINAL SINGLE POINT ENERGY     -1274.313364569825

DIPOLE MOMENT
-------------
                                X             Y             Z
Electronic contribution:     -6.30423      14.72751       3.25880
Nuclear contribution   :      6.42654     -15.63031      -3.47120
                        -----------------------------------------
Total Dipole Moment    :      0.12231      -0.90280      -0.21240
                        -----------------------------------------
Magnitude (a.u.)       :      0.93548
Magnitude (Debye)      :      2.37780

Rotational constants in cm-1:     0.011036     0.008504     0.006037
Rotational constants in MHz :   330.837660   254.932262   180.992174

                             ****ORCA TERMINATED NORMALLY****
TOTAL RUN TIME: 0 days 2 hours 8 minutes 53 seconds 554 msec
