                         Program Version 5.0.0 -  RELEASE  -
|  1> ! RI-MP2 cc-pVTZ cc-pVTZ/c TightSCF KeepDens NoKeepInts
|  2>
|  3> *xyz  0  1
|  4>     C     2.8898785   11.1814303    2.0912652
|  5>     C     1.5256516   10.5991186    2.1226686
|  6>     O     0.9496155   10.4630992    3.4507237
|  7>     C     0.4578235   11.5350078    4.0986262
|  8>     O     0.6389581   12.7288658    3.6529590
|  9>     C    -0.2972478   11.1016617    5.3865129
| 10>     C    -0.7204956   12.0598269    6.2867704
| 11>     C    -0.5333530   13.5077584    6.2137126
| 12>     N    -1.4486677   11.7062420    7.4293949
| 13>     C    -1.6907965   10.4174460    7.7188212
| 14>     S    -2.6637508   10.0577770    9.0356778
| 15>     N    -1.0061596    9.4272421    7.0109411
| 16>     C    -0.3563454    9.5732932    5.6791771
| 17>     C    -1.1332985    8.9344196    4.5501959
| 18>     C    -2.4129840    9.3734653    4.0932498
| 19>     C    -3.1046227    8.7126471    3.0670472
| 20>     C    -2.5566038    7.5461136    2.4991492
| 21>     C    -1.3651629    7.0960187    3.0166853
| 22>     O    -0.8392936    6.0029614    2.4376654
| 23>     C    -0.6381792    7.7349531    3.9768974
| 24>     H     3.3132051   11.0390216    1.0894141
| 25>     H     3.5804359   10.6257075    2.7374016
| 26>     H     2.9307435   12.2406259    2.3734589
| 27>     H     0.9764226   11.1971533    1.3851785
| 28>     H     1.5883629    9.5702038    1.7477127
| 29>     H    -1.0389471   13.9928451    7.0576671
| 30>     H    -0.8587898   13.8575064    5.2263135
| 31>     H     0.4858690   13.8895730    6.3500994
| 32>     H    -1.9023528   12.3974291    8.0145416
| 33>     H    -1.0386243    8.5025395    7.4230644
| 34>     H     0.6650238    9.1747150    5.7127933
| 35>     H    -2.9045097   10.1950194    4.6059366
| 36>     H    -4.1335908    8.9864457    2.8533768
| 37>     H    -3.1038511    6.9068791    1.8126387
| 38>     H    -0.0515190    5.6670655    2.8995252
| 39>     H     0.3260085    7.2981939    4.2197544
| 40> *
| 41>
| 42>                          ****END OF INPUT****

CARTESIAN COORDINATES (ANGSTROEM)
---------------------------------
  C      2.889879   11.181430    2.091265
  C      1.525652   10.599119    2.122669
  O      0.949615   10.463099    3.450724
  C      0.457823   11.535008    4.098626
  O      0.638958   12.728866    3.652959
  C     -0.297248   11.101662    5.386513
  C     -0.720496   12.059827    6.286770
  C     -0.533353   13.507758    6.213713
  N     -1.448668   11.706242    7.429395
  C     -1.690796   10.417446    7.718821
  S     -2.663751   10.057777    9.035678
  N     -1.006160    9.427242    7.010941
  C     -0.356345    9.573293    5.679177
  C     -1.133298    8.934420    4.550196
  C     -2.412984    9.373465    4.093250
  C     -3.104623    8.712647    3.067047
  C     -2.556604    7.546114    2.499149
  C     -1.365163    7.096019    3.016685
  O     -0.839294    6.002961    2.437665
  C     -0.638179    7.734953    3.976897
  H      3.313205   11.039022    1.089414
  H      3.580436   10.625708    2.737402
  H      2.930744   12.240626    2.373459
  H      0.976423   11.197153    1.385179
  H      1.588363    9.570204    1.747713
  H     -1.038947   13.992845    7.057667
  H     -0.858790   13.857506    5.226313
  H      0.485869   13.889573    6.350099
  H     -1.902353   12.397429    8.014542
  H     -1.038624    8.502539    7.423064
  H      0.665024    9.174715    5.712793
  H     -2.904510   10.195019    4.605937
  H     -4.133591    8.986446    2.853377
  H     -3.103851    6.906879    1.812639
  H     -0.051519    5.667065    2.899525
  H      0.326008    7.298194    4.219754

 Total Charge           Charge          ....    0
 Multiplicity           Mult            ....    1
 Number of Electrons    NEL             ....  154
 Basis Dimension        Dim             ....  828

ORBITAL ENERGIES
----------------

  NO   OCC          E(Eh)            E(eV)
   0   2.0000     -91.891890     -2500.5055
   1   2.0000     -20.614547      -560.9503
   2   2.0000     -20.588256      -560.2349
   3   2.0000     -20.539520      -558.9087
   4   2.0000     -15.635446      -425.4621
   5   2.0000     -15.613691      -424.8701
   6   2.0000     -11.408640      -310.4449
   7   2.0000     -11.389748      -309.9308
   8   2.0000     -11.338986      -308.5495
   9   2.0000     -11.320158      -308.0371
  10   2.0000     -11.299467      -307.4741
  11   2.0000     -11.298090      -307.4367
  12   2.0000     -11.271579      -306.7153
  13   2.0000     -11.265889      -306.5604
  14   2.0000     -11.252176      -306.1873
  15   2.0000     -11.247583      -306.0623
  16   2.0000     -11.238295      -305.8096
  17   2.0000     -11.236797      -305.7688
  18   2.0000     -11.232329      -305.6472
  19   2.0000     -11.221508      -305.3528
  20   2.0000      -8.896217      -242.0784
  21   2.0000      -6.577676      -178.9877
  22   2.0000      -6.575803      -178.9367
  23   2.0000      -6.575201      -178.9203
  24   2.0000      -1.451007       -39.4839
  25   2.0000      -1.415250       -38.5109
  26   2.0000      -1.346844       -36.6495
  27   2.0000      -1.321578       -35.9620
  28   2.0000      -1.238503       -33.7014
  29   2.0000      -1.157241       -31.4901
  30   2.0000      -1.121473       -30.5168
  31   2.0000      -1.057126       -28.7659
  32   2.0000      -1.047643       -28.5078
  33   2.0000      -1.015748       -27.6399
  34   2.0000      -0.997826       -27.1522
  35   2.0000      -0.979845       -26.6629
  36   2.0000      -0.928629       -25.2693
  37   2.0000      -0.896800       -24.4032
  38   2.0000      -0.853089       -23.2137
  39   2.0000      -0.843962       -22.9654
  40   2.0000      -0.824042       -22.4233
  41   2.0000      -0.808846       -22.0098
  42   2.0000      -0.760934       -20.7061
  43   2.0000      -0.740477       -20.1494
  44   2.0000      -0.726843       -19.7784
  45   2.0000      -0.701778       -19.0964
  46   2.0000      -0.686636       -18.6843
  47   2.0000      -0.674140       -18.3443
  48   2.0000      -0.669543       -18.2192
  49   2.0000      -0.655625       -17.8405
  50   2.0000      -0.652750       -17.7622
  51   2.0000      -0.643796       -17.5186
  52   2.0000      -0.633598       -17.2411
  53   2.0000      -0.612128       -16.6568
  54   2.0000      -0.607856       -16.5406
  55   2.0000      -0.601430       -16.3657
  56   2.0000      -0.598262       -16.2795
  57   2.0000      -0.580932       -15.8080
  58   2.0000      -0.578287       -15.7360
  59   2.0000      -0.563845       -15.3430
  60   2.0000      -0.558474       -15.1969
  61   2.0000      -0.546104       -14.8603
  62   2.0000      -0.531877       -14.4731
  63   2.0000      -0.525731       -14.3059
  64   2.0000      -0.516814       -14.0632
  65   2.0000      -0.511735       -13.9250
  66   2.0000      -0.502740       -13.6803
  67   2.0000      -0.494103       -13.4452
  68   2.0000      -0.479000       -13.0342
  69   2.0000      -0.458217       -12.4687
  70   2.0000      -0.453792       -12.3483
  71   2.0000      -0.441977       -12.0268
  72   2.0000      -0.360345        -9.8055
  73   2.0000      -0.346241        -9.4217
  74   2.0000      -0.329113        -8.9556
  75   2.0000      -0.326129        -8.8744
  76   2.0000      -0.309887        -8.4324
  77   0.0000       0.067791         1.8447
  78   0.0000       0.107075         2.9137
  79   0.0000       0.119191         3.2434
  80   0.0000       0.128453         3.4954
  81   0.0000       0.131338         3.5739

MULLIKEN ATOMIC CHARGES
-----------------------
   0 C :   -0.287400
   1 C :    0.051300
   2 O :   -0.333154
   3 C :    0.473971
   4 O :   -0.488072
   5 C :   -0.271311
   6 C :    0.213587
   7 C :   -0.300630
   8 N :   -0.097947
   9 C :    0.213273
  10 S :   -0.447641
  11 N :   -0.237888
  12 C :    0.074804
  13 C :    0.057684
  14 C :   -0.228355
  15 C :   -0.108328
  16 C :   -0.238668
  17 C :    0.329570
  18 O :   -0.368568
  19 C :   -0.268300
  20 H :    0.097614
  21 H :    0.081666
  22 H :    0.123295
  23 H :    0.101673
  24 H :    0.105360
  25 H :    0.087729
  26 H :    0.142669
  27 H :    0.129623
  28 H :    0.206549
  29 H :    0.194402
  30 H :    0.149746
  31 H :    0.155839
  32 H :    0.161559
  33 H :    0.164064
  34 H :    0.236074
  35 H :    0.124213
Sum of atomic charges:   -0.0000000

LOEWDIN ATOMIC CHARGES
----------------------
   0 C :    0.094294
   1 C :   -0.014870
   2 O :    0.325803
   3 C :   -0.345971
   4 O :   -0.012675
   5 C :   -0.079850
   6 C :   -0.068993
   7 C :    0.119377
   8 N :    0.412722
   9 C :   -0.432751
  10 S :   -0.059339
  11 N :    0.381868
  12 C :   -0.050237
  13 C :   -0.030511
  14 C :    0.020062
  15 C :    0.048406
  16 C :    0.022356
  17 C :   -0.227378
  18 O :    0.404267
  19 C :    0.006269
  20 H :   -0.016514
  21 H :   -0.028750
  22 H :   -0.019967
  23 H :   -0.019481
  24 H :   -0.020087
  25 H :   -0.019404
  26 H :   -0.001038
  27 H :   -0.000150
  28 H :   -0.046707
  29 H :   -0.071307
  30 H :   -0.010065
  31 H :   -0.031693
  32 H :   -0.020026
  33 H :   -0.021989
  34 H :   -0.152173
  35 H :   -0.033497

  Mayer bond orders larger than 0.100000
B(  0-C ,  1-C ) :   0.9684 B(  0-C , 20-H ) :   0.9735 B(  0-C , 21-H ) :   0.9783
B(  0-C , 22-H ) :   0.9722 B(  1-C ,  2-O ) :   0.8867 B(  1-C , 23-H ) :   0.9756
B(  1-C , 24-H ) :   0.9860 B(  2-O ,  3-C ) :   1.1977 B(  3-C ,  4-O ) :   1.8723
B(  3-C ,  5-C ) :   1.0707 B(  5-C ,  6-C ) :   1.6447 B(  5-C , 12-C ) :   0.9607
B(  6-C ,  7-C ) :   0.9588 B(  6-C ,  8-N ) :   1.1515 B(  7-C , 25-H ) :   0.9951
B(  7-C , 26-H ) :   0.9551 B(  7-C , 27-H ) :   0.9583 B(  8-N ,  9-C ) :   1.2290
B(  8-N , 28-H ) :   0.9347 B(  9-C , 10-S ) :   1.5770 B(  9-C , 11-N ) :   1.2711
B( 11-N , 12-C ) :   0.9899 B( 11-N , 29-H ) :   0.9543 B( 12-C , 13-C ) :   0.9463
B( 12-C , 30-H ) :   0.9928 B( 13-C , 14-C ) :   1.3845 B( 13-C , 19-C ) :   1.3269
B( 14-C , 15-C ) :   1.3975 B( 14-C , 31-H ) :   0.9677 B( 15-C , 16-C ) :   1.3667
B( 15-C , 32-H ) :   0.9737 B( 16-C , 17-C ) :   1.3517 B( 16-C , 33-H ) :   0.9653
B( 17-C , 18-O ) :   1.0838 B( 17-C , 19-C ) :   1.3717 B( 18-O , 34-H ) :   0.9817
B( 19-C , 35-H ) :   0.9737

MP2 TOTAL ENERGY:    -1274.310804110 Eh
FINAL SINGLE POINT ENERGY     -1274.310804110455

DIPOLE MOMENT
-------------
                                X             Y             Z
Electronic contribution:     -9.41116      -5.16803      11.81833
Nuclear contribution   :     10.72387       5.04161     -12.69580
                        -----------------------------------------
Total Dipole Moment    :      1.31270      -0.12642      -0.87747
                        -----------------------------------------
Magnitude (a.u.)       :      1.58402
Magnitude (Debye)      :      4.02627

Rotational constants in cm-1:     0.011813     0.008446     0.005607
Rotational constants in MHz :   354.131575   253.208212   168.083771

                             ****ORCA TERMINATED NORMALLY****
TOTAL RUN TIME: 0 days 2 hours 4 minutes 41 seconds 345 msec
