                         Program Version 5.0.0 -  RELEASE  -
|  1> ! RI-MP2 cc-pVTZ cc-pVTZ/c TightSCF KeepDens NoKeepInts
|  2>
|  3> %pointcharges "srfp_output"
|  4>
|  5> *xyz  0  1
|  6>     C     2.8898785   11.1814303    2.0912652
|  7>     C     1.5256516   10.5991186    2.1226686
|  8>     O     0.9496155   10.4630992    3.4507237
|  9>     C     0.4578235   11.5350078    4.0986262
| 10>     O     0.6389581   12.7288658    3.6529590
| 11>     C    -0.2972478   11.1016617    5.3865129
| 12>     C    -0.7204956   12.0598269    6.2867704
| 13>     C    -0.5333530   13.5077584    6.2137126
| 14>     N    -1.4486677   11.7062420    7.4293949
| 15>     C    -1.6907965   10.4174460    7.7188212
| 16>     S    -2.6637508   10.0577770    9.0356778
| 17>     N    -1.0061596    9.4272421    7.0109411
| 18>     C    -0.3563454    9.5732932    5.6791771
| 19>     C    -1.1332985    8.9344196    4.5501959
| 20>     C    -2.4129840    9.3734653    4.0932498
| 21>     C    -3.1046227    8.7126471    3.0670472
| 22>     C    -2.5566038    7.5461136    2.4991492
| 23>     C    -1.3651629    7.0960187    3.0166853
| 24>     O    -0.8392936    6.0029614    2.4376654
| 25>     C    -0.6381792    7.7349531    3.9768974
| 26>     H     3.3132051   11.0390216    1.0894141
| 27>     H     3.5804359   10.6257075    2.7374016
| 28>     H     2.9307435   12.2406259    2.3734589
| 29>     H     0.9764226   11.1971533    1.3851785
| 30>     H     1.5883629    9.5702038    1.7477127
| 31>     H    -1.0389471   13.9928451    7.0576671
| 32>     H    -0.8587898   13.8575064    5.2263135
| 33>     H     0.4858690   13.8895730    6.3500994
| 34>     H    -1.9023528   12.3974291    8.0145416
| 35>     H    -1.0386243    8.5025395    7.4230644
| 36>     H     0.6650238    9.1747150    5.7127933
| 37>     H    -2.9045097   10.1950194    4.6059366
| 38>     H    -4.1335908    8.9864457    2.8533768
| 39>     H    -3.1038511    6.9068791    1.8126387
| 40>     H    -0.0515190    5.6670655    2.8995252
| 41>     H     0.3260085    7.2981939    4.2197544
| 42> *
| 43>
| 44>                          ****END OF INPUT****

CARTESIAN COORDINATES (ANGSTROEM)
---------------------------------
  C      2.889879   11.181430    2.091265
  C      1.525652   10.599119    2.122669
  O      0.949615   10.463099    3.450724
  C      0.457823   11.535008    4.098626
  O      0.638958   12.728866    3.652959
  C     -0.297248   11.101662    5.386513
  C     -0.720496   12.059827    6.286770
  C     -0.533353   13.507758    6.213713
  N     -1.448668   11.706242    7.429395
  C     -1.690796   10.417446    7.718821
  S     -2.663751   10.057777    9.035678
  N     -1.006160    9.427242    7.010941
  C     -0.356345    9.573293    5.679177
  C     -1.133298    8.934420    4.550196
  C     -2.412984    9.373465    4.093250
  C     -3.104623    8.712647    3.067047
  C     -2.556604    7.546114    2.499149
  C     -1.365163    7.096019    3.016685
  O     -0.839294    6.002961    2.437665
  C     -0.638179    7.734953    3.976897
  H      3.313205   11.039022    1.089414
  H      3.580436   10.625708    2.737402
  H      2.930744   12.240626    2.373459
  H      0.976423   11.197153    1.385179
  H      1.588363    9.570204    1.747713
  H     -1.038947   13.992845    7.057667
  H     -0.858790   13.857506    5.226313
  H      0.485869   13.889573    6.350099
  H     -1.902353   12.397429    8.014542
  H     -1.038624    8.502539    7.423064
  H      0.665024    9.174715    5.712793
  H     -2.904510   10.195019    4.605937
  H     -4.133591    8.986446    2.853377
  H     -3.103851    6.906879    1.812639
  H     -0.051519    5.667065    2.899525
  H      0.326008    7.298194    4.219754

 Total Charge           Charge          ....    0
 Multiplicity           Mult            ....    1
 Number of Electrons    NEL             ....  154
 Basis Dimension        Dim             ....  828

ORBITAL ENERGIES
----------------

  NO   OCC          E(Eh)            E(eV)
   0   2.0000     -90.767753     -2469.9161
   1   2.0000     -19.485971      -530.2402
   2   2.0000     -19.445566      -529.1407
   3   2.0000     -19.423049      -528.5280
   4   2.0000     -14.493959      -394.4007
   5   2.0000     -14.474312      -393.8660
   6   2.0000     -10.290058      -280.0067
   7   2.0000     -10.261573      -279.2316
   8   2.0000     -10.201198      -277.5887
   9   2.0000     -10.178725      -276.9772
  10   2.0000     -10.162752      -276.5425
  11   2.0000     -10.156923      -276.3839
  12   2.0000     -10.133141      -275.7368
  13   2.0000     -10.128236      -275.6033
  14   2.0000     -10.114946      -275.2417
  15   2.0000     -10.101095      -274.8648
  16   2.0000     -10.097654      -274.7711
  17   2.0000     -10.097064      -274.7551
  18   2.0000     -10.096731      -274.7460
  19   2.0000     -10.077263      -274.2163
  20   2.0000      -7.773387      -211.5246
  21   2.0000      -5.455186      -148.4431
  22   2.0000      -5.453284      -148.3914
  23   2.0000      -5.452809      -148.3785
  24   2.0000      -0.324237        -8.8229
  25   2.0000      -0.274853        -7.4791
  26   2.0000      -0.208533        -5.6745
  27   2.0000      -0.205662        -5.5963
  28   2.0000      -0.097119        -2.6427
  29   2.0000      -0.021312        -0.5799
  30   2.0000       0.015746         0.4285
  31   2.0000       0.083153         2.2627
  32   2.0000       0.090670         2.4673
  33   2.0000       0.122829         3.3424
  34   2.0000       0.142605         3.8805
  35   2.0000       0.150411         4.0929
  36   2.0000       0.210124         5.7178
  37   2.0000       0.239970         6.5299
  38   2.0000       0.285736         7.7753
  39   2.0000       0.294344         8.0095
  40   2.0000       0.315805         8.5935
  41   2.0000       0.328405         8.9364
  42   2.0000       0.374449        10.1893
  43   2.0000       0.399022        10.8579
  44   2.0000       0.409555        11.1446
  45   2.0000       0.437608        11.9079
  46   2.0000       0.446862        12.1597
  47   2.0000       0.454553        12.3690
  48   2.0000       0.466748        12.7009
  49   2.0000       0.482800        13.1377
  50   2.0000       0.485360        13.2073
  51   2.0000       0.492015        13.3884
  52   2.0000       0.506166        13.7735
  53   2.0000       0.527297        14.3485
  54   2.0000       0.528057        14.3692
  55   2.0000       0.536360        14.5951
  56   2.0000       0.543554        14.7909
  57   2.0000       0.555759        15.1230
  58   2.0000       0.563081        15.3222
  59   2.0000       0.571879        15.5616
  60   2.0000       0.583793        15.8858
  61   2.0000       0.593867        16.1600
  62   2.0000       0.603548        16.4234
  63   2.0000       0.607832        16.5400
  64   2.0000       0.613677        16.6990
  65   2.0000       0.626181        17.0393
  66   2.0000       0.631871        17.1941
  67   2.0000       0.644563        17.5394
  68   2.0000       0.653416        17.7803
  69   2.0000       0.667759        18.1706
  70   2.0000       0.676906        18.4195
  71   2.0000       0.684888        18.6367
  72   2.0000       0.773961        21.0605
  73   2.0000       0.786832        21.4108
  74   2.0000       0.792013        21.5518
  75   2.0000       0.800958        21.7952
  76   2.0000       0.819486        22.2993
  77   0.0000       1.199908        32.6511
  78   0.0000       1.244125        33.8544
  79   0.0000       1.267322        34.4856
  80   0.0000       1.281287        34.8656
  81   0.0000       1.284017        34.9399

MULLIKEN ATOMIC CHARGES
-----------------------
   0 C :   -0.286273
   1 C :    0.033478
   2 O :   -0.323426
   3 C :    0.514083
   4 O :   -0.615839
   5 C :   -0.278878
   6 C :    0.236970
   7 C :   -0.296729
   8 N :   -0.109332
   9 C :    0.302944
  10 S :   -0.625335
  11 N :   -0.254293
  12 C :    0.095160
  13 C :    0.029256
  14 C :   -0.243192
  15 C :   -0.151049
  16 C :   -0.295312
  17 C :    0.284147
  18 O :   -0.437111
  19 C :   -0.252112
  20 H :    0.117472
  21 H :    0.089079
  22 H :    0.105839
  23 H :    0.112203
  24 H :    0.124886
  25 H :    0.116297
  26 H :    0.130255
  27 H :    0.133846
  28 H :    0.264342
  29 H :    0.246420
  30 H :    0.171979
  31 H :    0.186510
  32 H :    0.195276
  33 H :    0.189481
  34 H :    0.319005
  35 H :    0.169949
Sum of atomic charges:   -0.0000000

LOEWDIN ATOMIC CHARGES
----------------------
   0 C :    0.096510
   1 C :   -0.013979
   2 O :    0.333469
   3 C :   -0.327409
   4 O :   -0.098111
   5 C :   -0.081778
   6 C :   -0.050962
   7 C :    0.126792
   8 N :    0.429880
   9 C :   -0.406675
  10 S :   -0.175882
  11 N :    0.397931
  12 C :   -0.040953
  13 C :   -0.035302
  14 C :    0.015647
  15 C :    0.038719
  16 C :   -0.005194
  17 C :   -0.251522
  18 O :    0.375749
  19 C :    0.019830
  20 H :   -0.007803
  21 H :   -0.025813
  22 H :   -0.026149
  23 H :   -0.018377
  24 H :   -0.013388
  25 H :   -0.005096
  26 H :   -0.004605
  27 H :    0.001803
  28 H :   -0.018641
  29 H :   -0.046747
  30 H :   -0.001216
  31 H :   -0.023721
  32 H :   -0.010949
  33 H :   -0.020452
  34 H :   -0.109843
  35 H :   -0.015763

  Mayer bond orders larger than 0.100000
B(  0-C ,  1-C ) :   0.9664 B(  0-C , 20-H ) :   0.9705 B(  0-C , 21-H ) :   0.9760
B(  0-C , 22-H ) :   0.9762 B(  1-C ,  2-O ) :   0.8667 B(  1-C , 23-H ) :   0.9731
B(  1-C , 24-H ) :   0.9821 B(  2-O ,  3-C ) :   1.2345 B(  3-C ,  4-O ) :   1.7893
B(  3-C ,  5-C ) :   1.1125 B(  5-C ,  6-C ) :   1.6128 B(  5-C , 12-C ) :   0.9553
B(  6-C ,  7-C ) :   0.9495 B(  6-C ,  8-N ) :   1.1651 B(  7-C , 25-H ) :   0.9907
B(  7-C , 26-H ) :   0.9573 B(  7-C , 27-H ) :   0.9569 B(  8-N ,  9-C ) :   1.2858
B(  8-N , 28-H ) :   0.9103 B(  9-C , 10-S ) :   1.3870 B(  9-C , 11-N ) :   1.3343
B( 11-N , 12-C ) :   0.9843 B( 11-N , 29-H ) :   0.9288 B( 12-C , 13-C ) :   0.9412
B( 12-C , 30-H ) :   0.9886 B( 13-C , 14-C ) :   1.3539 B( 13-C , 19-C ) :   1.3086
B( 14-C , 15-C ) :   1.4056 B( 14-C , 31-H ) :   0.9612 B( 15-C , 16-C ) :   1.3572
B( 15-C , 32-H ) :   0.9634 B( 16-C , 17-C ) :   1.3335 B( 16-C , 33-H ) :   0.9548
B( 17-C , 18-O ) :   1.1088 B( 17-C , 19-C ) :   1.3711 B( 18-O , 34-H ) :   0.9165
B( 19-C , 35-H ) :   0.9646

MP2 TOTAL ENERGY:    -1274.415253531 Eh
FINAL SINGLE POINT ENERGY     -1274.415253530814

DIPOLE MOMENT
-------------
                                X             Y             Z
Electronic contribution:     -8.74959      -5.32112      11.93230
Nuclear contribution   :     10.72387       5.04161     -12.69580
                        -----------------------------------------
Total Dipole Moment    :      1.97428      -0.27951      -0.76349
                        -----------------------------------------
Magnitude (a.u.)       :      2.13514
Magnitude (Debye)      :      5.42709

Rotational constants in cm-1:     0.011813     0.008446     0.005607
Rotational constants in MHz :   354.131575   253.208212   168.083771

                             ****ORCA TERMINATED NORMALLY****
TOTAL RUN TIME: 0 days 2 hours 15 minutes 43 seconds 752 msec
