                         Program Version 5.0.0 -  RELEASE  -
|  1> ! RI-MP2 cc-pVTZ cc-pVTZ/c TightSCF KeepDens NoKeepInts
|  2>
|  3> *xyz  0  1
|  4>     C    -0.7785737   -3.2163939    1.2367283
|  5>     C    -1.1313878   -2.5179166    2.5635013
|  6>     O    -0.5365901   -1.2141253    2.5224669
|  7>     C    -0.8508706   -0.4267225    3.5974990
|  8>     O    -1.4997267   -0.7508297    4.5460915
|  9>     C    -0.2660725    0.9398277    3.3695091
| 10>     C     0.0006420    1.4970636    2.2121888
| 11>     C    -0.2906921    1.0488113    0.8031135
| 12>     N     0.7820407    2.6125986    2.1500297
| 13>     C     1.3399550    3.1516641    3.2746033
| 14>     S     2.3207121    4.4935802    3.3504658
| 15>     N     0.8780198    2.7313427    4.4758020
| 16>     C    -0.0383816    1.6358664    4.6791328
| 17>     C    -1.4074418    2.1066651    5.3169394
| 18>     C    -1.4570496    2.6382009    6.6071720
| 19>     C    -2.6276117    3.2182622    7.1042715
| 20>     C    -3.8063355    3.0594295    6.4153150
| 21>     C    -3.8265670    2.6041550    5.0983496
| 22>     O    -4.9593566    2.4747271    4.4142265
| 23>     C    -2.6510438    2.1278824    4.5682211
| 24>     H     0.2520658   -3.1008468    0.8794730
| 25>     H    -1.5007940   -2.8364058    0.5037905
| 26>     H    -0.9429013   -4.2932704    1.3652709
| 27>     H    -2.2234120   -2.5738337    2.6503776
| 28>     H    -0.6596399   -3.0500751    3.3986366
| 29>     H    -1.3711239    0.8623448    0.7701432
| 30>     H     0.3205985    0.1600670    0.6039946
| 31>     H    -0.0806741    1.8612774    0.0967279
| 32>     H     1.1496950    2.8969493    1.2500588
| 33>     H     1.1673039    3.2308726    5.3081187
| 34>     H     0.4586527    0.9512043    5.3772619
| 35>     H    -0.4733127    2.6524553    7.0670141
| 36>     H    -2.6256790    3.7205621    8.0671251
| 37>     H    -4.7263661    3.3291330    6.9254125
| 38>     H    -5.5626906    3.0922677    4.8629590
| 39>     H    -2.7429030    1.6222361    3.6115166
| 40> *
| 41>
| 42>                          ****END OF INPUT****

CARTESIAN COORDINATES (ANGSTROEM)
---------------------------------
  C     -0.778574   -3.216394    1.236728
  C     -1.131388   -2.517917    2.563501
  O     -0.536590   -1.214125    2.522467
  C     -0.850871   -0.426723    3.597499
  O     -1.499727   -0.750830    4.546092
  C     -0.266072    0.939828    3.369509
  C      0.000642    1.497064    2.212189
  C     -0.290692    1.048811    0.803114
  N      0.782041    2.612599    2.150030
  C      1.339955    3.151664    3.274603
  S      2.320712    4.493580    3.350466
  N      0.878020    2.731343    4.475802
  C     -0.038382    1.635866    4.679133
  C     -1.407442    2.106665    5.316939
  C     -1.457050    2.638201    6.607172
  C     -2.627612    3.218262    7.104272
  C     -3.806335    3.059429    6.415315
  C     -3.826567    2.604155    5.098350
  O     -4.959357    2.474727    4.414226
  C     -2.651044    2.127882    4.568221
  H      0.252066   -3.100847    0.879473
  H     -1.500794   -2.836406    0.503791
  H     -0.942901   -4.293270    1.365271
  H     -2.223412   -2.573834    2.650378
  H     -0.659640   -3.050075    3.398637
  H     -1.371124    0.862345    0.770143
  H      0.320599    0.160067    0.603995
  H     -0.080674    1.861277    0.096728
  H      1.149695    2.896949    1.250059
  H      1.167304    3.230873    5.308119
  H      0.458653    0.951204    5.377262
  H     -0.473313    2.652455    7.067014
  H     -2.625679    3.720562    8.067125
  H     -4.726366    3.329133    6.925413
  H     -5.562691    3.092268    4.862959
  H     -2.742903    1.622236    3.611517

 Total Charge           Charge          ....    0
 Multiplicity           Mult            ....    1
 Number of Electrons    NEL             ....  154
 Basis Dimension        Dim             ....  828

ORBITAL ENERGIES
----------------

  NO   OCC          E(Eh)            E(eV)
   0   2.0000     -91.881388     -2500.2197
   1   2.0000     -20.610188      -560.8317
   2   2.0000     -20.594931      -560.4166
   3   2.0000     -20.555626      -559.3470
   4   2.0000     -15.628644      -425.2770
   5   2.0000     -15.603722      -424.5989
   6   2.0000     -11.391069      -309.9667
   7   2.0000     -11.379979      -309.6650
   8   2.0000     -11.320485      -308.0460
   9   2.0000     -11.302974      -307.5695
  10   2.0000     -11.297491      -307.4204
  11   2.0000     -11.297444      -307.4191
  12   2.0000     -11.259266      -306.3802
  13   2.0000     -11.258355      -306.3554
  14   2.0000     -11.243953      -305.9635
  15   2.0000     -11.243946      -305.9633
  16   2.0000     -11.233887      -305.6896
  17   2.0000     -11.230941      -305.6094
  18   2.0000     -11.230235      -305.5902
  19   2.0000     -11.226938      -305.5005
  20   2.0000      -8.886458      -241.8128
  21   2.0000      -6.568026      -178.7251
  22   2.0000      -6.565999      -178.6699
  23   2.0000      -6.565445      -178.6548
  24   2.0000      -1.466642       -39.9094
  25   2.0000      -1.426262       -38.8106
  26   2.0000      -1.377641       -37.4875
  27   2.0000      -1.353745       -36.8373
  28   2.0000      -1.250931       -34.0396
  29   2.0000      -1.152730       -31.3674
  30   2.0000      -1.127037       -30.6682
  31   2.0000      -1.045421       -28.4473
  32   2.0000      -1.036111       -28.1940
  33   2.0000      -1.010918       -27.5085
  34   2.0000      -1.005366       -27.3574
  35   2.0000      -0.983125       -26.7522
  36   2.0000      -0.920634       -25.0517
  37   2.0000      -0.888319       -24.1724
  38   2.0000      -0.850565       -23.1450
  39   2.0000      -0.839043       -22.8315
  40   2.0000      -0.822006       -22.3679
  41   2.0000      -0.816656       -22.2223
  42   2.0000      -0.764163       -20.7939
  43   2.0000      -0.749902       -20.4059
  44   2.0000      -0.730634       -19.8816
  45   2.0000      -0.695007       -18.9121
  46   2.0000      -0.692104       -18.8331
  47   2.0000      -0.686365       -18.6769
  48   2.0000      -0.682781       -18.5794
  49   2.0000      -0.667918       -18.1750
  50   2.0000      -0.651385       -17.7251
  51   2.0000      -0.646348       -17.5880
  52   2.0000      -0.641060       -17.4441
  53   2.0000      -0.620507       -16.8848
  54   2.0000      -0.609497       -16.5853
  55   2.0000      -0.599775       -16.3207
  56   2.0000      -0.593249       -16.1431
  57   2.0000      -0.582640       -15.8545
  58   2.0000      -0.572281       -15.5726
  59   2.0000      -0.568387       -15.4666
  60   2.0000      -0.562218       -15.2987
  61   2.0000      -0.549885       -14.9631
  62   2.0000      -0.534425       -14.5424
  63   2.0000      -0.524525       -14.2730
  64   2.0000      -0.519826       -14.1452
  65   2.0000      -0.511209       -13.9107
  66   2.0000      -0.498864       -13.5748
  67   2.0000      -0.493614       -13.4319
  68   2.0000      -0.481082       -13.0909
  69   2.0000      -0.467699       -12.7267
  70   2.0000      -0.464800       -12.6478
  71   2.0000      -0.454620       -12.3708
  72   2.0000      -0.352805        -9.6003
  73   2.0000      -0.332970        -9.0606
  74   2.0000      -0.321076        -8.7369
  75   2.0000      -0.317921        -8.6511
  76   2.0000      -0.311876        -8.4866
  77   0.0000       0.083942         2.2842
  78   0.0000       0.116009         3.1568
  79   0.0000       0.117111         3.1867
  80   0.0000       0.133335         3.6282
  81   0.0000       0.137680         3.7465

MULLIKEN ATOMIC CHARGES
-----------------------
   0 C :   -0.279219
   1 C :    0.043765
   2 O :   -0.333586
   3 C :    0.428806
   4 O :   -0.385838
   5 C :   -0.204389
   6 C :    0.155819
   7 C :   -0.294053
   8 N :   -0.118609
   9 C :    0.212538
  10 S :   -0.465387
  11 N :   -0.170354
  12 C :    0.043614
  13 C :    0.077590
  14 C :   -0.196922
  15 C :   -0.139987
  16 C :   -0.256151
  17 C :    0.290139
  18 O :   -0.348977
  19 C :   -0.223080
  20 H :    0.101176
  21 H :    0.091307
  22 H :    0.099758
  23 H :    0.096885
  24 H :    0.088799
  25 H :    0.118994
  26 H :    0.138227
  27 H :    0.099671
  28 H :    0.192362
  29 H :    0.194906
  30 H :    0.143001
  31 H :    0.135703
  32 H :    0.156557
  33 H :    0.128371
  34 H :    0.241648
  35 H :    0.136914
Sum of atomic charges:    0.0000000

LOEWDIN ATOMIC CHARGES
----------------------
   0 C :    0.106914
   1 C :   -0.025837
   2 O :    0.310026
   3 C :   -0.435144
   4 O :    0.162622
   5 C :   -0.106208
   6 C :   -0.103217
   7 C :    0.136311
   8 N :    0.419039
   9 C :   -0.438137
  10 S :   -0.061958
  11 N :    0.405012
  12 C :   -0.061009
  13 C :    0.004935
  14 C :    0.002246
  15 C :    0.035135
  16 C :   -0.000626
  17 C :   -0.233987
  18 O :    0.416496
  19 C :    0.029471
  20 H :   -0.028972
  21 H :   -0.029637
  22 H :   -0.023037
  23 H :   -0.025061
  24 H :   -0.031672
  25 H :   -0.011288
  26 H :   -0.011248
  27 H :   -0.018899
  28 H :   -0.045696
  29 H :   -0.061116
  30 H :   -0.011744
  31 H :   -0.035227
  32 H :   -0.019033
  33 H :   -0.031248
  34 H :   -0.143377
  35 H :   -0.034829

  Mayer bond orders larger than 0.100000
B(  0-C ,  1-C ) :   0.9594 B(  0-C , 20-H ) :   0.9748 B(  0-C , 21-H ) :   0.9831
B(  0-C , 22-H ) :   0.9813 B(  1-C ,  2-O ) :   0.9178 B(  1-C , 23-H ) :   0.9737
B(  1-C , 24-H ) :   0.9859 B(  2-O ,  3-C ) :   1.1707 B(  3-C ,  4-O ) :   2.0372
B(  3-C ,  5-C ) :   1.0104 B(  5-C ,  6-C ) :   1.6702 B(  5-C , 12-C ) :   1.0060
B(  6-C ,  7-C ) :   0.9331 B(  6-C ,  8-N ) :   1.1513 B(  7-C , 25-H ) :   0.9757
B(  7-C , 26-H ) :   0.9616 B(  7-C , 27-H ) :   0.9954 B(  8-N ,  9-C ) :   1.2020
B(  8-N , 28-H ) :   0.9511 B(  9-C , 10-S ) :   1.5589 B(  9-C , 11-N ) :   1.3279
B( 11-N , 12-C ) :   0.9701 B( 11-N , 29-H ) :   0.9461 B( 12-C , 13-C ) :   0.9595
B( 12-C , 30-H ) :   0.9999 B( 13-C , 14-C ) :   1.4165 B( 13-C , 19-C ) :   1.3024
B( 14-C , 15-C ) :   1.3540 B( 14-C , 31-H ) :   0.9761 B( 15-C , 16-C ) :   1.4057
B( 15-C , 32-H ) :   0.9725 B( 16-C , 17-C ) :   1.3013 B( 16-C , 33-H ) :   0.9847
B( 17-C , 18-O ) :   1.1138 B( 17-C , 19-C ) :   1.4244 B( 18-O , 34-H ) :   0.9770
B( 19-C , 35-H ) :   0.9600

MP2 TOTAL ENERGY:    -1274.306057996 Eh
FINAL SINGLE POINT ENERGY     -1274.306057995751

DIPOLE MOMENT
-------------
                                X             Y             Z
Electronic contribution:      4.62503      13.94676       7.32114
Nuclear contribution   :     -5.77386     -15.25466      -8.01461
                        -----------------------------------------
Total Dipole Moment    :     -1.14883      -1.30790      -0.69347
                        -----------------------------------------
Magnitude (a.u.)       :      1.87385
Magnitude (Debye)      :      4.76295

Rotational constants in cm-1:     0.010256     0.008952     0.005643
Rotational constants in MHz :   307.470383   268.376523   169.176593

                             ****ORCA TERMINATED NORMALLY****
TOTAL RUN TIME: 0 days 1 hours 46 minutes 50 seconds 772 msec
