                         Program Version 5.0.0 -  RELEASE  -
|  1> ! RI-MP2 cc-pVTZ cc-pVTZ/c TightSCF KeepDens NoKeepInts
|  2>
|  3> %pointcharges "srfp_output"
|  4>
|  5> *xyz  0  1
|  6>     C    -0.7785737   -3.2163939    1.2367283
|  7>     C    -1.1313878   -2.5179166    2.5635013
|  8>     O    -0.5365901   -1.2141253    2.5224669
|  9>     C    -0.8508706   -0.4267225    3.5974990
| 10>     O    -1.4997267   -0.7508297    4.5460915
| 11>     C    -0.2660725    0.9398277    3.3695091
| 12>     C     0.0006420    1.4970636    2.2121888
| 13>     C    -0.2906921    1.0488113    0.8031135
| 14>     N     0.7820407    2.6125986    2.1500297
| 15>     C     1.3399550    3.1516641    3.2746033
| 16>     S     2.3207121    4.4935802    3.3504658
| 17>     N     0.8780198    2.7313427    4.4758020
| 18>     C    -0.0383816    1.6358664    4.6791328
| 19>     C    -1.4074418    2.1066651    5.3169394
| 20>     C    -1.4570496    2.6382009    6.6071720
| 21>     C    -2.6276117    3.2182622    7.1042715
| 22>     C    -3.8063355    3.0594295    6.4153150
| 23>     C    -3.8265670    2.6041550    5.0983496
| 24>     O    -4.9593566    2.4747271    4.4142265
| 25>     C    -2.6510438    2.1278824    4.5682211
| 26>     H     0.2520658   -3.1008468    0.8794730
| 27>     H    -1.5007940   -2.8364058    0.5037905
| 28>     H    -0.9429013   -4.2932704    1.3652709
| 29>     H    -2.2234120   -2.5738337    2.6503776
| 30>     H    -0.6596399   -3.0500751    3.3986366
| 31>     H    -1.3711239    0.8623448    0.7701432
| 32>     H     0.3205985    0.1600670    0.6039946
| 33>     H    -0.0806741    1.8612774    0.0967279
| 34>     H     1.1496950    2.8969493    1.2500588
| 35>     H     1.1673039    3.2308726    5.3081187
| 36>     H     0.4586527    0.9512043    5.3772619
| 37>     H    -0.4733127    2.6524553    7.0670141
| 38>     H    -2.6256790    3.7205621    8.0671251
| 39>     H    -4.7263661    3.3291330    6.9254125
| 40>     H    -5.5626906    3.0922677    4.8629590
| 41>     H    -2.7429030    1.6222361    3.6115166
| 42> *
| 43>
| 44>                          ****END OF INPUT****

CARTESIAN COORDINATES (ANGSTROEM)
---------------------------------
  C     -0.778574   -3.216394    1.236728
  C     -1.131388   -2.517917    2.563501
  O     -0.536590   -1.214125    2.522467
  C     -0.850871   -0.426723    3.597499
  O     -1.499727   -0.750830    4.546092
  C     -0.266072    0.939828    3.369509
  C      0.000642    1.497064    2.212189
  C     -0.290692    1.048811    0.803114
  N      0.782041    2.612599    2.150030
  C      1.339955    3.151664    3.274603
  S      2.320712    4.493580    3.350466
  N      0.878020    2.731343    4.475802
  C     -0.038382    1.635866    4.679133
  C     -1.407442    2.106665    5.316939
  C     -1.457050    2.638201    6.607172
  C     -2.627612    3.218262    7.104272
  C     -3.806335    3.059429    6.415315
  C     -3.826567    2.604155    5.098350
  O     -4.959357    2.474727    4.414226
  C     -2.651044    2.127882    4.568221
  H      0.252066   -3.100847    0.879473
  H     -1.500794   -2.836406    0.503791
  H     -0.942901   -4.293270    1.365271
  H     -2.223412   -2.573834    2.650378
  H     -0.659640   -3.050075    3.398637
  H     -1.371124    0.862345    0.770143
  H      0.320599    0.160067    0.603995
  H     -0.080674    1.861277    0.096728
  H      1.149695    2.896949    1.250059
  H      1.167304    3.230873    5.308119
  H      0.458653    0.951204    5.377262
  H     -0.473313    2.652455    7.067014
  H     -2.625679    3.720562    8.067125
  H     -4.726366    3.329133    6.925413
  H     -5.562691    3.092268    4.862959
  H     -2.742903    1.622236    3.611517

 Total Charge           Charge          ....    0
 Multiplicity           Mult            ....    1
 Number of Electrons    NEL             ....  154
 Basis Dimension        Dim             ....  828

ORBITAL ENERGIES
----------------

  NO   OCC          E(Eh)            E(eV)
   0   2.0000     -91.604496     -2492.6851
   1   2.0000     -20.296158      -552.2865
   2   2.0000     -20.277633      -551.7824
   3   2.0000     -20.260901      -551.3271
   4   2.0000     -15.316103      -416.7723
   5   2.0000     -15.303054      -416.4173
   6   2.0000     -11.093436      -301.8677
   7   2.0000     -11.090681      -301.7928
   8   2.0000     -11.004078      -299.4362
   9   2.0000     -10.991801      -299.1021
  10   2.0000     -10.988235      -299.0051
  11   2.0000     -10.969574      -298.4973
  12   2.0000     -10.949620      -297.9543
  13   2.0000     -10.930392      -297.4311
  14   2.0000     -10.929734      -297.4132
  15   2.0000     -10.923101      -297.2327
  16   2.0000     -10.919528      -297.1355
  17   2.0000     -10.919367      -297.1311
  18   2.0000     -10.917553      -297.0817
  19   2.0000     -10.898591      -296.5657
  20   2.0000      -8.611261      -234.3243
  21   2.0000      -6.293281      -171.2489
  22   2.0000      -6.291231      -171.1931
  23   2.0000      -6.290851      -171.1828
  24   2.0000      -1.162122       -31.6230
  25   2.0000      -1.110806       -30.2266
  26   2.0000      -1.074804       -29.2469
  27   2.0000      -1.045650       -28.4536
  28   2.0000      -0.942145       -25.6371
  29   2.0000      -0.845300       -23.0018
  30   2.0000      -0.816858       -22.2278
  31   2.0000      -0.726607       -19.7720
  32   2.0000      -0.717139       -19.5143
  33   2.0000      -0.701731       -19.0951
  34   2.0000      -0.685188       -18.6449
  35   2.0000      -0.684759       -18.6332
  36   2.0000      -0.610711       -16.6183
  37   2.0000      -0.570168       -15.5151
  38   2.0000      -0.542015       -14.7490
  39   2.0000      -0.526629       -14.3303
  40   2.0000      -0.509167       -13.8551
  41   2.0000      -0.500314       -13.6142
  42   2.0000      -0.454210       -12.3597
  43   2.0000      -0.441529       -12.0146
  44   2.0000      -0.417477       -11.3601
  45   2.0000      -0.396402       -10.7866
  46   2.0000      -0.379575       -10.3288
  47   2.0000      -0.372786       -10.1440
  48   2.0000      -0.367181        -9.9915
  49   2.0000      -0.356126        -9.6907
  50   2.0000      -0.344452        -9.3730
  51   2.0000      -0.333693        -9.0803
  52   2.0000      -0.322665        -8.7802
  53   2.0000      -0.304944        -8.2979
  54   2.0000      -0.293337        -7.9821
  55   2.0000      -0.283794        -7.7224
  56   2.0000      -0.279297        -7.6001
  57   2.0000      -0.262965        -7.1556
  58   2.0000      -0.255207        -6.9445
  59   2.0000      -0.250164        -6.8073
  60   2.0000      -0.245955        -6.6928
  61   2.0000      -0.228706        -6.2234
  62   2.0000      -0.219272        -5.9667
  63   2.0000      -0.208370        -5.6700
  64   2.0000      -0.207396        -5.6435
  65   2.0000      -0.203731        -5.5438
  66   2.0000      -0.187957        -5.1146
  67   2.0000      -0.182783        -4.9738
  68   2.0000      -0.171663        -4.6712
  69   2.0000      -0.157773        -4.2932
  70   2.0000      -0.152860        -4.1595
  71   2.0000      -0.147808        -4.0221
  72   2.0000      -0.052067        -1.4168
  73   2.0000      -0.049624        -1.3503
  74   2.0000      -0.031507        -0.8574
  75   2.0000      -0.025075        -0.6823
  76   2.0000      -0.010648        -0.2897
  77   0.0000       0.386722        10.5232
  78   0.0000       0.426361        11.6019
  79   0.0000       0.449324        12.2267
  80   0.0000       0.457367        12.4456
  81   0.0000       0.463656        12.6167

MULLIKEN ATOMIC CHARGES
-----------------------
   0 C :   -0.280555
   1 C :    0.034237
   2 O :   -0.320611
   3 C :    0.496124
   4 O :   -0.526802
   5 C :   -0.203791
   6 C :    0.167658
   7 C :   -0.281965
   8 N :   -0.131102
   9 C :    0.354823
  10 S :   -0.738790
  11 N :   -0.197318
  12 C :    0.073759
  13 C :   -0.037755
  14 C :   -0.204643
  15 C :   -0.192329
  16 C :   -0.252783
  17 C :    0.307771
  18 O :   -0.432564
  19 C :   -0.284350
  20 H :    0.101283
  21 H :    0.102046
  22 H :    0.109101
  23 H :    0.105468
  24 H :    0.097009
  25 H :    0.127033
  26 H :    0.140482
  27 H :    0.121815
  28 H :    0.253587
  29 H :    0.259932
  30 H :    0.172697
  31 H :    0.188381
  32 H :    0.195990
  33 H :    0.183268
  34 H :    0.329557
  35 H :    0.163335
Sum of atomic charges:    0.0000000

LOEWDIN ATOMIC CHARGES
----------------------
   0 C :    0.112213
   1 C :   -0.023680
   2 O :    0.322430
   3 C :   -0.408152
   4 O :    0.076535
   5 C :   -0.104673
   6 C :   -0.085712
   7 C :    0.148035
   8 N :    0.438883
   9 C :   -0.399795
  10 S :   -0.240151
  11 N :    0.426925
  12 C :   -0.054422
  13 C :   -0.022734
  14 C :   -0.005591
  15 C :    0.027154
  16 C :    0.009746
  17 C :   -0.242520
  18 O :    0.385551
  19 C :    0.006688
  20 H :   -0.027934
  21 H :   -0.025217
  22 H :   -0.018725
  23 H :   -0.022068
  24 H :   -0.030334
  25 H :   -0.006567
  26 H :   -0.007277
  27 H :   -0.007149
  28 H :   -0.014782
  29 H :   -0.032694
  30 H :   -0.001409
  31 H :   -0.019896
  32 H :   -0.007159
  33 H :   -0.012632
  34 H :   -0.101416
  35 H :   -0.031470

  Mayer bond orders larger than 0.100000
B(  0-C ,  1-C ) :   0.9657 B(  0-C , 20-H ) :   0.9753 B(  0-C , 21-H ) :   0.9810
B(  0-C , 22-H ) :   0.9785 B(  1-C ,  2-O ) :   0.8996 B(  1-C , 23-H ) :   0.9724
B(  1-C , 24-H ) :   0.9829 B(  2-O ,  3-C ) :   1.2171 B(  3-C ,  4-O ) :   1.9533
B(  3-C ,  5-C ) :   1.0403 B(  5-C ,  6-C ) :   1.6449 B(  5-C , 12-C ) :   0.9942
B(  6-C ,  7-C ) :   0.9387 B(  6-C ,  8-N ) :   1.1483 B(  7-C , 25-H ) :   0.9708
B(  7-C , 26-H ) :   0.9587 B(  7-C , 27-H ) :   0.9879 B(  8-N ,  9-C ) :   1.2886
B(  8-N , 28-H ) :   0.9209 B(  9-C , 10-S ) :   1.2468 B(  9-C , 11-N ) :   1.4243
B( 11-N , 12-C ) :   0.9562 B( 11-N , 29-H ) :   0.9209 B( 12-C , 13-C ) :   0.9550
B( 12-C , 30-H ) :   0.9959 B( 13-C , 14-C ) :   1.4222 B( 13-C , 19-C ) :   1.2849
B( 14-C , 15-C ) :   1.3275 B( 14-C , 31-H ) :   0.9604 B( 15-C , 16-C ) :   1.3790
B( 15-C , 32-H ) :   0.9607 B( 16-C , 17-C ) :   1.3039 B( 16-C , 33-H ) :   0.9656
B( 17-C , 18-O ) :   1.1325 B( 17-C , 19-C ) :   1.4154 B( 18-O , 34-H ) :   0.9107
B( 19-C , 35-H ) :   0.9557

MP2 TOTAL ENERGY:    -1274.437842320 Eh
FINAL SINGLE POINT ENERGY     -1274.437842319753

DIPOLE MOMENT
-------------
                                X             Y             Z
Electronic contribution:      4.05876      13.36531       6.95148
Nuclear contribution   :     -5.77386     -15.25466      -8.01461
                        -----------------------------------------
Total Dipole Moment    :     -1.71510      -1.88935      -1.06313
                        -----------------------------------------
Magnitude (a.u.)       :      2.76432
Magnitude (Debye)      :      7.02634

Rotational constants in cm-1:     0.010256     0.008952     0.005643
Rotational constants in MHz :   307.470383   268.376523   169.176593

                             ****ORCA TERMINATED NORMALLY****
TOTAL RUN TIME: 0 days 1 hours 54 minutes 35 seconds 118 msec
