                         Program Version 4.2.0 -  RELEASE  -
|  1> ! ri-mp2 cc-pvtz cc-pvtz/c TightSCF  NoKeepInts
|  2>
|  3> %scf
|  4>   MaxCore 4096
|  5> end
|  6> *xyz  0  1
|  7>     C       14.7767619   14.0977532   16.4868339
|  8>     C       15.5093870   15.4257135   16.7132494
|  9>     O       16.8518125   15.0357457   16.3888169
| 10>     C       17.9873063   15.7847933   16.3969191
| 11>     O       19.0408169   15.2436466   16.1222606
| 12>     C       17.9478219   16.8370985   17.4357971
| 13>     C       17.3476602   18.0300788   17.1843721
| 14>     C       16.7556666   18.4545726   15.8446761
| 15>     N       17.6409067   19.1330492   17.9931963
| 16>     C       18.4748366   19.1119717   19.0822937
| 17>     S       18.7929610   20.4963273   19.9322935
| 18>     N       19.0171738   17.8914411   19.4291900
| 19>     C       18.8983414   16.6567231   18.6117905
| 20>     C       17.9961588   15.8934260   19.6379261
| 21>     C       18.3303162   14.5226064   19.8264696
| 22>     C       17.5854433   13.6616119   20.6441310
| 23>     C       16.4535932   14.1523441   21.3000612
| 24>     C       16.0807901   15.4914437   21.1194654
| 25>     O       14.9630975   15.9416237   21.7419683
| 26>     C       16.8282290   16.3547974   20.2939202
| 27>     H       15.4227458   13.2708974   16.8143355
| 28>     H       14.5816713   13.9552165   15.4156341
| 29>     H       13.8380105   14.0339713   17.0439379
| 30>     H       15.0531238   16.2562492   16.1548780
| 31>     H       15.4917808   15.6619859   17.7873904
| 32>     H       17.1595067   17.8698651   15.0061800
| 33>     H       16.9956050   19.5003717   15.6003129
| 34>     H       15.6658149   18.3649686   15.8319592
| 35>     H       17.3242544   20.0516960   17.7170011
| 36>     H       19.6144891   17.9111364   20.2443188
| 37>     H       19.6622439   15.8761359   18.5618904
| 38>     H       19.1798451   14.0831554   19.3068362
| 39>     H       17.8820632   12.6173766   20.7529883
| 40>     H       15.8693030   13.4869534   21.9301266
| 41>     H       14.6409264   15.2208565   22.3078024
| 42>     H       16.4865306   17.3743914   20.1727768
| 43> *
| 44>
| 45>                          ****END OF INPUT****

CARTESIAN COORDINATES (ANGSTROEM)
---------------------------------
  C     14.776762   14.097753   16.486834
  C     15.509387   15.425713   16.713249
  O     16.851813   15.035746   16.388817
  C     17.987306   15.784793   16.396919
  O     19.040817   15.243647   16.122261
  C     17.947822   16.837098   17.435797
  C     17.347660   18.030079   17.184372
  C     16.755667   18.454573   15.844676
  N     17.640907   19.133049   17.993196
  C     18.474837   19.111972   19.082294
  S     18.792961   20.496327   19.932294
  N     19.017174   17.891441   19.429190
  C     18.898341   16.656723   18.611791
  C     17.996159   15.893426   19.637926
  C     18.330316   14.522606   19.826470
  C     17.585443   13.661612   20.644131
  C     16.453593   14.152344   21.300061
  C     16.080790   15.491444   21.119465
  O     14.963097   15.941624   21.741968
  C     16.828229   16.354797   20.293920
  H     15.422746   13.270897   16.814335
  H     14.581671   13.955217   15.415634
  H     13.838010   14.033971   17.043938
  H     15.053124   16.256249   16.154878
  H     15.491781   15.661986   17.787390
  H     17.159507   17.869865   15.006180
  H     16.995605   19.500372   15.600313
  H     15.665815   18.364969   15.831959
  H     17.324254   20.051696   17.717001
  H     19.614489   17.911136   20.244319
  H     19.662244   15.876136   18.561890
  H     19.179845   14.083155   19.306836
  H     17.882063   12.617377   20.752988
  H     15.869303   13.486953   21.930127
  H     14.640926   15.220857   22.307802
  H     16.486531   17.374391   20.172777

 Total Charge           Charge          ....    0
 Multiplicity           Mult            ....    1
 Number of Electrons    NEL             ....  154
 Basis Dimension        Dim             ....  828

ORBITAL ENERGIES
----------------

  NO   OCC          E(Eh)            E(eV)
   0   2.0000     -91.890829     -2500.4766
   1   2.0000     -20.599664      -560.5454
   2   2.0000     -20.596981      -560.4723
   3   2.0000     -20.551276      -559.2287
   4   2.0000     -15.627051      -425.2337
   5   2.0000     -15.613825      -424.8738
   6   2.0000     -11.395575      -310.0894
   7   2.0000     -11.387286      -309.8638
   8   2.0000     -11.330491      -308.3183
   9   2.0000     -11.322708      -308.1066
  10   2.0000     -11.316079      -307.9262
  11   2.0000     -11.304764      -307.6183
  12   2.0000     -11.273421      -306.7654
  13   2.0000     -11.268906      -306.6425
  14   2.0000     -11.262830      -306.4772
  15   2.0000     -11.252331      -306.1915
  16   2.0000     -11.240848      -305.8790
  17   2.0000     -11.240267      -305.8632
  18   2.0000     -11.233709      -305.6848
  19   2.0000     -11.227973      -305.5287
  20   2.0000      -8.895808      -242.0672
  21   2.0000      -6.577375      -178.9795
  22   2.0000      -6.575370      -178.9249
  23   2.0000      -6.574788      -178.9091
  24   2.0000      -1.455410       -39.6037
  25   2.0000      -1.416942       -38.5569
  26   2.0000      -1.362435       -37.0737
  27   2.0000      -1.339722       -36.4557
  28   2.0000      -1.241527       -33.7837
  29   2.0000      -1.156622       -31.4733
  30   2.0000      -1.125847       -30.6358
  31   2.0000      -1.046753       -28.4836
  32   2.0000      -1.043959       -28.4076
  33   2.0000      -1.014766       -27.6132
  34   2.0000      -1.002781       -27.2871
  35   2.0000      -0.987790       -26.8791
  36   2.0000      -0.929641       -25.2968
  37   2.0000      -0.881085       -23.9755
  38   2.0000      -0.856331       -23.3020
  39   2.0000      -0.842206       -22.9176
  40   2.0000      -0.833190       -22.6722
  41   2.0000      -0.830918       -22.6104
  42   2.0000      -0.761527       -20.7222
  43   2.0000      -0.739756       -20.1298
  44   2.0000      -0.724284       -19.7088
  45   2.0000      -0.699222       -19.0268
  46   2.0000      -0.694547       -18.8996
  47   2.0000      -0.683563       -18.6007
  48   2.0000      -0.680110       -18.5067
  49   2.0000      -0.663735       -18.0612
  50   2.0000      -0.659510       -17.9462
  51   2.0000      -0.647711       -17.6251
  52   2.0000      -0.638981       -17.3876
  53   2.0000      -0.610069       -16.6008
  54   2.0000      -0.605991       -16.4898
  55   2.0000      -0.600572       -16.3424
  56   2.0000      -0.593832       -16.1590
  57   2.0000      -0.582774       -15.8581
  58   2.0000      -0.572788       -15.5864
  59   2.0000      -0.565160       -15.3788
  60   2.0000      -0.557050       -15.1581
  61   2.0000      -0.554878       -15.0990
  62   2.0000      -0.548789       -14.9333
  63   2.0000      -0.524100       -14.2615
  64   2.0000      -0.517927       -14.0935
  65   2.0000      -0.513245       -13.9661
  66   2.0000      -0.506743       -13.7892
  67   2.0000      -0.501198       -13.6383
  68   2.0000      -0.489021       -13.3069
  69   2.0000      -0.461781       -12.5657
  70   2.0000      -0.455441       -12.3932
  71   2.0000      -0.449539       -12.2326
  72   2.0000      -0.350670        -9.5422
  73   2.0000      -0.347553        -9.4574
  74   2.0000      -0.328026        -8.9260
  75   2.0000      -0.320973        -8.7341
  76   2.0000      -0.312340        -8.4992
  77   0.0000       0.074035         2.0146
  78   0.0000       0.104219         2.8359
  79   0.0000       0.113336         3.0840
  80   0.0000       0.129025         3.5109
  81   0.0000       0.131672         3.5830

MULLIKEN ATOMIC CHARGES
-----------------------
   0 C :   -0.261498
   1 C :    0.015114
   2 O :   -0.286064
   3 C :    0.370668
   4 O :   -0.377429
   5 C :   -0.157578
   6 C :    0.110414
   7 C :   -0.324223
   8 N :   -0.124664
   9 C :    0.193541
  10 S :   -0.435856
  11 N :   -0.211671
  12 C :    0.102803
  13 C :    0.052588
  14 C :   -0.217909
  15 C :   -0.121167
  16 C :   -0.281866
  17 C :    0.327405
  18 O :   -0.361328
  19 C :   -0.306605
  20 H :    0.113245
  21 H :    0.094045
  22 H :    0.086506
  23 H :    0.093761
  24 H :    0.107108
  25 H :    0.128265
  26 H :    0.124107
  27 H :    0.123579
  28 H :    0.194147
  29 H :    0.192216
  30 H :    0.191912
  31 H :    0.142375
  32 H :    0.159660
  33 H :    0.128677
  34 H :    0.243654
  35 H :    0.172069
Sum of atomic charges:   -0.0000000

LOEWDIN ATOMIC CHARGES
----------------------
   0 C :    0.104470
   1 C :   -0.021998
   2 O :    0.335376
   3 C :   -0.439361
   4 O :    0.127376
   5 C :   -0.086433
   6 C :   -0.093573
   7 C :    0.125758
   8 N :    0.396359
   9 C :   -0.454331
  10 S :   -0.035626
  11 N :    0.396108
  12 C :    0.004834
  13 C :   -0.035322
  14 C :    0.000827
  15 C :    0.038623
  16 C :   -0.009447
  17 C :   -0.190339
  18 O :    0.390721
  19 C :    0.022368
  20 H :   -0.017374
  21 H :   -0.027707
  22 H :   -0.031080
  23 H :   -0.035949
  24 H :   -0.032321
  25 H :   -0.007979
  26 H :   -0.009521
  27 H :   -0.023263
  28 H :   -0.058742
  29 H :   -0.065733
  30 H :   -0.004434
  31 H :   -0.029422
  32 H :   -0.017570
  33 H :   -0.034571
  34 H :   -0.150073
  35 H :   -0.030655

  Mayer bond orders larger than 0.100000
B(  0-C ,  1-C ) :   0.9774 B(  0-C , 20-H ) :   0.9759 B(  0-C , 21-H ) :   0.9840
B(  0-C , 22-H ) :   0.9798 B(  1-C ,  2-O ) :   0.9095 B(  1-C , 23-H ) :   0.9695
B(  1-C , 24-H ) :   0.9600 B(  2-O ,  3-C ) :   1.1744 B(  3-C ,  4-O ) :   2.1038
B(  3-C ,  5-C ) :   0.9145 B(  5-C ,  6-C ) :   1.7169 B(  5-C , 12-C ) :   0.9663
B(  6-C ,  7-C ) :   0.9251 B(  6-C ,  8-N ) :   1.1025 B(  7-C , 25-H ) :   0.9752
B(  7-C , 26-H ) :   0.9813 B(  7-C , 27-H ) :   0.9733 B(  8-N ,  9-C ) :   1.1950
B(  8-N , 28-H ) :   0.9508 B(  9-C , 10-S ) :   1.6134 B(  9-C , 11-N ) :   1.2814
B( 11-N , 12-C ) :   1.0056 B( 11-N , 29-H ) :   0.9512 B( 12-C , 13-C ) :   0.8860
B( 12-C , 30-H ) :   0.9854 B( 13-C , 14-C ) :   1.3805 B( 13-C , 19-C ) :   1.3652
B( 14-C , 15-C ) :   1.3823 B( 14-C , 31-H ) :   0.9726 B( 15-C , 16-C ) :   1.3666
B( 15-C , 32-H ) :   0.9706 B( 16-C , 17-C ) :   1.3216 B( 16-C , 33-H ) :   0.9866
B( 17-C , 18-O ) :   1.1049 B( 17-C , 19-C ) :   1.3728 B( 18-O , 34-H ) :   0.9776
B( 19-C , 35-H ) :   0.9519

MP2 TOTAL ENERGY:    -1274.266818903 Eh
FINAL SINGLE POINT ENERGY     -1274.266818902869

DIPOLE MOMENT
-------------
                                X             Y             Z
Electronic contribution:     11.25517       9.40678       6.96074
Nuclear contribution   :    -12.94996     -10.40463      -7.41575
                        -----------------------------------------
Total Dipole Moment    :     -1.69479      -0.99785      -0.45501
                        -----------------------------------------
Magnitude (a.u.)       :      2.01868
Magnitude (Debye)      :      5.13107

Rotational constants in cm-1:     0.011717     0.009430     0.006815
Rotational constants in MHz :   351.258593   282.702726   204.314861

                             ****ORCA TERMINATED NORMALLY****
TOTAL RUN TIME: 0 days 1 hours 40 minutes 25 seconds 107 msec
