                         Program Version 4.2.0 -  RELEASE  -
|  1> ! ri-mp2 cc-pvtz cc-pvtz/c TightSCF  NoKeepInts
|  2>
|  3> %scf
|  4>   MaxCore 4096
|  5> end
|  6> *xyz  0  1
|  7>     C       14.6495870   14.6580532   15.6629096
|  8>     C       15.1130625   14.8890023   17.0877347
|  9>     O       16.2365359   15.7178394   17.2620933
| 10>     C       17.4804631   15.8467553   16.7260567
| 11>     O       18.0590766   15.2192322   15.8449790
| 12>     C       17.8169277   16.9786936   17.5951074
| 13>     C       17.1814810   18.1807580   17.5067183
| 14>     C       16.2951887   18.6721710   16.3785938
| 15>     N       17.6618086   19.1754180   18.3785034
| 16>     C       18.7250526   19.0739541   19.2411580
| 17>     S       18.9841022   20.2160164   20.4100739
| 18>     N       19.4512027   17.9048291   19.2083246
| 19>     C       19.0295737   16.7250606   18.4391578
| 20>     C       18.3482960   15.8718709   19.5460031
| 21>     C       18.6462113   14.4768011   19.4963475
| 22>     C       17.9468469   13.5199420   20.2337680
| 23>     C       16.9008548   13.9391335   21.0585358
| 24>     C       16.5727578   15.3023761   21.1248708
| 25>     O       15.5283004   15.6732550   21.9024699
| 26>     C       17.2711220   16.2635074   20.3751936
| 27>     H       13.5639523   14.8299065   15.6167460
| 28>     H       14.8884257   13.5956616   15.4941617
| 29>     H       15.1639036   15.3117732   14.9377757
| 30>     H       14.3391087   15.6053740   17.3662753
| 31>     H       15.0394081   14.0509570   17.8070958
| 32>     H       15.2894966   18.9591377   16.7115195
| 33>     H       16.1927930   17.9130261   15.5890230
| 34>     H       16.7457417   19.5518189   15.8866102
| 35>     H       17.1412429   20.0397680   18.4618006
| 36>     H       20.1013407   17.7925403   19.9710698
| 37>     H       19.6811374   15.8905209   18.1958008
| 38>     H       19.4012707   14.0813343   18.8149136
| 39>     H       18.2045618   12.4651738   20.1361655
| 40>     H       16.3455556   13.2012048   21.6230368
| 41>     H       15.2166340   14.8661275   22.3369177
| 42>     H       16.9339753   17.2930039   20.4064901
| 43> *
| 44>
| 45>                          ****END OF INPUT****

CARTESIAN COORDINATES (ANGSTROEM)
---------------------------------
  C     14.649587   14.658053   15.662910
  C     15.113062   14.889002   17.087735
  O     16.236536   15.717839   17.262093
  C     17.480463   15.846755   16.726057
  O     18.059077   15.219232   15.844979
  C     17.816928   16.978694   17.595107
  C     17.181481   18.180758   17.506718
  C     16.295189   18.672171   16.378594
  N     17.661809   19.175418   18.378503
  C     18.725053   19.073954   19.241158
  S     18.984102   20.216016   20.410074
  N     19.451203   17.904829   19.208325
  C     19.029574   16.725061   18.439158
  C     18.348296   15.871871   19.546003
  C     18.646211   14.476801   19.496347
  C     17.946847   13.519942   20.233768
  C     16.900855   13.939133   21.058536
  C     16.572758   15.302376   21.124871
  O     15.528300   15.673255   21.902470
  C     17.271122   16.263507   20.375194
  H     13.563952   14.829906   15.616746
  H     14.888426   13.595662   15.494162
  H     15.163904   15.311773   14.937776
  H     14.339109   15.605374   17.366275
  H     15.039408   14.050957   17.807096
  H     15.289497   18.959138   16.711520
  H     16.192793   17.913026   15.589023
  H     16.745742   19.551819   15.886610
  H     17.141243   20.039768   18.461801
  H     20.101341   17.792540   19.971070
  H     19.681137   15.890521   18.195801
  H     19.401271   14.081334   18.814914
  H     18.204562   12.465174   20.136166
  H     16.345556   13.201205   21.623037
  H     15.216634   14.866127   22.336918
  H     16.933975   17.293004   20.406490

 Total Charge           Charge          ....    0
 Multiplicity           Mult            ....    1
 Number of Electrons    NEL             ....  154
 Basis Dimension        Dim             ....  828

ORBITAL ENERGIES
----------------

  NO   OCC          E(Eh)            E(eV)
   0   2.0000     -91.885416     -2500.3293
   1   2.0000     -20.599217      -560.5332
   2   2.0000     -20.595874      -560.4422
   3   2.0000     -20.564342      -559.5842
   4   2.0000     -15.616440      -424.9449
   5   2.0000     -15.609064      -424.7442
   6   2.0000     -11.404018      -310.3191
   7   2.0000     -11.382733      -309.7399
   8   2.0000     -11.317202      -307.9567
   9   2.0000     -11.314789      -307.8911
  10   2.0000     -11.313834      -307.8651
  11   2.0000     -11.296227      -307.3860
  12   2.0000     -11.263964      -306.5080
  13   2.0000     -11.263394      -306.4925
  14   2.0000     -11.260667      -306.4183
  15   2.0000     -11.252616      -306.1992
  16   2.0000     -11.240888      -305.8801
  17   2.0000     -11.238816      -305.8237
  18   2.0000     -11.235579      -305.7356
  19   2.0000     -11.234866      -305.7163
  20   2.0000      -8.890512      -241.9231
  21   2.0000      -6.572104      -178.8360
  22   2.0000      -6.570064      -178.7805
  23   2.0000      -6.569505      -178.7653
  24   2.0000      -1.458429       -39.6859
  25   2.0000      -1.418286       -38.5935
  26   2.0000      -1.371454       -37.3192
  27   2.0000      -1.332558       -36.2608
  28   2.0000      -1.235846       -33.6291
  29   2.0000      -1.161310       -31.6008
  30   2.0000      -1.127815       -30.6894
  31   2.0000      -1.060670       -28.8623
  32   2.0000      -1.044822       -28.4311
  33   2.0000      -1.016040       -27.6478
  34   2.0000      -0.997170       -27.1344
  35   2.0000      -0.983852       -26.7720
  36   2.0000      -0.929095       -25.2820
  37   2.0000      -0.910821       -24.7847
  38   2.0000      -0.846873       -23.0446
  39   2.0000      -0.836665       -22.7668
  40   2.0000      -0.830799       -22.6072
  41   2.0000      -0.811698       -22.0874
  42   2.0000      -0.744523       -20.2595
  43   2.0000      -0.727813       -19.8048
  44   2.0000      -0.724898       -19.7255
  45   2.0000      -0.700627       -19.0650
  46   2.0000      -0.695883       -18.9359
  47   2.0000      -0.691015       -18.8035
  48   2.0000      -0.679304       -18.4848
  49   2.0000      -0.663986       -18.0680
  50   2.0000      -0.653319       -17.7777
  51   2.0000      -0.647031       -17.6066
  52   2.0000      -0.633689       -17.2436
  53   2.0000      -0.615359       -16.7448
  54   2.0000      -0.606366       -16.5001
  55   2.0000      -0.599431       -16.3114
  56   2.0000      -0.596030       -16.2188
  57   2.0000      -0.591123       -16.0853
  58   2.0000      -0.573845       -15.6151
  59   2.0000      -0.571200       -15.5431
  60   2.0000      -0.555350       -15.1118
  61   2.0000      -0.551946       -15.0192
  62   2.0000      -0.545769       -14.8511
  63   2.0000      -0.542383       -14.7590
  64   2.0000      -0.516716       -14.0605
  65   2.0000      -0.509756       -13.8712
  66   2.0000      -0.502016       -13.6605
  67   2.0000      -0.493475       -13.4281
  68   2.0000      -0.473178       -12.8758
  69   2.0000      -0.466311       -12.6890
  70   2.0000      -0.456212       -12.4142
  71   2.0000      -0.443123       -12.0580
  72   2.0000      -0.348115        -9.4727
  73   2.0000      -0.334641        -9.1060
  74   2.0000      -0.325236        -8.8501
  75   2.0000      -0.320764        -8.7284
  76   2.0000      -0.303269        -8.2524
  77   0.0000       0.077581         2.1111
  78   0.0000       0.114065         3.1039
  79   0.0000       0.115442         3.1413
  80   0.0000       0.129302         3.5185
  81   0.0000       0.136293         3.7087

MULLIKEN ATOMIC CHARGES
-----------------------
   0 C :   -0.284047
   1 C :    0.036142
   2 O :   -0.308516
   3 C :    0.382930
   4 O :   -0.408550
   5 C :   -0.051298
   6 C :    0.113664
   7 C :   -0.309614
   8 N :   -0.149412
   9 C :    0.196659
  10 S :   -0.436515
  11 N :   -0.191094
  12 C :    0.040815
  13 C :    0.059103
  14 C :   -0.245095
  15 C :   -0.124768
  16 C :   -0.288629
  17 C :    0.310683
  18 O :   -0.355117
  19 C :   -0.238856
  20 H :    0.097883
  21 H :    0.097647
  22 H :    0.109825
  23 H :    0.081018
  24 H :    0.107590
  25 H :    0.117913
  26 H :    0.115606
  27 H :    0.128377
  28 H :    0.189314
  29 H :    0.179044
  30 H :    0.190501
  31 H :    0.138082
  32 H :    0.160767
  33 H :    0.130682
  34 H :    0.240970
  35 H :    0.166298
Sum of atomic charges:   -0.0000000

LOEWDIN ATOMIC CHARGES
----------------------
   0 C :    0.104842
   1 C :   -0.057727
   2 O :    0.375597
   3 C :   -0.394570
   4 O :    0.091855
   5 C :   -0.105432
   6 C :   -0.088174
   7 C :    0.119717
   8 N :    0.390486
   9 C :   -0.453335
  10 S :   -0.040342
  11 N :    0.392590
  12 C :   -0.018692
  13 C :   -0.030690
  14 C :   -0.002438
  15 C :    0.034024
  16 C :   -0.006880
  17 C :   -0.188144
  18 O :    0.397686
  19 C :    0.036778
  20 H :   -0.020521
  21 H :   -0.026227
  22 H :   -0.019575
  23 H :   -0.030585
  24 H :   -0.020623
  25 H :   -0.019974
  26 H :   -0.009470
  27 H :   -0.005767
  28 H :   -0.059344
  29 H :   -0.068573
  30 H :   -0.011957
  31 H :   -0.029320
  32 H :   -0.017620
  33 H :   -0.037213
  34 H :   -0.155119
  35 H :   -0.025265

  Mayer bond orders larger than 0.100000
B(  0-C ,  1-C ) :   0.9318 B(  0-C , 20-H ) :   0.9831 B(  0-C , 21-H ) :   0.9838
B(  0-C , 22-H ) :   0.9769 B(  1-C ,  2-O ) :   0.9072 B(  1-C , 23-H ) :   0.9938
B(  1-C , 24-H ) :   0.9765 B(  2-O ,  3-C ) :   1.1562 B(  2-O ,  5-C ) :  -0.1079
B(  3-C ,  4-O ) :   2.0700 B(  3-C ,  5-C ) :   0.9667 B(  5-C ,  6-C ) :   1.7201
B(  5-C , 12-C ) :   0.9777 B(  6-C ,  7-C ) :   0.9433 B(  6-C ,  8-N ) :   1.0759
B(  7-C , 25-H ) :   0.9694 B(  7-C , 26-H ) :   0.9819 B(  7-C , 27-H ) :   0.9694
B(  8-N ,  9-C ) :   1.2108 B(  8-N , 28-H ) :   0.9555 B(  9-C , 10-S ) :   1.5926
B(  9-C , 11-N ) :   1.2824 B( 11-N , 12-C ) :   1.0204 B( 11-N , 29-H ) :   0.9583
B( 12-C , 13-C ) :   0.8758 B( 12-C , 30-H ) :   0.9878 B( 13-C , 14-C ) :   1.3669
B( 13-C , 19-C ) :   1.3722 B( 14-C , 15-C ) :   1.3831 B( 14-C , 31-H ) :   0.9765
B( 15-C , 16-C ) :   1.3650 B( 15-C , 32-H ) :   0.9709 B( 16-C , 17-C ) :   1.3160
B( 16-C , 33-H ) :   0.9869 B( 17-C , 18-O ) :   1.1088 B( 17-C , 19-C ) :   1.3834
B( 18-O , 34-H ) :   0.9799 B( 19-C , 35-H ) :   0.9525

MP2 TOTAL ENERGY:    -1274.242647201 Eh
FINAL SINGLE POINT ENERGY     -1274.242647200632

DIPOLE MOMENT
-------------
                                X             Y             Z
Electronic contribution:     12.22521       8.71683       9.40866
Nuclear contribution   :    -13.93202     -10.31918     -10.02702
                        -----------------------------------------
Total Dipole Moment    :     -1.70681      -1.60235      -0.61836
                        -----------------------------------------
Magnitude (a.u.)       :      2.42138
Magnitude (Debye)      :      6.15466

Rotational constants in cm-1:     0.012375     0.009438     0.006931
Rotational constants in MHz :   370.995591   282.930908   207.779509

                             ****ORCA TERMINATED NORMALLY****
TOTAL RUN TIME: 0 days 1 hours 44 minutes 54 seconds 828 msec
