                         Program Version 4.2.0 -  RELEASE  -
|  1> ! ri-mp2 cc-pvtz cc-pvtz/c TightSCF  NoKeepInts
|  2>
|  3> %scf
|  4>   MaxCore 4096
|  5> end
|  6> *xyz  0  1
|  7>     C       14.2534933   14.8354427   16.4855548
|  8>     C       15.4449447   15.6072667   17.0729572
|  9>     O       16.6047782   15.3171940   16.2445805
| 10>     C       17.8658469   15.8417000   16.4731492
| 11>     O       18.8591604   15.2369766   16.1183805
| 12>     C       17.8222381   16.9464744   17.4815350
| 13>     C       17.3464758   18.1851928   17.1566312
| 14>     C       16.6312582   18.6291784   15.9125103
| 15>     N       17.5647275   19.2187607   18.0880500
| 16>     C       18.3511884   19.1627845   19.2087972
| 17>     S       18.5565905   20.4575431   20.2090050
| 18>     N       18.9721304   17.9789260   19.4572199
| 19>     C       18.8213617   16.8094054   18.6226288
| 20>     C       18.1477390   15.6597008   19.4959065
| 21>     C       18.5562816   14.3001436   19.3675446
| 22>     C       17.9598899   13.2615077   20.1171945
| 23>     C       16.9215301   13.5610306   21.0144769
| 24>     C       16.4866306   14.8856447   21.1510196
| 25>     O       15.4713762   15.1787623   22.0058338
| 26>     C       17.0848140   15.9131972   20.4001940
| 27>     H       13.3347861   15.0490048   17.0448032
| 28>     H       14.4546922   13.7555919   16.5845863
| 29>     H       14.0921801   15.0576122   15.4285275
| 30>     H       15.1981347   16.6833282   16.9669934
| 31>     H       15.5853140   15.3910009   18.1308635
| 32>     H       16.5570293   17.8218927   15.1785376
| 33>     H       17.1596503   19.4609358   15.4323100
| 34>     H       15.6181288   18.9616342   16.1613142
| 35>     H       17.1381318   20.1219700   17.9216316
| 36>     H       19.5342487   17.9267526   20.2905721
| 37>     H       19.7002335   16.2090212   18.3597695
| 38>     H       19.3461421   14.0438381   18.6640194
| 39>     H       18.2998923   12.2307620   19.9960150
| 40>     H       16.4565245   12.7674919   21.5921162
| 41>     H       15.2326280   14.3607577   22.4688619
| 42>     H       16.7168295   16.9235772   20.5299105
| 43> *
| 44>
| 45>                          ****END OF INPUT****

CARTESIAN COORDINATES (ANGSTROEM)
---------------------------------
  C     14.253493   14.835443   16.485555
  C     15.444945   15.607267   17.072957
  O     16.604778   15.317194   16.244581
  C     17.865847   15.841700   16.473149
  O     18.859160   15.236977   16.118381
  C     17.822238   16.946474   17.481535
  C     17.346476   18.185193   17.156631
  C     16.631258   18.629178   15.912510
  N     17.564728   19.218761   18.088050
  C     18.351188   19.162785   19.208797
  S     18.556590   20.457543   20.209005
  N     18.972130   17.978926   19.457220
  C     18.821362   16.809405   18.622629
  C     18.147739   15.659701   19.495906
  C     18.556282   14.300144   19.367545
  C     17.959890   13.261508   20.117195
  C     16.921530   13.561031   21.014477
  C     16.486631   14.885645   21.151020
  O     15.471376   15.178762   22.005834
  C     17.084814   15.913197   20.400194
  H     13.334786   15.049005   17.044803
  H     14.454692   13.755592   16.584586
  H     14.092180   15.057612   15.428527
  H     15.198135   16.683328   16.966993
  H     15.585314   15.391001   18.130863
  H     16.557029   17.821893   15.178538
  H     17.159650   19.460936   15.432310
  H     15.618129   18.961634   16.161314
  H     17.138132   20.121970   17.921632
  H     19.534249   17.926753   20.290572
  H     19.700233   16.209021   18.359769
  H     19.346142   14.043838   18.664019
  H     18.299892   12.230762   19.996015
  H     16.456525   12.767492   21.592116
  H     15.232628   14.360758   22.468862
  H     16.716829   16.923577   20.529910

 Total Charge           Charge          ....    0
 Multiplicity           Mult            ....    1
 Number of Electrons    NEL             ....  154
 Basis Dimension        Dim             ....  828

ORBITAL ENERGIES
----------------

  NO   OCC          E(Eh)            E(eV)
   0   2.0000     -91.892887     -2500.5326
   1   2.0000     -20.598085      -560.5024
   2   2.0000     -20.595339      -560.4277
   3   2.0000     -20.555446      -559.3421
   4   2.0000     -15.630215      -425.3198
   5   2.0000     -15.618307      -424.9958
   6   2.0000     -11.400495      -310.2232
   7   2.0000     -11.389732      -309.9304
   8   2.0000     -11.338106      -308.5255
   9   2.0000     -11.319433      -308.0174
  10   2.0000     -11.315877      -307.9207
  11   2.0000     -11.302002      -307.5431
  12   2.0000     -11.271773      -306.7205
  13   2.0000     -11.268023      -306.6185
  14   2.0000     -11.265150      -306.5403
  15   2.0000     -11.256836      -306.3141
  16   2.0000     -11.243630      -305.9547
  17   2.0000     -11.239935      -305.8542
  18   2.0000     -11.239394      -305.8395
  19   2.0000     -11.232033      -305.6392
  20   2.0000      -8.898162      -242.1313
  21   2.0000      -6.579767      -179.0446
  22   2.0000      -6.577710      -178.9886
  23   2.0000      -6.577129      -178.9728
  24   2.0000      -1.442331       -39.2478
  25   2.0000      -1.416511       -38.5452
  26   2.0000      -1.358226       -36.9592
  27   2.0000      -1.347522       -36.6679
  28   2.0000      -1.248522       -33.9740
  29   2.0000      -1.155821       -31.4515
  30   2.0000      -1.127076       -30.6693
  31   2.0000      -1.048396       -28.5283
  32   2.0000      -1.038172       -28.2501
  33   2.0000      -1.014665       -27.6104
  34   2.0000      -1.004595       -27.3364
  35   2.0000      -0.994231       -27.0544
  36   2.0000      -0.927872       -25.2487
  37   2.0000      -0.877362       -23.8742
  38   2.0000      -0.859570       -23.3901
  39   2.0000      -0.843998       -22.9664
  40   2.0000      -0.834215       -22.7001
  41   2.0000      -0.832156       -22.6441
  42   2.0000      -0.752861       -20.4864
  43   2.0000      -0.744226       -20.2514
  44   2.0000      -0.726551       -19.7704
  45   2.0000      -0.695959       -18.9380
  46   2.0000      -0.689745       -18.7689
  47   2.0000      -0.680377       -18.5140
  48   2.0000      -0.676984       -18.4217
  49   2.0000      -0.666497       -18.1363
  50   2.0000      -0.657931       -17.9032
  51   2.0000      -0.654141       -17.8001
  52   2.0000      -0.642566       -17.4851
  53   2.0000      -0.611835       -16.6489
  54   2.0000      -0.604278       -16.4432
  55   2.0000      -0.600574       -16.3424
  56   2.0000      -0.597722       -16.2648
  57   2.0000      -0.588146       -16.0043
  58   2.0000      -0.576379       -15.6841
  59   2.0000      -0.566251       -15.4085
  60   2.0000      -0.561399       -15.2764
  61   2.0000      -0.557678       -15.1752
  62   2.0000      -0.550199       -14.9717
  63   2.0000      -0.527392       -14.3511
  64   2.0000      -0.518339       -14.1047
  65   2.0000      -0.516333       -14.0501
  66   2.0000      -0.501258       -13.6399
  67   2.0000      -0.498470       -13.5641
  68   2.0000      -0.487492       -13.2653
  69   2.0000      -0.469266       -12.7694
  70   2.0000      -0.453129       -12.3303
  71   2.0000      -0.451996       -12.2994
  72   2.0000      -0.355195        -9.6654
  73   2.0000      -0.346597        -9.4314
  74   2.0000      -0.332911        -9.0590
  75   2.0000      -0.322251        -8.7689
  76   2.0000      -0.318303        -8.6615
  77   0.0000       0.078062         2.1242
  78   0.0000       0.107238         2.9181
  79   0.0000       0.112570         3.0632
  80   0.0000       0.129649         3.5279
  81   0.0000       0.131880         3.5886

MULLIKEN ATOMIC CHARGES
-----------------------
   0 C :   -0.261877
   1 C :    0.032480
   2 O :   -0.330809
   3 C :    0.414820
   4 O :   -0.375790
   5 C :   -0.219272
   6 C :    0.154749
   7 C :   -0.324067
   8 N :   -0.144291
   9 C :    0.193542
  10 S :   -0.433804
  11 N :   -0.183272
  12 C :    0.089183
  13 C :   -0.005666
  14 C :   -0.218456
  15 C :   -0.134155
  16 C :   -0.271985
  17 C :    0.314571
  18 O :   -0.359631
  19 C :   -0.276177
  20 H :    0.090628
  21 H :    0.100811
  22 H :    0.104076
  23 H :    0.067551
  24 H :    0.132090
  25 H :    0.130603
  26 H :    0.145035
  27 H :    0.119680
  28 H :    0.194375
  29 H :    0.201167
  30 H :    0.178914
  31 H :    0.163332
  32 H :    0.164153
  33 H :    0.132140
  34 H :    0.241746
  35 H :    0.173607
Sum of atomic charges:    0.0000000

LOEWDIN ATOMIC CHARGES
----------------------
   0 C :    0.110654
   1 C :   -0.016401
   2 O :    0.282300
   3 C :   -0.405806
   4 O :    0.124312
   5 C :   -0.090323
   6 C :   -0.084676
   7 C :    0.124617
   8 N :    0.399183
   9 C :   -0.465965
  10 S :   -0.026930
  11 N :    0.408925
  12 C :   -0.034268
  13 C :   -0.027075
  14 C :    0.010439
  15 C :    0.042419
  16 C :   -0.006562
  17 C :   -0.193012
  18 O :    0.391020
  19 C :    0.016279
  20 H :   -0.024778
  21 H :   -0.021726
  22 H :   -0.028189
  23 H :   -0.034319
  24 H :   -0.032618
  25 H :   -0.006950
  26 H :   -0.006513
  27 H :   -0.016000
  28 H :   -0.055106
  29 H :   -0.059906
  30 H :   -0.009047
  31 H :   -0.028370
  32 H :   -0.017471
  33 H :   -0.034831
  34 H :   -0.153008
  35 H :   -0.030297

  Mayer bond orders larger than 0.100000
B(  0-C ,  1-C ) :   0.9832 B(  0-C , 20-H ) :   0.9766 B(  0-C , 21-H ) :   0.9803
B(  0-C , 22-H ) :   0.9772 B(  1-C ,  2-O ) :   0.9034 B(  1-C , 23-H ) :   0.9709
B(  1-C , 24-H ) :   0.9605 B(  2-O ,  3-C ) :   1.1638 B(  3-C ,  4-O ) :   2.1112
B(  3-C ,  5-C ) :   0.9199 B(  5-C ,  6-C ) :   1.6885 B(  5-C , 12-C ) :   0.9417
B(  6-C ,  7-C ) :   0.9404 B(  6-C ,  8-N ) :   1.1048 B(  7-C , 25-H ) :   0.9791
B(  7-C , 26-H ) :   0.9656 B(  7-C , 27-H ) :   0.9662 B(  8-N ,  9-C ) :   1.1983
B(  8-N , 28-H ) :   0.9530 B(  9-C , 10-S ) :   1.6211 B(  9-C , 11-N ) :   1.2860
B( 11-N , 12-C ) :   1.0346 B( 11-N , 29-H ) :   0.9467 B( 12-C , 13-C ) :   0.9070
B( 12-C , 30-H ) :   0.9913 B( 13-C , 14-C ) :   1.3948 B( 13-C , 19-C ) :   1.3463
B( 14-C , 15-C ) :   1.3972 B( 14-C , 31-H ) :   0.9625 B( 15-C , 16-C ) :   1.3604
B( 15-C , 32-H ) :   0.9691 B( 16-C , 17-C ) :   1.3298 B( 16-C , 33-H ) :   0.9842
B( 17-C , 18-O ) :   1.1054 B( 17-C , 19-C ) :   1.3604 B( 18-O , 34-H ) :   0.9791
B( 19-C , 35-H ) :   0.9581

MP2 TOTAL ENERGY:    -1274.312454405 Eh
FINAL SINGLE POINT ENERGY     -1274.312454405400

DIPOLE MOMENT
-------------
                                X             Y             Z
Electronic contribution:     11.90043       7.61016       7.24672
Nuclear contribution   :    -13.36962      -8.43747      -7.58897
                        -----------------------------------------
Total Dipole Moment    :     -1.46920      -0.82731      -0.34224
                        -----------------------------------------
Magnitude (a.u.)       :      1.72049
Magnitude (Debye)      :      4.37315

Rotational constants in cm-1:     0.011596     0.009133     0.006711
Rotational constants in MHz :   347.651210   273.807168   201.186470

                             ****ORCA TERMINATED NORMALLY****
TOTAL RUN TIME: 0 days 1 hours 41 minutes 49 seconds 154 msec
