                         Program Version 4.2.0 -  RELEASE  -
|  1> ! ri-mp2 cc-pvtz cc-pvtz/c TightSCF NoKeepInts
|  2>
|  3> %scf
|  4>   MaxCore 4096
|  5> end
|  6> *xyz  0  1
|  7>     C       15.2809537   14.3020365   16.9941160
|  8>     C       15.3688656   15.5656861   16.1159896
|  9>     O       16.6821802   15.6332313   15.5197934
| 10>     C       17.8077670   15.8709955   16.2655675
| 11>     O       18.8606698   15.3143701   16.0150878
| 12>     C       17.6347356   16.7954138   17.4299230
| 13>     C       17.3493365   18.0858961   17.1081104
| 14>     C       16.8261943   18.6203191   15.7868325
| 15>     N       17.6275797   19.1101868   18.0169523
| 16>     C       18.5088556   18.9975159   19.0572321
| 17>     S       18.9414470   20.2986995   19.9814650
| 18>     N       19.0352989   17.7497018   19.2690113
| 19>     C       18.5560731   16.5113452   18.6243930
| 20>     C       17.8222727   15.6509179   19.6440296
| 21>     C       18.2060366   14.3112684   19.8364989
| 22>     C       17.5197667   13.4954676   20.7515551
| 23>     C       16.4377796   14.0223353   21.4773087
| 24>     C       16.0494121   15.3550593   21.2841566
| 25>     O       14.9983733   15.8634282   21.9751779
| 26>     C       16.7339061   16.1648190   20.3724562
| 27>     H       15.9552339   14.3655183   17.8560943
| 28>     H       15.5469119   13.4092555   16.4140064
| 29>     H       14.2609489   14.1701105   17.3749477
| 30>     H       14.6187419   15.4948748   15.3176159
| 31>     H       15.1383040   16.4553824   16.7144322
| 32>     H       17.3382853   18.1569647   14.9334177
| 33>     H       16.9847115   19.7015505   15.6871736
| 34>     H       15.7516308   18.4359602   15.6774693
| 35>     H       17.2843116   20.0417981   17.8439303
| 36>     H       19.6838519   17.6883709   20.0436035
| 37>     H       19.4548049   15.9859490   18.2692410
| 38>     H       19.0356041   13.8984139   19.2669013
| 39>     H       17.8254184   12.4600251   20.8928169
| 40>     H       15.9039581   13.3950368   22.1836746
| 41>     H       14.6995384   15.1804820   22.5945406
| 42>     H       16.4172435   17.1936081   20.2384811
| 43> *
| 44>
| 45>                          ****END OF INPUT****

CARTESIAN COORDINATES (ANGSTROEM)
---------------------------------
  C     15.280954   14.302036   16.994116
  C     15.368866   15.565686   16.115990
  O     16.682180   15.633231   15.519793
  C     17.807767   15.870995   16.265567
  O     18.860670   15.314370   16.015088
  C     17.634736   16.795414   17.429923
  C     17.349336   18.085896   17.108110
  C     16.826194   18.620319   15.786832
  N     17.627580   19.110187   18.016952
  C     18.508856   18.997516   19.057232
  S     18.941447   20.298699   19.981465
  N     19.035299   17.749702   19.269011
  C     18.556073   16.511345   18.624393
  C     17.822273   15.650918   19.644030
  C     18.206037   14.311268   19.836499
  C     17.519767   13.495468   20.751555
  C     16.437780   14.022335   21.477309
  C     16.049412   15.355059   21.284157
  O     14.998373   15.863428   21.975178
  C     16.733906   16.164819   20.372456
  H     15.955234   14.365518   17.856094
  H     15.546912   13.409255   16.414006
  H     14.260949   14.170110   17.374948
  H     14.618742   15.494875   15.317616
  H     15.138304   16.455382   16.714432
  H     17.338285   18.156965   14.933418
  H     16.984711   19.701550   15.687174
  H     15.751631   18.435960   15.677469
  H     17.284312   20.041798   17.843930
  H     19.683852   17.688371   20.043603
  H     19.454805   15.985949   18.269241
  H     19.035604   13.898414   19.266901
  H     17.825418   12.460025   20.892817
  H     15.903958   13.395037   22.183675
  H     14.699538   15.180482   22.594541
  H     16.417244   17.193608   20.238481

 Total Charge           Charge          ....    0
 Multiplicity           Mult            ....    1
 Number of Electrons    NEL             ....  154
 Basis Dimension        Dim             ....  828

ORBITAL ENERGIES
----------------

  NO   OCC          E(Eh)            E(eV)
   0   2.0000     -91.890507     -2500.4678
   1   2.0000     -20.599842      -560.5502
   2   2.0000     -20.598216      -560.5059
   3   2.0000     -20.549563      -559.1820
   4   2.0000     -15.630426      -425.3255
   5   2.0000     -15.608733      -424.7352
   6   2.0000     -11.396677      -310.1194
   7   2.0000     -11.385425      -309.8132
   8   2.0000     -11.340357      -308.5868
   9   2.0000     -11.317402      -307.9622
  10   2.0000     -11.310407      -307.7718
  11   2.0000     -11.306716      -307.6714
  12   2.0000     -11.267454      -306.6030
  13   2.0000     -11.262231      -306.4609
  14   2.0000     -11.261035      -306.4283
  15   2.0000     -11.258054      -306.3472
  16   2.0000     -11.246043      -306.0204
  17   2.0000     -11.241274      -305.8906
  18   2.0000     -11.240099      -305.8586
  19   2.0000     -11.229301      -305.5648
  20   2.0000      -8.895573      -242.0608
  21   2.0000      -6.577150      -178.9734
  22   2.0000      -6.575137      -178.9186
  23   2.0000      -6.574552      -178.9026
  24   2.0000      -1.447553       -39.3899
  25   2.0000      -1.419494       -38.6264
  26   2.0000      -1.360316       -37.0161
  27   2.0000      -1.343772       -36.5659
  28   2.0000      -1.240562       -33.7574
  29   2.0000      -1.161208       -31.5981
  30   2.0000      -1.127033       -30.6681
  31   2.0000      -1.048678       -28.5360
  32   2.0000      -1.035008       -28.1640
  33   2.0000      -1.018783       -27.7225
  34   2.0000      -1.006894       -27.3990
  35   2.0000      -0.989822       -26.9344
  36   2.0000      -0.927587       -25.2409
  37   2.0000      -0.891944       -24.2710
  38   2.0000      -0.854496       -23.2520
  39   2.0000      -0.843405       -22.9502
  40   2.0000      -0.837376       -22.7862
  41   2.0000      -0.829772       -22.5793
  42   2.0000      -0.746805       -20.3216
  43   2.0000      -0.736415       -20.0389
  44   2.0000      -0.730565       -19.8797
  45   2.0000      -0.699092       -19.0233
  46   2.0000      -0.690595       -18.7920
  47   2.0000      -0.682732       -18.5781
  48   2.0000      -0.674518       -18.3546
  49   2.0000      -0.661618       -18.0035
  50   2.0000      -0.656601       -17.8670
  51   2.0000      -0.646419       -17.5900
  52   2.0000      -0.636929       -17.3317
  53   2.0000      -0.617802       -16.8112
  54   2.0000      -0.609695       -16.5906
  55   2.0000      -0.609229       -16.5780
  56   2.0000      -0.602432       -16.3930
  57   2.0000      -0.586476       -15.9588
  58   2.0000      -0.578803       -15.7500
  59   2.0000      -0.567072       -15.4308
  60   2.0000      -0.560196       -15.2437
  61   2.0000      -0.548959       -14.9379
  62   2.0000      -0.545084       -14.8325
  63   2.0000      -0.534547       -14.5458
  64   2.0000      -0.522954       -14.2303
  65   2.0000      -0.513565       -13.9748
  66   2.0000      -0.503177       -13.6921
  67   2.0000      -0.501426       -13.6445
  68   2.0000      -0.485043       -13.1987
  69   2.0000      -0.466323       -12.6893
  70   2.0000      -0.456415       -12.4197
  71   2.0000      -0.449697       -12.2369
  72   2.0000      -0.361629        -9.8404
  73   2.0000      -0.350822        -9.5464
  74   2.0000      -0.330122        -8.9831
  75   2.0000      -0.325608        -8.8602
  76   2.0000      -0.319115        -8.6836
  77   0.0000       0.078906         2.1472
  78   0.0000       0.103013         2.8031
  79   0.0000       0.118201         3.2164
  80   0.0000       0.129252         3.5171
  81   0.0000       0.132548         3.6068

MULLIKEN ATOMIC CHARGES
-----------------------
   0 C :   -0.295057
   1 C :    0.023088
   2 O :   -0.342957
   3 C :    0.433188
   4 O :   -0.382432
   5 C :   -0.232570
   6 C :    0.138340
   7 C :   -0.304761
   8 N :   -0.126576
   9 C :    0.194303
  10 S :   -0.437498
  11 N :   -0.195440
  12 C :    0.060373
  13 C :    0.003698
  14 C :   -0.190704
  15 C :   -0.126741
  16 C :   -0.275734
  17 C :    0.299566
  18 O :   -0.355908
  19 C :   -0.225532
  20 H :    0.118112
  21 H :    0.111420
  22 H :    0.095997
  23 H :    0.122472
  24 H :    0.087410
  25 H :    0.140140
  26 H :    0.116647
  27 H :    0.122309
  28 H :    0.196391
  29 H :    0.193224
  30 H :    0.170803
  31 H :    0.161093
  32 H :    0.162413
  33 H :    0.132481
  34 H :    0.241310
  35 H :    0.167133
Sum of atomic charges:   -0.0000000

LOEWDIN ATOMIC CHARGES
----------------------
   0 C :    0.109031
   1 C :   -0.024980
   2 O :    0.299437
   3 C :   -0.421717
   4 O :    0.118519
   5 C :   -0.091551
   6 C :   -0.073179
   7 C :    0.130784
   8 N :    0.404798
   9 C :   -0.462543
  10 S :   -0.034685
  11 N :    0.397801
  12 C :   -0.042944
  13 C :   -0.045696
  14 C :    0.011640
  15 C :    0.043776
  16 C :   -0.000668
  17 C :   -0.190081
  18 O :    0.395729
  19 C :    0.029339
  20 H :   -0.027260
  21 H :   -0.022626
  22 H :   -0.025162
  23 H :   -0.022404
  24 H :   -0.040446
  25 H :   -0.004217
  26 H :   -0.014730
  27 H :   -0.014981
  28 H :   -0.058556
  29 H :   -0.063478
  30 H :   -0.002638
  31 H :   -0.025343
  32 H :   -0.019358
  33 H :   -0.034792
  34 H :   -0.153140
  35 H :   -0.023679

  Mayer bond orders larger than 0.100000
B(  0-C ,  1-C ) :   0.9746 B(  0-C , 20-H ) :   0.9663 B(  0-C , 21-H ) :   0.9764
B(  0-C , 22-H ) :   0.9767 B(  1-C ,  2-O ) :   0.8964 B(  1-C , 23-H ) :   0.9798
B(  1-C , 24-H ) :   0.9652 B(  2-O ,  3-C ) :   1.1317 B(  3-C ,  4-O ) :   2.1018
B(  3-C ,  5-C ) :   0.9397 B(  5-C ,  6-C ) :   1.7100 B(  5-C , 12-C ) :   0.9352
B(  6-C ,  7-C ) :   0.9402 B(  6-C ,  8-N ) :   1.1144 B(  7-C , 25-H ) :   0.9642
B(  7-C , 26-H ) :   0.9865 B(  7-C , 27-H ) :   0.9672 B(  8-N ,  9-C ) :   1.1843
B(  8-N , 28-H ) :   0.9495 B(  9-C , 10-S ) :   1.6177 B(  9-C , 11-N ) :   1.2932
B( 11-N , 12-C ) :   0.9974 B( 11-N , 29-H ) :   0.9530 B( 12-C , 13-C ) :   0.9489
B( 12-C , 30-H ) :   0.9878 B( 13-C , 14-C ) :   1.3793 B( 13-C , 19-C ) :   1.3712
B( 14-C , 15-C ) :   1.3828 B( 14-C , 31-H ) :   0.9668 B( 15-C , 16-C ) :   1.3729
B( 15-C , 32-H ) :   0.9706 B( 16-C , 17-C ) :   1.3258 B( 16-C , 33-H ) :   0.9841
B( 17-C , 18-O ) :   1.1134 B( 17-C , 19-C ) :   1.3759 B( 18-O , 34-H ) :   0.9793
B( 19-C , 35-H ) :   0.9567

MP2 TOTAL ENERGY:    -1274.329572415 Eh
FINAL SINGLE POINT ENERGY     -1274.329572415268

DIPOLE MOMENT
-------------
                                X             Y             Z
Electronic contribution:      9.63120       8.47759       6.19960
Nuclear contribution   :    -11.49637      -9.54226      -6.32053
                        -----------------------------------------
Total Dipole Moment    :     -1.86516      -1.06466      -0.12092
                        -----------------------------------------
Magnitude (a.u.)       :      2.15104
Magnitude (Debye)      :      5.46750

Rotational constants in cm-1:     0.010985     0.009763     0.006526
Rotational constants in MHz :   329.323815   292.700552   195.643088

                             ****ORCA TERMINATED NORMALLY****
TOTAL RUN TIME: 0 days 2 hours 56 minutes 12 seconds 350 msec
