                         Program Version 4.2.0 -  RELEASE  -
|  1> ! ri-mp2 cc-pvtz cc-pvtz/c TightSCF  NoKeepInts
|  2>
|  3> %scf
|  4>   MaxCore 4096
|  5> end
|  6> *xyz  0  1
|  7>     C       15.7437462   13.7510560   14.9820886
|  8>     C       15.1616132   15.1535795   15.2617195
|  9>     O       15.8784699   15.9900979   16.2111668
| 10>     C       17.0829619   15.7500776   16.8198282
| 11>     O       17.5318527   14.6224714   16.9718956
| 12>     C       17.4977943   16.8644656   17.7471725
| 13>     C       17.1909177   18.1825600   17.4952237
| 14>     C       16.3116072   18.7821534   16.4324019
| 15>     N       17.8980197   19.1559423   18.2292385
| 16>     C       18.9441231   18.9668406   19.0884379
| 17>     S       19.7252223   20.2195143   19.8322329
| 18>     N       19.2944343   17.6611593   19.3175384
| 19>     C       18.6692986   16.5023665   18.6610804
| 20>     C       17.9161350   15.8356258   19.9024656
| 21>     C       18.0846368   14.4373823   20.1322413
| 22>     C       17.4342614   13.7530852   21.1867502
| 23>     C       16.5666790   14.4569202   22.0380167
| 24>     C       16.3556812   15.8244640   21.8105540
| 25>     O       15.5091625   16.5113236   22.6294009
| 26>     C       17.0089622   16.4951147   20.7570784
| 27>     H       16.7501432   13.8656723   14.5499476
| 28>     H       15.1346386   13.2310185   14.2326617
| 29>     H       15.8089343   13.1195723   15.8725460
| 30>     H       14.8914859   15.6656458   14.3350191
| 31>     H       14.2082694   14.9578277   15.7896766
| 32>     H       15.2803442   18.4865776   16.6373617
| 33>     H       16.5823194   18.4391525   15.4235543
| 34>     H       16.3484634   19.8804843   16.4218991
| 35>     H       17.6426461   20.1270056   18.1022508
| 36>     H       20.0805126   17.5276426   19.9419890
| 37>     H       19.2260214   15.6205415   18.4007329
| 38>     H       18.7299799   13.8467940   19.4811987
| 39>     H       17.5974188   12.6803328   21.3489213
| 40>     H       16.0616589   13.9444309   22.8555422
| 41>     H       15.1882880   15.8977482   23.3099424
| 42>     H       16.8102940   17.5453539   20.6242270
| 43> *
| 44>
| 45>                          ****END OF INPUT****

CARTESIAN COORDINATES (ANGSTROEM)
---------------------------------
  C     15.743746   13.751056   14.982089
  C     15.161613   15.153579   15.261719
  O     15.878470   15.990098   16.211167
  C     17.082962   15.750078   16.819828
  O     17.531853   14.622471   16.971896
  C     17.497794   16.864466   17.747172
  C     17.190918   18.182560   17.495224
  C     16.311607   18.782153   16.432402
  N     17.898020   19.155942   18.229238
  C     18.944123   18.966841   19.088438
  S     19.725222   20.219514   19.832233
  N     19.294434   17.661159   19.317538
  C     18.669299   16.502367   18.661080
  C     17.916135   15.835626   19.902466
  C     18.084637   14.437382   20.132241
  C     17.434261   13.753085   21.186750
  C     16.566679   14.456920   22.038017
  C     16.355681   15.824464   21.810554
  O     15.509163   16.511324   22.629401
  C     17.008962   16.495115   20.757078
  H     16.750143   13.865672   14.549948
  H     15.134639   13.231018   14.232662
  H     15.808934   13.119572   15.872546
  H     14.891486   15.665646   14.335019
  H     14.208269   14.957828   15.789677
  H     15.280344   18.486578   16.637362
  H     16.582319   18.439152   15.423554
  H     16.348463   19.880484   16.421899
  H     17.642646   20.127006   18.102251
  H     20.080513   17.527643   19.941989
  H     19.226021   15.620541   18.400733
  H     18.729980   13.846794   19.481199
  H     17.597419   12.680333   21.348921
  H     16.061659   13.944431   22.855542
  H     15.188288   15.897748   23.309942
  H     16.810294   17.545354   20.624227

 Total Charge           Charge          ....    0
 Multiplicity           Mult            ....    1
 Number of Electrons    NEL             ....  154
 Basis Dimension        Dim             ....  828

ORBITAL ENERGIES
----------------

  NO   OCC          E(Eh)            E(eV)
   0   2.0000     -91.890164     -2500.4585
   1   2.0000     -20.601767      -560.6026
   2   2.0000     -20.585386      -560.1568
   3   2.0000     -20.543294      -559.0115
   4   2.0000     -15.628938      -425.2850
   5   2.0000     -15.610522      -424.7839
   6   2.0000     -11.398618      -310.1722
   7   2.0000     -11.385186      -309.8067
   8   2.0000     -11.342108      -308.6344
   9   2.0000     -11.311531      -307.8024
  10   2.0000     -11.307550      -307.6941
  11   2.0000     -11.303414      -307.5815
  12   2.0000     -11.265949      -306.5621
  13   2.0000     -11.263398      -306.4926
  14   2.0000     -11.251263      -306.1624
  15   2.0000     -11.243583      -305.9535
  16   2.0000     -11.230951      -305.6097
  17   2.0000     -11.227676      -305.5206
  18   2.0000     -11.226652      -305.4927
  19   2.0000     -11.225950      -305.4736
  20   2.0000      -8.895175      -242.0500
  21   2.0000      -6.576756      -178.9626
  22   2.0000      -6.574724      -178.9073
  23   2.0000      -6.574145      -178.8916
  24   2.0000      -1.445566       -39.3358
  25   2.0000      -1.401863       -38.1466
  26   2.0000      -1.354074       -36.8462
  27   2.0000      -1.339711       -36.4554
  28   2.0000      -1.237568       -33.6759
  29   2.0000      -1.143191       -31.1078
  30   2.0000      -1.116720       -30.3875
  31   2.0000      -1.039954       -28.2986
  32   2.0000      -1.035557       -28.1790
  33   2.0000      -1.002151       -27.2699
  34   2.0000      -0.992534       -27.0082
  35   2.0000      -0.982748       -26.7419
  36   2.0000      -0.921550       -25.0767
  37   2.0000      -0.897298       -24.4167
  38   2.0000      -0.852096       -23.1867
  39   2.0000      -0.827305       -22.5121
  40   2.0000      -0.819640       -22.3035
  41   2.0000      -0.813547       -22.1377
  42   2.0000      -0.740405       -20.1474
  43   2.0000      -0.727186       -19.7877
  44   2.0000      -0.713589       -19.4177
  45   2.0000      -0.692293       -18.8383
  46   2.0000      -0.680732       -18.5237
  47   2.0000      -0.676817       -18.4171
  48   2.0000      -0.672136       -18.2898
  49   2.0000      -0.662933       -18.0393
  50   2.0000      -0.650275       -17.6949
  51   2.0000      -0.643028       -17.4977
  52   2.0000      -0.634059       -17.2536
  53   2.0000      -0.600700       -16.3459
  54   2.0000      -0.598019       -16.2729
  55   2.0000      -0.592619       -16.1260
  56   2.0000      -0.588441       -16.0123
  57   2.0000      -0.585306       -15.9270
  58   2.0000      -0.572879       -15.5888
  59   2.0000      -0.566893       -15.4259
  60   2.0000      -0.552280       -15.0283
  61   2.0000      -0.545952       -14.8561
  62   2.0000      -0.539796       -14.6886
  63   2.0000      -0.524240       -14.2653
  64   2.0000      -0.513667       -13.9776
  65   2.0000      -0.505670       -13.7600
  66   2.0000      -0.497618       -13.5409
  67   2.0000      -0.490256       -13.3406
  68   2.0000      -0.476569       -12.9681
  69   2.0000      -0.457597       -12.4518
  70   2.0000      -0.448023       -12.1913
  71   2.0000      -0.445100       -12.1118
  72   2.0000      -0.346654        -9.4329
  73   2.0000      -0.338719        -9.2170
  74   2.0000      -0.328312        -8.9338
  75   2.0000      -0.311931        -8.4881
  76   2.0000      -0.305145        -8.3034
  77   0.0000       0.068543         1.8651
  78   0.0000       0.118147         3.2149
  79   0.0000       0.119590         3.2542
  80   0.0000       0.138003         3.7552
  81   0.0000       0.140291         3.8175

MULLIKEN ATOMIC CHARGES
-----------------------
   0 C :   -0.285861
   1 C :    0.046010
   2 O :   -0.355640
   3 C :    0.431489
   4 O :   -0.428545
   5 C :   -0.160275
   6 C :    0.154005
   7 C :   -0.288030
   8 N :   -0.126266
   9 C :    0.196532
  10 S :   -0.432062
  11 N :   -0.195129
  12 C :    0.066314
  13 C :    0.030063
  14 C :   -0.187538
  15 C :   -0.133016
  16 C :   -0.275196
  17 C :    0.305290
  18 O :   -0.364003
  19 C :   -0.257508
  20 H :    0.095533
  21 H :    0.097727
  22 H :    0.125268
  23 H :    0.098889
  24 H :    0.085327
  25 H :    0.135311
  26 H :    0.122860
  27 H :    0.107004
  28 H :    0.192588
  29 H :    0.192026
  30 H :    0.187653
  31 H :    0.139681
  32 H :    0.153929
  33 H :    0.125669
  34 H :    0.240574
  35 H :    0.159324
Sum of atomic charges:    0.0000000

LOEWDIN ATOMIC CHARGES
----------------------
   0 C :    0.102282
   1 C :   -0.010461
   2 O :    0.295942
   3 C :   -0.414522
   4 O :    0.108202
   5 C :   -0.094108
   6 C :   -0.052455
   7 C :    0.123880
   8 N :    0.399875
   9 C :   -0.464648
  10 S :   -0.029931
  11 N :    0.396651
  12 C :   -0.005632
  13 C :   -0.022747
  14 C :    0.007641
  15 C :    0.034617
  16 C :   -0.011068
  17 C :   -0.184607
  18 O :    0.382716
  19 C :    0.020158
  20 H :   -0.026719
  21 H :   -0.026976
  22 H :   -0.023327
  23 H :   -0.032398
  24 H :   -0.022684
  25 H :   -0.008993
  26 H :   -0.006510
  27 H :   -0.017098
  28 H :   -0.057799
  29 H :   -0.061324
  30 H :   -0.023034
  31 H :   -0.031744
  32 H :   -0.019449
  33 H :   -0.035711
  34 H :   -0.154151
  35 H :   -0.033867

  Mayer bond orders larger than 0.100000
B(  0-C ,  1-C ) :   0.9824 B(  0-C , 20-H ) :   0.9759 B(  0-C , 21-H ) :   0.9725
B(  0-C , 22-H ) :   0.9706 B(  1-C ,  2-O ) :   0.9008 B(  1-C , 23-H ) :   0.9760
B(  1-C , 24-H ) :   0.9806 B(  2-O ,  3-C ) :   1.1333 B(  3-C ,  4-O ) :   1.9632
B(  3-C ,  5-C ) :   1.0583 B(  5-C ,  6-C ) :   1.6452 B(  5-C , 12-C ) :   0.9723
B(  6-C ,  7-C ) :   0.9558 B(  6-C ,  8-N ) :   1.1255 B(  7-C , 25-H ) :   0.9628
B(  7-C , 26-H ) :   0.9661 B(  7-C , 27-H ) :   0.9904 B(  8-N ,  9-C ) :   1.1861
B(  8-N , 28-H ) :   0.9501 B(  9-C , 10-S ) :   1.6155 B(  9-C , 11-N ) :   1.2978
B( 11-N , 12-C ) :   1.0149 B( 11-N , 29-H ) :   0.9509 B( 12-C , 13-C ) :   0.9107
B( 12-C , 30-H ) :   0.9803 B( 13-C , 14-C ) :   1.3832 B( 13-C , 19-C ) :   1.3843
B( 14-C , 15-C ) :   1.3953 B( 14-C , 31-H ) :   0.9692 B( 15-C , 16-C ) :   1.3593
B( 15-C , 32-H ) :   0.9721 B( 16-C , 17-C ) :   1.3335 B( 16-C , 33-H ) :   0.9864
B( 17-C , 18-O ) :   1.0968 B( 17-C , 19-C ) :   1.3758 B( 18-O , 34-H ) :   0.9803
B( 19-C , 35-H ) :   0.9550

MP2 TOTAL ENERGY:    -1274.294272961 Eh
FINAL SINGLE POINT ENERGY     -1274.294272960510

DIPOLE MOMENT
-------------
                                X             Y             Z
Electronic contribution:      9.89969      10.36240      11.23311
Nuclear contribution   :    -11.40538     -11.31489     -12.61359
                        -----------------------------------------
Total Dipole Moment    :     -1.50570      -0.95249      -1.38049
                        -----------------------------------------
Magnitude (a.u.)       :      2.25391
Magnitude (Debye)      :      5.72898

Rotational constants in cm-1:     0.010641     0.008760     0.005787
Rotational constants in MHz :   319.021430   262.631430   173.497442

                             ****ORCA TERMINATED NORMALLY****
TOTAL RUN TIME: 0 days 1 hours 32 minutes 38 seconds 570 msec
