                         Program Version 4.2.0 -  RELEASE  -
|  1> ! ri-mp2 cc-pvtz cc-pvtz/c TightSCF  NoKeepInts
|  2>
|  3> %scf
|  4>   MaxCore 4096
|  5> end
|  6> *xyz  0  1
|  7>     C       14.6384596   14.0868915   15.7861225
|  8>     C       16.1736902   14.0286482   15.9086164
|  9>     O       16.5707340   15.2628740   16.5265263
| 10>     C       17.8814628   15.5343307   16.7818229
| 11>     O       18.7997455   14.7694505   16.5371997
| 12>     C       18.0063254   16.7639357   17.6152281
| 13>     C       17.2899112   17.9085060   17.4671283
| 14>     C       16.2060614   18.2015634   16.4540641
| 15>     N       17.6826785   19.0633094   18.1678041
| 16>     C       18.7172173   19.1487529   19.0771905
| 17>     S       18.9795255   20.5187481   19.9667735
| 18>     N       19.3828054   17.9746523   19.3540762
| 19>     C       19.1221550   16.7115233   18.6407811
| 20>     C       18.1846412   16.2220234   19.7985998
| 21>     C       18.3259508   14.8450302   20.1040428
| 22>     C       17.4014025   14.1522091   20.8940334
| 23>     C       16.2923347   14.8295726   21.4106369
| 24>     C       16.1330197   16.1929407   21.1529089
| 25>     O       15.0362594   16.8433451   21.6167623
| 26>     C       17.0591200   16.8839003   20.3690562
| 27>     H       14.2089772   13.0912090   15.5868920
| 28>     H       14.3579867   14.7737997   14.9770024
| 29>     H       14.2016595   14.4767361   16.7158289
| 30>     H       16.4638034   13.1871811   16.5520604
| 31>     H       16.6382878   13.8753528   14.9279005
| 32>     H       16.2949515   17.5733479   15.5618599
| 33>     H       16.2291033   19.2390343   16.0964547
| 34>     H       15.2244442   18.0168376   16.9027605
| 35>     H       17.1501826   19.9067977   18.0457753
| 36>     H       20.0731317   18.0090141   20.0933146
| 37>     H       19.8281856   15.8756475   18.6630006
| 38>     H       19.1363263   14.2644343   19.6683672
| 39>     H       17.5335108   13.0863405   21.0702597
| 40>     H       15.5522535   14.2931844   21.9902038
| 41>     H       14.5378017   16.2161364   22.1610836
| 42>     H       16.8328999   17.9247353   20.1918588
| 43> *
| 44>
| 45>                          ****END OF INPUT****

CARTESIAN COORDINATES (ANGSTROEM)
---------------------------------
  C     14.638460   14.086892   15.786122
  C     16.173690   14.028648   15.908616
  O     16.570734   15.262874   16.526526
  C     17.881463   15.534331   16.781823
  O     18.799746   14.769450   16.537200
  C     18.006325   16.763936   17.615228
  C     17.289911   17.908506   17.467128
  C     16.206061   18.201563   16.454064
  N     17.682679   19.063309   18.167804
  C     18.717217   19.148753   19.077190
  S     18.979526   20.518748   19.966773
  N     19.382805   17.974652   19.354076
  C     19.122155   16.711523   18.640781
  C     18.184641   16.222023   19.798600
  C     18.325951   14.845030   20.104043
  C     17.401402   14.152209   20.894033
  C     16.292335   14.829573   21.410637
  C     16.133020   16.192941   21.152909
  O     15.036259   16.843345   21.616762
  C     17.059120   16.883900   20.369056
  H     14.208977   13.091209   15.586892
  H     14.357987   14.773800   14.977002
  H     14.201659   14.476736   16.715829
  H     16.463803   13.187181   16.552060
  H     16.638288   13.875353   14.927900
  H     16.294951   17.573348   15.561860
  H     16.229103   19.239034   16.096455
  H     15.224444   18.016838   16.902760
  H     17.150183   19.906798   18.045775
  H     20.073132   18.009014   20.093315
  H     19.828186   15.875647   18.663001
  H     19.136326   14.264434   19.668367
  H     17.533511   13.086341   21.070260
  H     15.552254   14.293184   21.990204
  H     14.537802   16.216136   22.161084
  H     16.832900   17.924735   20.191859

 Total Charge           Charge          ....    0
 Multiplicity           Mult            ....    1
 Number of Electrons    NEL             ....  154
 Basis Dimension        Dim             ....  828

ORBITAL ENERGIES
----------------

  NO   OCC          E(Eh)            E(eV)
   0   2.0000     -91.889819     -2500.4491
   1   2.0000     -20.607082      -560.7472
   2   2.0000     -20.592158      -560.3411
   3   2.0000     -20.551711      -559.2405
   4   2.0000     -15.624437      -425.1626
   5   2.0000     -15.610859      -424.7931
   6   2.0000     -11.399123      -310.1859
   7   2.0000     -11.385532      -309.8161
   8   2.0000     -11.329713      -308.2972
   9   2.0000     -11.312992      -307.8422
  10   2.0000     -11.306596      -307.6681
  11   2.0000     -11.300727      -307.5084
  12   2.0000     -11.267287      -306.5985
  13   2.0000     -11.259104      -306.3758
  14   2.0000     -11.258271      -306.3531
  15   2.0000     -11.246555      -306.0343
  16   2.0000     -11.236048      -305.7484
  17   2.0000     -11.232793      -305.6598
  18   2.0000     -11.230691      -305.6026
  19   2.0000     -11.226233      -305.4813
  20   2.0000      -8.894728      -242.0379
  21   2.0000      -6.576285      -178.9498
  22   2.0000      -6.574295      -178.8957
  23   2.0000      -6.573703      -178.8795
  24   2.0000      -1.457193       -39.6522
  25   2.0000      -1.412198       -38.4279
  26   2.0000      -1.362594       -37.0781
  27   2.0000      -1.337819       -36.4039
  28   2.0000      -1.240706       -33.7613
  29   2.0000      -1.155704       -31.4483
  30   2.0000      -1.122001       -30.5312
  31   2.0000      -1.046725       -28.4828
  32   2.0000      -1.037672       -28.2365
  33   2.0000      -1.010880       -27.5074
  34   2.0000      -0.996412       -27.1138
  35   2.0000      -0.984499       -26.7896
  36   2.0000      -0.923024       -25.1168
  37   2.0000      -0.892047       -24.2738
  38   2.0000      -0.846971       -23.0472
  39   2.0000      -0.835753       -22.7420
  40   2.0000      -0.825744       -22.4696
  41   2.0000      -0.819399       -22.2970
  42   2.0000      -0.763995       -20.7894
  43   2.0000      -0.736922       -20.0527
  44   2.0000      -0.719731       -19.5849
  45   2.0000      -0.697472       -18.9792
  46   2.0000      -0.691372       -18.8132
  47   2.0000      -0.684210       -18.6183
  48   2.0000      -0.680427       -18.5154
  49   2.0000      -0.662872       -18.0377
  50   2.0000      -0.657417       -17.8892
  51   2.0000      -0.642880       -17.4936
  52   2.0000      -0.634446       -17.2641
  53   2.0000      -0.601272       -16.3615
  54   2.0000      -0.599425       -16.3112
  55   2.0000      -0.595284       -16.1985
  56   2.0000      -0.592525       -16.1234
  57   2.0000      -0.579195       -15.7607
  58   2.0000      -0.570534       -15.5250
  59   2.0000      -0.565514       -15.3884
  60   2.0000      -0.558785       -15.2053
  61   2.0000      -0.554981       -15.1018
  62   2.0000      -0.541501       -14.7350
  63   2.0000      -0.521681       -14.1957
  64   2.0000      -0.514286       -13.9944
  65   2.0000      -0.511544       -13.9198
  66   2.0000      -0.507266       -13.8034
  67   2.0000      -0.501097       -13.6356
  68   2.0000      -0.489880       -13.3303
  69   2.0000      -0.463905       -12.6235
  70   2.0000      -0.461312       -12.5529
  71   2.0000      -0.451386       -12.2828
  72   2.0000      -0.344583        -9.3766
  73   2.0000      -0.332891        -9.0584
  74   2.0000      -0.326215        -8.8768
  75   2.0000      -0.318806        -8.6752
  76   2.0000      -0.303536        -8.2596
  77   0.0000       0.068825         1.8728
  78   0.0000       0.118919         3.2360
  79   0.0000       0.122713         3.3392
  80   0.0000       0.135727         3.6933
  81   0.0000       0.136831         3.7234

MULLIKEN ATOMIC CHARGES
-----------------------
   0 C :   -0.271176
   1 C :    0.045405
   2 O :   -0.329279
   3 C :    0.420182
   4 O :   -0.425016
   5 C :   -0.081473
   6 C :    0.113569
   7 C :   -0.294820
   8 N :   -0.153650
   9 C :    0.200684
  10 S :   -0.419240
  11 N :   -0.200205
  12 C :    0.058758
  13 C :    0.062141
  14 C :   -0.232735
  15 C :   -0.125241
  16 C :   -0.284735
  17 C :    0.307780
  18 O :   -0.359784
  19 C :   -0.262608
  20 H :    0.096936
  21 H :    0.091997
  22 H :    0.102399
  23 H :    0.092303
  24 H :    0.096125
  25 H :    0.119252
  26 H :    0.107529
  27 H :    0.125821
  28 H :    0.194986
  29 H :    0.186819
  30 H :    0.185618
  31 H :    0.143848
  32 H :    0.157274
  33 H :    0.126971
  34 H :    0.240789
  35 H :    0.162773
Sum of atomic charges:   -0.0000000

LOEWDIN ATOMIC CHARGES
----------------------
   0 C :    0.106151
   1 C :   -0.015854
   2 O :    0.316121
   3 C :   -0.416330
   4 O :    0.098826
   5 C :   -0.095116
   6 C :   -0.068294
   7 C :    0.125313
   8 N :    0.401333
   9 C :   -0.454310
  10 S :   -0.029560
  11 N :    0.398422
  12 C :    0.005973
  13 C :   -0.035623
  14 C :   -0.005067
  15 C :    0.036866
  16 C :   -0.009423
  17 C :   -0.194643
  18 O :    0.395029
  19 C :    0.027520
  20 H :   -0.022519
  21 H :   -0.029799
  22 H :   -0.024154
  23 H :   -0.028617
  24 H :   -0.030557
  25 H :   -0.012852
  26 H :   -0.016412
  27 H :   -0.012219
  28 H :   -0.064570
  29 H :   -0.062790
  30 H :   -0.003314
  31 H :   -0.031429
  32 H :   -0.020705
  33 H :   -0.038557
  34 H :   -0.155050
  35 H :   -0.033793

  Mayer bond orders larger than 0.100000
B(  0-C ,  1-C ) :   0.9665 B(  0-C , 20-H ) :   0.9801 B(  0-C , 21-H ) :   0.9811
B(  0-C , 22-H ) :   0.9744 B(  1-C ,  2-O ) :   0.9078 B(  1-C , 23-H ) :   0.9800
B(  1-C , 24-H ) :   0.9775 B(  2-O ,  3-C ) :   1.1847 B(  3-C ,  4-O ) :   1.9943
B(  3-C ,  5-C ) :   0.9846 B(  5-C ,  6-C ) :   1.6518 B(  5-C , 12-C ) :   1.0007
B(  6-C ,  7-C ) :   0.9512 B(  6-C ,  8-N ) :   1.1297 B(  7-C , 25-H ) :   0.9726
B(  7-C , 26-H ) :   0.9847 B(  7-C , 27-H ) :   0.9645 B(  8-N ,  9-C ) :   1.1613
B(  8-N , 28-H ) :   0.9519 B(  9-C , 10-S ) :   1.6176 B(  9-C , 11-N ) :   1.2997
B( 11-N , 12-C ) :   0.9794 B( 11-N , 29-H ) :   0.9563 B( 12-C , 13-C ) :   0.8832
B( 12-C , 30-H ) :   0.9854 B( 13-C , 14-C ) :   1.3922 B( 13-C , 19-C ) :   1.3502
B( 14-C , 15-C ) :   1.3682 B( 14-C , 31-H ) :   0.9729 B( 15-C , 16-C ) :   1.3824
B( 15-C , 32-H ) :   0.9719 B( 16-C , 17-C ) :   1.3108 B( 16-C , 33-H ) :   0.9860
B( 17-C , 18-O ) :   1.1151 B( 17-C , 19-C ) :   1.3988 B( 18-O , 34-H ) :   0.9806
B( 19-C , 35-H ) :   0.9477

MP2 TOTAL ENERGY:    -1274.283836684 Eh
FINAL SINGLE POINT ENERGY     -1274.283836683950

DIPOLE MOMENT
-------------
                                X             Y             Z
Electronic contribution:     12.38613      11.53984       8.87811
Nuclear contribution   :    -14.01099     -13.14958      -9.71489
                        -----------------------------------------
Total Dipole Moment    :     -1.62485      -1.60974      -0.83678
                        -----------------------------------------
Magnitude (a.u.)       :      2.43549
Magnitude (Debye)      :      6.19052

Rotational constants in cm-1:     0.012785     0.008615     0.006830
Rotational constants in MHz :   383.291718   258.261747   204.772789

                             ****ORCA TERMINATED NORMALLY****
TOTAL RUN TIME: 0 days 1 hours 39 minutes 9 seconds 952 msec
