                         Program Version 4.2.0 -  RELEASE  -
|  1> ! ri-mp2 cc-pvtz cc-pvtz/c TightSCF NoKeepInts
|  2>
|  3> %scf
|  4>   MaxCore 4096
|  5> end
|  6> *xyz  0  1
|  7>     C       14.2989059   14.9328410   15.5461549
|  8>     C       15.4007786   15.3612323   16.5288833
|  9>     O       16.5980702   15.5785968   15.7577611
| 10>     C       17.7674836   15.9516347   16.3651999
| 11>     O       18.8465908   15.5632181   15.9587077
| 12>     C       17.6173340   16.7993212   17.5875975
| 13>     C       17.1802538   18.0660827   17.3566467
| 14>     C       16.4675816   18.5919838   16.1235717
| 15>     N       17.4455588   19.0760393   18.2849589
| 16>     C       18.4315924   19.0101343   19.2311932
| 17>     S       18.8268562   20.3100249   20.1739268
| 18>     N       19.0927109   17.8132108   19.3314142
| 19>     C       18.6720261   16.5595067   18.6751299
| 20>     C       18.1147336   15.5963186   19.7144324
| 21>     C       18.6478700   14.2998403   19.8300540
| 22>     C       18.1235898   13.3926232   20.7664340
| 23>     C       17.0538553   13.7834033   21.5901047
| 24>     C       16.5172221   15.0727811   21.4737969
| 25>     O       15.4771760   15.4501914   22.2588991
| 26>     C       17.0411173   15.9736073   20.5415664
| 27>     H       13.3683389   14.7092027   16.0818819
| 28>     H       14.6020265   14.0338222   14.9946174
| 29>     H       14.0958530   15.7301048   14.8203150
| 30>     H       15.0834374   16.2664255   17.0602838
| 31>     H       15.5684412   14.5648768   17.2668690
| 32>     H       15.3974995   18.3568103   16.1509000
| 33>     H       16.8830141   18.1686877   15.2001305
| 34>     H       16.5630152   19.6809382   16.0284063
| 35>     H       16.9987753   19.9745831   18.1910239
| 36>     H       19.8182774   17.7866018   20.0365929
| 37>     H       19.5774409   16.1376291   18.2138623
| 38>     H       19.4690728   13.9920354   19.1868357
| 39>     H       18.5443831   12.3916101   20.8486888
| 40>     H       16.6443379   13.0847135   22.3121733
| 41>     H       15.2992167   14.7239496   22.8754578
| 42>     H       16.6125605   16.9674174   20.4695248
| 43> *
| 44>
| 45>                          ****END OF INPUT****

CARTESIAN COORDINATES (ANGSTROEM)
---------------------------------
  C     14.298906   14.932841   15.546155
  C     15.400779   15.361232   16.528883
  O     16.598070   15.578597   15.757761
  C     17.767484   15.951635   16.365200
  O     18.846591   15.563218   15.958708
  C     17.617334   16.799321   17.587598
  C     17.180254   18.066083   17.356647
  C     16.467582   18.591984   16.123572
  N     17.445559   19.076039   18.284959
  C     18.431592   19.010134   19.231193
  S     18.826856   20.310025   20.173927
  N     19.092711   17.813211   19.331414
  C     18.672026   16.559507   18.675130
  C     18.114734   15.596319   19.714432
  C     18.647870   14.299840   19.830054
  C     18.123590   13.392623   20.766434
  C     17.053855   13.783403   21.590105
  C     16.517222   15.072781   21.473797
  O     15.477176   15.450191   22.258899
  C     17.041117   15.973607   20.541566
  H     13.368339   14.709203   16.081882
  H     14.602026   14.033822   14.994617
  H     14.095853   15.730105   14.820315
  H     15.083437   16.266426   17.060284
  H     15.568441   14.564877   17.266869
  H     15.397500   18.356810   16.150900
  H     16.883014   18.168688   15.200131
  H     16.563015   19.680938   16.028406
  H     16.998775   19.974583   18.191024
  H     19.818277   17.786602   20.036593
  H     19.577441   16.137629   18.213862
  H     19.469073   13.992035   19.186836
  H     18.544383   12.391610   20.848689
  H     16.644338   13.084713   22.312173
  H     15.299217   14.723950   22.875458
  H     16.612561   16.967417   20.469525

 Total Charge           Charge          ....    0
 Multiplicity           Mult            ....    1
 Number of Electrons    NEL             ....  154
 Basis Dimension        Dim             ....  828

ORBITAL ENERGIES
----------------

  NO   OCC          E(Eh)            E(eV)
   0   2.0000     -91.889985     -2500.4536
   1   2.0000     -20.600687      -560.5732
   2   2.0000     -20.599182      -560.5322
   3   2.0000     -20.550228      -559.2001
   4   2.0000     -15.629821      -425.3090
   5   2.0000     -15.608336      -424.7244
   6   2.0000     -11.396178      -310.1058
   7   2.0000     -11.385042      -309.8027
   8   2.0000     -11.339169      -308.5545
   9   2.0000     -11.316393      -307.9347
  10   2.0000     -11.310331      -307.7698
  11   2.0000     -11.306016      -307.6523
  12   2.0000     -11.268153      -306.6220
  13   2.0000     -11.261789      -306.4489
  14   2.0000     -11.260498      -306.4137
  15   2.0000     -11.257295      -306.3266
  16   2.0000     -11.245133      -305.9956
  17   2.0000     -11.240438      -305.8679
  18   2.0000     -11.239729      -305.8486
  19   2.0000     -11.236277      -305.7546
  20   2.0000      -8.895053      -242.0467
  21   2.0000      -6.576632      -178.9593
  22   2.0000      -6.574618      -178.9045
  23   2.0000      -6.574034      -178.8886
  24   2.0000      -1.449824       -39.4517
  25   2.0000      -1.418849       -38.6088
  26   2.0000      -1.362212       -37.0677
  27   2.0000      -1.343190       -36.5501
  28   2.0000      -1.240027       -33.7428
  29   2.0000      -1.160487       -31.5785
  30   2.0000      -1.126950       -30.6659
  31   2.0000      -1.048367       -28.5275
  32   2.0000      -1.041367       -28.3370
  33   2.0000      -1.017948       -27.6998
  34   2.0000      -1.006457       -27.3871
  35   2.0000      -0.989138       -26.9158
  36   2.0000      -0.927029       -25.2257
  37   2.0000      -0.880034       -23.9469
  38   2.0000      -0.855690       -23.2845
  39   2.0000      -0.844492       -22.9798
  40   2.0000      -0.837023       -22.7765
  41   2.0000      -0.833559       -22.6823
  42   2.0000      -0.758803       -20.6481
  43   2.0000      -0.736227       -20.0337
  44   2.0000      -0.731381       -19.9019
  45   2.0000      -0.698766       -19.0144
  46   2.0000      -0.690562       -18.7912
  47   2.0000      -0.682470       -18.5709
  48   2.0000      -0.672061       -18.2877
  49   2.0000      -0.664304       -18.0766
  50   2.0000      -0.657179       -17.8827
  51   2.0000      -0.648858       -17.6563
  52   2.0000      -0.639469       -17.4008
  53   2.0000      -0.612303       -16.6616
  54   2.0000      -0.608957       -16.5706
  55   2.0000      -0.602696       -16.4002
  56   2.0000      -0.598665       -16.2905
  57   2.0000      -0.583783       -15.8855
  58   2.0000      -0.579140       -15.7592
  59   2.0000      -0.567286       -15.4366
  60   2.0000      -0.559779       -15.2324
  61   2.0000      -0.558959       -15.2101
  62   2.0000      -0.547294       -14.8926
  63   2.0000      -0.526695       -14.3321
  64   2.0000      -0.524776       -14.2799
  65   2.0000      -0.516044       -14.0423
  66   2.0000      -0.506730       -13.7888
  67   2.0000      -0.500855       -13.6289
  68   2.0000      -0.487861       -13.2754
  69   2.0000      -0.466007       -12.6807
  70   2.0000      -0.458631       -12.4800
  71   2.0000      -0.451898       -12.2968
  72   2.0000      -0.361111        -9.8263
  73   2.0000      -0.349971        -9.5232
  74   2.0000      -0.329590        -8.9686
  75   2.0000      -0.324790        -8.8380
  76   2.0000      -0.318332        -8.6622
  77   0.0000       0.080027         2.1777
  78   0.0000       0.104093         2.8325
  79   0.0000       0.115602         3.1457
  80   0.0000       0.129542         3.5250
  81   0.0000       0.132047         3.5932

MULLIKEN ATOMIC CHARGES
-----------------------
   0 C :   -0.258503
   1 C :    0.023798
   2 O :   -0.322607
   3 C :    0.412674
   4 O :   -0.381103
   5 C :   -0.223788
   6 C :    0.148621
   7 C :   -0.312373
   8 N :   -0.128630
   9 C :    0.195154
  10 S :   -0.438493
  11 N :   -0.194849
  12 C :    0.046827
  13 C :    0.051376
  14 C :   -0.202575
  15 C :   -0.126040
  16 C :   -0.279747
  17 C :    0.308564
  18 O :   -0.356143
  19 C :   -0.259859
  20 H :    0.091165
  21 H :    0.107235
  22 H :    0.094155
  23 H :    0.090412
  24 H :    0.112354
  25 H :    0.120990
  26 H :    0.141020
  27 H :    0.120192
  28 H :    0.196471
  29 H :    0.193058
  30 H :    0.170603
  31 H :    0.159865
  32 H :    0.162342
  33 H :    0.131171
  34 H :    0.241204
  35 H :    0.165462
Sum of atomic charges:    0.0000000

LOEWDIN ATOMIC CHARGES
----------------------
   0 C :    0.111297
   1 C :   -0.026291
   2 O :    0.303219
   3 C :   -0.421081
   4 O :    0.119288
   5 C :   -0.089292
   6 C :   -0.075178
   7 C :    0.130660
   8 N :    0.404410
   9 C :   -0.462019
  10 S :   -0.035401
  11 N :    0.397568
  12 C :   -0.043172
  13 C :   -0.043814
  14 C :    0.010895
  15 C :    0.043849
  16 C :   -0.001151
  17 C :   -0.190755
  18 O :    0.395284
  19 C :    0.029686
  20 H :   -0.024190
  21 H :   -0.022189
  22 H :   -0.027876
  23 H :   -0.039397
  24 H :   -0.027881
  25 H :   -0.015603
  26 H :   -0.004945
  27 H :   -0.013752
  28 H :   -0.058471
  29 H :   -0.063682
  30 H :   -0.002287
  31 H :   -0.025789
  32 H :   -0.019589
  33 H :   -0.035135
  34 H :   -0.153353
  35 H :   -0.023862

  Mayer bond orders larger than 0.100000
B(  0-C ,  1-C ) :   0.9782 B(  0-C , 20-H ) :   0.9765 B(  0-C , 21-H ) :   0.9771
B(  0-C , 22-H ) :   0.9774 B(  1-C ,  2-O ) :   0.9020 B(  1-C , 23-H ) :   0.9659
B(  1-C , 24-H ) :   0.9763 B(  2-O ,  3-C ) :   1.1562 B(  3-C ,  4-O ) :   2.1135
B(  3-C ,  5-C ) :   0.9360 B(  5-C ,  6-C ) :   1.7031 B(  5-C , 12-C ) :   0.9444
B(  6-C ,  7-C ) :   0.9383 B(  6-C ,  8-N ) :   1.1100 B(  7-C , 25-H ) :   0.9668
B(  7-C , 26-H ) :   0.9653 B(  7-C , 27-H ) :   0.9858 B(  8-N ,  9-C ) :   1.1856
B(  8-N , 28-H ) :   0.9500 B(  9-C , 10-S ) :   1.6169 B(  9-C , 11-N ) :   1.2932
B( 11-N , 12-C ) :   0.9967 B( 11-N , 29-H ) :   0.9532 B( 12-C , 13-C ) :   0.9513
B( 12-C , 30-H ) :   0.9867 B( 13-C , 14-C ) :   1.3749 B( 13-C , 19-C ) :   1.3674
B( 14-C , 15-C ) :   1.3833 B( 14-C , 31-H ) :   0.9669 B( 15-C , 16-C ) :   1.3743
B( 15-C , 32-H ) :   0.9702 B( 16-C , 17-C ) :   1.3240 B( 16-C , 33-H ) :   0.9848
B( 17-C , 18-O ) :   1.1120 B( 17-C , 19-C ) :   1.3756 B( 18-O , 34-H ) :   0.9795
B( 19-C , 35-H ) :   0.9582

MP2 TOTAL ENERGY:    -1274.328397940 Eh
FINAL SINGLE POINT ENERGY     -1274.328397940253

DIPOLE MOMENT
-------------
                                X             Y             Z
Electronic contribution:     11.70538       7.46416       8.94996
Nuclear contribution   :    -13.50159      -8.70906      -9.00788
                        -----------------------------------------
Total Dipole Moment    :     -1.79621      -1.24490      -0.05791
                        -----------------------------------------
Magnitude (a.u.)       :      2.18621
Magnitude (Debye)      :      5.55690

Rotational constants in cm-1:     0.009880     0.009646     0.006288
Rotational constants in MHz :   296.209472   289.187545   188.508769

                             ****ORCA TERMINATED NORMALLY****
TOTAL RUN TIME: 0 days 2 hours 38 minutes 38 seconds 903 msec
