                         Program Version 4.2.0 -  RELEASE  -
|  1> ! ri-mp2 cc-pvtz cc-pvtz/c TightSCF  NoKeepInts
|  2>
|  3> %scf
|  4>   MaxCore 4096
|  5> end
|  6> *xyz  0  1
|  7>     C       14.6972189   14.1505652   16.3460708
|  8>     C       15.5854844   15.3512640   16.7054223
|  9>     O       16.9217071   14.9955071   16.2858465
| 10>     C       18.0431316   15.7760578   16.4129632
| 11>     O       19.1220289   15.3872510   16.0033249
| 12>     C       17.9588280   16.8076589   17.4718213
| 13>     C       17.2807617   17.9589351   17.1998279
| 14>     C       16.7149305   18.3785446   15.8478529
| 15>     N       17.6089076   19.0447394   18.0274288
| 16>     C       18.4545437   19.0570299   19.1068849
| 17>     S       18.7631384   20.4618019   19.9246687
| 18>     N       19.0226666   17.8582767   19.4614645
| 19>     C       18.9193531   16.6362897   18.6385302
| 20>     C       18.0201365   15.9198995   19.6835574
| 21>     C       18.3637821   14.5615387   19.9000577
| 22>     C       17.6112024   13.7127279   20.7193123
| 23>     C       16.4681381   14.2099992   21.3516408
| 24>     C       16.0885822   15.5429272   21.1452140
| 25>     O       14.9589505   15.9943603   21.7435302
| 26>     C       16.8382608   16.3926450   20.3118304
| 27>     H       15.2459324   13.2076281   16.4571346
| 28>     H       14.3943810   14.2407182   15.2941118
| 29>     H       13.7890767   14.1092413   16.9586218
| 30>     H       15.1852906   16.2864171   16.3064405
| 31>     H       15.5896999   15.4195967   17.8054220
| 32>     H       17.1255536   17.7788856   15.0233602
| 33>     H       16.9817372   19.4163347   15.6048818
| 34>     H       15.6234053   18.3132170   15.8079393
| 35>     H       17.2822036   19.9615339   17.7590565
| 36>     H       19.6248697   17.8882487   20.2727708
| 37>     H       19.7241171   15.8959138   18.5536209
| 38>     H       19.2232273   14.1254803   19.3951541
| 39>     H       17.9107386   12.6723574   20.8448760
| 40>     H       15.8782519   13.5529455   21.9833782
| 41>     H       14.6385917   15.2785820   22.3163587
| 42>     H       16.4881736   17.4068804   20.1636201
| 43> *
| 44>
| 45>                          ****END OF INPUT****

CARTESIAN COORDINATES (ANGSTROEM)
---------------------------------
  C     14.697219   14.150565   16.346071
  C     15.585484   15.351264   16.705422
  O     16.921707   14.995507   16.285847
  C     18.043132   15.776058   16.412963
  O     19.122029   15.387251   16.003325
  C     17.958828   16.807659   17.471821
  C     17.280762   17.958935   17.199828
  C     16.714931   18.378545   15.847853
  N     17.608908   19.044739   18.027429
  C     18.454544   19.057030   19.106885
  S     18.763138   20.461802   19.924669
  N     19.022667   17.858277   19.461464
  C     18.919353   16.636290   18.638530
  C     18.020136   15.919899   19.683557
  C     18.363782   14.561539   19.900058
  C     17.611202   13.712728   20.719312
  C     16.468138   14.209999   21.351641
  C     16.088582   15.542927   21.145214
  O     14.958951   15.994360   21.743530
  C     16.838261   16.392645   20.311830
  H     15.245932   13.207628   16.457135
  H     14.394381   14.240718   15.294112
  H     13.789077   14.109241   16.958622
  H     15.185291   16.286417   16.306441
  H     15.589700   15.419597   17.805422
  H     17.125554   17.778886   15.023360
  H     16.981737   19.416335   15.604882
  H     15.623405   18.313217   15.807939
  H     17.282204   19.961534   17.759056
  H     19.624870   17.888249   20.272771
  H     19.724117   15.895914   18.553621
  H     19.223227   14.125480   19.395154
  H     17.910739   12.672357   20.844876
  H     15.878252   13.552945   21.983378
  H     14.638592   15.278582   22.316359
  H     16.488174   17.406880   20.163620

 Total Charge           Charge          ....    0
 Multiplicity           Mult            ....    1
 Number of Electrons    NEL             ....  154
 Basis Dimension        Dim             ....  828

ORBITAL ENERGIES
----------------

  NO   OCC          E(Eh)            E(eV)
   0   2.0000     -91.889476     -2500.4398
   1   2.0000     -20.602858      -560.6323
   2   2.0000     -20.598633      -560.5173
   3   2.0000     -20.551456      -559.2335
   4   2.0000     -15.623625      -425.1404
   5   2.0000     -15.612281      -424.8318
   6   2.0000     -11.397419      -310.1395
   7   2.0000     -11.385558      -309.8168
   8   2.0000     -11.331894      -308.3565
   9   2.0000     -11.323586      -308.1304
  10   2.0000     -11.317481      -307.9643
  11   2.0000     -11.304901      -307.6220
  12   2.0000     -11.275699      -306.8274
  13   2.0000     -11.270950      -306.6981
  14   2.0000     -11.264894      -306.5334
  15   2.0000     -11.253705      -306.2289
  16   2.0000     -11.242689      -305.9291
  17   2.0000     -11.241546      -305.8980
  18   2.0000     -11.234152      -305.6968
  19   2.0000     -11.232519      -305.6524
  20   2.0000      -8.894523      -242.0323
  21   2.0000      -6.576105      -178.9449
  22   2.0000      -6.574078      -178.8897
  23   2.0000      -6.573506      -178.8742
  24   2.0000      -1.448411       -39.4133
  25   2.0000      -1.418967       -38.6121
  26   2.0000      -1.361385       -37.0452
  27   2.0000      -1.340533       -36.4778
  28   2.0000      -1.244556       -33.8661
  29   2.0000      -1.159179       -31.5429
  30   2.0000      -1.126786       -30.6614
  31   2.0000      -1.048285       -28.5253
  32   2.0000      -1.042698       -28.3733
  33   2.0000      -1.017267       -27.6812
  34   2.0000      -1.005160       -27.3518
  35   2.0000      -0.987881       -26.8816
  36   2.0000      -0.931948       -25.3596
  37   2.0000      -0.881570       -23.9887
  38   2.0000      -0.858552       -23.3624
  39   2.0000      -0.842575       -22.9276
  40   2.0000      -0.834117       -22.6975
  41   2.0000      -0.833109       -22.6700
  42   2.0000      -0.758076       -20.6283
  43   2.0000      -0.739712       -20.1286
  44   2.0000      -0.725519       -19.7424
  45   2.0000      -0.700709       -19.0673
  46   2.0000      -0.696921       -18.9642
  47   2.0000      -0.681201       -18.5364
  48   2.0000      -0.677239       -18.4286
  49   2.0000      -0.666401       -18.1337
  50   2.0000      -0.656775       -17.8717
  51   2.0000      -0.647434       -17.6176
  52   2.0000      -0.639221       -17.3941
  53   2.0000      -0.612826       -16.6758
  54   2.0000      -0.608759       -16.5652
  55   2.0000      -0.602473       -16.3941
  56   2.0000      -0.595715       -16.2102
  57   2.0000      -0.582547       -15.8519
  58   2.0000      -0.574822       -15.6417
  59   2.0000      -0.568170       -15.4607
  60   2.0000      -0.561858       -15.2889
  61   2.0000      -0.558000       -15.1840
  62   2.0000      -0.554477       -15.0881
  63   2.0000      -0.526862       -14.3366
  64   2.0000      -0.520603       -14.1663
  65   2.0000      -0.513797       -13.9811
  66   2.0000      -0.506320       -13.7777
  67   2.0000      -0.503114       -13.6904
  68   2.0000      -0.492620       -13.4049
  69   2.0000      -0.462721       -12.5913
  70   2.0000      -0.455334       -12.3903
  71   2.0000      -0.449863       -12.2414
  72   2.0000      -0.349137        -9.5005
  73   2.0000      -0.348445        -9.4817
  74   2.0000      -0.326780        -8.8921
  75   2.0000      -0.323458        -8.8017
  76   2.0000      -0.310942        -8.4612
  77   0.0000       0.071791         1.9535
  78   0.0000       0.107832         2.9342
  79   0.0000       0.114585         3.1180
  80   0.0000       0.128034         3.4840
  81   0.0000       0.133007         3.6193

MULLIKEN ATOMIC CHARGES
-----------------------
   0 C :   -0.265558
   1 C :    0.024770
   2 O :   -0.298386
   3 C :    0.375949
   4 O :   -0.382551
   5 C :   -0.136109
   6 C :    0.094986
   7 C :   -0.317033
   8 N :   -0.129962
   9 C :    0.187519
  10 S :   -0.438397
  11 N :   -0.199759
  12 C :    0.106331
  13 C :    0.046014
  14 C :   -0.210386
  15 C :   -0.122102
  16 C :   -0.284098
  17 C :    0.326038
  18 O :   -0.360457
  19 C :   -0.298376
  20 H :    0.114412
  21 H :    0.091414
  22 H :    0.092092
  23 H :    0.087613
  24 H :    0.103955
  25 H :    0.133568
  26 H :    0.127677
  27 H :    0.121641
  28 H :    0.188081
  29 H :    0.190435
  30 H :    0.185218
  31 H :    0.143344
  32 H :    0.159695
  33 H :    0.129175
  34 H :    0.243836
  35 H :    0.169410
Sum of atomic charges:   -0.0000000

LOEWDIN ATOMIC CHARGES
----------------------
   0 C :    0.111229
   1 C :   -0.019081
   2 O :    0.309337
   3 C :   -0.425010
   4 O :    0.118804
   5 C :   -0.079957
   6 C :   -0.088931
   7 C :    0.127270
   8 N :    0.394350
   9 C :   -0.460250
  10 S :   -0.036249
  11 N :    0.400495
  12 C :    0.000166
  13 C :   -0.040292
  14 C :   -0.002465
  15 C :    0.039933
  16 C :   -0.008590
  17 C :   -0.191560
  18 O :    0.392344
  19 C :    0.024969
  20 H :   -0.019709
  21 H :   -0.028613
  22 H :   -0.025563
  23 H :   -0.039012
  24 H :   -0.030086
  25 H :   -0.005037
  26 H :   -0.008380
  27 H :   -0.022714
  28 H :   -0.063135
  29 H :   -0.063659
  30 H :    0.001435
  31 H :   -0.029663
  32 H :   -0.017905
  33 H :   -0.035022
  34 H :   -0.149987
  35 H :   -0.029461

  Mayer bond orders larger than 0.100000
B(  0-C ,  1-C ) :   0.9713 B(  0-C , 20-H ) :   0.9756 B(  0-C , 21-H ) :   0.9855
B(  0-C , 22-H ) :   0.9796 B(  1-C ,  2-O ) :   0.9132 B(  1-C , 23-H ) :   0.9676
B(  1-C , 24-H ) :   0.9640 B(  2-O ,  3-C ) :   1.1941 B(  3-C ,  4-O ) :   2.1111
B(  3-C ,  5-C ) :   0.9056 B(  5-C ,  6-C ) :   1.7175 B(  5-C , 12-C ) :   0.9671
B(  6-C ,  7-C ) :   0.9275 B(  6-C ,  8-N ) :   1.0867 B(  7-C , 25-H ) :   0.9725
B(  7-C , 26-H ) :   0.9784 B(  7-C , 27-H ) :   0.9735 B(  8-N ,  9-C ) :   1.2004
B(  8-N , 28-H ) :   0.9546 B(  9-C , 10-S ) :   1.6093 B(  9-C , 11-N ) :   1.2848
B( 11-N , 12-C ) :   1.0012 B( 11-N , 29-H ) :   0.9528 B( 12-C , 13-C ) :   0.8952
B( 12-C , 30-H ) :   0.9864 B( 13-C , 14-C ) :   1.3754 B( 13-C , 19-C ) :   1.3690
B( 14-C , 15-C ) :   1.3784 B( 14-C , 31-H ) :   0.9732 B( 15-C , 16-C ) :   1.3733
B( 15-C , 32-H ) :   0.9706 B( 16-C , 17-C ) :   1.3150 B( 16-C , 33-H ) :   0.9868
B( 17-C , 18-O ) :   1.1072 B( 17-C , 19-C ) :   1.3810 B( 18-O , 34-H ) :   0.9773
B( 19-C , 35-H ) :   0.9517

MP2 TOTAL ENERGY:    -1274.273527150 Eh
FINAL SINGLE POINT ENERGY     -1274.273527150136

DIPOLE MOMENT
-------------
                                X             Y             Z
Electronic contribution:     11.44639       9.20368       7.26371
Nuclear contribution   :    -13.18841     -10.35773      -7.52504
                        -----------------------------------------
Total Dipole Moment    :     -1.74202      -1.15405      -0.26133
                        -----------------------------------------
Magnitude (a.u.)       :      2.10589
Magnitude (Debye)      :      5.35274

Rotational constants in cm-1:     0.011360     0.009625     0.006843
Rotational constants in MHz :   340.558681   288.544595   205.138113

                             ****ORCA TERMINATED NORMALLY****
TOTAL RUN TIME: 0 days 1 hours 43 minutes 55 seconds 703 msec
