                         Program Version 4.2.0 -  RELEASE  -
|  1> ! ri-mp2 cc-pvtz cc-pvtz/c TightSCF NoKeepInts
|  2>
|  3> %scf
|  4>   MaxCore 4096
|  5> end
|  6> *xyz  0  1
|  7>     C       16.0951299   13.1268936   15.7620902
|  8>     C       15.8264843   14.6168053   15.4917119
|  9>     O       16.4718480   15.3640222   16.5345079
| 10>     C       16.3734585   16.7278870   16.5335666
| 11>     O       15.7668996   17.3250636   15.6597702
| 12>     C       17.0642929   17.3491787   17.7212564
| 13>     C       17.2318021   18.7004041   17.7176554
| 14>     C       16.4452927   19.7411717   16.9463716
| 15>     N       18.2234275   19.2858822   18.5096928
| 16>     C       19.2720278   18.6086974   19.0679925
| 17>     S       20.5065036   19.3874409   19.8458232
| 18>     N       19.2564404   17.2462344   18.9248578
| 19>     C       18.1199756   16.4606056   18.4069880
| 20>     C       17.4962043   15.6832504   19.5608192
| 21>     C       17.4178634   14.2793229   19.5046269
| 22>     C       16.8401131   13.5520348   20.5588536
| 23>     C       16.3351396   14.2341541   21.6789661
| 24>     C       16.4088489   15.6326630   21.7374938
| 25>     O       15.9184442   16.2940277   22.8160329
| 26>     C       16.9844610   16.3537276   20.6867220
| 27>     H       15.6966576   12.8347560   16.7418412
| 28>     H       17.1721267   12.9188800   15.7485464
| 29>     H       15.6152231   12.5049388   14.9966582
| 30>     H       16.2292436   14.9009005   14.5100139
| 31>     H       14.7450499   14.8098909   15.4965636
| 32>     H       15.3718926   19.5135746   16.9698685
| 33>     H       16.7555667   19.7597191   15.8937893
| 34>     H       16.5678981   20.7531034   17.3499958
| 35>     H       18.2644538   20.2890357   18.5936682
| 36>     H       20.0298449   16.7685798   19.3695738
| 37>     H       18.5513626   15.7698348   17.6691340
| 38>     H       17.8000916   13.7506359   18.6354565
| 39>     H       16.7831459   12.4663494   20.5048961
| 40>     H       15.8871729   13.6771471   22.4952053
| 41>     H       15.5886030   15.6299352   23.4395991
| 42>     H       17.0340078   17.4352576   20.7533851
| 43> *
| 44>
| 45>                          ****END OF INPUT****

CARTESIAN COORDINATES (ANGSTROEM)
---------------------------------
  C     16.095130   13.126894   15.762090
  C     15.826484   14.616805   15.491712
  O     16.471848   15.364022   16.534508
  C     16.373459   16.727887   16.533567
  O     15.766900   17.325064   15.659770
  C     17.064293   17.349179   17.721256
  C     17.231802   18.700404   17.717655
  C     16.445293   19.741172   16.946372
  N     18.223427   19.285882   18.509693
  C     19.272028   18.608697   19.067992
  S     20.506504   19.387441   19.845823
  N     19.256440   17.246234   18.924858
  C     18.119976   16.460606   18.406988
  C     17.496204   15.683250   19.560819
  C     17.417863   14.279323   19.504627
  C     16.840113   13.552035   20.558854
  C     16.335140   14.234154   21.678966
  C     16.408849   15.632663   21.737494
  O     15.918444   16.294028   22.816033
  C     16.984461   16.353728   20.686722
  H     15.696658   12.834756   16.741841
  H     17.172127   12.918880   15.748546
  H     15.615223   12.504939   14.996658
  H     16.229244   14.900901   14.510014
  H     14.745050   14.809891   15.496564
  H     15.371893   19.513575   16.969868
  H     16.755567   19.759719   15.893789
  H     16.567898   20.753103   17.349996
  H     18.264454   20.289036   18.593668
  H     20.029845   16.768580   19.369574
  H     18.551363   15.769835   17.669134
  H     17.800092   13.750636   18.635457
  H     16.783146   12.466349   20.504896
  H     15.887173   13.677147   22.495205
  H     15.588603   15.629935   23.439599
  H     17.034008   17.435258   20.753385

 Total Charge           Charge          ....    0
 Multiplicity           Mult            ....    1
 Number of Electrons    NEL             ....  154
 Basis Dimension        Dim             ....  828

ORBITAL ENERGIES
----------------

  NO   OCC          E(Eh)            E(eV)
   0   2.0000     -91.889668     -2500.4450
   1   2.0000     -20.603335      -560.6452
   2   2.0000     -20.593861      -560.3875
   3   2.0000     -20.541630      -558.9662
   4   2.0000     -15.630167      -425.3185
   5   2.0000     -15.607145      -424.6920
   6   2.0000     -11.394396      -310.0573
   7   2.0000     -11.383718      -309.7667
   8   2.0000     -11.340080      -308.5793
   9   2.0000     -11.310893      -307.7851
  10   2.0000     -11.308806      -307.7283
  11   2.0000     -11.297587      -307.4230
  12   2.0000     -11.258749      -306.3661
  13   2.0000     -11.257011      -306.3188
  14   2.0000     -11.252988      -306.2094
  15   2.0000     -11.252138      -306.1863
  16   2.0000     -11.240068      -305.8578
  17   2.0000     -11.235761      -305.7406
  18   2.0000     -11.234849      -305.7158
  19   2.0000     -11.233477      -305.6785
  20   2.0000      -8.894711      -242.0374
  21   2.0000      -6.576281      -178.9497
  22   2.0000      -6.574282      -178.8953
  23   2.0000      -6.573688      -178.8791
  24   2.0000      -1.453856       -39.5614
  25   2.0000      -1.413502       -38.4633
  26   2.0000      -1.355082       -36.8736
  27   2.0000      -1.342285       -36.5254
  28   2.0000      -1.239467       -33.7276
  29   2.0000      -1.155108       -31.4321
  30   2.0000      -1.121264       -30.5112
  31   2.0000      -1.043767       -28.4023
  32   2.0000      -1.040029       -28.3006
  33   2.0000      -1.012296       -27.5460
  34   2.0000      -0.996750       -27.1230
  35   2.0000      -0.984682       -26.7946
  36   2.0000      -0.922195       -25.0942
  37   2.0000      -0.888986       -24.1905
  38   2.0000      -0.847375       -23.0582
  39   2.0000      -0.835601       -22.7379
  40   2.0000      -0.831308       -22.6210
  41   2.0000      -0.816232       -22.2108
  42   2.0000      -0.766892       -20.8682
  43   2.0000      -0.729383       -19.8475
  44   2.0000      -0.719071       -19.5669
  45   2.0000      -0.695221       -18.9179
  46   2.0000      -0.687861       -18.7177
  47   2.0000      -0.679771       -18.4975
  48   2.0000      -0.679036       -18.4775
  49   2.0000      -0.661987       -18.0136
  50   2.0000      -0.647968       -17.6321
  51   2.0000      -0.642955       -17.4957
  52   2.0000      -0.633998       -17.2520
  53   2.0000      -0.604139       -16.4395
  54   2.0000      -0.600655       -16.3447
  55   2.0000      -0.597049       -16.2465
  56   2.0000      -0.588496       -16.0138
  57   2.0000      -0.576443       -15.6858
  58   2.0000      -0.572413       -15.5762
  59   2.0000      -0.569549       -15.4982
  60   2.0000      -0.559981       -15.2379
  61   2.0000      -0.553643       -15.0654
  62   2.0000      -0.544208       -14.8087
  63   2.0000      -0.521887       -14.2013
  64   2.0000      -0.518255       -14.1024
  65   2.0000      -0.513218       -13.9654
  66   2.0000      -0.508496       -13.8369
  67   2.0000      -0.497382       -13.5345
  68   2.0000      -0.483159       -13.1474
  69   2.0000      -0.462070       -12.5736
  70   2.0000      -0.461535       -12.5590
  71   2.0000      -0.447158       -12.1678
  72   2.0000      -0.357341        -9.7237
  73   2.0000      -0.346294        -9.4231
  74   2.0000      -0.328626        -8.9424
  75   2.0000      -0.319478        -8.6934
  76   2.0000      -0.316299        -8.6069
  77   0.0000       0.074946         2.0394
  78   0.0000       0.109056         2.9676
  79   0.0000       0.125172         3.4061
  80   0.0000       0.133106         3.6220
  81   0.0000       0.136673         3.7190

MULLIKEN ATOMIC CHARGES
-----------------------
   0 C :   -0.286095
   1 C :    0.049663
   2 O :   -0.334997
   3 C :    0.414172
   4 O :   -0.431172
   5 C :   -0.168197
   6 C :    0.153150
   7 C :   -0.266320
   8 N :   -0.124584
   9 C :    0.194451
  10 S :   -0.436747
  11 N :   -0.202306
  12 C :    0.025266
  13 C :    0.076997
  14 C :   -0.182173
  15 C :   -0.135122
  16 C :   -0.279467
  17 C :    0.311148
  18 O :   -0.356723
  19 C :   -0.257472
  20 H :    0.101566
  21 H :    0.093834
  22 H :    0.105522
  23 H :    0.093057
  24 H :    0.092608
  25 H :    0.131845
  26 H :    0.132243
  27 H :    0.094634
  28 H :    0.200919
  29 H :    0.193292
  30 H :    0.157935
  31 H :    0.150944
  32 H :    0.157926
  33 H :    0.128338
  34 H :    0.240177
  35 H :    0.161688
Sum of atomic charges:   -0.0000000

LOEWDIN ATOMIC CHARGES
----------------------
   0 C :    0.106214
   1 C :   -0.018841
   2 O :    0.306460
   3 C :   -0.414395
   4 O :    0.093983
   5 C :   -0.094912
   6 C :   -0.049078
   7 C :    0.130978
   8 N :    0.408296
   9 C :   -0.462021
  10 S :   -0.033270
  11 N :    0.396347
  12 C :   -0.051524
  13 C :   -0.039297
  14 C :    0.012920
  15 C :    0.039448
  16 C :   -0.001849
  17 C :   -0.189605
  18 O :    0.395083
  19 C :    0.032517
  20 H :   -0.026466
  21 H :   -0.029409
  22 H :   -0.023258
  23 H :   -0.029374
  24 H :   -0.027696
  25 H :   -0.003997
  26 H :   -0.004458
  27 H :   -0.022897
  28 H :   -0.057033
  29 H :   -0.064203
  30 H :   -0.011655
  31 H :   -0.030796
  32 H :   -0.021983
  33 H :   -0.036016
  34 H :   -0.154367
  35 H :   -0.023844

  Mayer bond orders larger than 0.100000
B(  0-C ,  1-C ) :   0.9699 B(  0-C , 20-H ) :   0.9752 B(  0-C , 21-H ) :   0.9772
B(  0-C , 22-H ) :   0.9800 B(  1-C ,  2-O ) :   0.9106 B(  1-C , 23-H ) :   0.9787
B(  1-C , 24-H ) :   0.9765 B(  2-O ,  3-C ) :   1.1703 B(  3-C ,  4-O ) :   1.9748
B(  3-C ,  5-C ) :   1.0702 B(  5-C ,  6-C ) :   1.6347 B(  5-C , 12-C ) :   0.9678
B(  6-C ,  7-C ) :   0.9701 B(  6-C ,  8-N ) :   1.1329 B(  7-C , 25-H ) :   0.9641
B(  7-C , 26-H ) :   0.9549 B(  7-C , 27-H ) :   0.9884 B(  8-N ,  9-C ) :   1.1845
B(  8-N , 28-H ) :   0.9473 B(  9-C , 10-S ) :   1.6173 B(  9-C , 11-N ) :   1.3027
B( 11-N , 12-C ) :   0.9785 B( 11-N , 29-H ) :   0.9526 B( 12-C , 13-C ) :   0.9536
B( 12-C , 30-H ) :   0.9992 B( 13-C , 14-C ) :   1.3653 B( 13-C , 19-C ) :   1.3746
B( 14-C , 15-C ) :   1.3898 B( 14-C , 31-H ) :   0.9690 B( 15-C , 16-C ) :   1.3685
B( 15-C , 32-H ) :   0.9714 B( 16-C , 17-C ) :   1.3288 B( 16-C , 33-H ) :   0.9857
B( 17-C , 18-O ) :   1.1082 B( 17-C , 19-C ) :   1.3731 B( 18-O , 34-H ) :   0.9803
B( 19-C , 35-H ) :   0.9591

MP2 TOTAL ENERGY:    -1274.344583974 Eh
FINAL SINGLE POINT ENERGY     -1274.344583974158

DIPOLE MOMENT
-------------
                                X             Y             Z
Electronic contribution:      8.27671      10.82716       9.25807
Nuclear contribution   :     -9.48292     -12.34316      -9.69575
                        -----------------------------------------
Total Dipole Moment    :     -1.20621      -1.51600      -0.43768
                        -----------------------------------------
Magnitude (a.u.)       :      1.98614
Magnitude (Debye)      :      5.04838

Rotational constants in cm-1:     0.010312     0.009084     0.005876
Rotational constants in MHz :   309.147672   272.319295   176.172595

                             ****ORCA TERMINATED NORMALLY****
TOTAL RUN TIME: 0 days 2 hours 39 minutes 40 seconds 663 msec
