                         Program Version 4.2.0 -  RELEASE  -
|  1> ! ri-mp2 cc-pvtz cc-pvtz/c TightSCF  NoKeepInts
|  2>
|  3> %scf
|  4>   MaxCore 4096
|  5> end
|  6> *xyz  0  1
|  7>     C       15.7181292   13.8471416   14.9207735
|  8>     C       15.0183098   15.0012970   15.6673901
|  9>     O       15.8350811   15.8247141   16.5333381
| 10>     C       17.1981423   15.8030118   16.6823266
| 11>     O       17.9118666   14.8461167   16.4366837
| 12>     C       17.5988822   16.8279451   17.6837707
| 13>     C       17.1766865   18.1172228   17.5854930
| 14>     C       16.3801787   18.7015610   16.4256460
| 15>     N       17.8491546   19.1165184   18.2984642
| 16>     C       18.8984781   18.9092756   19.1574526
| 17>     S       19.6673989   20.1846361   19.8806578
| 18>     N       19.2700422   17.6001610   19.3811993
| 19>     C       18.7374074   16.4389805   18.6243520
| 20>     C       17.9606583   15.9076056   19.8789929
| 21>     C       18.1343488   14.5203281   20.1396924
| 22>     C       17.4393130   13.8410795   21.1485902
| 23>     C       16.5262821   14.5413236   21.9400794
| 24>     C       16.3126038   15.9053258   21.7008954
| 25>     O       15.3995380   16.5553087   22.4648603
| 26>     C       17.0050196   16.5858027   20.6790612
| 27>     H       16.4221895   14.2681846   14.1876922
| 28>     H       14.9793736   13.2689630   14.3537203
| 29>     H       16.2613648   13.1640892   15.5810918
| 30>     H       14.3529408   15.5884520   15.0223801
| 31>     H       14.3629186   14.4797291   16.3781341
| 32>     H       15.3080158   18.5104647   16.5375968
| 33>     H       16.7017020   18.2688190   15.4675031
| 34>     H       16.5163524   19.7868502   16.3189008
| 35>     H       17.6467203   20.0851304   18.1002427
| 36>     H       20.0290161   17.4809571   20.0383812
| 37>     H       19.2926684   15.5161897   18.4392112
| 38>     H       18.8001387   13.9201579   19.5242923
| 39>     H       17.5998582   12.7730774   21.2970294
| 40>     H       15.9802704   14.0166852   22.7190325
| 41>     H       15.0767883   15.9168568   23.1217868
| 42>     H       16.7791584   17.6320319   20.5172794
| 43> *
| 44>
| 45>                          ****END OF INPUT****

CARTESIAN COORDINATES (ANGSTROEM)
---------------------------------
  C     15.718129   13.847142   14.920773
  C     15.018310   15.001297   15.667390
  O     15.835081   15.824714   16.533338
  C     17.198142   15.803012   16.682327
  O     17.911867   14.846117   16.436684
  C     17.598882   16.827945   17.683771
  C     17.176686   18.117223   17.585493
  C     16.380179   18.701561   16.425646
  N     17.849155   19.116518   18.298464
  C     18.898478   18.909276   19.157453
  S     19.667399   20.184636   19.880658
  N     19.270042   17.600161   19.381199
  C     18.737407   16.438980   18.624352
  C     17.960658   15.907606   19.878993
  C     18.134349   14.520328   20.139692
  C     17.439313   13.841079   21.148590
  C     16.526282   14.541324   21.940079
  C     16.312604   15.905326   21.700895
  O     15.399538   16.555309   22.464860
  C     17.005020   16.585803   20.679061
  H     16.422190   14.268185   14.187692
  H     14.979374   13.268963   14.353720
  H     16.261365   13.164089   15.581092
  H     14.352941   15.588452   15.022380
  H     14.362919   14.479729   16.378134
  H     15.308016   18.510465   16.537597
  H     16.701702   18.268819   15.467503
  H     16.516352   19.786850   16.318901
  H     17.646720   20.085130   18.100243
  H     20.029016   17.480957   20.038381
  H     19.292668   15.516190   18.439211
  H     18.800139   13.920158   19.524292
  H     17.599858   12.773077   21.297029
  H     15.980270   14.016685   22.719032
  H     15.076788   15.916857   23.121787
  H     16.779158   17.632032   20.517279

 Total Charge           Charge          ....    0
 Multiplicity           Mult            ....    1
 Number of Electrons    NEL             ....  154
 Basis Dimension        Dim             ....  828

ORBITAL ENERGIES
----------------

  NO   OCC          E(Eh)            E(eV)
   0   2.0000     -91.888568     -2500.4150
   1   2.0000     -20.603753      -560.6566
   2   2.0000     -20.589648      -560.2728
   3   2.0000     -20.548940      -559.1651
   4   2.0000     -15.626434      -425.2169
   5   2.0000     -15.609560      -424.7577
   6   2.0000     -11.399506      -310.1963
   7   2.0000     -11.383905      -309.7718
   8   2.0000     -11.332440      -308.3714
   9   2.0000     -11.314418      -307.8810
  10   2.0000     -11.308136      -307.7100
  11   2.0000     -11.304533      -307.6120
  12   2.0000     -11.263613      -306.4985
  13   2.0000     -11.262845      -306.4776
  14   2.0000     -11.256254      -306.2982
  15   2.0000     -11.244594      -305.9810
  16   2.0000     -11.233125      -305.6689
  17   2.0000     -11.232058      -305.6398
  18   2.0000     -11.227488      -305.5155
  19   2.0000     -11.225601      -305.4641
  20   2.0000      -8.893522      -242.0050
  21   2.0000      -6.575083      -178.9171
  22   2.0000      -6.573092      -178.8629
  23   2.0000      -6.572502      -178.8469
  24   2.0000      -1.448868       -39.4257
  25   2.0000      -1.409603       -38.3572
  26   2.0000      -1.360846       -37.0305
  27   2.0000      -1.337768       -36.4025
  28   2.0000      -1.239298       -33.7230
  29   2.0000      -1.149145       -31.2698
  30   2.0000      -1.120281       -30.4844
  31   2.0000      -1.043473       -28.3944
  32   2.0000      -1.035195       -28.1691
  33   2.0000      -1.006614       -27.3914
  34   2.0000      -0.995561       -27.0906
  35   2.0000      -0.981954       -26.7203
  36   2.0000      -0.923947       -25.1419
  37   2.0000      -0.900701       -24.5093
  38   2.0000      -0.848374       -23.0854
  39   2.0000      -0.832147       -22.6439
  40   2.0000      -0.824559       -22.4374
  41   2.0000      -0.816536       -22.2191
  42   2.0000      -0.741500       -20.1772
  43   2.0000      -0.728300       -19.8181
  44   2.0000      -0.716534       -19.4979
  45   2.0000      -0.694878       -18.9086
  46   2.0000      -0.688190       -18.7266
  47   2.0000      -0.679675       -18.4949
  48   2.0000      -0.676082       -18.3971
  49   2.0000      -0.668586       -18.1931
  50   2.0000      -0.652005       -17.7420
  51   2.0000      -0.641778       -17.4637
  52   2.0000      -0.633156       -17.2290
  53   2.0000      -0.604381       -16.4460
  54   2.0000      -0.597030       -16.2460
  55   2.0000      -0.595953       -16.2167
  56   2.0000      -0.591823       -16.1043
  57   2.0000      -0.587433       -15.9849
  58   2.0000      -0.571740       -15.5578
  59   2.0000      -0.567504       -15.4426
  60   2.0000      -0.553001       -15.0479
  61   2.0000      -0.546808       -14.8794
  62   2.0000      -0.543001       -14.7758
  63   2.0000      -0.524551       -14.2737
  64   2.0000      -0.512220       -13.9382
  65   2.0000      -0.509120       -13.8539
  66   2.0000      -0.500841       -13.6286
  67   2.0000      -0.496786       -13.5182
  68   2.0000      -0.483903       -13.1677
  69   2.0000      -0.458420       -12.4742
  70   2.0000      -0.449483       -12.2311
  71   2.0000      -0.447308       -12.1719
  72   2.0000      -0.343131        -9.3371
  73   2.0000      -0.342087        -9.3087
  74   2.0000      -0.324144        -8.8204
  75   2.0000      -0.313877        -8.5410
  76   2.0000      -0.306846        -8.3497
  77   0.0000       0.068981         1.8771
  78   0.0000       0.114042         3.1032
  79   0.0000       0.120110         3.2684
  80   0.0000       0.136927         3.7260
  81   0.0000       0.138353         3.7648

MULLIKEN ATOMIC CHARGES
-----------------------
   0 C :   -0.291684
   1 C :    0.041527
   2 O :   -0.341176
   3 C :    0.405415
   4 O :   -0.419073
   5 C :   -0.086881
   6 C :    0.106396
   7 C :   -0.299465
   8 N :   -0.121225
   9 C :    0.191883
  10 S :   -0.435678
  11 N :   -0.200843
  12 C :    0.074952
  13 C :    0.033212
  14 C :   -0.213231
  15 C :   -0.121162
  16 C :   -0.282337
  17 C :    0.312317
  18 O :   -0.360388
  19 C :   -0.246553
  20 H :    0.092860
  21 H :    0.099962
  22 H :    0.125585
  23 H :    0.095760
  24 H :    0.090946
  25 H :    0.133254
  26 H :    0.117621
  27 H :    0.107961
  28 H :    0.194977
  29 H :    0.188839
  30 H :    0.188518
  31 H :    0.136142
  32 H :    0.155454
  33 H :    0.124101
  34 H :    0.242690
  35 H :    0.159327
Sum of atomic charges:    0.0000000

LOEWDIN ATOMIC CHARGES
----------------------
   0 C :    0.102761
   1 C :   -0.017232
   2 O :    0.306136
   3 C :   -0.419694
   4 O :    0.111583
   5 C :   -0.091559
   6 C :   -0.067316
   7 C :    0.126385
   8 N :    0.399318
   9 C :   -0.454833
  10 S :   -0.034984
  11 N :    0.397067
  12 C :    0.007318
  13 C :   -0.033644
  14 C :   -0.004920
  15 C :    0.035597
  16 C :   -0.011389
  17 C :   -0.187633
  18 O :    0.389818
  19 C :    0.025204
  20 H :   -0.028394
  21 H :   -0.026033
  22 H :   -0.023017
  23 H :   -0.030277
  24 H :   -0.025582
  25 H :   -0.013855
  26 H :   -0.009356
  27 H :   -0.017685
  28 H :   -0.059463
  29 H :   -0.065288
  30 H :   -0.008076
  31 H :   -0.032462
  32 H :   -0.019793
  33 H :   -0.036146
  34 H :   -0.151120
  35 H :   -0.031436

  Mayer bond orders larger than 0.100000
B(  0-C ,  1-C ) :   0.9803 B(  0-C , 20-H ) :   0.9765 B(  0-C , 21-H ) :   0.9725
B(  0-C , 22-H ) :   0.9699 B(  1-C ,  2-O ) :   0.9099 B(  1-C , 23-H ) :   0.9768
B(  1-C , 24-H ) :   0.9809 B(  2-O ,  3-C ) :   1.1540 B(  3-C ,  4-O ) :   1.9977
B(  3-C ,  5-C ) :   0.9979 B(  5-C ,  6-C ) :   1.6989 B(  5-C , 12-C ) :   0.9808
B(  6-C ,  7-C ) :   0.9314 B(  6-C ,  8-N ) :   1.1178 B(  7-C , 25-H ) :   0.9697
B(  7-C , 26-H ) :   0.9714 B(  7-C , 27-H ) :   0.9910 B(  8-N ,  9-C ) :   1.1842
B(  8-N , 28-H ) :   0.9489 B(  9-C , 10-S ) :   1.6133 B(  9-C , 11-N ) :   1.2925
B( 11-N , 12-C ) :   0.9938 B( 11-N , 29-H ) :   0.9532 B( 12-C , 13-C ) :   0.8990
B( 12-C , 30-H ) :   0.9795 B( 13-C , 14-C ) :   1.3839 B( 13-C , 19-C ) :   1.3820
B( 14-C , 15-C ) :   1.3737 B( 14-C , 31-H ) :   0.9740 B( 15-C , 16-C ) :   1.3725
B( 15-C , 32-H ) :   0.9721 B( 16-C , 17-C ) :   1.3146 B( 16-C , 33-H ) :   0.9887
B( 17-C , 18-O ) :   1.1036 B( 17-C , 19-C ) :   1.3952 B( 18-O , 34-H ) :   0.9784
B( 19-C , 35-H ) :   0.9514

MP2 TOTAL ENERGY:    -1274.271947556 Eh
FINAL SINGLE POINT ENERGY     -1274.271947556218

DIPOLE MOMENT
-------------
                                X             Y             Z
Electronic contribution:     10.04163      10.35301      11.15660
Nuclear contribution   :    -11.72904     -11.52701     -12.18962
                        -----------------------------------------
Total Dipole Moment    :     -1.68741      -1.17400      -1.03303
                        -----------------------------------------
Magnitude (a.u.)       :      2.30060
Magnitude (Debye)      :      5.84765

Rotational constants in cm-1:     0.011085     0.008790     0.006032
Rotational constants in MHz :   332.319534   263.530728   180.823261

                             ****ORCA TERMINATED NORMALLY****
TOTAL RUN TIME: 0 days 1 hours 32 minutes 29 seconds 576 msec
