                         Program Version 4.2.0 -  RELEASE  -
|  1> ! ri-mp2 cc-pvtz cc-pvtz/c TightSCF  NoKeepInts
|  2>
|  3> %scf
|  4>   MaxCore 4096
|  5> end
|  6> *xyz  0  1
|  7>     C       15.2364710   13.9444346   14.8768157
|  8>     C       16.3634721   13.7578471   15.9078843
|  9>     O       16.5504247   14.9740605   16.6511681
| 10>     C       17.8232819   15.3057505   17.0220237
| 11>     O       18.7717326   14.5468404   16.8812176
| 12>     C       17.9498831   16.5773082   17.7896552
| 13>     C       17.2701273   17.7235570   17.5128797
| 14>     C       16.1338324   17.9014745   16.5277442
| 15>     N       17.7407291   18.9371274   18.0520296
| 16>     C       18.8277320   19.0677253   18.8980369
| 17>     S       19.3975867   20.5490720   19.3661980
| 18>     N       19.3336718   17.9026178   19.4400767
| 19>     C       19.0414780   16.5841632   18.8546332
| 20>     C       18.0203678   16.2830887   20.0326039
| 21>     C       17.9333101   14.9221919   20.4169367
| 22>     C       16.9126260   14.4521720   21.2707619
| 23>     C       15.9343039   15.3348115   21.7446068
| 24>     C       16.0111926   16.6871595   21.4122949
| 25>     O       15.0421179   17.5554407   21.8028756
| 26>     C       17.0408564   17.1570995   20.5871960
| 27>     H       15.3646589   14.8710222   14.3052004
| 28>     H       14.2694197   13.9750459   15.3960228
| 29>     H       15.2103259   13.0980557   14.1782773
| 30>     H       16.1981077   12.8986496   16.5722018
| 31>     H       17.2677563   13.5671902   15.3107722
| 32>     H       16.1554234   17.1514964   15.7303458
| 33>     H       16.1539386   18.8791859   16.0360692
| 34>     H       15.1738350   17.8010266   17.0528062
| 35>     H       17.3072852   19.8028616   17.7719134
| 36>     H       20.0942365   18.0189203   20.1032541
| 37>     H       19.7274040   15.7269853   18.9747181
| 38>     H       18.6227859   14.1883092   20.0036778
| 39>     H       16.8602583   13.3927032   21.5177512
| 40>     H       15.1271530   14.9698646   22.3704746
| 41>     H       14.2818057   17.0359092   22.1018462
| 42>     H       16.9974080   18.2108285   20.3610269
| 43> *
| 44>
| 45>                          ****END OF INPUT****

CARTESIAN COORDINATES (ANGSTROEM)
---------------------------------
  C     15.236471   13.944435   14.876816
  C     16.363472   13.757847   15.907884
  O     16.550425   14.974061   16.651168
  C     17.823282   15.305751   17.022024
  O     18.771733   14.546840   16.881218
  C     17.949883   16.577308   17.789655
  C     17.270127   17.723557   17.512880
  C     16.133832   17.901474   16.527744
  N     17.740729   18.937127   18.052030
  C     18.827732   19.067725   18.898037
  S     19.397587   20.549072   19.366198
  N     19.333672   17.902618   19.440077
  C     19.041478   16.584163   18.854633
  C     18.020368   16.283089   20.032604
  C     17.933310   14.922192   20.416937
  C     16.912626   14.452172   21.270762
  C     15.934304   15.334811   21.744607
  C     16.011193   16.687159   21.412295
  O     15.042118   17.555441   21.802876
  C     17.040856   17.157099   20.587196
  H     15.364659   14.871022   14.305200
  H     14.269420   13.975046   15.396023
  H     15.210326   13.098056   14.178277
  H     16.198108   12.898650   16.572202
  H     17.267756   13.567190   15.310772
  H     16.155423   17.151496   15.730346
  H     16.153939   18.879186   16.036069
  H     15.173835   17.801027   17.052806
  H     17.307285   19.802862   17.771913
  H     20.094236   18.018920   20.103254
  H     19.727404   15.726985   18.974718
  H     18.622786   14.188309   20.003678
  H     16.860258   13.392703   21.517751
  H     15.127153   14.969865   22.370475
  H     14.281806   17.035909   22.101846
  H     16.997408   18.210829   20.361027

 Total Charge           Charge          ....    0
 Multiplicity           Mult            ....    1
 Number of Electrons    NEL             ....  154
 Basis Dimension        Dim             ....  828

ORBITAL ENERGIES
----------------

  NO   OCC          E(Eh)            E(eV)
   0   2.0000     -91.891780     -2500.5025
   1   2.0000     -20.609663      -560.8174
   2   2.0000     -20.590896      -560.3068
   3   2.0000     -20.547909      -559.1370
   4   2.0000     -15.627457      -425.2447
   5   2.0000     -15.609475      -424.7554
   6   2.0000     -11.399630      -310.1997
   7   2.0000     -11.386343      -309.8381
   8   2.0000     -11.332660      -308.3773
   9   2.0000     -11.316403      -307.9350
  10   2.0000     -11.305379      -307.6350
  11   2.0000     -11.298683      -307.4528
  12   2.0000     -11.269638      -306.6624
  13   2.0000     -11.259284      -306.3807
  14   2.0000     -11.259033      -306.3739
  15   2.0000     -11.246889      -306.0434
  16   2.0000     -11.237036      -305.7753
  17   2.0000     -11.231776      -305.6322
  18   2.0000     -11.229020      -305.5572
  19   2.0000     -11.226144      -305.4789
  20   2.0000      -8.896631      -242.0896
  21   2.0000      -6.578159      -179.0008
  22   2.0000      -6.576221      -178.9481
  23   2.0000      -6.575594      -178.9310
  24   2.0000      -1.457480       -39.6601
  25   2.0000      -1.410113       -38.3711
  26   2.0000      -1.359615       -36.9970
  27   2.0000      -1.336586       -36.3704
  28   2.0000      -1.240025       -33.7428
  29   2.0000      -1.151739       -31.3404
  30   2.0000      -1.119912       -30.4743
  31   2.0000      -1.044790       -28.4302
  32   2.0000      -1.035838       -28.1866
  33   2.0000      -1.006968       -27.4010
  34   2.0000      -0.995666       -27.0934
  35   2.0000      -0.985471       -26.8160
  36   2.0000      -0.921100       -25.0644
  37   2.0000      -0.892562       -24.2878
  38   2.0000      -0.846058       -23.0224
  39   2.0000      -0.833495       -22.6805
  40   2.0000      -0.824342       -22.4315
  41   2.0000      -0.817288       -22.2395
  42   2.0000      -0.764541       -20.8042
  43   2.0000      -0.734807       -19.9951
  44   2.0000      -0.718450       -19.5500
  45   2.0000      -0.694902       -18.9092
  46   2.0000      -0.688753       -18.7419
  47   2.0000      -0.684336       -18.6217
  48   2.0000      -0.678992       -18.4763
  49   2.0000      -0.663678       -18.0596
  50   2.0000      -0.655250       -17.8303
  51   2.0000      -0.642815       -17.4919
  52   2.0000      -0.631850       -17.1935
  53   2.0000      -0.602618       -16.3981
  54   2.0000      -0.600673       -16.3451
  55   2.0000      -0.595055       -16.1923
  56   2.0000      -0.592909       -16.1339
  57   2.0000      -0.581552       -15.8248
  58   2.0000      -0.569761       -15.5040
  59   2.0000      -0.565653       -15.3922
  60   2.0000      -0.558823       -15.2064
  61   2.0000      -0.553369       -15.0579
  62   2.0000      -0.542197       -14.7539
  63   2.0000      -0.530700       -14.4411
  64   2.0000      -0.512805       -13.9541
  65   2.0000      -0.507567       -13.8116
  66   2.0000      -0.498769       -13.5722
  67   2.0000      -0.492686       -13.4067
  68   2.0000      -0.485270       -13.2049
  69   2.0000      -0.466804       -12.7024
  70   2.0000      -0.461236       -12.5509
  71   2.0000      -0.449858       -12.2413
  72   2.0000      -0.347236        -9.4488
  73   2.0000      -0.337241        -9.1768
  74   2.0000      -0.323104        -8.7921
  75   2.0000      -0.317635        -8.6433
  76   2.0000      -0.303233        -8.2514
  77   0.0000       0.070919         1.9298
  78   0.0000       0.121219         3.2985
  79   0.0000       0.123796         3.3687
  80   0.0000       0.131353         3.5743
  81   0.0000       0.137732         3.7479

MULLIKEN ATOMIC CHARGES
-----------------------
   0 C :   -0.271081
   1 C :    0.041261
   2 O :   -0.341155
   3 C :    0.435690
   4 O :   -0.433363
   5 C :   -0.082919
   6 C :    0.100163
   7 C :   -0.280898
   8 N :   -0.142997
   9 C :    0.191847
  10 S :   -0.416598
  11 N :   -0.211731
  12 C :    0.067795
  13 C :    0.072542
  14 C :   -0.242469
  15 C :   -0.129687
  16 C :   -0.278806
  17 C :    0.293401
  18 O :   -0.359631
  19 C :   -0.268370
  20 H :    0.095029
  21 H :    0.093512
  22 H :    0.102472
  23 H :    0.099179
  24 H :    0.097347
  25 H :    0.119636
  26 H :    0.104515
  27 H :    0.125255
  28 H :    0.197034
  29 H :    0.192278
  30 H :    0.186893
  31 H :    0.149952
  32 H :    0.156050
  33 H :    0.130500
  34 H :    0.240232
  35 H :    0.167126
Sum of atomic charges:    0.0000000

LOEWDIN ATOMIC CHARGES
----------------------
   0 C :    0.106364
   1 C :   -0.017218
   2 O :    0.306797
   3 C :   -0.411541
   4 O :    0.095031
   5 C :   -0.095291
   6 C :   -0.063987
   7 C :    0.127804
   8 N :    0.400243
   9 C :   -0.449397
  10 S :   -0.025373
  11 N :    0.393969
  12 C :    0.010651
  13 C :   -0.037347
  14 C :   -0.003646
  15 C :    0.039193
  16 C :   -0.011766
  17 C :   -0.194992
  18 O :    0.393720
  19 C :    0.022528
  20 H :   -0.028481
  21 H :   -0.029518
  22 H :   -0.021474
  23 H :   -0.028077
  24 H :   -0.028683
  25 H :   -0.015295
  26 H :   -0.019900
  27 H :   -0.008478
  28 H :   -0.061687
  29 H :   -0.061102
  30 H :    0.000878
  31 H :   -0.032585
  32 H :   -0.022178
  33 H :   -0.036816
  34 H :   -0.156524
  35 H :   -0.035822

  Mayer bond orders larger than 0.100000
B(  0-C ,  1-C ) :   0.9650 B(  0-C , 20-H ) :   0.9772 B(  0-C , 21-H ) :   0.9803
B(  0-C , 22-H ) :   0.9781 B(  1-C ,  2-O ) :   0.8953 B(  1-C , 23-H ) :   0.9807
B(  1-C , 24-H ) :   0.9789 B(  2-O ,  3-C ) :   1.1849 B(  3-C ,  4-O ) :   1.9660
B(  3-C ,  5-C ) :   0.9917 B(  5-C ,  6-C ) :   1.6456 B(  5-C , 12-C ) :   0.9963
B(  6-C ,  7-C ) :   0.9596 B(  6-C ,  8-N ) :   1.1349 B(  7-C , 25-H ) :   0.9706
B(  7-C , 26-H ) :   0.9831 B(  7-C , 27-H ) :   0.9632 B(  8-N ,  9-C ) :   1.1628
B(  8-N , 28-H ) :   0.9497 B(  9-C , 10-S ) :   1.6395 B(  9-C , 11-N ) :   1.2752
B( 11-N , 12-C ) :   0.9773 B( 11-N , 29-H ) :   0.9520 B( 12-C , 13-C ) :   0.8805
B( 12-C , 30-H ) :   0.9847 B( 13-C , 14-C ) :   1.3893 B( 13-C , 19-C ) :   1.3479
B( 14-C , 15-C ) :   1.3756 B( 14-C , 31-H ) :   0.9710 B( 15-C , 16-C ) :   1.3826
B( 15-C , 32-H ) :   0.9722 B( 16-C , 17-C ) :   1.3232 B( 16-C , 33-H ) :   0.9829
B( 17-C , 18-O ) :   1.1160 B( 17-C , 19-C ) :   1.3847 B( 18-O , 34-H ) :   0.9795
B( 19-C , 35-H ) :   0.9480

MP2 TOTAL ENERGY:    -1274.281445019 Eh
FINAL SINGLE POINT ENERGY     -1274.281445019065

DIPOLE MOMENT
-------------
                                X             Y             Z
Electronic contribution:     11.75012      11.94820      10.46017
Nuclear contribution   :    -13.62228     -13.53418     -11.33315
                        -----------------------------------------
Total Dipole Moment    :     -1.87216      -1.58598      -0.87297
                        -----------------------------------------
Magnitude (a.u.)       :      2.60431
Magnitude (Debye)      :      6.61962

Rotational constants in cm-1:     0.012241     0.008408     0.006408
Rotational constants in MHz :   366.964198   252.057036   192.092036

                             ****ORCA TERMINATED NORMALLY****
TOTAL RUN TIME: 0 days 1 hours 36 minutes 27 seconds 77 msec
