                         Program Version 4.2.0 -  RELEASE  -
|  1> ! ri-mp2 cc-pvtz cc-pvtz/c TightSCF  NoKeepInts
|  2>
|  3> %scf
|  4>   MaxCore 4096
|  5> end
|  6> *xyz  0  1
|  7>     C       16.0344477   12.9642252   16.1850069
|  8>     C       15.7312469   14.4164945   15.7739827
|  9>     O       16.1799698   15.2599810   16.8374801
| 10>     C       16.0352981   16.6141818   16.7419373
| 11>     O       15.1829117   17.1219650   16.0354491
| 12>     C       17.0281628   17.3380191   17.6030728
| 13>     C       16.9615482   18.6852912   17.7872435
| 14>     C       15.9878558   19.6339036   17.1096926
| 15>     N       18.0429294   19.3757833   18.3444147
| 16>     C       19.2016066   18.8026248   18.7968733
| 17>     S       20.4047130   19.7292433   19.4587627
| 18>     N       19.3006494   17.4317721   18.6808087
| 19>     C       18.2784599   16.5587717   18.0389805
| 20>     C       17.8565166   15.8923501   19.3909877
| 21>     C       17.9805296   14.4718909   19.4293677
| 22>     C       17.4518741   13.6854414   20.4595773
| 23>     C       16.7793407   14.3067090   21.5131035
| 24>     C       16.6344945   15.7011601   21.5106570
| 25>     O       15.9487941   16.2745518   22.5304703
| 26>     C       17.1496805   16.4911241   20.4618724
| 27>     H       17.1070348   12.7563638   16.0914355
| 28>     H       15.4892339   12.2602866   15.5447934
| 29>     H       15.7368070   12.7791988   17.2258798
| 30>     H       16.1511662   14.6772865   14.7958447
| 31>     H       14.6375990   14.5263194   15.7272254
| 32>     H       16.0291532   19.5060516   16.0173500
| 33>     H       16.2015386   20.6926659   17.2995816
| 34>     H       14.9572261   19.4311633   17.4196212
| 35>     H       18.0254387   20.3849522   18.3663561
| 36>     H       20.1270359   17.0381473   19.1121399
| 37>     H       18.4850485   15.5957894   17.5733205
| 38>     H       18.4443633   13.9287183   18.6092718
| 39>     H       17.5446469   12.5995309   20.4212681
| 40>     H       16.3614606   13.6999494   22.3116529
| 41>     H       15.7147397   15.5629692   23.1489424
| 42>     H       16.9634823   17.5571241   20.4795762
| 43> *
| 44>
| 45>                          ****END OF INPUT****

CARTESIAN COORDINATES (ANGSTROEM)
---------------------------------
  C     16.034448   12.964225   16.185007
  C     15.731247   14.416495   15.773983
  O     16.179970   15.259981   16.837480
  C     16.035298   16.614182   16.741937
  O     15.182912   17.121965   16.035449
  C     17.028163   17.338019   17.603073
  C     16.961548   18.685291   17.787243
  C     15.987856   19.633904   17.109693
  N     18.042929   19.375783   18.344415
  C     19.201607   18.802625   18.796873
  S     20.404713   19.729243   19.458763
  N     19.300649   17.431772   18.680809
  C     18.278460   16.558772   18.038981
  C     17.856517   15.892350   19.390988
  C     17.980530   14.471891   19.429368
  C     17.451874   13.685441   20.459577
  C     16.779341   14.306709   21.513103
  C     16.634494   15.701160   21.510657
  O     15.948794   16.274552   22.530470
  C     17.149680   16.491124   20.461872
  H     17.107035   12.756364   16.091435
  H     15.489234   12.260287   15.544793
  H     15.736807   12.779199   17.225880
  H     16.151166   14.677286   14.795845
  H     14.637599   14.526319   15.727225
  H     16.029153   19.506052   16.017350
  H     16.201539   20.692666   17.299582
  H     14.957226   19.431163   17.419621
  H     18.025439   20.384952   18.366356
  H     20.127036   17.038147   19.112140
  H     18.485049   15.595789   17.573321
  H     18.444363   13.928718   18.609272
  H     17.544647   12.599531   20.421268
  H     16.361461   13.699949   22.311653
  H     15.714740   15.562969   23.148942
  H     16.963482   17.557124   20.479576

 Total Charge           Charge          ....    0
 Multiplicity           Mult            ....    1
 Number of Electrons    NEL             ....  154
 Basis Dimension        Dim             ....  828

ORBITAL ENERGIES
----------------

  NO   OCC          E(Eh)            E(eV)
   0   2.0000     -91.891408     -2500.4923
   1   2.0000     -20.601694      -560.6006
   2   2.0000     -20.591676      -560.3280
   3   2.0000     -20.546190      -559.0902
   4   2.0000     -15.629996      -425.3138
   5   2.0000     -15.614506      -424.8923
   6   2.0000     -11.396762      -310.1217
   7   2.0000     -11.386894      -309.8531
   8   2.0000     -11.337942      -308.5211
   9   2.0000     -11.318317      -307.9871
  10   2.0000     -11.311052      -307.7894
  11   2.0000     -11.299110      -307.4644
  12   2.0000     -11.265523      -306.5505
  13   2.0000     -11.258766      -306.3666
  14   2.0000     -11.253290      -306.2176
  15   2.0000     -11.247832      -306.0691
  16   2.0000     -11.236002      -305.7472
  17   2.0000     -11.234923      -305.7178
  18   2.0000     -11.234171      -305.6973
  19   2.0000     -11.230503      -305.5975
  20   2.0000      -8.896282      -242.0801
  21   2.0000      -6.577827      -178.9918
  22   2.0000      -6.575849      -178.9379
  23   2.0000      -6.575252      -178.9217
  24   2.0000      -1.456587       -39.6358
  25   2.0000      -1.411772       -38.4163
  26   2.0000      -1.359058       -36.9819
  27   2.0000      -1.340494       -36.4767
  28   2.0000      -1.240885       -33.7662
  29   2.0000      -1.152064       -31.3493
  30   2.0000      -1.120570       -30.4923
  31   2.0000      -1.044934       -28.4341
  32   2.0000      -1.039009       -28.2729
  33   2.0000      -1.009062       -27.4580
  34   2.0000      -0.995492       -27.0887
  35   2.0000      -0.982877       -26.7454
  36   2.0000      -0.924351       -25.1529
  37   2.0000      -0.892136       -24.2763
  38   2.0000      -0.847741       -23.0682
  39   2.0000      -0.831065       -22.6144
  40   2.0000      -0.827927       -22.5290
  41   2.0000      -0.819522       -22.3003
  42   2.0000      -0.767671       -20.8894
  43   2.0000      -0.727158       -19.7870
  44   2.0000      -0.721489       -19.6327
  45   2.0000      -0.697135       -18.9700
  46   2.0000      -0.691136       -18.8068
  47   2.0000      -0.682822       -18.5805
  48   2.0000      -0.678643       -18.4668
  49   2.0000      -0.665295       -18.1036
  50   2.0000      -0.650419       -17.6988
  51   2.0000      -0.645163       -17.5558
  52   2.0000      -0.634203       -17.2576
  53   2.0000      -0.602813       -16.4034
  54   2.0000      -0.598904       -16.2970
  55   2.0000      -0.593403       -16.1473
  56   2.0000      -0.590059       -16.0563
  57   2.0000      -0.575301       -15.6547
  58   2.0000      -0.569446       -15.4954
  59   2.0000      -0.567546       -15.4437
  60   2.0000      -0.553400       -15.0588
  61   2.0000      -0.552481       -15.0338
  62   2.0000      -0.545356       -14.8399
  63   2.0000      -0.525072       -14.2879
  64   2.0000      -0.516788       -14.0625
  65   2.0000      -0.512667       -13.9504
  66   2.0000      -0.506873       -13.7927
  67   2.0000      -0.499435       -13.5903
  68   2.0000      -0.486430       -13.2364
  69   2.0000      -0.460496       -12.5307
  70   2.0000      -0.454995       -12.3810
  71   2.0000      -0.451259       -12.2794
  72   2.0000      -0.346190        -9.4203
  73   2.0000      -0.345487        -9.4012
  74   2.0000      -0.328817        -8.9476
  75   2.0000      -0.316149        -8.6028
  76   2.0000      -0.309594        -8.4245
  77   0.0000       0.067320         1.8319
  78   0.0000       0.111867         3.0440
  79   0.0000       0.124024         3.3749
  80   0.0000       0.131528         3.5791
  81   0.0000       0.138240         3.7617

MULLIKEN ATOMIC CHARGES
-----------------------
   0 C :   -0.285816
   1 C :    0.038591
   2 O :   -0.336351
   3 C :    0.451024
   4 O :   -0.425070
   5 C :   -0.196887
   6 C :    0.129935
   7 C :   -0.277114
   8 N :   -0.113493
   9 C :    0.203743
  10 S :   -0.432355
  11 N :   -0.204674
  12 C :    0.065059
  13 C :    0.055404
  14 C :   -0.199562
  15 C :   -0.125950
  16 C :   -0.282289
  17 C :    0.314729
  18 O :   -0.359926
  19 C :   -0.258235
  20 H :    0.088664
  21 H :    0.105692
  22 H :    0.110133
  23 H :    0.093005
  24 H :    0.099812
  25 H :    0.135578
  26 H :    0.095947
  27 H :    0.130993
  28 H :    0.198741
  29 H :    0.188075
  30 H :    0.182080
  31 H :    0.127221
  32 H :    0.155456
  33 H :    0.124973
  34 H :    0.243245
  35 H :    0.159618
Sum of atomic charges:   -0.0000000

LOEWDIN ATOMIC CHARGES
----------------------
   0 C :    0.107062
   1 C :   -0.024419
   2 O :    0.315649
   3 C :   -0.416424
   4 O :    0.103291
   5 C :   -0.097674
   6 C :   -0.055587
   7 C :    0.130572
   8 N :    0.403352
   9 C :   -0.453675
  10 S :   -0.032174
  11 N :    0.392536
  12 C :   -0.002499
  13 C :   -0.031527
  14 C :   -0.002126
  15 C :    0.032884
  16 C :   -0.010508
  17 C :   -0.185889
  18 O :    0.390078
  19 C :    0.025002
  20 H :   -0.033056
  21 H :   -0.023576
  22 H :   -0.021847
  23 H :   -0.031828
  24 H :   -0.027167
  25 H :   -0.001418
  26 H :   -0.023428
  27 H :   -0.008421
  28 H :   -0.055774
  29 H :   -0.065088
  30 H :   -0.021650
  31 H :   -0.037049
  32 H :   -0.019974
  33 H :   -0.035573
  34 H :   -0.150429
  35 H :   -0.031647

  Mayer bond orders larger than 0.100000
B(  0-C ,  1-C ) :   0.9682 B(  0-C , 20-H ) :   0.9808 B(  0-C , 21-H ) :   0.9795
B(  0-C , 22-H ) :   0.9720 B(  1-C ,  2-O ) :   0.9098 B(  1-C , 23-H ) :   0.9736
B(  1-C , 24-H ) :   0.9834 B(  2-O ,  3-C ) :   1.1758 B(  3-C ,  4-O ) :   1.9784
B(  3-C ,  5-C ) :   1.0450 B(  5-C ,  6-C ) :   1.6672 B(  5-C , 12-C ) :   0.9796
B(  6-C ,  7-C ) :   0.9683 B(  6-C ,  8-N ) :   1.1571 B(  7-C , 25-H ) :   0.9539
B(  7-C , 26-H ) :   0.9884 B(  7-C , 27-H ) :   0.9672 B(  8-N ,  9-C ) :   1.1796
B(  8-N , 28-H ) :   0.9464 B(  9-C , 10-S ) :   1.6117 B(  9-C , 11-N ) :   1.3010
B( 11-N , 12-C ) :   0.9911 B( 11-N , 29-H ) :   0.9523 B( 12-C , 13-C ) :   0.8977
B( 12-C , 30-H ) :   0.9810 B( 13-C , 14-C ) :   1.3693 B( 13-C , 19-C ) :   1.3834
B( 14-C , 15-C ) :   1.3851 B( 14-C , 31-H ) :   0.9769 B( 15-C , 16-C ) :   1.3643
B( 15-C , 32-H ) :   0.9719 B( 16-C , 17-C ) :   1.3197 B( 16-C , 33-H ) :   0.9884
B( 17-C , 18-O ) :   1.1029 B( 17-C , 19-C ) :   1.3868 B( 18-O , 34-H ) :   0.9780
B( 19-C , 35-H ) :   0.9549

MP2 TOTAL ENERGY:    -1274.296211362 Eh
FINAL SINGLE POINT ENERGY     -1274.296211361551

DIPOLE MOMENT
-------------
                                X             Y             Z
Electronic contribution:      8.42270      12.19838       7.30871
Nuclear contribution   :     -9.37586     -13.85239      -7.85233
                        -----------------------------------------
Total Dipole Moment    :     -0.95316      -1.65401      -0.54362
                        -----------------------------------------
Magnitude (a.u.)       :      1.98489
Magnitude (Debye)      :      5.04519

Rotational constants in cm-1:     0.011272     0.008786     0.006254
Rotational constants in MHz :   337.922670   263.409492   187.491368

                             ****ORCA TERMINATED NORMALLY****
TOTAL RUN TIME: 0 days 1 hours 33 minutes 58 seconds 982 msec
