                         Program Version 4.2.0 -  RELEASE  -
|  1> ! ri-mp2 cc-pvtz cc-pvtz/c TightSCF  NoKeepInts
|  2>
|  3> %scf
|  4>   MaxCore 4096
|  5> end
|  6> *xyz  0  1
|  7>     C       14.8545487   13.9968501   15.9794546
|  8>     C       15.5060502   15.1693817   15.2195843
|  9>     O       16.2157513   15.9490590   16.1689308
| 10>     C       17.4492826   15.7469815   16.6938647
| 11>     O       18.2002238   14.8223076   16.4279677
| 12>     C       17.7209456   16.8617745   17.6470811
| 13>     C       17.1495974   18.1047508   17.5237434
| 14>     C       16.3599290   18.7461840   16.3788829
| 15>     N       17.7381226   19.1018165   18.3135842
| 16>     C       18.7544246   18.9852709   19.2225606
| 17>     S       19.3059290   20.3136856   20.0414236
| 18>     N       19.2792153   17.7307303   19.4028815
| 19>     C       18.8624434   16.5517438   18.6145911
| 20>     C       18.1101445   15.9215264   19.8276347
| 21>     C       18.5051947   14.5869652   20.1228360
| 22>     C       17.8112501   13.7659620   21.0167599
| 23>     C       16.6820008   14.2674593   21.6654304
| 24>     C       16.2587318   15.5767145   21.4001892
| 25>     O       15.1357990   16.0180010   22.0185802
| 26>     C       16.9465347   16.3983680   20.4837035
| 27>     H       15.5496346   13.4417379   16.6182267
| 28>     H       14.3541111   13.3128032   15.2853939
| 29>     H       14.0679349   14.4131007   16.6293703
| 30>     H       16.2035497   14.7812018   14.4671782
| 31>     H       14.7492665   15.7955150   14.7344462
| 32>     H       15.9608503   18.0806930   15.6140470
| 33>     H       17.0107145   19.4255883   15.8128907
| 34>     H       15.5089036   19.3220779   16.7536537
| 35>     H       17.4413780   20.0526269   18.1544280
| 36>     H       19.9486654   17.6495487   20.1568084
| 37>     H       19.4978714   15.6833976   18.4226930
| 38>     H       19.3427372   14.1257348   19.6042170
| 39>     H       18.1378933   12.7383981   21.1760961
| 40>     H       16.1340615   13.6287655   22.3516558
| 41>     H       14.8476036   15.3037375   22.6110016
| 42>     H       16.5457141   17.3815441   20.2722075
| 43> *
| 44>
| 45>                          ****END OF INPUT****

CARTESIAN COORDINATES (ANGSTROEM)
---------------------------------
  C     14.854549   13.996850   15.979455
  C     15.506050   15.169382   15.219584
  O     16.215751   15.949059   16.168931
  C     17.449283   15.746981   16.693865
  O     18.200224   14.822308   16.427968
  C     17.720946   16.861774   17.647081
  C     17.149597   18.104751   17.523743
  C     16.359929   18.746184   16.378883
  N     17.738123   19.101817   18.313584
  C     18.754425   18.985271   19.222561
  S     19.305929   20.313686   20.041424
  N     19.279215   17.730730   19.402881
  C     18.862443   16.551744   18.614591
  C     18.110144   15.921526   19.827635
  C     18.505195   14.586965   20.122836
  C     17.811250   13.765962   21.016760
  C     16.682001   14.267459   21.665430
  C     16.258732   15.576714   21.400189
  O     15.135799   16.018001   22.018580
  C     16.946535   16.398368   20.483704
  H     15.549635   13.441738   16.618227
  H     14.354111   13.312803   15.285394
  H     14.067935   14.413101   16.629370
  H     16.203550   14.781202   14.467178
  H     14.749266   15.795515   14.734446
  H     15.960850   18.080693   15.614047
  H     17.010714   19.425588   15.812891
  H     15.508904   19.322078   16.753654
  H     17.441378   20.052627   18.154428
  H     19.948665   17.649549   20.156808
  H     19.497871   15.683398   18.422693
  H     19.342737   14.125735   19.604217
  H     18.137893   12.738398   21.176096
  H     16.134062   13.628766   22.351656
  H     14.847604   15.303738   22.611002
  H     16.545714   17.381544   20.272207

 Total Charge           Charge          ....    0
 Multiplicity           Mult            ....    1
 Number of Electrons    NEL             ....  154
 Basis Dimension        Dim             ....  828

ORBITAL ENERGIES
----------------

  NO   OCC          E(Eh)            E(eV)
   0   2.0000     -91.887264     -2500.3796
   1   2.0000     -20.598667      -560.5182
   2   2.0000     -20.591937      -560.3351
   3   2.0000     -20.549904      -559.1913
   4   2.0000     -15.622707      -425.1155
   5   2.0000     -15.609947      -424.7683
   6   2.0000     -11.398790      -310.1768
   7   2.0000     -11.383084      -309.7495
   8   2.0000     -11.339860      -308.5733
   9   2.0000     -11.313464      -307.8550
  10   2.0000     -11.310794      -307.7824
  11   2.0000     -11.305289      -307.6325
  12   2.0000     -11.268585      -306.6338
  13   2.0000     -11.262800      -306.4764
  14   2.0000     -11.258258      -306.3528
  15   2.0000     -11.246327      -306.0281
  16   2.0000     -11.236191      -305.7523
  17   2.0000     -11.234177      -305.6975
  18   2.0000     -11.229586      -305.5726
  19   2.0000     -11.228012      -305.5297
  20   2.0000      -8.892286      -241.9714
  21   2.0000      -6.573864      -178.8839
  22   2.0000      -6.571846      -178.8290
  23   2.0000      -6.571270      -178.8133
  24   2.0000      -1.456876       -39.6436
  25   2.0000      -1.412307       -38.4308
  26   2.0000      -1.364109       -37.1193
  27   2.0000      -1.339405       -36.4471
  28   2.0000      -1.241873       -33.7931
  29   2.0000      -1.152027       -31.3483
  30   2.0000      -1.119525       -30.4638
  31   2.0000      -1.048818       -28.5398
  32   2.0000      -1.036629       -28.2081
  33   2.0000      -1.009430       -27.4680
  34   2.0000      -0.998971       -27.1834
  35   2.0000      -0.979652       -26.6577
  36   2.0000      -0.927018       -25.2254
  37   2.0000      -0.901767       -24.5383
  38   2.0000      -0.852828       -23.2066
  39   2.0000      -0.832674       -22.6582
  40   2.0000      -0.826302       -22.4848
  41   2.0000      -0.815508       -22.1911
  42   2.0000      -0.755558       -20.5598
  43   2.0000      -0.735795       -20.0220
  44   2.0000      -0.720145       -19.5961
  45   2.0000      -0.694918       -18.9097
  46   2.0000      -0.690988       -18.8027
  47   2.0000      -0.684856       -18.6359
  48   2.0000      -0.674483       -18.3536
  49   2.0000      -0.660075       -17.9616
  50   2.0000      -0.653000       -17.7690
  51   2.0000      -0.642938       -17.4952
  52   2.0000      -0.633193       -17.2301
  53   2.0000      -0.619671       -16.8621
  54   2.0000      -0.601422       -16.3655
  55   2.0000      -0.598570       -16.2879
  56   2.0000      -0.594695       -16.1825
  57   2.0000      -0.582408       -15.8481
  58   2.0000      -0.573117       -15.5953
  59   2.0000      -0.562559       -15.3080
  60   2.0000      -0.552068       -15.0225
  61   2.0000      -0.550143       -14.9702
  62   2.0000      -0.543600       -14.7921
  63   2.0000      -0.530111       -14.4251
  64   2.0000      -0.514205       -13.9922
  65   2.0000      -0.509320       -13.8593
  66   2.0000      -0.499400       -13.5894
  67   2.0000      -0.496407       -13.5079
  68   2.0000      -0.486715       -13.2442
  69   2.0000      -0.462240       -12.5782
  70   2.0000      -0.455396       -12.3919
  71   2.0000      -0.450231       -12.2514
  72   2.0000      -0.344334        -9.3698
  73   2.0000      -0.342296        -9.3143
  74   2.0000      -0.325158        -8.8480
  75   2.0000      -0.315338        -8.5808
  76   2.0000      -0.307193        -8.3592
  77   0.0000       0.067108         1.8261
  78   0.0000       0.114791         3.1236
  79   0.0000       0.120484         3.2785
  80   0.0000       0.135519         3.6877
  81   0.0000       0.141330         3.8458

MULLIKEN ATOMIC CHARGES
-----------------------
   0 C :   -0.274578
   1 C :    0.032304
   2 O :   -0.345223
   3 C :    0.453113
   4 O :   -0.425856
   5 C :   -0.160466
   6 C :    0.122941
   7 C :   -0.311848
   8 N :   -0.121272
   9 C :    0.193950
  10 S :   -0.440933
  11 N :   -0.188022
  12 C :    0.080873
  13 C :    0.026185
  14 C :   -0.202797
  15 C :   -0.119302
  16 C :   -0.283498
  17 C :    0.314086
  18 O :   -0.360659
  19 C :   -0.253570
  20 H :    0.118092
  21 H :    0.092090
  22 H :    0.088856
  23 H :    0.097834
  24 H :    0.104939
  25 H :    0.140935
  26 H :    0.121528
  27 H :    0.119489
  28 H :    0.190931
  29 H :    0.185743
  30 H :    0.185819
  31 H :    0.132772
  32 H :    0.156507
  33 H :    0.124615
  34 H :    0.243690
  35 H :    0.160731
Sum of atomic charges:   -0.0000000

LOEWDIN ATOMIC CHARGES
----------------------
   0 C :    0.108117
   1 C :   -0.032566
   2 O :    0.342817
   3 C :   -0.426291
   4 O :    0.091244
   5 C :   -0.090640
   6 C :   -0.055113
   7 C :    0.126833
   8 N :    0.398954
   9 C :   -0.459955
  10 S :   -0.036391
  11 N :    0.397766
  12 C :    0.000245
  13 C :   -0.034863
  14 C :   -0.003220
  15 C :    0.036202
  16 C :   -0.010441
  17 C :   -0.187590
  18 O :    0.389592
  19 C :    0.025386
  20 H :   -0.022537
  21 H :   -0.028372
  22 H :   -0.025723
  23 H :   -0.030931
  24 H :   -0.025900
  25 H :   -0.021064
  26 H :   -0.009843
  27 H :   -0.018917
  28 H :   -0.059191
  29 H :   -0.062947
  30 H :   -0.007481
  31 H :   -0.031228
  32 H :   -0.018700
  33 H :   -0.035808
  34 H :   -0.150096
  35 H :   -0.031349

  Mayer bond orders larger than 0.100000
B(  0-C ,  1-C ) :   0.9664 B(  0-C , 20-H ) :   0.9762 B(  0-C , 21-H ) :   0.9765
B(  0-C , 22-H ) :   0.9784 B(  1-C ,  2-O ) :   0.8917 B(  1-C , 23-H ) :   0.9800
B(  1-C , 24-H ) :   0.9814 B(  2-O ,  3-C ) :   1.1703 B(  3-C ,  4-O ) :   2.0025
B(  3-C ,  5-C ) :   1.0200 B(  5-C ,  6-C ) :   1.6587 B(  5-C , 12-C ) :   0.9955
B(  6-C ,  7-C ) :   0.9541 B(  6-C ,  8-N ) :   1.1206 B(  7-C , 25-H ) :   0.9747
B(  7-C , 26-H ) :   0.9671 B(  7-C , 27-H ) :   0.9715 B(  8-N ,  9-C ) :   1.1870
B(  8-N , 28-H ) :   0.9545 B(  9-C , 10-S ) :   1.6022 B(  9-C , 11-N ) :   1.3079
B( 11-N , 12-C ) :   0.9901 B( 11-N , 29-H ) :   0.9553 B( 12-C , 13-C ) :   0.9003
B( 12-C , 30-H ) :   0.9773 B( 13-C , 14-C ) :   1.3735 B( 13-C , 19-C ) :   1.3798
B( 14-C , 15-C ) :   1.3773 B( 14-C , 31-H ) :   0.9759 B( 15-C , 16-C ) :   1.3690
B( 15-C , 32-H ) :   0.9718 B( 16-C , 17-C ) :   1.3131 B( 16-C , 33-H ) :   0.9892
B( 17-C , 18-O ) :   1.1026 B( 17-C , 19-C ) :   1.3956 B( 18-O , 34-H ) :   0.9776
B( 19-C , 35-H ) :   0.9530

MP2 TOTAL ENERGY:    -1274.284279492 Eh
FINAL SINGLE POINT ENERGY     -1274.284279492440

DIPOLE MOMENT
-------------
                                X             Y             Z
Electronic contribution:     11.00677       9.66774       9.55056
Nuclear contribution   :    -12.62928     -10.90031     -10.61326
                        -----------------------------------------
Total Dipole Moment    :     -1.62251      -1.23257      -1.06269
                        -----------------------------------------
Magnitude (a.u.)       :      2.29806
Magnitude (Debye)      :      5.84120

Rotational constants in cm-1:     0.010924     0.009156     0.006278
Rotational constants in MHz :   327.486619   274.492303   188.202973

                             ****ORCA TERMINATED NORMALLY****
TOTAL RUN TIME: 0 days 1 hours 36 minutes 36 seconds 141 msec
