                         Program Version 4.2.0 -  RELEASE  -
|  1> ! ri-mp2 cc-pvtz cc-pvtz/c TightSCF  NoKeepInts
|  2>
|  3> %scf
|  4>   MaxCore 4096
|  5> end
|  6> *xyz  0  1
|  7>     C       15.2121968   13.6844180   14.9615261
|  8>     C       16.4995332   13.8378571   15.7748177
|  9>     O       16.6089664   15.1511292   16.3640953
| 10>     C       17.7474117   15.3307332   17.1008893
| 11>     O       18.5711770   14.4378014   17.2385544
| 12>     C       17.9169530   16.6404789   17.8047545
| 13>     C       17.2824430   17.8156273   17.5452440
| 14>     C       16.1325349   18.0863229   16.6001162
| 15>     N       17.8075059   19.0057465   18.0889998
| 16>     C       18.8956476   19.1014464   18.9321921
| 17>     S       19.4826001   20.5621807   19.4420909
| 18>     N       19.3798979   17.9166175   19.4367100
| 19>     C       19.0244006   16.6118027   18.8555979
| 20>     C       18.0134935   16.3130445   20.0216834
| 21>     C       17.9203294   14.9388994   20.3629865
| 22>     C       16.8646655   14.4209189   21.1276485
| 23>     C       15.8607900   15.2799634   21.5899695
| 24>     C       15.9541606   16.6504194   21.3261018
| 25>     O       14.9702926   17.4820600   21.7507864
| 26>     C       17.0104184   17.1655471   20.5654576
| 27>     H       14.9950112   14.5699289   14.3512768
| 28>     H       14.3738339   13.5011758   15.6439604
| 29>     H       15.3227967   12.8135274   14.3002094
| 30>     H       16.4955738   13.0787893   16.5663660
| 31>     H       17.3723278   13.6386561   15.1405506
| 32>     H       16.2144724   17.5220502   15.6647471
| 33>     H       16.0656190   19.1488388   16.3307237
| 34>     H       15.1873984   17.8117871   17.0853187
| 35>     H       17.4000681   19.8873669   17.8240660
| 36>     H       20.1483191   17.9948415   20.0897837
| 37>     H       19.6733146   15.7367466   18.9839964
| 38>     H       18.6360930   14.2264886   19.9561143
| 39>     H       16.8102383   13.3497584   21.3204777
| 40>     H       15.0201364   14.8803885   22.1476377
| 41>     H       14.2944834   16.9318200   22.1738708
| 42>     H       16.9818971   18.2268214   20.3646763
| 43> *
| 44>
| 45>                          ****END OF INPUT****

CARTESIAN COORDINATES (ANGSTROEM)
---------------------------------
  C     15.212197   13.684418   14.961526
  C     16.499533   13.837857   15.774818
  O     16.608966   15.151129   16.364095
  C     17.747412   15.330733   17.100889
  O     18.571177   14.437801   17.238554
  C     17.916953   16.640479   17.804755
  C     17.282443   17.815627   17.545244
  C     16.132535   18.086323   16.600116
  N     17.807506   19.005747   18.089000
  C     18.895648   19.101446   18.932192
  S     19.482600   20.562181   19.442091
  N     19.379898   17.916617   19.436710
  C     19.024401   16.611803   18.855598
  C     18.013493   16.313045   20.021683
  C     17.920329   14.938899   20.362987
  C     16.864666   14.420919   21.127648
  C     15.860790   15.279963   21.589969
  C     15.954161   16.650419   21.326102
  O     14.970293   17.482060   21.750786
  C     17.010418   17.165547   20.565458
  H     14.995011   14.569929   14.351277
  H     14.373834   13.501176   15.643960
  H     15.322797   12.813527   14.300209
  H     16.495574   13.078789   16.566366
  H     17.372328   13.638656   15.140551
  H     16.214472   17.522050   15.664747
  H     16.065619   19.148839   16.330724
  H     15.187398   17.811787   17.085319
  H     17.400068   19.887367   17.824066
  H     20.148319   17.994841   20.089784
  H     19.673315   15.736747   18.983996
  H     18.636093   14.226489   19.956114
  H     16.810238   13.349758   21.320478
  H     15.020136   14.880389   22.147638
  H     14.294483   16.931820   22.173871
  H     16.981897   18.226821   20.364676

 Total Charge           Charge          ....    0
 Multiplicity           Mult            ....    1
 Number of Electrons    NEL             ....  154
 Basis Dimension        Dim             ....  828

ORBITAL ENERGIES
----------------

  NO   OCC          E(Eh)            E(eV)
   0   2.0000     -91.891399     -2500.4921
   1   2.0000     -20.611723      -560.8735
   2   2.0000     -20.590549      -560.2973
   3   2.0000     -20.546721      -559.1047
   4   2.0000     -15.628118      -425.2627
   5   2.0000     -15.609234      -424.7488
   6   2.0000     -11.399125      -310.1859
   7   2.0000     -11.385411      -309.8128
   8   2.0000     -11.336158      -308.4725
   9   2.0000     -11.311293      -307.7959
  10   2.0000     -11.305354      -307.6343
  11   2.0000     -11.296128      -307.3833
  12   2.0000     -11.270704      -306.6915
  13   2.0000     -11.260196      -306.4055
  14   2.0000     -11.256276      -306.2988
  15   2.0000     -11.244227      -305.9710
  16   2.0000     -11.235597      -305.7361
  17   2.0000     -11.230905      -305.6085
  18   2.0000     -11.228825      -305.5519
  19   2.0000     -11.221771      -305.3599
  20   2.0000      -8.896274      -242.0799
  21   2.0000      -6.577816      -178.9915
  22   2.0000      -6.575856      -178.9381
  23   2.0000      -6.575242      -178.9214
  24   2.0000      -1.458828       -39.6967
  25   2.0000      -1.410838       -38.3909
  26   2.0000      -1.358841       -36.9759
  27   2.0000      -1.338800       -36.4306
  28   2.0000      -1.240852       -33.7653
  29   2.0000      -1.153317       -31.3833
  30   2.0000      -1.118979       -30.4490
  31   2.0000      -1.044539       -28.4234
  32   2.0000      -1.036818       -28.2133
  33   2.0000      -1.007288       -27.4097
  34   2.0000      -0.995762       -27.0961
  35   2.0000      -0.984432       -26.7877
  36   2.0000      -0.921580       -25.0775
  37   2.0000      -0.889280       -24.1985
  38   2.0000      -0.847302       -23.0563
  39   2.0000      -0.832808       -22.6619
  40   2.0000      -0.822707       -22.3870
  41   2.0000      -0.817651       -22.2494
  42   2.0000      -0.765006       -20.8169
  43   2.0000      -0.736871       -20.0513
  44   2.0000      -0.717059       -19.5122
  45   2.0000      -0.696038       -18.9401
  46   2.0000      -0.688692       -18.7403
  47   2.0000      -0.683679       -18.6039
  48   2.0000      -0.679954       -18.5025
  49   2.0000      -0.662116       -18.0171
  50   2.0000      -0.654558       -17.8114
  51   2.0000      -0.642569       -17.4852
  52   2.0000      -0.632560       -17.2128
  53   2.0000      -0.601405       -16.3651
  54   2.0000      -0.597329       -16.2542
  55   2.0000      -0.593418       -16.1477
  56   2.0000      -0.591002       -16.0820
  57   2.0000      -0.586482       -15.9590
  58   2.0000      -0.570091       -15.5130
  59   2.0000      -0.567277       -15.4364
  60   2.0000      -0.557016       -15.1572
  61   2.0000      -0.554070       -15.0770
  62   2.0000      -0.542490       -14.7619
  63   2.0000      -0.521402       -14.1881
  64   2.0000      -0.511126       -13.9085
  65   2.0000      -0.509667       -13.8688
  66   2.0000      -0.506062       -13.7706
  67   2.0000      -0.497333       -13.5331
  68   2.0000      -0.484827       -13.1928
  69   2.0000      -0.464031       -12.6269
  70   2.0000      -0.462790       -12.5931
  71   2.0000      -0.449852       -12.2411
  72   2.0000      -0.347770        -9.4633
  73   2.0000      -0.335747        -9.1361
  74   2.0000      -0.324597        -8.8327
  75   2.0000      -0.316078        -8.6009
  76   2.0000      -0.301700        -8.2097
  77   0.0000       0.065947         1.7945
  78   0.0000       0.120216         3.2712
  79   0.0000       0.125414         3.4127
  80   0.0000       0.136320         3.7095
  81   0.0000       0.137275         3.7354

MULLIKEN ATOMIC CHARGES
-----------------------
   0 C :   -0.264085
   1 C :    0.054060
   2 O :   -0.336783
   3 C :    0.456815
   4 O :   -0.446396
   5 C :   -0.119285
   6 C :    0.111893
   7 C :   -0.276326
   8 N :   -0.137181
   9 C :    0.189086
  10 S :   -0.419686
  11 N :   -0.209097
  12 C :    0.067609
  13 C :    0.072735
  14 C :   -0.229955
  15 C :   -0.134067
  16 C :   -0.284022
  17 C :    0.307118
  18 O :   -0.359854
  19 C :   -0.277501
  20 H :    0.093960
  21 H :    0.095850
  22 H :    0.095728
  23 H :    0.091051
  24 H :    0.089678
  25 H :    0.126581
  26 H :    0.099127
  27 H :    0.125978
  28 H :    0.195502
  29 H :    0.191062
  30 H :    0.189643
  31 H :    0.151652
  32 H :    0.156841
  33 H :    0.125386
  34 H :    0.240828
  35 H :    0.166055
Sum of atomic charges:    0.0000000

LOEWDIN ATOMIC CHARGES
----------------------
   0 C :    0.109040
   1 C :   -0.022497
   2 O :    0.294658
   3 C :   -0.406133
   4 O :    0.101538
   5 C :   -0.097987
   6 C :   -0.056728
   7 C :    0.128975
   8 N :    0.402774
   9 C :   -0.454967
  10 S :   -0.027239
  11 N :    0.398496
  12 C :    0.007512
  13 C :   -0.037487
  14 C :   -0.000133
  15 C :    0.035344
  16 C :   -0.013024
  17 C :   -0.196256
  18 O :    0.393375
  19 C :    0.021139
  20 H :   -0.028062
  21 H :   -0.027018
  22 H :   -0.019013
  23 H :   -0.026302
  24 H :   -0.029699
  25 H :   -0.012084
  26 H :   -0.018137
  27 H :   -0.007911
  28 H :   -0.063593
  29 H :   -0.064295
  30 H :   -0.004246
  31 H :   -0.030830
  32 H :   -0.020825
  33 H :   -0.038072
  34 H :   -0.155136
  35 H :   -0.035177

  Mayer bond orders larger than 0.100000
B(  0-C ,  1-C ) :   0.9575 B(  0-C , 20-H ) :   0.9763 B(  0-C , 21-H ) :   0.9831
B(  0-C , 22-H ) :   0.9799 B(  1-C ,  2-O ) :   0.8993 B(  1-C , 23-H ) :   0.9781
B(  1-C , 24-H ) :   0.9795 B(  2-O ,  3-C ) :   1.1777 B(  3-C ,  4-O ) :   1.9187
B(  3-C ,  5-C ) :   1.0613 B(  5-C ,  6-C ) :   1.6199 B(  5-C , 12-C ) :   0.9941
B(  6-C ,  7-C ) :   0.9575 B(  6-C ,  8-N ) :   1.1422 B(  7-C , 25-H ) :   0.9660
B(  7-C , 26-H ) :   0.9884 B(  7-C , 27-H ) :   0.9635 B(  8-N ,  9-C ) :   1.1582
B(  8-N , 28-H ) :   0.9491 B(  9-C , 10-S ) :   1.6331 B(  9-C , 11-N ) :   1.2893
B( 11-N , 12-C ) :   0.9784 B( 11-N , 29-H ) :   0.9526 B( 12-C , 13-C ) :   0.8824
B( 12-C , 30-H ) :   0.9817 B( 13-C , 14-C ) :   1.3902 B( 13-C , 19-C ) :   1.3486
B( 14-C , 15-C ) :   1.3796 B( 14-C , 31-H ) :   0.9686 B( 15-C , 16-C ) :   1.3761
B( 15-C , 32-H ) :   0.9718 B( 16-C , 17-C ) :   1.3173 B( 16-C , 33-H ) :   0.9864
B( 17-C , 18-O ) :   1.1142 B( 17-C , 19-C ) :   1.3864 B( 18-O , 34-H ) :   0.9803
B( 19-C , 35-H ) :   0.9497

MP2 TOTAL ENERGY:    -1274.286434473 Eh
FINAL SINGLE POINT ENERGY     -1274.286434472538

DIPOLE MOMENT
-------------
                                X             Y             Z
Electronic contribution:     11.67392      12.42046      10.19018
Nuclear contribution   :    -13.41228     -13.95980     -11.18356
                        -----------------------------------------
Total Dipole Moment    :     -1.73836      -1.53934      -0.99337
                        -----------------------------------------
Magnitude (a.u.)       :      2.52552
Magnitude (Debye)      :      6.41935

Rotational constants in cm-1:     0.012487     0.008273     0.006380
Rotational constants in MHz :   374.353776   248.004696   191.282293

                             ****ORCA TERMINATED NORMALLY****
TOTAL RUN TIME: 0 days 1 hours 36 minutes 33 seconds 469 msec
