                         Program Version 4.2.0 -  RELEASE  -
|  1> ! ri-mp2 cc-pvtz cc-pvtz/c TightSCF  NoKeepInts
|  2>
|  3> %scf
|  4>   MaxCore 4096
|  5> end
|  6> *xyz  0  1
|  7>     C       14.5866327   14.4000780   16.8090603
|  8>     C       15.5859584   15.5576817   16.7499166
|  9>     O       16.9087910   14.9799154   16.6072842
| 10>     C       18.0624277   15.7243224   16.5209579
| 11>     O       19.1357789   15.2155182   16.2553621
| 12>     C       17.9546313   16.8308339   17.4949723
| 13>     C       17.4190837   17.9972659   17.0277212
| 14>     C       16.9299639   18.3192100   15.6220426
| 15>     N       17.6211312   19.1324883   17.8217044
| 16>     C       18.3046220   19.2105473   19.0049481
| 17>     S       18.3745983   20.6322447   19.8493122
| 18>     N       18.8944924   18.0541176   19.4531845
| 19>     C       18.8415579   16.7662054   18.7282314
| 20>     C       17.9987144   15.8500487   19.6625751
| 21>     C       18.4094622   14.4904514   19.7576575
| 22>     C       17.7082526   13.5426745   20.5164488
| 23>     C       16.5486883   13.9328242   21.1942225
| 24>     C       16.1039408   15.2588788   21.0936459
| 25>     O       14.9640646   15.6178016   21.7349755
| 26>     C       16.8107548   16.2096822   20.3340417
| 27>     H       14.9547891   13.6238387   17.4904393
| 28>     H       14.4585338   13.9623573   15.8121516
| 29>     H       13.6099049   14.7440880   17.1714465
| 30>     H       15.2997825   16.2990422   15.9942232
| 31>     H       15.5468240   16.0441678   17.7370363
| 32>     H       17.0388789   17.4813312   14.9209540
| 33>     H       17.5017216   19.1487982   15.1786946
| 34>     H       15.8764557   18.6172219   15.6338555
| 35>     H       17.2584530   20.0156992   17.4919641
| 36>     H       19.3340983   18.1233792   20.3606457
| 37>     H       19.6686318   16.0524868   18.7256741
| 38>     H       19.2855191   14.1368109   19.2145921
| 39>     H       18.0607994   12.5114828   20.5659141
| 40>     H       15.9993976   13.2015920   21.7807781
| 41>     H       14.6669599   14.8492311   22.2482450
| 42>     H       16.4227035   17.2176842   20.2691200
| 43> *
| 44>
| 45>                          ****END OF INPUT****

CARTESIAN COORDINATES (ANGSTROEM)
---------------------------------
  C     14.586633   14.400078   16.809060
  C     15.585958   15.557682   16.749917
  O     16.908791   14.979915   16.607284
  C     18.062428   15.724322   16.520958
  O     19.135779   15.215518   16.255362
  C     17.954631   16.830834   17.494972
  C     17.419084   17.997266   17.027721
  C     16.929964   18.319210   15.622043
  N     17.621131   19.132488   17.821704
  C     18.304622   19.210547   19.004948
  S     18.374598   20.632245   19.849312
  N     18.894492   18.054118   19.453184
  C     18.841558   16.766205   18.728231
  C     17.998714   15.850049   19.662575
  C     18.409462   14.490451   19.757658
  C     17.708253   13.542675   20.516449
  C     16.548688   13.932824   21.194222
  C     16.103941   15.258879   21.093646
  O     14.964065   15.617802   21.734976
  C     16.810755   16.209682   20.334042
  H     14.954789   13.623839   17.490439
  H     14.458534   13.962357   15.812152
  H     13.609905   14.744088   17.171446
  H     15.299782   16.299042   15.994223
  H     15.546824   16.044168   17.737036
  H     17.038879   17.481331   14.920954
  H     17.501722   19.148798   15.178695
  H     15.876456   18.617222   15.633855
  H     17.258453   20.015699   17.491964
  H     19.334098   18.123379   20.360646
  H     19.668632   16.052487   18.725674
  H     19.285519   14.136811   19.214592
  H     18.060799   12.511483   20.565914
  H     15.999398   13.201592   21.780778
  H     14.666960   14.849231   22.248245
  H     16.422704   17.217684   20.269120

 Total Charge           Charge          ....    0
 Multiplicity           Mult            ....    1
 Number of Electrons    NEL             ....  154
 Basis Dimension        Dim             ....  828

ORBITAL ENERGIES
----------------

  NO   OCC          E(Eh)            E(eV)
   0   2.0000     -91.890180     -2500.4589
   1   2.0000     -20.600266      -560.5617
   2   2.0000     -20.597219      -560.4788
   3   2.0000     -20.557643      -559.4019
   4   2.0000     -15.623265      -425.1307
   5   2.0000     -15.616057      -424.9345
   6   2.0000     -11.396188      -310.1060
   7   2.0000     -11.387549      -309.8710
   8   2.0000     -11.329343      -308.2871
   9   2.0000     -11.321870      -308.0837
  10   2.0000     -11.316087      -307.9264
  11   2.0000     -11.303422      -307.5817
  12   2.0000     -11.276736      -306.8556
  13   2.0000     -11.265371      -306.5463
  14   2.0000     -11.262019      -306.4551
  15   2.0000     -11.253203      -306.2152
  16   2.0000     -11.241156      -305.8874
  17   2.0000     -11.240154      -305.8601
  18   2.0000     -11.235360      -305.7297
  19   2.0000     -11.231567      -305.6265
  20   2.0000      -8.895219      -242.0512
  21   2.0000      -6.576806      -178.9640
  22   2.0000      -6.574768      -178.9085
  23   2.0000      -6.574204      -178.8932
  24   2.0000      -1.448203       -39.4076
  25   2.0000      -1.417147       -38.5625
  26   2.0000      -1.362988       -37.0888
  27   2.0000      -1.339587       -36.4520
  28   2.0000      -1.240594       -33.7583
  29   2.0000      -1.158589       -31.5268
  30   2.0000      -1.125042       -30.6139
  31   2.0000      -1.049747       -28.5651
  32   2.0000      -1.042917       -28.3792
  33   2.0000      -1.015817       -27.6418
  34   2.0000      -1.003412       -27.3042
  35   2.0000      -0.988639       -26.9022
  36   2.0000      -0.931158       -25.3381
  37   2.0000      -0.879935       -23.9442
  38   2.0000      -0.856785       -23.3143
  39   2.0000      -0.839554       -22.8454
  40   2.0000      -0.834176       -22.6991
  41   2.0000      -0.832117       -22.6430
  42   2.0000      -0.754105       -20.5202
  43   2.0000      -0.738117       -20.0852
  44   2.0000      -0.725836       -19.7510
  45   2.0000      -0.697301       -18.9745
  46   2.0000      -0.693396       -18.8683
  47   2.0000      -0.683041       -18.5865
  48   2.0000      -0.676588       -18.4109
  49   2.0000      -0.666983       -18.1495
  50   2.0000      -0.655653       -17.8412
  51   2.0000      -0.648140       -17.6368
  52   2.0000      -0.638521       -17.3750
  53   2.0000      -0.611003       -16.6262
  54   2.0000      -0.608281       -16.5522
  55   2.0000      -0.600842       -16.3497
  56   2.0000      -0.597611       -16.2618
  57   2.0000      -0.587511       -15.9870
  58   2.0000      -0.574780       -15.6406
  59   2.0000      -0.564682       -15.3658
  60   2.0000      -0.559718       -15.2307
  61   2.0000      -0.556147       -15.1335
  62   2.0000      -0.555433       -15.1141
  63   2.0000      -0.527046       -14.3416
  64   2.0000      -0.517166       -14.0728
  65   2.0000      -0.514188       -13.9918
  66   2.0000      -0.504287       -13.7223
  67   2.0000      -0.500655       -13.6235
  68   2.0000      -0.487273       -13.2594
  69   2.0000      -0.464243       -12.6327
  70   2.0000      -0.457709       -12.4549
  71   2.0000      -0.448432       -12.2024
  72   2.0000      -0.352814        -9.6006
  73   2.0000      -0.345693        -9.4068
  74   2.0000      -0.329605        -8.9690
  75   2.0000      -0.320717        -8.7272
  76   2.0000      -0.312491        -8.5033
  77   0.0000       0.080625         2.1939
  78   0.0000       0.105557         2.8724
  79   0.0000       0.109438         2.9780
  80   0.0000       0.128962         3.5092
  81   0.0000       0.130094         3.5400

MULLIKEN ATOMIC CHARGES
-----------------------
   0 C :   -0.263832
   1 C :    0.019284
   2 O :   -0.315539
   3 C :    0.397228
   4 O :   -0.372127
   5 C :   -0.175428
   6 C :    0.112475
   7 C :   -0.328357
   8 N :   -0.131970
   9 C :    0.202848
  10 S :   -0.439526
  11 N :   -0.212430
  12 C :    0.099528
  13 C :    0.067475
  14 C :   -0.231717
  15 C :   -0.120648
  16 C :   -0.281627
  17 C :    0.326238
  18 O :   -0.359114
  19 C :   -0.308288
  20 H :    0.112549
  21 H :    0.097426
  22 H :    0.089120
  23 H :    0.099098
  24 H :    0.098829
  25 H :    0.120377
  26 H :    0.142962
  27 H :    0.125628
  28 H :    0.189034
  29 H :    0.197139
  30 H :    0.188527
  31 H :    0.144019
  32 H :    0.161052
  33 H :    0.129192
  34 H :    0.242957
  35 H :    0.177617
Sum of atomic charges:    0.0000000

LOEWDIN ATOMIC CHARGES
----------------------
   0 C :    0.111533
   1 C :   -0.021682
   2 O :    0.306997
   3 C :   -0.423831
   4 O :    0.129767
   5 C :   -0.084706
   6 C :   -0.094660
   7 C :    0.123214
   8 N :    0.396146
   9 C :   -0.457000
  10 S :   -0.038022
  11 N :    0.397316
  12 C :   -0.009636
  13 C :   -0.034843
  14 C :    0.009668
  15 C :    0.040504
  16 C :   -0.007535
  17 C :   -0.189560
  18 O :    0.391646
  19 C :    0.022714
  20 H :   -0.019676
  21 H :   -0.028670
  22 H :   -0.023587
  23 H :   -0.036622
  24 H :   -0.034239
  25 H :   -0.010429
  26 H :   -0.004355
  27 H :   -0.019477
  28 H :   -0.059869
  29 H :   -0.064230
  30 H :   -0.007827
  31 H :   -0.027025
  32 H :   -0.017039
  33 H :   -0.034664
  34 H :   -0.150927
  35 H :   -0.029393

  Mayer bond orders larger than 0.100000
B(  0-C ,  1-C ) :   0.9783 B(  0-C , 20-H ) :   0.9771 B(  0-C , 21-H ) :   0.9833
B(  0-C , 22-H ) :   0.9772 B(  1-C ,  2-O ) :   0.9158 B(  1-C , 23-H ) :   0.9709
B(  1-C , 24-H ) :   0.9587 B(  2-O ,  3-C ) :   1.1340 B(  3-C ,  4-O ) :   2.1160
B(  3-C ,  5-C ) :   0.9103 B(  5-C ,  6-C ) :   1.7174 B(  5-C , 12-C ) :   0.9498
B(  6-C ,  7-C ) :   0.9431 B(  6-C ,  8-N ) :   1.0946 B(  7-C , 25-H ) :   0.9782
B(  7-C , 26-H ) :   0.9679 B(  7-C , 27-H ) :   0.9684 B(  8-N ,  9-C ) :   1.2043
B(  8-N , 28-H ) :   0.9558 B(  9-C , 10-S ) :   1.6043 B(  9-C , 11-N ) :   1.2822
B( 11-N , 12-C ) :   1.0273 B( 11-N , 29-H ) :   0.9476 B( 12-C , 13-C ) :   0.8826
B( 12-C , 30-H ) :   0.9887 B( 13-C , 14-C ) :   1.3827 B( 13-C , 19-C ) :   1.3502
B( 14-C , 15-C ) :   1.3943 B( 14-C , 31-H ) :   0.9725 B( 15-C , 16-C ) :   1.3578
B( 15-C , 32-H ) :   0.9701 B( 16-C , 17-C ) :   1.3289 B( 16-C , 33-H ) :   0.9862
B( 17-C , 18-O ) :   1.1064 B( 17-C , 19-C ) :   1.3560 B( 18-O , 34-H ) :   0.9783
B( 19-C , 35-H ) :   0.9541

MP2 TOTAL ENERGY:    -1274.281905859 Eh
FINAL SINGLE POINT ENERGY     -1274.281905859030

DIPOLE MOMENT
-------------
                                X             Y             Z
Electronic contribution:     10.81788       8.66935       6.87059
Nuclear contribution   :    -12.34791      -9.74386      -7.45820
                        -----------------------------------------
Total Dipole Moment    :     -1.53002      -1.07451      -0.58761
                        -----------------------------------------
Magnitude (a.u.)       :      1.95980
Magnitude (Debye)      :      4.98142

Rotational constants in cm-1:     0.012073     0.009220     0.006897
Rotational constants in MHz :   361.937234   276.411680   206.774646

                             ****ORCA TERMINATED NORMALLY****
TOTAL RUN TIME: 0 days 1 hours 45 minutes 6 seconds 844 msec
