                         Program Version 4.2.0 -  RELEASE  -
|  1> ! ri-mp2 cc-pvtz cc-pvtz/c TightSCF  NoKeepInts
|  2>
|  3> %scf
|  4>   MaxCore 4096
|  5> end
|  6> *xyz  0  1
|  7>     C       15.8612970   13.4330134   15.6481218
|  8>     C       15.3590073   14.3910012   16.7511278
|  9>     O       16.1566693   15.5179527   17.1405009
| 10>     C       16.5776751   16.6393430   16.4828327
| 11>     O       16.0307726   17.1213529   15.5070282
| 12>     C       17.3715392   17.3598026   17.5278782
| 13>     C       17.3166796   18.6974621   17.7614806
| 14>     C       16.4858558   19.7142114   17.0021673
| 15>     N       18.3006612   19.3042654   18.5527625
| 16>     C       19.3491359   18.6535873   19.1526289
| 17>     S       20.4706937   19.4832178   20.0451865
| 18>     N       19.4183922   17.2876395   18.9766361
| 19>     C       18.4858467   16.4959343   18.1355780
| 20>     C       17.8639556   15.8217653   19.4026491
| 21>     C       18.0053687   14.4043785   19.4490988
| 22>     C       17.2735394   13.5935174   20.3247716
| 23>     C       16.3823668   14.1884134   21.2196141
| 24>     C       16.2250206   15.5812526   21.2122294
| 25>     O       15.3245005   16.1261953   22.0671039
| 26>     C       16.9365176   16.3945602   20.3068545
| 27>     H       15.0875836   12.6595958   15.5272782
| 28>     H       16.7557500   12.8914509   15.9897397
| 29>     H       16.0481394   13.8829260   14.6694342
| 30>     H       14.4381633   14.8350953   16.3562490
| 31>     H       15.1021577   13.8299959   17.6546800
| 32>     H       15.4175883   19.5947551   17.2096568
| 33>     H       16.6295760   19.5944157   15.9194586
| 34>     H       16.7631467   20.7518868   17.2324044
| 35>     H       18.3123230   20.3092949   18.6450554
| 36>     H       20.1608742   16.8351170   19.4929946
| 37>     H       18.7028117   15.5428784   17.6496978
| 38>     H       18.6349594   13.8851863   18.7305737
| 39>     H       17.3774018   12.5090276   20.2816636
| 40>     H       15.8059436   13.5630935   21.8956159
| 41>     H       14.9942446   15.4034555   22.6257848
| 42>     H       16.7208394   17.4549542   20.2874676
| 43> *
| 44>
| 45>                          ****END OF INPUT****

CARTESIAN COORDINATES (ANGSTROEM)
---------------------------------
  C     15.861297   13.433013   15.648122
  C     15.359007   14.391001   16.751128
  O     16.156669   15.517953   17.140501
  C     16.577675   16.639343   16.482833
  O     16.030773   17.121353   15.507028
  C     17.371539   17.359803   17.527878
  C     17.316680   18.697462   17.761481
  C     16.485856   19.714211   17.002167
  N     18.300661   19.304265   18.552763
  C     19.349136   18.653587   19.152629
  S     20.470694   19.483218   20.045186
  N     19.418392   17.287640   18.976636
  C     18.485847   16.495934   18.135578
  C     17.863956   15.821765   19.402649
  C     18.005369   14.404378   19.449099
  C     17.273539   13.593517   20.324772
  C     16.382367   14.188413   21.219614
  C     16.225021   15.581253   21.212229
  O     15.324500   16.126195   22.067104
  C     16.936518   16.394560   20.306855
  H     15.087584   12.659596   15.527278
  H     16.755750   12.891451   15.989740
  H     16.048139   13.882926   14.669434
  H     14.438163   14.835095   16.356249
  H     15.102158   13.829996   17.654680
  H     15.417588   19.594755   17.209657
  H     16.629576   19.594416   15.919459
  H     16.763147   20.751887   17.232404
  H     18.312323   20.309295   18.645055
  H     20.160874   16.835117   19.492995
  H     18.702812   15.542878   17.649698
  H     18.634959   13.885186   18.730574
  H     17.377402   12.509028   20.281664
  H     15.805944   13.563093   21.895616
  H     14.994245   15.403455   22.625785
  H     16.720839   17.454954   20.287468

 Total Charge           Charge          ....    0
 Multiplicity           Mult            ....    1
 Number of Electrons    NEL             ....  154
 Basis Dimension        Dim             ....  828

ORBITAL ENERGIES
----------------

  NO   OCC          E(Eh)            E(eV)
   0   2.0000     -91.888378     -2500.4099
   1   2.0000     -20.596607      -560.4622
   2   2.0000     -20.592249      -560.3436
   3   2.0000     -20.557535      -559.3990
   4   2.0000     -15.625110      -425.1808
   5   2.0000     -15.612687      -424.8428
   6   2.0000     -11.403266      -310.2986
   7   2.0000     -11.384402      -309.7853
   8   2.0000     -11.330528      -308.3193
   9   2.0000     -11.317577      -307.9669
  10   2.0000     -11.311309      -307.7964
  11   2.0000     -11.303550      -307.5852
  12   2.0000     -11.262415      -306.4659
  13   2.0000     -11.259682      -306.3915
  14   2.0000     -11.253034      -306.2106
  15   2.0000     -11.249071      -306.1028
  16   2.0000     -11.238753      -305.8220
  17   2.0000     -11.234216      -305.6986
  18   2.0000     -11.233774      -305.6865
  19   2.0000     -11.229806      -305.5785
  20   2.0000      -8.893306      -241.9991
  21   2.0000      -6.574865      -178.9112
  22   2.0000      -6.572872      -178.8569
  23   2.0000      -6.572287      -178.8410
  24   2.0000      -1.450902       -39.4811
  25   2.0000      -1.412370       -38.4325
  26   2.0000      -1.363393       -37.0998
  27   2.0000      -1.336677       -36.3728
  28   2.0000      -1.240217       -33.7480
  29   2.0000      -1.150990       -31.3200
  30   2.0000      -1.119526       -30.4638
  31   2.0000      -1.047560       -28.5056
  32   2.0000      -1.038253       -28.2523
  33   2.0000      -1.009040       -27.4574
  34   2.0000      -0.996485       -27.1157
  35   2.0000      -0.980969       -26.6935
  36   2.0000      -0.923282       -25.1238
  37   2.0000      -0.910324       -24.7712
  38   2.0000      -0.846081       -23.0230
  39   2.0000      -0.832013       -22.6402
  40   2.0000      -0.826948       -22.5024
  41   2.0000      -0.814091       -22.1525
  42   2.0000      -0.749259       -20.3884
  43   2.0000      -0.732698       -19.9377
  44   2.0000      -0.720801       -19.6140
  45   2.0000      -0.696197       -18.9445
  46   2.0000      -0.691227       -18.8092
  47   2.0000      -0.684138       -18.6163
  48   2.0000      -0.674689       -18.3592
  49   2.0000      -0.659155       -17.9365
  50   2.0000      -0.647598       -17.6220
  51   2.0000      -0.640854       -17.4385
  52   2.0000      -0.632928       -17.2229
  53   2.0000      -0.623661       -16.9707
  54   2.0000      -0.602691       -16.4001
  55   2.0000      -0.594683       -16.1821
  56   2.0000      -0.591948       -16.1077
  57   2.0000      -0.574234       -15.6257
  58   2.0000      -0.570913       -15.5353
  59   2.0000      -0.568520       -15.4702
  60   2.0000      -0.555816       -15.1245
  61   2.0000      -0.546869       -14.8811
  62   2.0000      -0.544814       -14.8251
  63   2.0000      -0.535187       -14.5632
  64   2.0000      -0.516415       -14.0524
  65   2.0000      -0.510514       -13.8918
  66   2.0000      -0.500517       -13.6198
  67   2.0000      -0.498474       -13.5642
  68   2.0000      -0.480189       -13.0666
  69   2.0000      -0.455104       -12.3840
  70   2.0000      -0.452699       -12.3186
  71   2.0000      -0.452506       -12.3133
  72   2.0000      -0.347181        -9.4473
  73   2.0000      -0.338577        -9.2131
  74   2.0000      -0.325538        -8.8584
  75   2.0000      -0.315576        -8.5873
  76   2.0000      -0.306993        -8.3537
  77   0.0000       0.071502         1.9457
  78   0.0000       0.112643         3.0652
  79   0.0000       0.120297         3.2735
  80   0.0000       0.129859         3.5336
  81   0.0000       0.137426         3.7396

MULLIKEN ATOMIC CHARGES
-----------------------
   0 C :   -0.292822
   1 C :    0.018756
   2 O :   -0.341906
   3 C :    0.415315
   4 O :   -0.401555
   5 C :   -0.155320
   6 C :    0.126091
   7 C :   -0.286753
   8 N :   -0.121268
   9 C :    0.210246
  10 S :   -0.437849
  11 N :   -0.199892
  12 C :    0.060870
  13 C :    0.089097
  14 C :   -0.239495
  15 C :   -0.130303
  16 C :   -0.289209
  17 C :    0.313727
  18 O :   -0.359872
  19 C :   -0.247465
  20 H :    0.101422
  21 H :    0.086572
  22 H :    0.119702
  23 H :    0.102977
  24 H :    0.128437
  25 H :    0.125198
  26 H :    0.142744
  27 H :    0.096480
  28 H :    0.196671
  29 H :    0.185221
  30 H :    0.169990
  31 H :    0.128697
  32 H :    0.157968
  33 H :    0.125771
  34 H :    0.243108
  35 H :    0.158644
Sum of atomic charges:   -0.0000000

LOEWDIN ATOMIC CHARGES
----------------------
   0 C :    0.108491
   1 C :   -0.026816
   2 O :    0.332333
   3 C :   -0.416429
   4 O :    0.108616
   5 C :   -0.097249
   6 C :   -0.071521
   7 C :    0.131019
   8 N :    0.400213
   9 C :   -0.450484
  10 S :   -0.035885
  11 N :    0.394700
  12 C :   -0.005720
  13 C :   -0.028057
  14 C :   -0.010004
  15 C :    0.030578
  16 C :   -0.016015
  17 C :   -0.185828
  18 O :    0.390501
  19 C :    0.026909
  20 H :   -0.015870
  21 H :   -0.032032
  22 H :   -0.026282
  23 H :   -0.030395
  24 H :   -0.019260
  25 H :   -0.011113
  26 H :   -0.003066
  27 H :   -0.020285
  28 H :   -0.058383
  29 H :   -0.065761
  30 H :   -0.017190
  31 H :   -0.039330
  32 H :   -0.020608
  33 H :   -0.036694
  34 H :   -0.150696
  35 H :   -0.032387

  Mayer bond orders larger than 0.100000
B(  0-C ,  1-C ) :   0.9602 B(  0-C , 20-H ) :   0.9735 B(  0-C , 21-H ) :   0.9777
B(  0-C , 22-H ) :   0.9743 B(  1-C ,  2-O ) :   0.9004 B(  1-C , 23-H ) :   0.9853
B(  1-C , 24-H ) :   0.9755 B(  2-O ,  3-C ) :   1.1594 B(  3-C ,  4-O ) :   2.0288
B(  3-C ,  5-C ) :   1.0073 B(  5-C ,  6-C ) :   1.6908 B(  5-C , 12-C ) :   0.9966
B(  6-C ,  7-C ) :   0.9476 B(  6-C ,  8-N ) :   1.1465 B(  7-C , 25-H ) :   0.9714
B(  7-C , 26-H ) :   0.9575 B(  7-C , 27-H ) :   0.9901 B(  8-N ,  9-C ) :   1.1837
B(  8-N , 28-H ) :   0.9481 B(  9-C , 10-S ) :   1.6055 B(  9-C , 11-N ) :   1.3013
B( 11-N , 12-C ) :   0.9804 B( 11-N , 29-H ) :   0.9537 B( 12-C , 13-C ) :   0.8979
B( 12-C , 30-H ) :   0.9863 B( 13-C , 14-C ) :   1.3446 B( 13-C , 19-C ) :   1.3843
B( 14-C , 15-C ) :   1.3889 B( 14-C , 31-H ) :   0.9809 B( 15-C , 16-C ) :   1.3599
B( 15-C , 32-H ) :   0.9715 B( 16-C , 17-C ) :   1.3167 B( 16-C , 33-H ) :   0.9884
B( 17-C , 18-O ) :   1.1035 B( 17-C , 19-C ) :   1.3925 B( 18-O , 34-H ) :   0.9779
B( 19-C , 35-H ) :   0.9549

MP2 TOTAL ENERGY:    -1274.265700185 Eh
FINAL SINGLE POINT ENERGY     -1274.265700184672

DIPOLE MOMENT
-------------
                                X             Y             Z
Electronic contribution:      9.72771      11.00030       7.82477
Nuclear contribution   :    -11.06133     -12.76919      -8.35659
                        -----------------------------------------
Total Dipole Moment    :     -1.33362      -1.76889      -0.53182
                        -----------------------------------------
Magnitude (a.u.)       :      2.27823
Magnitude (Debye)      :      5.79080

Rotational constants in cm-1:     0.012064     0.008847     0.006374
Rotational constants in MHz :   361.679045   265.212922   191.091703

                             ****ORCA TERMINATED NORMALLY****
TOTAL RUN TIME: 0 days 1 hours 36 minutes 8 seconds 183 msec
