                         Program Version 4.2.0 -  RELEASE  -
|  1> ! ri-mp2 cc-pvtz cc-pvtz/c TightSCF  NoKeepInts
|  2>
|  3> %scf
|  4>   MaxCore 4096
|  5> end
|  6> *xyz  0  1
|  7>     C       15.3823356   13.6651653   15.8818088
|  8>     C       15.1216983   15.1194439   16.2849635
|  9>     O       16.1754933   15.8873836   16.8287291
| 10>     C       17.5058545   15.9176594   16.5607193
| 11>     O       18.1881284   14.9253014   16.3640167
| 12>     C       17.8306801   16.9620911   17.5491894
| 13>     C       17.3991791   18.2358301   17.3105144
| 14>     C       16.7021179   18.7765857   16.0676756
| 15>     N       17.9630578   19.2233602   18.1251695
| 16>     C       18.8739624   19.0503749   19.1324893
| 17>     S       19.3978129   20.3473645   20.0176393
| 18>     N       19.3029461   17.7646284   19.3731057
| 19>     C       18.8662599   16.5824867   18.5944926
| 20>     C       17.9745589   15.9243968   19.7097785
| 21>     C       18.2007619   14.5315440   19.9246483
| 22>     C       17.4200204   13.7518152   20.7900812
| 23>     C       16.3538866   14.3462537   21.4675849
| 24>     C       16.0743528   15.7031833   21.2504149
| 25>     O       15.0147745   16.2524632   21.8959950
| 26>     C       16.8593128   16.4849116   20.3752056
| 27>     H       15.6608097   13.6419181   14.8201270
| 28>     H       14.4575342   13.0892564   15.9946587
| 29>     H       16.1769581   13.1888835   16.4668485
| 30>     H       14.2657692   15.6384123   15.8329741
| 31>     H       14.7302863   14.9163144   17.2878167
| 32>     H       17.0635330   18.2916837   15.1489850
| 33>     H       16.8778316   19.8530869   15.9241945
| 34>     H       15.6209152   18.6216825   16.1288849
| 35>     H       17.7031610   20.1839755   17.9556564
| 36>     H       19.9220690   17.6671375   20.1651426
| 37>     H       19.4552767   15.6768856   18.4534032
| 38>     H       18.9822642   14.0022994   19.3831726
| 39>     H       17.6378878   12.6902825   20.9186490
| 40>     H       15.7458714   13.7461604   22.1401422
| 41>     H       14.6622912   15.5755553   22.4969852
| 42>     H       16.5773418   17.5162178   20.2121413
| 43> *
| 44>
| 45>                          ****END OF INPUT****

CARTESIAN COORDINATES (ANGSTROEM)
---------------------------------
  C     15.382336   13.665165   15.881809
  C     15.121698   15.119444   16.284963
  O     16.175493   15.887384   16.828729
  C     17.505855   15.917659   16.560719
  O     18.188128   14.925301   16.364017
  C     17.830680   16.962091   17.549189
  C     17.399179   18.235830   17.310514
  C     16.702118   18.776586   16.067676
  N     17.963058   19.223360   18.125169
  C     18.873962   19.050375   19.132489
  S     19.397813   20.347365   20.017639
  N     19.302946   17.764628   19.373106
  C     18.866260   16.582487   18.594493
  C     17.974559   15.924397   19.709778
  C     18.200762   14.531544   19.924648
  C     17.420020   13.751815   20.790081
  C     16.353887   14.346254   21.467585
  C     16.074353   15.703183   21.250415
  O     15.014774   16.252463   21.895995
  C     16.859313   16.484912   20.375206
  H     15.660810   13.641918   14.820127
  H     14.457534   13.089256   15.994659
  H     16.176958   13.188883   16.466849
  H     14.265769   15.638412   15.832974
  H     14.730286   14.916314   17.287817
  H     17.063533   18.291684   15.148985
  H     16.877832   19.853087   15.924195
  H     15.620915   18.621682   16.128885
  H     17.703161   20.183975   17.955656
  H     19.922069   17.667137   20.165143
  H     19.455277   15.676886   18.453403
  H     18.982264   14.002299   19.383173
  H     17.637888   12.690282   20.918649
  H     15.745871   13.746160   22.140142
  H     14.662291   15.575555   22.496985
  H     16.577342   17.516218   20.212141

 Total Charge           Charge          ....    0
 Multiplicity           Mult            ....    1
 Number of Electrons    NEL             ....  154
 Basis Dimension        Dim             ....  828

ORBITAL ENERGIES
----------------

  NO   OCC          E(Eh)            E(eV)
   0   2.0000     -91.884947     -2500.3165
   1   2.0000     -20.602702      -560.6280
   2   2.0000     -20.591395      -560.3204
   3   2.0000     -20.557970      -559.4108
   4   2.0000     -15.618965      -425.0136
   5   2.0000     -15.608856      -424.7386
   6   2.0000     -11.394424      -310.0580
   7   2.0000     -11.381837      -309.7155
   8   2.0000     -11.323974      -308.1410
   9   2.0000     -11.316099      -307.9267
  10   2.0000     -11.310631      -307.7779
  11   2.0000     -11.292929      -307.2962
  12   2.0000     -11.268364      -306.6278
  13   2.0000     -11.257857      -306.3419
  14   2.0000     -11.256898      -306.3158
  15   2.0000     -11.247120      -306.0497
  16   2.0000     -11.235796      -305.7416
  17   2.0000     -11.235728      -305.7397
  18   2.0000     -11.230202      -305.5893
  19   2.0000     -11.229330      -305.5656
  20   2.0000      -8.890009      -241.9095
  21   2.0000      -6.571601      -178.8223
  22   2.0000      -6.569567      -178.7670
  23   2.0000      -6.569007      -178.7518
  24   2.0000      -1.463236       -39.8167
  25   2.0000      -1.411046       -38.3965
  26   2.0000      -1.368009       -37.2254
  27   2.0000      -1.333767       -36.2936
  28   2.0000      -1.235515       -33.6201
  29   2.0000      -1.150872       -31.3168
  30   2.0000      -1.121675       -30.5223
  31   2.0000      -1.051420       -28.6106
  32   2.0000      -1.039295       -28.2806
  33   2.0000      -1.008402       -27.4400
  34   2.0000      -0.995532       -27.0898
  35   2.0000      -0.980828       -26.6897
  36   2.0000      -0.926830       -25.2203
  37   2.0000      -0.908078       -24.7100
  38   2.0000      -0.848159       -23.0796
  39   2.0000      -0.830888       -22.6096
  40   2.0000      -0.826152       -22.4807
  41   2.0000      -0.810940       -22.0668
  42   2.0000      -0.738544       -20.0968
  43   2.0000      -0.728081       -19.8121
  44   2.0000      -0.721143       -19.6233
  45   2.0000      -0.693327       -18.8664
  46   2.0000      -0.690587       -18.7918
  47   2.0000      -0.687181       -18.6991
  48   2.0000      -0.674821       -18.3628
  49   2.0000      -0.659885       -17.9564
  50   2.0000      -0.655233       -17.8298
  51   2.0000      -0.644878       -17.5480
  52   2.0000      -0.633331       -17.2338
  53   2.0000      -0.603613       -16.4251
  54   2.0000      -0.599774       -16.3207
  55   2.0000      -0.598465       -16.2851
  56   2.0000      -0.592767       -16.1300
  57   2.0000      -0.588338       -16.0095
  58   2.0000      -0.577097       -15.7036
  59   2.0000      -0.569920       -15.5083
  60   2.0000      -0.552989       -15.0476
  61   2.0000      -0.551622       -15.0104
  62   2.0000      -0.547474       -14.8975
  63   2.0000      -0.524493       -14.2722
  64   2.0000      -0.511632       -13.9222
  65   2.0000      -0.507909       -13.8209
  66   2.0000      -0.497085       -13.5264
  67   2.0000      -0.493194       -13.4205
  68   2.0000      -0.479167       -13.0388
  69   2.0000      -0.459564       -12.5054
  70   2.0000      -0.451861       -12.2957
  71   2.0000      -0.430748       -11.7212
  72   2.0000      -0.343336        -9.3427
  73   2.0000      -0.337185        -9.1753
  74   2.0000      -0.323533        -8.8038
  75   2.0000      -0.313563        -8.5325
  76   2.0000      -0.304586        -8.2882
  77   0.0000       0.069208         1.8833
  78   0.0000       0.106030         2.8852
  79   0.0000       0.117024         3.1844
  80   0.0000       0.133047         3.6204
  81   0.0000       0.133860         3.6425

MULLIKEN ATOMIC CHARGES
-----------------------
   0 C :   -0.281958
   1 C :   -0.000127
   2 O :   -0.291403
   3 C :    0.388955
   4 O :   -0.402229
   5 C :   -0.115944
   6 C :    0.103478
   7 C :   -0.303176
   8 N :   -0.119947
   9 C :    0.202659
  10 S :   -0.445227
  11 N :   -0.202922
  12 C :    0.087807
  13 C :    0.039941
  14 C :   -0.220791
  15 C :   -0.123408
  16 C :   -0.279812
  17 C :    0.311887
  18 O :   -0.360150
  19 C :   -0.249609
  20 H :    0.084688
  21 H :    0.100252
  22 H :    0.127822
  23 H :    0.105497
  24 H :    0.091588
  25 H :    0.118488
  26 H :    0.113971
  27 H :    0.129566
  28 H :    0.186240
  29 H :    0.187936
  30 H :    0.191988
  31 H :    0.136341
  32 H :    0.156962
  33 H :    0.126173
  34 H :    0.242599
  35 H :    0.161865
Sum of atomic charges:    0.0000000

LOEWDIN ATOMIC CHARGES
----------------------
   0 C :    0.104122
   1 C :   -0.054968
   2 O :    0.369867
   3 C :   -0.424331
   4 O :    0.115798
   5 C :   -0.104674
   6 C :   -0.079277
   7 C :    0.127639
   8 N :    0.395596
   9 C :   -0.454878
  10 S :   -0.041963
  11 N :    0.394962
  12 C :    0.000002
  13 C :   -0.027286
  14 C :   -0.000228
  15 C :    0.033365
  16 C :   -0.010068
  17 C :   -0.186553
  18 O :    0.388888
  19 C :    0.029232
  20 H :   -0.033891
  21 H :   -0.021376
  22 H :   -0.017585
  23 H :   -0.030783
  24 H :   -0.026230
  25 H :   -0.009784
  26 H :   -0.013028
  27 H :   -0.015085
  28 H :   -0.062679
  29 H :   -0.067260
  30 H :   -0.010852
  31 H :   -0.031878
  32 H :   -0.019036
  33 H :   -0.034975
  34 H :   -0.151062
  35 H :   -0.029736

  Mayer bond orders larger than 0.100000
B(  0-C ,  1-C ) :   0.9721 B(  0-C , 20-H ) :   0.9799 B(  0-C , 21-H ) :   0.9747
B(  0-C , 22-H ) :   0.9688 B(  1-C ,  2-O ) :   0.9298 B(  1-C , 23-H ) :   0.9753
B(  1-C , 24-H ) :   0.9803 B(  2-O ,  3-C ) :   1.1370 B(  3-C ,  4-O ) :   2.0365
B(  3-C ,  5-C ) :   1.0055 B(  5-C ,  6-C ) :   1.7244 B(  5-C , 12-C ) :   0.9697
B(  6-C ,  7-C ) :   0.9193 B(  6-C ,  8-N ) :   1.1054 B(  7-C , 25-H ) :   0.9737
B(  7-C , 26-H ) :   0.9873 B(  7-C , 27-H ) :   0.9724 B(  8-N ,  9-C ) :   1.2019
B(  8-N , 28-H ) :   0.9551 B(  9-C , 10-S ) :   1.5952 B(  9-C , 11-N ) :   1.2938
B( 11-N , 12-C ) :   1.0102 B( 11-N , 29-H ) :   0.9534 B( 12-C , 13-C ) :   0.8909
B( 12-C , 30-H ) :   0.9788 B( 13-C , 14-C ) :   1.3741 B( 13-C , 19-C ) :   1.3874
B( 14-C , 15-C ) :   1.3830 B( 14-C , 31-H ) :   0.9740 B( 15-C , 16-C ) :   1.3651
B( 15-C , 32-H ) :   0.9717 B( 16-C , 17-C ) :   1.3216 B( 16-C , 33-H ) :   0.9877
B( 17-C , 18-O ) :   1.1019 B( 17-C , 19-C ) :   1.3826 B( 18-O , 34-H ) :   0.9783
B( 19-C , 35-H ) :   0.9532

MP2 TOTAL ENERGY:    -1274.226490516 Eh
FINAL SINGLE POINT ENERGY     -1274.226490515802

DIPOLE MOMENT
-------------
                                X             Y             Z
Electronic contribution:     10.66050      10.97642       8.63545
Nuclear contribution   :    -12.35849     -12.26213      -9.65598
                        -----------------------------------------
Total Dipole Moment    :     -1.69799      -1.28571      -1.02053
                        -----------------------------------------
Magnitude (a.u.)       :      2.36171
Magnitude (Debye)      :      6.00299

Rotational constants in cm-1:     0.011880     0.009119     0.006470
Rotational constants in MHz :   356.160331   273.375779   193.979494

                             ****ORCA TERMINATED NORMALLY****
TOTAL RUN TIME: 0 days 1 hours 43 minutes 20 seconds 357 msec
