                         Program Version 4.2.0 -  RELEASE  -
|  1> ! ri-mp2 cc-pvtz cc-pvtz/c TightSCF  NoKeepInts
|  2>
|  3> %scf
|  4>   MaxCore 4096
|  5> end
|  6> *xyz  0  1
|  7>     C       15.2236529   13.6415446   16.0408473
|  8>     C       15.0097137   15.0552236   16.5892411
|  9>     O       16.1656075   15.8009489   16.9599657
| 10>     C       17.4333952   15.9723552   16.4731939
| 11>     O       18.1098768   15.2277566   15.7979173
| 12>     C       17.8739792   16.9076872   17.5142152
| 13>     C       17.3472797   18.1548774   17.3740174
| 14>     C       16.6391473   18.6559824   16.1210540
| 15>     N       17.9116275   19.1466953   18.1836524
| 16>     C       18.8811944   18.9869598   19.1407906
| 17>     S       19.3095585   20.2617397   20.1015693
| 18>     N       19.3990114   17.7197249   19.3015814
| 19>     C       18.9718163   16.5472912   18.4966663
| 20>     C       18.1250557   15.9852634   19.6856038
| 21>     C       18.3925616   14.6235979   19.9947722
| 22>     C       17.5658703   13.8587475   20.8201351
| 23>     C       16.4328436   14.4472151   21.3860381
| 24>     C       16.1419718   15.7900688   21.1181245
| 25>     O       15.0154811   16.3202745   21.6494442
| 26>     C       16.9600402   16.5558379   20.2713760
| 27>     H       16.2440417   13.2631178   16.1988900
| 28>     H       15.0406786   13.6921680   14.9543529
| 29>     H       14.4878696   12.9438138   16.4589326
| 30>     H       14.2718433   15.6531659   16.0316868
| 31>     H       14.5500038   14.8807103   17.5614752
| 32>     H       17.0679512   18.1883086   15.2171113
| 33>     H       16.7629911   19.7309233   15.9680366
| 34>     H       15.5700064   18.4181772   16.1299594
| 35>     H       17.5807639   20.0920899   18.0694391
| 36>     H       20.0062006   17.6121866   20.1003682
| 37>     H       19.5791803   15.6500877   18.3291865
| 38>     H       19.2283908   14.1080196   19.5299187
| 39>     H       17.7890713   12.8075886   20.9856109
| 40>     H       15.7750168   13.8477905   22.0131255
| 41>     H       14.6278113   15.6364972   22.2220233
| 42>     H       16.6554890   17.5675611   20.0436836
| 43> *
| 44>
| 45>                          ****END OF INPUT****

CARTESIAN COORDINATES (ANGSTROEM)
---------------------------------
  C     15.223653   13.641545   16.040847
  C     15.009714   15.055224   16.589241
  O     16.165608   15.800949   16.959966
  C     17.433395   15.972355   16.473194
  O     18.109877   15.227757   15.797917
  C     17.873979   16.907687   17.514215
  C     17.347280   18.154877   17.374017
  C     16.639147   18.655982   16.121054
  N     17.911628   19.146695   18.183652
  C     18.881194   18.986960   19.140791
  S     19.309558   20.261740   20.101569
  N     19.399011   17.719725   19.301581
  C     18.971816   16.547291   18.496666
  C     18.125056   15.985263   19.685604
  C     18.392562   14.623598   19.994772
  C     17.565870   13.858747   20.820135
  C     16.432844   14.447215   21.386038
  C     16.141972   15.790069   21.118125
  O     15.015481   16.320275   21.649444
  C     16.960040   16.555838   20.271376
  H     16.244042   13.263118   16.198890
  H     15.040679   13.692168   14.954353
  H     14.487870   12.943814   16.458933
  H     14.271843   15.653166   16.031687
  H     14.550004   14.880710   17.561475
  H     17.067951   18.188309   15.217111
  H     16.762991   19.730923   15.968037
  H     15.570006   18.418177   16.129959
  H     17.580764   20.092090   18.069439
  H     20.006201   17.612187   20.100368
  H     19.579180   15.650088   18.329186
  H     19.228391   14.108020   19.529919
  H     17.789071   12.807589   20.985611
  H     15.775017   13.847791   22.013126
  H     14.627811   15.636497   22.222023
  H     16.655489   17.567561   20.043684

 Total Charge           Charge          ....    0
 Multiplicity           Mult            ....    1
 Number of Electrons    NEL             ....  154
 Basis Dimension        Dim             ....  828

ORBITAL ENERGIES
----------------

  NO   OCC          E(Eh)            E(eV)
   0   2.0000     -91.884503     -2500.3044
   1   2.0000     -20.599135      -560.5310
   2   2.0000     -20.593914      -560.3889
   3   2.0000     -20.562019      -559.5210
   4   2.0000     -15.615223      -424.9118
   5   2.0000     -15.609789      -424.7640
   6   2.0000     -11.399622      -310.1995
   7   2.0000     -11.381066      -309.6945
   8   2.0000     -11.322430      -308.0990
   9   2.0000     -11.315343      -307.9061
  10   2.0000     -11.311315      -307.7965
  11   2.0000     -11.299661      -307.4794
  12   2.0000     -11.264577      -306.5247
  13   2.0000     -11.261334      -306.4365
  14   2.0000     -11.257354      -306.3282
  15   2.0000     -11.248693      -306.0925
  16   2.0000     -11.236657      -305.7650
  17   2.0000     -11.236376      -305.7573
  18   2.0000     -11.230948      -305.6096
  19   2.0000     -11.229610      -305.5732
  20   2.0000      -8.889631      -241.8992
  21   2.0000      -6.571226      -178.8122
  22   2.0000      -6.569192      -178.7568
  23   2.0000      -6.568628      -178.7415
  24   2.0000      -1.454774       -39.5864
  25   2.0000      -1.414824       -38.4993
  26   2.0000      -1.373479       -37.3743
  27   2.0000      -1.332936       -36.2710
  28   2.0000      -1.237429       -33.6721
  29   2.0000      -1.154406       -31.4130
  30   2.0000      -1.125082       -30.6150
  31   2.0000      -1.052137       -28.6301
  32   2.0000      -1.038699       -28.2644
  33   2.0000      -1.011980       -27.5374
  34   2.0000      -0.995171       -27.0800
  35   2.0000      -0.982786       -26.7430
  36   2.0000      -0.927788       -25.2464
  37   2.0000      -0.905551       -24.6413
  38   2.0000      -0.847413       -23.0593
  39   2.0000      -0.833546       -22.6819
  40   2.0000      -0.828027       -22.5318
  41   2.0000      -0.814249       -22.1568
  42   2.0000      -0.736838       -20.0504
  43   2.0000      -0.731552       -19.9065
  44   2.0000      -0.720688       -19.6109
  45   2.0000      -0.696841       -18.9620
  46   2.0000      -0.694138       -18.8885
  47   2.0000      -0.689327       -18.7576
  48   2.0000      -0.674375       -18.3507
  49   2.0000      -0.662754       -18.0345
  50   2.0000      -0.653878       -17.7929
  51   2.0000      -0.644017       -17.5246
  52   2.0000      -0.632223       -17.2037
  53   2.0000      -0.609416       -16.5830
  54   2.0000      -0.603263       -16.4156
  55   2.0000      -0.600594       -16.3430
  56   2.0000      -0.597176       -16.2500
  57   2.0000      -0.587969       -15.9994
  58   2.0000      -0.572954       -15.5909
  59   2.0000      -0.571129       -15.5412
  60   2.0000      -0.553770       -15.0689
  61   2.0000      -0.550882       -14.9903
  62   2.0000      -0.547135       -14.8883
  63   2.0000      -0.529676       -14.4132
  64   2.0000      -0.515572       -14.0294
  65   2.0000      -0.509244       -13.8572
  66   2.0000      -0.501096       -13.6355
  67   2.0000      -0.494847       -13.4655
  68   2.0000      -0.481435       -13.1005
  69   2.0000      -0.461972       -12.5709
  70   2.0000      -0.453346       -12.3362
  71   2.0000      -0.446504       -12.1500
  72   2.0000      -0.343045        -9.3347
  73   2.0000      -0.333023        -9.0620
  74   2.0000      -0.323525        -8.8036
  75   2.0000      -0.316340        -8.6080
  76   2.0000      -0.302167        -8.2224
  77   0.0000       0.075483         2.0540
  78   0.0000       0.111875         3.0443
  79   0.0000       0.119398         3.2490
  80   0.0000       0.131131         3.5683
  81   0.0000       0.137431         3.7397

MULLIKEN ATOMIC CHARGES
-----------------------
   0 C :   -0.290738
   1 C :    0.041302
   2 O :   -0.320154
   3 C :    0.380096
   4 O :   -0.395551
   5 C :   -0.041049
   6 C :    0.072114
   7 C :   -0.315464
   8 N :   -0.129460
   9 C :    0.200978
  10 S :   -0.440494
  11 N :   -0.191308
  12 C :    0.084505
  13 C :    0.029996
  14 C :   -0.213530
  15 C :   -0.122618
  16 C :   -0.283992
  17 C :    0.312146
  18 O :   -0.360477
  19 C :   -0.239921
  20 H :    0.124299
  21 H :    0.086894
  22 H :    0.098749
  23 H :    0.083956
  24 H :    0.095888
  25 H :    0.120394
  26 H :    0.117374
  27 H :    0.128602
  28 H :    0.185607
  29 H :    0.181385
  30 H :    0.179356
  31 H :    0.134102
  32 H :    0.157669
  33 H :    0.123729
  34 H :    0.243424
  35 H :    0.162194
Sum of atomic charges:    0.0000000

LOEWDIN ATOMIC CHARGES
----------------------
   0 C :    0.106290
   1 C :   -0.043736
   2 O :    0.349719
   3 C :   -0.424133
   4 O :    0.119258
   5 C :   -0.094259
   6 C :   -0.091024
   7 C :    0.126511
   8 N :    0.393340
   9 C :   -0.456876
  10 S :   -0.037912
  11 N :    0.395616
  12 C :    0.007570
  13 C :   -0.030264
  14 C :   -0.009119
  15 C :    0.035327
  16 C :   -0.010711
  17 C :   -0.192844
  18 O :    0.391992
  19 C :    0.034414
  20 H :   -0.018472
  21 H :   -0.026616
  22 H :   -0.024521
  23 H :   -0.030565
  24 H :   -0.025862
  25 H :   -0.004362
  26 H :   -0.016754
  27 H :   -0.017327
  28 H :   -0.065059
  29 H :   -0.067932
  30 H :   -0.003393
  31 H :   -0.034608
  32 H :   -0.020300
  33 H :   -0.034613
  34 H :   -0.148768
  35 H :   -0.030008

  Mayer bond orders larger than 0.100000
B(  0-C ,  1-C ) :   0.9424 B(  0-C , 20-H ) :   0.9728 B(  0-C , 21-H ) :   0.9825
B(  0-C , 22-H ) :   0.9801 B(  1-C ,  2-O ) :   0.9237 B(  1-C , 23-H ) :   0.9793
B(  1-C , 24-H ) :   0.9859 B(  2-O ,  3-C ) :   1.1557 B(  3-C ,  4-O ) :   2.0781
B(  3-C ,  5-C ) :   0.9541 B(  5-C ,  6-C ) :   1.7401 B(  5-C , 12-C ) :   0.9819
B(  6-C ,  7-C ) :   0.9210 B(  6-C ,  8-N ) :   1.0826 B(  7-C , 25-H ) :   0.9722
B(  7-C , 26-H ) :   0.9842 B(  7-C , 27-H ) :   0.9762 B(  8-N ,  9-C ) :   1.2009
B(  8-N , 28-H ) :   0.9563 B(  9-C , 10-S ) :   1.5986 B(  9-C , 11-N ) :   1.2894
B( 11-N , 12-C ) :   0.9966 B( 11-N , 29-H ) :   0.9571 B( 12-C , 13-C ) :   0.8969
B( 12-C , 30-H ) :   0.9822 B( 13-C , 14-C ) :   1.3703 B( 13-C , 19-C ) :   1.3796
B( 14-C , 15-C ) :   1.3771 B( 14-C , 31-H ) :   0.9765 B( 15-C , 16-C ) :   1.3765
B( 15-C , 32-H ) :   0.9711 B( 16-C , 17-C ) :   1.3081 B( 16-C , 33-H ) :   0.9891
B( 17-C , 18-O ) :   1.1052 B( 17-C , 19-C ) :   1.3986 B( 18-O , 34-H ) :   0.9774
B( 19-C , 35-H ) :   0.9526

MP2 TOTAL ENERGY:    -1274.237765132 Eh
FINAL SINGLE POINT ENERGY     -1274.237765132410

DIPOLE MOMENT
-------------
                                X             Y             Z
Electronic contribution:     10.99863      11.00104       8.20107
Nuclear contribution   :    -12.70760     -12.52574      -8.88598
                        -----------------------------------------
Total Dipole Moment    :     -1.70897      -1.52470      -0.68491
                        -----------------------------------------
Magnitude (a.u.)       :      2.39048
Magnitude (Debye)      :      6.07612

Rotational constants in cm-1:     0.012189     0.009292     0.006723
Rotational constants in MHz :   365.423792   278.554068   201.556539

                             ****ORCA TERMINATED NORMALLY****
TOTAL RUN TIME: 0 days 1 hours 38 minutes 1 seconds 837 msec
