                         Program Version 4.2.0 -  RELEASE  -
|  1> ! ri-mp2 cc-pvtz cc-pvtz/c TightSCF NoKeepInts
|  2>
|  3> %scf
|  4>   MaxCore 4096
|  5> end
|  6> *xyz  0  1
|  7>     C       14.5723601   14.4922693   15.5609549
|  8>     C       15.5784289   15.1125880   16.5438542
|  9>     O       16.8432022   15.2033513   15.8596474
| 10>     C       17.9564920   15.6801398   16.4992878
| 11>     O       19.0686871   15.2587590   16.2424018
| 12>     C       17.6984248   16.6900000   17.5700361
| 13>     C       17.3196186   17.9136060   17.1148739
| 14>     C       16.7620189   18.2558747   15.7448577
| 15>     N       17.5155193   19.0461094   17.9093803
| 16>     C       18.3947428   19.1076329   18.9560577
| 17>     S       18.7217391   20.5257917   19.7410334
| 18>     N       19.0091362   17.9305814   19.2985822
| 19>     C       18.6301595   16.5995549   18.7842441
| 20>     C       17.9534422   15.7880113   19.8810802
| 21>     C       18.3982711   14.4832959   20.1616713
| 22>     C       17.7699675   13.7112361   21.1531854
| 23>     C       16.6838661   14.2462020   21.8667597
| 24>     C       16.2330113   15.5428950   21.5846626
| 25>     O       15.1777237   16.0581048   22.2640361
| 26>     C       16.8596696   16.3089504   20.5966335
| 27>     H       14.9118652   13.5003295   15.2367021
| 28>     H       14.4582512   15.1251025   14.6720316
| 29>     H       13.5888494   14.3808097   16.0334996
| 30>     H       15.2149769   16.0958969   16.8655479
| 31>     H       15.6739426   14.4696894   17.4297993
| 32>     H       17.3213159   17.7529150   14.9450210
| 33>     H       16.8217824   19.3305305   15.5314951
| 34>     H       15.7100646   17.9622792   15.6553087
| 35>     H       17.1064035   19.9265695   17.6389051
| 36>     H       19.6547965   17.9988214   20.0750715
| 37>     H       19.5683078   16.1111825   18.4814686
| 38>     H       19.2328020   14.0639786   19.6040881
| 39>     H       18.1240362   12.7032995   21.3636239
| 40>     H       16.1951206   13.6528026   22.6325856
| 41>     H       14.9232262   15.4122991   22.9404327
| 42>     H       16.4947772   17.3105353   20.3951805
| 43> *
| 44>
| 45>                          ****END OF INPUT****

CARTESIAN COORDINATES (ANGSTROEM)
---------------------------------
  C     14.572360   14.492269   15.560955
  C     15.578429   15.112588   16.543854
  O     16.843202   15.203351   15.859647
  C     17.956492   15.680140   16.499288
  O     19.068687   15.258759   16.242402
  C     17.698425   16.690000   17.570036
  C     17.319619   17.913606   17.114874
  C     16.762019   18.255875   15.744858
  N     17.515519   19.046109   17.909380
  C     18.394743   19.107633   18.956058
  S     18.721739   20.525792   19.741033
  N     19.009136   17.930581   19.298582
  C     18.630160   16.599555   18.784244
  C     17.953442   15.788011   19.881080
  C     18.398271   14.483296   20.161671
  C     17.769967   13.711236   21.153185
  C     16.683866   14.246202   21.866760
  C     16.233011   15.542895   21.584663
  O     15.177724   16.058105   22.264036
  C     16.859670   16.308950   20.596633
  H     14.911865   13.500329   15.236702
  H     14.458251   15.125103   14.672032
  H     13.588849   14.380810   16.033500
  H     15.214977   16.095897   16.865548
  H     15.673943   14.469689   17.429799
  H     17.321316   17.752915   14.945021
  H     16.821782   19.330530   15.531495
  H     15.710065   17.962279   15.655309
  H     17.106403   19.926569   17.638905
  H     19.654796   17.998821   20.075071
  H     19.568308   16.111183   18.481469
  H     19.232802   14.063979   19.604088
  H     18.124036   12.703299   21.363624
  H     16.195121   13.652803   22.632586
  H     14.923226   15.412299   22.940433
  H     16.494777   17.310535   20.395180

 Total Charge           Charge          ....    0
 Multiplicity           Mult            ....    1
 Number of Electrons    NEL             ....  154
 Basis Dimension        Dim             ....  828

ORBITAL ENERGIES
----------------

  NO   OCC          E(Eh)            E(eV)
   0   2.0000     -91.890200     -2500.4595
   1   2.0000     -20.601143      -560.5856
   2   2.0000     -20.599136      -560.5310
   3   2.0000     -20.550565      -559.2093
   4   2.0000     -15.629830      -425.3093
   5   2.0000     -15.608579      -424.7310
   6   2.0000     -11.396411      -310.1121
   7   2.0000     -11.385235      -309.8080
   8   2.0000     -11.338781      -308.5439
   9   2.0000     -11.316569      -307.9395
  10   2.0000     -11.310678      -307.7792
  11   2.0000     -11.305931      -307.6500
  12   2.0000     -11.268289      -306.6257
  13   2.0000     -11.262203      -306.4601
  14   2.0000     -11.259881      -306.3969
  15   2.0000     -11.257465      -306.3312
  16   2.0000     -11.245126      -305.9954
  17   2.0000     -11.240525      -305.8702
  18   2.0000     -11.239715      -305.8482
  19   2.0000     -11.236162      -305.7515
  20   2.0000      -8.895269      -242.0526
  21   2.0000      -6.576848      -178.9651
  22   2.0000      -6.574834      -178.9103
  23   2.0000      -6.574249      -178.8944
  24   2.0000      -1.449917       -39.4543
  25   2.0000      -1.418767       -38.6066
  26   2.0000      -1.362552       -37.0769
  27   2.0000      -1.343061       -36.5465
  28   2.0000      -1.239995       -33.7420
  29   2.0000      -1.160598       -31.5815
  30   2.0000      -1.127249       -30.6740
  31   2.0000      -1.048529       -28.5319
  32   2.0000      -1.041295       -28.3351
  33   2.0000      -1.018186       -27.7063
  34   2.0000      -1.006234       -27.3810
  35   2.0000      -0.989478       -26.9251
  36   2.0000      -0.927111       -25.2280
  37   2.0000      -0.879932       -23.9442
  38   2.0000      -0.855803       -23.2876
  39   2.0000      -0.844309       -22.9748
  40   2.0000      -0.837114       -22.7790
  41   2.0000      -0.833781       -22.6883
  42   2.0000      -0.758722       -20.6459
  43   2.0000      -0.736255       -20.0345
  44   2.0000      -0.731446       -19.9037
  45   2.0000      -0.698522       -19.0078
  46   2.0000      -0.690781       -18.7971
  47   2.0000      -0.682306       -18.5665
  48   2.0000      -0.672499       -18.2996
  49   2.0000      -0.664547       -18.0832
  50   2.0000      -0.657815       -17.9000
  51   2.0000      -0.649068       -17.6620
  52   2.0000      -0.638676       -17.3792
  53   2.0000      -0.612128       -16.6568
  54   2.0000      -0.608656       -16.5624
  55   2.0000      -0.602628       -16.3984
  56   2.0000      -0.597673       -16.2635
  57   2.0000      -0.583409       -15.8754
  58   2.0000      -0.579252       -15.7622
  59   2.0000      -0.567716       -15.4483
  60   2.0000      -0.560203       -15.2439
  61   2.0000      -0.559647       -15.2288
  62   2.0000      -0.548524       -14.9261
  63   2.0000      -0.526269       -14.3205
  64   2.0000      -0.524572       -14.2743
  65   2.0000      -0.515963       -14.0401
  66   2.0000      -0.506942       -13.7946
  67   2.0000      -0.501088       -13.6353
  68   2.0000      -0.487791       -13.2735
  69   2.0000      -0.465951       -12.6792
  70   2.0000      -0.458753       -12.4833
  71   2.0000      -0.452322       -12.3083
  72   2.0000      -0.360725        -9.8158
  73   2.0000      -0.349925        -9.5219
  74   2.0000      -0.329753        -8.9730
  75   2.0000      -0.324993        -8.8435
  76   2.0000      -0.318501        -8.6669
  77   0.0000       0.080409         2.1880
  78   0.0000       0.104494         2.8434
  79   0.0000       0.115893         3.1536
  80   0.0000       0.128839         3.5059
  81   0.0000       0.130976         3.5640

MULLIKEN ATOMIC CHARGES
-----------------------
   0 C :   -0.258005
   1 C :    0.022687
   2 O :   -0.320433
   3 C :    0.413283
   4 O :   -0.381712
   5 C :   -0.214546
   6 C :    0.143089
   7 C :   -0.306460
   8 N :   -0.127748
   9 C :    0.193893
  10 S :   -0.437649
  11 N :   -0.197713
  12 C :    0.044020
  13 C :    0.052397
  14 C :   -0.212845
  15 C :   -0.126616
  16 C :   -0.280080
  17 C :    0.308185
  18 O :   -0.355440
  19 C :   -0.255129
  20 H :    0.106554
  21 H :    0.094833
  22 H :    0.090856
  23 H :    0.090190
  24 H :    0.112691
  25 H :    0.139184
  26 H :    0.117440
  27 H :    0.120854
  28 H :    0.196127
  29 H :    0.193415
  30 H :    0.171192
  31 H :    0.161464
  32 H :    0.162718
  33 H :    0.131167
  34 H :    0.241128
  35 H :    0.167011
Sum of atomic charges:   -0.0000000

LOEWDIN ATOMIC CHARGES
----------------------
   0 C :    0.111371
   1 C :   -0.026736
   2 O :    0.303283
   3 C :   -0.420915
   4 O :    0.118982
   5 C :   -0.089415
   6 C :   -0.075174
   7 C :    0.131191
   8 N :    0.404538
   9 C :   -0.462022
  10 S :   -0.035035
  11 N :    0.397615
  12 C :   -0.043742
  13 C :   -0.043601
  14 C :    0.010260
  15 C :    0.043446
  16 C :   -0.001568
  17 C :   -0.190355
  18 O :    0.395449
  19 C :    0.029401
  20 H :   -0.022380
  21 H :   -0.027489
  22 H :   -0.024218
  23 H :   -0.039564
  24 H :   -0.027713
  25 H :   -0.004035
  26 H :   -0.014351
  27 H :   -0.015394
  28 H :   -0.058853
  29 H :   -0.063684
  30 H :   -0.002217
  31 H :   -0.025593
  32 H :   -0.019543
  33 H :   -0.035133
  34 H :   -0.153258
  35 H :   -0.023548

  Mayer bond orders larger than 0.100000
B(  0-C ,  1-C ) :   0.9782 B(  0-C , 20-H ) :   0.9774 B(  0-C , 21-H ) :   0.9771
B(  0-C , 22-H ) :   0.9766 B(  1-C ,  2-O ) :   0.9034 B(  1-C , 23-H ) :   0.9659
B(  1-C , 24-H ) :   0.9754 B(  2-O ,  3-C ) :   1.1592 B(  3-C ,  4-O ) :   2.1133
B(  3-C ,  5-C ) :   0.9317 B(  5-C ,  6-C ) :   1.7063 B(  5-C , 12-C ) :   0.9435
B(  6-C ,  7-C ) :   0.9387 B(  6-C ,  8-N ) :   1.1090 B(  7-C , 25-H ) :   0.9647
B(  7-C , 26-H ) :   0.9866 B(  7-C , 27-H ) :   0.9675 B(  8-N ,  9-C ) :   1.1858
B(  8-N , 28-H ) :   0.9496 B(  9-C , 10-S ) :   1.6172 B(  9-C , 11-N ) :   1.2916
B( 11-N , 12-C ) :   0.9972 B( 11-N , 29-H ) :   0.9527 B( 12-C , 13-C ) :   0.9501
B( 12-C , 30-H ) :   0.9875 B( 13-C , 14-C ) :   1.3751 B( 13-C , 19-C ) :   1.3667
B( 14-C , 15-C ) :   1.3852 B( 14-C , 31-H ) :   0.9667 B( 15-C , 16-C ) :   1.3729
B( 15-C , 32-H ) :   0.9702 B( 16-C , 17-C ) :   1.3249 B( 16-C , 33-H ) :   0.9848
B( 17-C , 18-O ) :   1.1130 B( 17-C , 19-C ) :   1.3739 B( 18-O , 34-H ) :   0.9794
B( 19-C , 35-H ) :   0.9575

MP2 TOTAL ENERGY:    -1274.328094486 Eh
FINAL SINGLE POINT ENERGY     -1274.328094485892

DIPOLE MOMENT
-------------
                                X             Y             Z
Electronic contribution:     10.89383       8.83799       8.87177
Nuclear contribution   :    -12.70656     -10.09437      -8.93980
                        -----------------------------------------
Total Dipole Moment    :     -1.81273      -1.25638      -0.06803
                        -----------------------------------------
Magnitude (a.u.)       :      2.20661
Magnitude (Debye)      :      5.60875

Rotational constants in cm-1:     0.009874     0.009699     0.006249
Rotational constants in MHz :   296.025207   290.773277   187.332424

                             ****ORCA TERMINATED NORMALLY****
TOTAL RUN TIME: 0 days 2 hours 47 minutes 41 seconds 158 msec
