                         Program Version 4.2.0 -  RELEASE  -
|  1> ! ri-mp2 cc-pvtz cc-pvtz/c TightSCF  NoKeepInts
|  2>
|  3> %scf
|  4>   MaxCore 4096
|  5> end
|  6> *xyz  0  1
|  7>     C       15.3792101   13.6629793   15.8813953
|  8>     C       15.1163507   15.1162683   16.2862619
|  9>     O       16.1745434   15.8817172   16.8240102
| 10>     C       17.5011482   15.9059583   16.5457675
| 11>     O       18.1817130   14.9117448   16.3462780
| 12>     C       17.8419105   16.9470207   17.5279687
| 13>     C       17.4230828   18.2281095   17.3377380
| 14>     C       16.7155646   18.7679921   16.0961054
| 15>     N       17.9465008   19.2483032   18.1296639
| 16>     C       18.8640561   19.0666958   19.1319147
| 17>     S       19.3988442   20.3554846   20.0219055
| 18>     N       19.2951635   17.7738809   19.3655981
| 19>     C       18.8738887   16.5836750   18.5800666
| 20>     C       17.9752752   15.9243585   19.6938386
| 21>     C       18.1985289   14.5308979   19.9189484
| 22>     C       17.4195152   13.7546197   20.7877860
| 23>     C       16.3547067   14.3507906   21.4645848
| 24>     C       16.0775165   15.7074983   21.2444726
| 25>     O       15.0191067   16.2569297   21.8925630
| 26>     C       16.8615517   16.4870569   20.3653296
| 27>     H       15.6596501   13.6408120   14.8201203
| 28>     H       14.4553067   13.0858432   15.9933839
| 29>     H       16.1740054   13.1878759   16.4672005
| 30>     H       14.2644761   15.6376653   15.8297401
| 31>     H       14.7234136   14.9151412   17.2887339
| 32>     H       17.0745561   18.2843504   15.1758223
| 33>     H       16.8867929   19.8444107   15.9449993
| 34>     H       15.6340088   18.6119700   16.1561421
| 35>     H       17.6830566   20.2046620   17.9435433
| 36>     H       19.9149702   17.6751797   20.1569247
| 37>     H       19.4469166   15.6637077   18.4761466
| 38>     H       18.9797700   13.9949604   19.3834526
| 39>     H       17.6379072   12.6935930   20.9192183
| 40>     H       15.7471252   13.7519771   22.1387190
| 41>     H       14.6662511   15.5787983   22.4924880
| 42>     H       16.5806102   17.5190669   20.2051716
| 43> *
| 44>
| 45>                          ****END OF INPUT****

CARTESIAN COORDINATES (ANGSTROEM)
---------------------------------
  C     15.379210   13.662979   15.881395
  C     15.116351   15.116268   16.286262
  O     16.174543   15.881717   16.824010
  C     17.501148   15.905958   16.545768
  O     18.181713   14.911745   16.346278
  C     17.841911   16.947021   17.527969
  C     17.423083   18.228109   17.337738
  C     16.715565   18.767992   16.096105
  N     17.946501   19.248303   18.129664
  C     18.864056   19.066696   19.131915
  S     19.398844   20.355485   20.021905
  N     19.295164   17.773881   19.365598
  C     18.873889   16.583675   18.580067
  C     17.975275   15.924358   19.693839
  C     18.198529   14.530898   19.918948
  C     17.419515   13.754620   20.787786
  C     16.354707   14.350791   21.464585
  C     16.077517   15.707498   21.244473
  O     15.019107   16.256930   21.892563
  C     16.861552   16.487057   20.365330
  H     15.659650   13.640812   14.820120
  H     14.455307   13.085843   15.993384
  H     16.174005   13.187876   16.467201
  H     14.264476   15.637665   15.829740
  H     14.723414   14.915141   17.288734
  H     17.074556   18.284350   15.175822
  H     16.886793   19.844411   15.944999
  H     15.634009   18.611970   16.156142
  H     17.683057   20.204662   17.943543
  H     19.914970   17.675180   20.156925
  H     19.446917   15.663708   18.476147
  H     18.979770   13.994960   19.383453
  H     17.637907   12.693593   20.919218
  H     15.747125   13.751977   22.138719
  H     14.666251   15.578798   22.492488
  H     16.580610   17.519067   20.205172

 Total Charge           Charge          ....    0
 Multiplicity           Mult            ....    1
 Number of Electrons    NEL             ....  154
 Basis Dimension        Dim             ....  828

ORBITAL ENERGIES
----------------

  NO   OCC          E(Eh)            E(eV)
   0   2.0000     -91.886312     -2500.3537
   1   2.0000     -20.603886      -560.6602
   2   2.0000     -20.591121      -560.3129
   3   2.0000     -20.558885      -559.4357
   4   2.0000     -15.622008      -425.0964
   5   2.0000     -15.609873      -424.7662
   6   2.0000     -11.396410      -310.1121
   7   2.0000     -11.383296      -309.7552
   8   2.0000     -11.322312      -308.0958
   9   2.0000     -11.315927      -307.9220
  10   2.0000     -11.310482      -307.7739
  11   2.0000     -11.293515      -307.3122
  12   2.0000     -11.265105      -306.5391
  13   2.0000     -11.257820      -306.3409
  14   2.0000     -11.257363      -306.3284
  15   2.0000     -11.246826      -306.0417
  16   2.0000     -11.235684      -305.7385
  17   2.0000     -11.235392      -305.7306
  18   2.0000     -11.230111      -305.5868
  19   2.0000     -11.229360      -305.5664
  20   2.0000      -8.891343      -241.9457
  21   2.0000      -6.572919      -178.8582
  22   2.0000      -6.570910      -178.8036
  23   2.0000      -6.570335      -178.7879
  24   2.0000      -1.464598       -39.8537
  25   2.0000      -1.410607       -38.3846
  26   2.0000      -1.368666       -37.2433
  27   2.0000      -1.334208       -36.3057
  28   2.0000      -1.235016       -33.6065
  29   2.0000      -1.150580       -31.3089
  30   2.0000      -1.122264       -30.5384
  31   2.0000      -1.052047       -28.6277
  32   2.0000      -1.038218       -28.2513
  33   2.0000      -1.007784       -27.4232
  34   2.0000      -0.994744       -27.0684
  35   2.0000      -0.981816       -26.7166
  36   2.0000      -0.926244       -25.2044
  37   2.0000      -0.909554       -24.7502
  38   2.0000      -0.845892       -23.0179
  39   2.0000      -0.830933       -22.6108
  40   2.0000      -0.826160       -22.4810
  41   2.0000      -0.813049       -22.1242
  42   2.0000      -0.741561       -20.1789
  43   2.0000      -0.728356       -19.8196
  44   2.0000      -0.721103       -19.6222
  45   2.0000      -0.694125       -18.8881
  46   2.0000      -0.690833       -18.7985
  47   2.0000      -0.687568       -18.7097
  48   2.0000      -0.676886       -18.4190
  49   2.0000      -0.664250       -18.0751
  50   2.0000      -0.654039       -17.7973
  51   2.0000      -0.643855       -17.5202
  52   2.0000      -0.633103       -17.2276
  53   2.0000      -0.604692       -16.4545
  54   2.0000      -0.598851       -16.2956
  55   2.0000      -0.597308       -16.2536
  56   2.0000      -0.592562       -16.1244
  57   2.0000      -0.587135       -15.9768
  58   2.0000      -0.574678       -15.6378
  59   2.0000      -0.568964       -15.4823
  60   2.0000      -0.552362       -15.0305
  61   2.0000      -0.549736       -14.9591
  62   2.0000      -0.546959       -14.8835
  63   2.0000      -0.524699       -14.2778
  64   2.0000      -0.511074       -13.9070
  65   2.0000      -0.507572       -13.8117
  66   2.0000      -0.497036       -13.5250
  67   2.0000      -0.493648       -13.4328
  68   2.0000      -0.479170       -13.0389
  69   2.0000      -0.461211       -12.5502
  70   2.0000      -0.451949       -12.2981
  71   2.0000      -0.432335       -11.7644
  72   2.0000      -0.343307        -9.3419
  73   2.0000      -0.337863        -9.1937
  74   2.0000      -0.324064        -8.8182
  75   2.0000      -0.313596        -8.5334
  76   2.0000      -0.305646        -8.3171
  77   0.0000       0.069362         1.8874
  78   0.0000       0.105870         2.8809
  79   0.0000       0.117581         3.1996
  80   0.0000       0.133028         3.6199
  81   0.0000       0.133897         3.6435

MULLIKEN ATOMIC CHARGES
-----------------------
   0 C :   -0.282656
   1 C :    0.001228
   2 O :   -0.289629
   3 C :    0.394982
   4 O :   -0.402886
   5 C :   -0.111336
   6 C :    0.103270
   7 C :   -0.307362
   8 N :   -0.118905
   9 C :    0.203238
  10 S :   -0.441338
  11 N :   -0.208229
  12 C :    0.078342
  13 C :    0.040165
  14 C :   -0.223376
  15 C :   -0.122664
  16 C :   -0.279922
  17 C :    0.310998
  18 O :   -0.360644
  19 C :   -0.248240
  20 H :    0.085188
  21 H :    0.100487
  22 H :    0.127836
  23 H :    0.105665
  24 H :    0.091404
  25 H :    0.116136
  26 H :    0.110644
  27 H :    0.128458
  28 H :    0.192626
  29 H :    0.188560
  30 H :    0.195319
  31 H :    0.135335
  32 H :    0.156784
  33 H :    0.126002
  34 H :    0.242821
  35 H :    0.161701
Sum of atomic charges:    0.0000000

LOEWDIN ATOMIC CHARGES
----------------------
   0 C :    0.104318
   1 C :   -0.054201
   2 O :    0.372216
   3 C :   -0.423248
   4 O :    0.116160
   5 C :   -0.107412
   6 C :   -0.083167
   7 C :    0.126092
   8 N :    0.397789
   9 C :   -0.450571
  10 S :   -0.039264
  11 N :    0.392749
  12 C :    0.004075
  13 C :   -0.026065
  14 C :   -0.001583
  15 C :    0.032744
  16 C :   -0.010636
  17 C :   -0.186469
  18 O :    0.387929
  19 C :    0.028549
  20 H :   -0.033610
  21 H :   -0.021572
  22 H :   -0.017575
  23 H :   -0.030557
  24 H :   -0.026024
  25 H :   -0.011293
  26 H :   -0.014880
  27 H :   -0.016631
  28 H :   -0.059165
  29 H :   -0.068359
  30 H :   -0.013350
  31 H :   -0.031980
  32 H :   -0.018852
  33 H :   -0.034957
  34 H :   -0.150708
  35 H :   -0.030491

  Mayer bond orders larger than 0.100000
B(  0-C ,  1-C ) :   0.9726 B(  0-C , 20-H ) :   0.9798 B(  0-C , 21-H ) :   0.9747
B(  0-C , 22-H ) :   0.9688 B(  1-C ,  2-O ) :   0.9291 B(  1-C , 23-H ) :   0.9753
B(  1-C , 24-H ) :   0.9803 B(  2-O ,  3-C ) :   1.1409 B(  3-C ,  4-O ) :   2.0338
B(  3-C ,  5-C ) :   1.0063 B(  5-C ,  6-C ) :   1.7226 B(  5-C , 12-C ) :   0.9723
B(  6-C ,  7-C ) :   0.9180 B(  6-C ,  8-N ) :   1.1141 B(  7-C , 25-H ) :   0.9750
B(  7-C , 26-H ) :   0.9896 B(  7-C , 27-H ) :   0.9722 B(  8-N ,  9-C ) :   1.1965
B(  8-N , 28-H ) :   0.9511 B(  9-C , 10-S ) :   1.6036 B(  9-C , 11-N ) :   1.2886
B( 11-N , 12-C ) :   1.0100 B( 11-N , 29-H ) :   0.9532 B( 12-C , 13-C ) :   0.8838
B( 12-C , 30-H ) :   0.9790 B( 13-C , 14-C ) :   1.3786 B( 13-C , 19-C ) :   1.3851
B( 14-C , 15-C ) :   1.3818 B( 14-C , 31-H ) :   0.9739 B( 15-C , 16-C ) :   1.3652
B( 15-C , 32-H ) :   0.9720 B( 16-C , 17-C ) :   1.3206 B( 16-C , 33-H ) :   0.9878
B( 17-C , 18-O ) :   1.1015 B( 17-C , 19-C ) :   1.3849 B( 18-O , 34-H ) :   0.9781
B( 19-C , 35-H ) :   0.9530

MP2 TOTAL ENERGY:    -1274.225413860 Eh
FINAL SINGLE POINT ENERGY     -1274.225413859663

DIPOLE MOMENT
-------------
                                X             Y             Z
Electronic contribution:     10.68551      11.02191       8.56681
Nuclear contribution   :    -12.37316     -12.28590      -9.56199
                        -----------------------------------------
Total Dipole Moment    :     -1.68765      -1.26399      -0.99518
                        -----------------------------------------
Magnitude (a.u.)       :      2.33157
Magnitude (Debye)      :      5.92638

Rotational constants in cm-1:     0.011920     0.009088     0.006464
Rotational constants in MHz :   357.362433   272.462270   193.800690

                             ****ORCA TERMINATED NORMALLY****
TOTAL RUN TIME: 0 days 1 hours 39 minutes 45 seconds 917 msec
