                         Program Version 4.2.0 -  RELEASE  -
|  1> ! ri-mp2 cc-pvtz cc-pvtz/c TightSCF NoKeepInts
|  2>
|  3> %scf
|  4>   MaxCore 4096
|  5> end
|  6> *xyz  0  1
|  7>     C       14.4481816   15.2416878   14.2716772
|  8>     C       15.6960346   14.7870274   15.0470718
|  9>     O       15.9750868   15.7880832   16.0392492
| 10>     C       17.0510709   15.6219010   16.8619439
| 11>     O       17.7697253   14.6377772   16.7819406
| 12>     C       17.2544507   16.6907325   17.9066492
| 13>     C       16.8452940   17.9694917   17.6631153
| 14>     C       15.8255682   18.4800707   16.6620913
| 15>     N       17.4086270   19.0265397   18.3851659
| 16>     C       18.5825208   18.9558352   19.0825885
| 17>     S       19.2851618   20.2947009   19.7526489
| 18>     N       19.1538372   17.7148088   19.1758276
| 19>     C       18.5015497   16.4533072   18.7753779
| 20>     C       18.1247601   15.6592394   20.0217181
| 21>     C       18.4669053   14.2975984   20.1112944
| 22>     C       18.1211481   13.5446679   21.2459325
| 23>     C       17.4225286   14.1572448   22.3001285
| 24>     C       17.0713801   15.5112042   22.2113587
| 25>     O       16.3888056   16.1026670   23.2240808
| 26>     C       17.4168076   16.2582041   21.0806324
| 27>     H       13.5900000   15.3459856   14.9472120
| 28>     H       14.1887419   14.5089327   13.4978300
| 29>     H       14.6260848   16.2081042   13.7839450
| 30>     H       15.5082529   13.8161410   15.5256022
| 31>     H       16.5467916   14.6803825   14.3603593
| 32>     H       14.8694965   17.9541315   16.7778597
| 33>     H       16.1771453   18.3283918   15.6339346
| 34>     H       15.6153081   19.5503288   16.7771097
| 35>     H       17.0147403   19.9501572   18.3043287
| 36>     H       20.0108404   17.6815240   19.7130149
| 37>     H       19.2536134   15.9034286   18.1912653
| 38>     H       18.9939098   13.8186246   19.2890867
| 39>     H       18.3901353   12.4913748   21.3017732
| 40>     H       17.1516716   13.5792700   23.1773590
| 41>     H       16.2680845   15.4385366   23.9190298
| 42>     H       17.1327388   17.3038909   21.0337940
| 43> *
| 44>
| 45>                          ****END OF INPUT****

CARTESIAN COORDINATES (ANGSTROEM)
---------------------------------
  C     14.448182   15.241688   14.271677
  C     15.696035   14.787027   15.047072
  O     15.975087   15.788083   16.039249
  C     17.051071   15.621901   16.861944
  O     17.769725   14.637777   16.781941
  C     17.254451   16.690732   17.906649
  C     16.845294   17.969492   17.663115
  C     15.825568   18.480071   16.662091
  N     17.408627   19.026540   18.385166
  C     18.582521   18.955835   19.082588
  S     19.285162   20.294701   19.752649
  N     19.153837   17.714809   19.175828
  C     18.501550   16.453307   18.775378
  C     18.124760   15.659239   20.021718
  C     18.466905   14.297598   20.111294
  C     18.121148   13.544668   21.245932
  C     17.422529   14.157245   22.300128
  C     17.071380   15.511204   22.211359
  O     16.388806   16.102667   23.224081
  C     17.416808   16.258204   21.080632
  H     13.590000   15.345986   14.947212
  H     14.188742   14.508933   13.497830
  H     14.626085   16.208104   13.783945
  H     15.508253   13.816141   15.525602
  H     16.546792   14.680382   14.360359
  H     14.869497   17.954131   16.777860
  H     16.177145   18.328392   15.633935
  H     15.615308   19.550329   16.777110
  H     17.014740   19.950157   18.304329
  H     20.010840   17.681524   19.713015
  H     19.253613   15.903429   18.191265
  H     18.993910   13.818625   19.289087
  H     18.390135   12.491375   21.301773
  H     17.151672   13.579270   23.177359
  H     16.268085   15.438537   23.919030
  H     17.132739   17.303891   21.033794

 Total Charge           Charge          ....    0
 Multiplicity           Mult            ....    1
 Number of Electrons    NEL             ....  154
 Basis Dimension        Dim             ....  828

ORBITAL ENERGIES
----------------

  NO   OCC          E(Eh)            E(eV)
   0   2.0000     -91.888686     -2500.4183
   1   2.0000     -20.605906      -560.7152
   2   2.0000     -20.590306      -560.2907
   3   2.0000     -20.543638      -559.0208
   4   2.0000     -15.629688      -425.3054
   5   2.0000     -15.605386      -424.6441
   6   2.0000     -11.395228      -310.0799
   7   2.0000     -11.382478      -309.7330
   8   2.0000     -11.342215      -308.6374
   9   2.0000     -11.306560      -307.6671
  10   2.0000     -11.304194      -307.6027
  11   2.0000     -11.300338      -307.4978
  12   2.0000     -11.262080      -306.4568
  13   2.0000     -11.261104      -306.4302
  14   2.0000     -11.252639      -306.1999
  15   2.0000     -11.246722      -306.0389
  16   2.0000     -11.236605      -305.7636
  17   2.0000     -11.235556      -305.7350
  18   2.0000     -11.231654      -305.6289
  19   2.0000     -11.228211      -305.5351
  20   2.0000      -8.893745      -242.0111
  21   2.0000      -6.575323      -178.9236
  22   2.0000      -6.573315      -178.8690
  23   2.0000      -6.572727      -178.8530
  24   2.0000      -1.456286       -39.6276
  25   2.0000      -1.409985       -38.3676
  26   2.0000      -1.356536       -36.9132
  27   2.0000      -1.341901       -36.5150
  28   2.0000      -1.238063       -33.6894
  29   2.0000      -1.151076       -31.3224
  30   2.0000      -1.120649       -30.4944
  31   2.0000      -1.045745       -28.4562
  32   2.0000      -1.036798       -28.2127
  33   2.0000      -1.008747       -27.4494
  34   2.0000      -0.998889       -27.1811
  35   2.0000      -0.983681       -26.7673
  36   2.0000      -0.921069       -25.0635
  37   2.0000      -0.888486       -24.1769
  38   2.0000      -0.848270       -23.0826
  39   2.0000      -0.834168       -22.6989
  40   2.0000      -0.826520       -22.4908
  41   2.0000      -0.815713       -22.1967
  42   2.0000      -0.763379       -20.7726
  43   2.0000      -0.734517       -19.9872
  44   2.0000      -0.723793       -19.6954
  45   2.0000      -0.691758       -18.8237
  46   2.0000      -0.684590       -18.6287
  47   2.0000      -0.682539       -18.5728
  48   2.0000      -0.675758       -18.3883
  49   2.0000      -0.657877       -17.9018
  50   2.0000      -0.651590       -17.7307
  51   2.0000      -0.641704       -17.4617
  52   2.0000      -0.633312       -17.2333
  53   2.0000      -0.602866       -16.4048
  54   2.0000      -0.598873       -16.2962
  55   2.0000      -0.594065       -16.1653
  56   2.0000      -0.592661       -16.1271
  57   2.0000      -0.583826       -15.8867
  58   2.0000      -0.572515       -15.5789
  59   2.0000      -0.564400       -15.3581
  60   2.0000      -0.562170       -15.2974
  61   2.0000      -0.554389       -15.0857
  62   2.0000      -0.543948       -14.8016
  63   2.0000      -0.520259       -14.1570
  64   2.0000      -0.514652       -14.0044
  65   2.0000      -0.511912       -13.9298
  66   2.0000      -0.505253       -13.7486
  67   2.0000      -0.493680       -13.4337
  68   2.0000      -0.479655       -13.0521
  69   2.0000      -0.465490       -12.6666
  70   2.0000      -0.458010       -12.4631
  71   2.0000      -0.453623       -12.3437
  72   2.0000      -0.357798        -9.7362
  73   2.0000      -0.342206        -9.3119
  74   2.0000      -0.327697        -8.9171
  75   2.0000      -0.317208        -8.6317
  76   2.0000      -0.312865        -8.5135
  77   0.0000       0.076182         2.0730
  78   0.0000       0.114971         3.1285
  79   0.0000       0.119081         3.2404
  80   0.0000       0.136357         3.7105
  81   0.0000       0.138507         3.7690

MULLIKEN ATOMIC CHARGES
-----------------------
   0 C :   -0.273056
   1 C :    0.043109
   2 O :   -0.332007
   3 C :    0.404236
   4 O :   -0.431111
   5 C :   -0.140961
   6 C :    0.155052
   7 C :   -0.282402
   8 N :   -0.126136
   9 C :    0.188661
  10 S :   -0.437618
  11 N :   -0.201758
  12 C :    0.031942
  13 C :    0.059253
  14 C :   -0.195164
  15 C :   -0.128415
  16 C :   -0.280977
  17 C :    0.307620
  18 O :   -0.357809
  19 C :   -0.253254
  20 H :    0.097257
  21 H :    0.102356
  22 H :    0.092390
  23 H :    0.097775
  24 H :    0.092545
  25 H :    0.132232
  26 H :    0.124596
  27 H :    0.105210
  28 H :    0.199320
  29 H :    0.194181
  30 H :    0.162088
  31 H :    0.160316
  32 H :    0.159349
  33 H :    0.127425
  34 H :    0.239753
  35 H :    0.164004
Sum of atomic charges:   -0.0000000

LOEWDIN ATOMIC CHARGES
----------------------
   0 C :    0.107278
   1 C :   -0.018658
   2 O :    0.308141
   3 C :   -0.415087
   4 O :    0.094160
   5 C :   -0.089580
   6 C :   -0.055907
   7 C :    0.124530
   8 N :    0.406700
   9 C :   -0.464457
  10 S :   -0.035182
  11 N :    0.397773
  12 C :   -0.043523
  13 C :   -0.039861
  14 C :    0.018005
  15 C :    0.041330
  16 C :   -0.003143
  17 C :   -0.191223
  18 O :    0.393941
  19 C :    0.029018
  20 H :   -0.026925
  21 H :   -0.022495
  22 H :   -0.028998
  23 H :   -0.026775
  24 H :   -0.028958
  25 H :   -0.008713
  26 H :   -0.010264
  27 H :   -0.020742
  28 H :   -0.059146
  29 H :   -0.063077
  30 H :   -0.005599
  31 H :   -0.024628
  32 H :   -0.021238
  33 H :   -0.036669
  34 H :   -0.154962
  35 H :   -0.025063

  Mayer bond orders larger than 0.100000
B(  0-C ,  1-C ) :   0.9698 B(  0-C , 20-H ) :   0.9767 B(  0-C , 21-H ) :   0.9790
B(  0-C , 22-H ) :   0.9779 B(  1-C ,  2-O ) :   0.9046 B(  1-C , 23-H ) :   0.9772
B(  1-C , 24-H ) :   0.9775 B(  2-O ,  3-C ) :   1.1664 B(  3-C ,  4-O ) :   1.9617
B(  3-C ,  5-C ) :   1.0545 B(  5-C ,  6-C ) :   1.6376 B(  5-C , 12-C ) :   0.9614
B(  6-C ,  7-C ) :   0.9565 B(  6-C ,  8-N ) :   1.1154 B(  7-C , 25-H ) :   0.9636
B(  7-C , 26-H ) :   0.9627 B(  7-C , 27-H ) :   0.9922 B(  8-N ,  9-C ) :   1.1809
B(  8-N , 28-H ) :   0.9477 B(  9-C , 10-S ) :   1.6155 B(  9-C , 11-N ) :   1.3042
B( 11-N , 12-C ) :   0.9800 B( 11-N , 29-H ) :   0.9524 B( 12-C , 13-C ) :   0.9652
B( 12-C , 30-H ) :   0.9937 B( 13-C , 14-C ) :   1.3794 B( 13-C , 19-C ) :   1.3667
B( 14-C , 15-C ) :   1.3873 B( 14-C , 31-H ) :   0.9641 B( 15-C , 16-C ) :   1.3660
B( 15-C , 32-H ) :   0.9715 B( 16-C , 17-C ) :   1.3298 B( 16-C , 33-H ) :   0.9863
B( 17-C , 18-O ) :   1.1088 B( 17-C , 19-C ) :   1.3751 B( 18-O , 34-H ) :   0.9808
B( 19-C , 35-H ) :   0.9573

MP2 TOTAL ENERGY:    -1274.343266077 Eh
FINAL SINGLE POINT ENERGY     -1274.343266076742

DIPOLE MOMENT
-------------
                                X             Y             Z
Electronic contribution:     11.08790       7.51963      13.20778
Nuclear contribution   :    -12.61866      -8.68171     -14.22036
                        -----------------------------------------
Total Dipole Moment    :     -1.53076      -1.16208      -1.01258
                        -----------------------------------------
Magnitude (a.u.)       :      2.17232
Magnitude (Debye)      :      5.52160

Rotational constants in cm-1:     0.011075     0.007876     0.005410
Rotational constants in MHz :   332.025460   236.125445   162.190807

                             ****ORCA TERMINATED NORMALLY****
TOTAL RUN TIME: 0 days 2 hours 23 minutes 59 seconds 452 msec
