                         Program Version 4.2.0 -  RELEASE  -
|  1> ! ri-mp2 cc-pvtz cc-pvtz/c TightSCF  NoKeepInts
|  2>
|  3> %scf
|  4>   MaxCore 4096
|  5> end
|  6> *xyz  0  1
|  7>     C       15.6617201   13.7714738   15.1157270
|  8>     C       15.0650065   15.0364038   15.7675954
|  9>     O       15.9082118   15.8714433   16.5845481
| 10>     C       17.2658757   15.8268614   16.7238073
| 11>     O       17.9292375   14.8102620   16.5976757
| 12>     C       17.6378585   16.9031206   17.6835624
| 13>     C       17.2201182   18.1911798   17.4843964
| 14>     C       16.4547899   18.7660298   16.3010750
| 15>     N       17.8932386   19.1706613   18.2333436
| 16>     C       18.8958532   18.9875300   19.1478578
| 17>     S       19.5651911   20.2784366   19.9419280
| 18>     N       19.2895252   17.6917837   19.3802476
| 19>     C       18.7550678   16.5165613   18.6515593
| 20>     C       17.9608723   15.9109390   19.8588775
| 21>     C       18.1566537   14.5155539   20.0805353
| 22>     C       17.4492707   13.7881889   21.0499639
| 23>     C       16.4916176   14.4422194   21.8293591
| 24>     C       16.2437299   15.8050542   21.6106875
| 25>     O       15.2921425   16.4186013   22.3586799
| 26>     C       16.9532430   16.5323669   20.6329372
| 27>     H       16.3443286   14.0660125   14.3062419
| 28>     H       14.8564726   13.1860854   14.6550897
| 29>     H       16.1984962   13.1232147   15.8162731
| 30>     H       14.3248281   15.5630877   15.1527133
| 31>     H       14.4763103   14.5891272   16.5787567
| 32>     H       15.3849817   18.5709278   16.4114803
| 33>     H       16.7862872   18.3332520   15.3457120
| 34>     H       16.5870054   19.8537090   16.1994014
| 35>     H       17.6569608   20.1396486   18.0722331
| 36>     H       20.0104835   17.5893876   20.0810031
| 37>     H       19.3274522   15.6066218   18.4622712
| 38>     H       18.8543198   13.9479955   19.4670406
| 39>     H       17.6380191   12.7216452   21.1841750
| 40>     H       15.9418128   13.8848263   22.5837348
| 41>     H       14.9676516   15.7690743   23.0033436
| 42>     H       16.7023656   17.5727092   20.4801630
| 43> *
| 44>
| 45>                          ****END OF INPUT****

CARTESIAN COORDINATES (ANGSTROEM)
---------------------------------
  C     15.661720   13.771474   15.115727
  C     15.065006   15.036404   15.767595
  O     15.908212   15.871443   16.584548
  C     17.265876   15.826861   16.723807
  O     17.929237   14.810262   16.597676
  C     17.637858   16.903121   17.683562
  C     17.220118   18.191180   17.484396
  C     16.454790   18.766030   16.301075
  N     17.893239   19.170661   18.233344
  C     18.895853   18.987530   19.147858
  S     19.565191   20.278437   19.941928
  N     19.289525   17.691784   19.380248
  C     18.755068   16.516561   18.651559
  C     17.960872   15.910939   19.858877
  C     18.156654   14.515554   20.080535
  C     17.449271   13.788189   21.049964
  C     16.491618   14.442219   21.829359
  C     16.243730   15.805054   21.610687
  O     15.292142   16.418601   22.358680
  C     16.953243   16.532367   20.632937
  H     16.344329   14.066012   14.306242
  H     14.856473   13.186085   14.655090
  H     16.198496   13.123215   15.816273
  H     14.324828   15.563088   15.152713
  H     14.476310   14.589127   16.578757
  H     15.384982   18.570928   16.411480
  H     16.786287   18.333252   15.345712
  H     16.587005   19.853709   16.199401
  H     17.656961   20.139649   18.072233
  H     20.010483   17.589388   20.081003
  H     19.327452   15.606622   18.462271
  H     18.854320   13.947995   19.467041
  H     17.638019   12.721645   21.184175
  H     15.941813   13.884826   22.583735
  H     14.967652   15.769074   23.003344
  H     16.702366   17.572709   20.480163

 Total Charge           Charge          ....    0
 Multiplicity           Mult            ....    1
 Number of Electrons    NEL             ....  154
 Basis Dimension        Dim             ....  828

ORBITAL ENERGIES
----------------

  NO   OCC          E(Eh)            E(eV)
   0   2.0000     -91.887246     -2500.3791
   1   2.0000     -20.602530      -560.6233
   2   2.0000     -20.589159      -560.2595
   3   2.0000     -20.548269      -559.1468
   4   2.0000     -15.624013      -425.1510
   5   2.0000     -15.609292      -424.7504
   6   2.0000     -11.396105      -310.1038
   7   2.0000     -11.383309      -309.7556
   8   2.0000     -11.335605      -308.4575
   9   2.0000     -11.313862      -307.8658
  10   2.0000     -11.308014      -307.7067
  11   2.0000     -11.301454      -307.5282
  12   2.0000     -11.267663      -306.6087
  13   2.0000     -11.262430      -306.4663
  14   2.0000     -11.254710      -306.2562
  15   2.0000     -11.244808      -305.9868
  16   2.0000     -11.233210      -305.6712
  17   2.0000     -11.233055      -305.6670
  18   2.0000     -11.228891      -305.5537
  19   2.0000     -11.227244      -305.5088
  20   2.0000      -8.892203      -241.9691
  21   2.0000      -6.573780      -178.8816
  22   2.0000      -6.571758      -178.8266
  23   2.0000      -6.571192      -178.8112
  24   2.0000      -1.451044       -39.4849
  25   2.0000      -1.408759       -38.3343
  26   2.0000      -1.359589       -36.9963
  27   2.0000      -1.336260       -36.3615
  28   2.0000      -1.237116       -33.6636
  29   2.0000      -1.148701       -31.2577
  30   2.0000      -1.118786       -30.4437
  31   2.0000      -1.043783       -28.4028
  32   2.0000      -1.037148       -28.2222
  33   2.0000      -1.006466       -27.3873
  34   2.0000      -0.995386       -27.0858
  35   2.0000      -0.980679       -26.6856
  36   2.0000      -0.924809       -25.1653
  37   2.0000      -0.901646       -24.5350
  38   2.0000      -0.850179       -23.1345
  39   2.0000      -0.830242       -22.5920
  40   2.0000      -0.824295       -22.4302
  41   2.0000      -0.813649       -22.1405
  42   2.0000      -0.738550       -20.0970
  43   2.0000      -0.726475       -19.7684
  44   2.0000      -0.718098       -19.5405
  45   2.0000      -0.692318       -18.8389
  46   2.0000      -0.686854       -18.6902
  47   2.0000      -0.680587       -18.5197
  48   2.0000      -0.673883       -18.3373
  49   2.0000      -0.663145       -18.0451
  50   2.0000      -0.652052       -17.7432
  51   2.0000      -0.643575       -17.5126
  52   2.0000      -0.633601       -17.2411
  53   2.0000      -0.602734       -16.4012
  54   2.0000      -0.598261       -16.2795
  55   2.0000      -0.596941       -16.2436
  56   2.0000      -0.591044       -16.0831
  57   2.0000      -0.587490       -15.9864
  58   2.0000      -0.574470       -15.6321
  59   2.0000      -0.568257       -15.4631
  60   2.0000      -0.553210       -15.0536
  61   2.0000      -0.548892       -14.9361
  62   2.0000      -0.543013       -14.7761
  63   2.0000      -0.522156       -14.2086
  64   2.0000      -0.510753       -13.8983
  65   2.0000      -0.508805       -13.8453
  66   2.0000      -0.500747       -13.6260
  67   2.0000      -0.494923       -13.4675
  68   2.0000      -0.481514       -13.1027
  69   2.0000      -0.458322       -12.4716
  70   2.0000      -0.449236       -12.2243
  71   2.0000      -0.441316       -12.0088
  72   2.0000      -0.343435        -9.3453
  73   2.0000      -0.340890        -9.2761
  74   2.0000      -0.325327        -8.8526
  75   2.0000      -0.312267        -8.4972
  76   2.0000      -0.307333        -8.3630
  77   0.0000       0.067809         1.8452
  78   0.0000       0.113048         3.0762
  79   0.0000       0.118631         3.2281
  80   0.0000       0.137234         3.7343
  81   0.0000       0.139309         3.7908

MULLIKEN ATOMIC CHARGES
-----------------------
   0 C :   -0.287246
   1 C :    0.027079
   2 O :   -0.331386
   3 C :    0.408850
   4 O :   -0.420121
   5 C :   -0.126220
   6 C :    0.124207
   7 C :   -0.296539
   8 N :   -0.124340
   9 C :    0.198516
  10 S :   -0.440606
  11 N :   -0.202262
  12 C :    0.079331
  13 C :    0.037685
  14 C :   -0.210028
  15 C :   -0.124247
  16 C :   -0.278972
  17 C :    0.311507
  18 O :   -0.360372
  19 C :   -0.249262
  20 H :    0.089687
  21 H :    0.099616
  22 H :    0.127798
  23 H :    0.102019
  24 H :    0.090182
  25 H :    0.134137
  26 H :    0.121023
  27 H :    0.111435
  28 H :    0.189502
  29 H :    0.189355
  30 H :    0.189306
  31 H :    0.137001
  32 H :    0.156016
  33 H :    0.125044
  34 H :    0.241991
  35 H :    0.160311
Sum of atomic charges:    0.0000000

LOEWDIN ATOMIC CHARGES
----------------------
   0 C :    0.103315
   1 C :   -0.024689
   2 O :    0.319019
   3 C :   -0.424758
   4 O :    0.109235
   5 C :   -0.092858
   6 C :   -0.061308
   7 C :    0.127881
   8 N :    0.396681
   9 C :   -0.457213
  10 S :   -0.039605
  11 N :    0.396702
  12 C :   -0.001098
  13 C :   -0.031143
  14 C :    0.001462
  15 C :    0.034366
  16 C :   -0.009934
  17 C :   -0.186769
  18 O :    0.389327
  19 C :    0.026633
  20 H :   -0.031028
  21 H :   -0.023914
  22 H :   -0.021234
  23 H :   -0.030245
  24 H :   -0.026507
  25 H :   -0.013172
  26 H :   -0.007993
  27 H :   -0.014806
  28 H :   -0.061415
  29 H :   -0.065812
  30 H :   -0.010118
  31 H :   -0.031240
  32 H :   -0.019467
  33 H :   -0.035472
  34 H :   -0.151876
  35 H :   -0.030948

  Mayer bond orders larger than 0.100000
B(  0-C ,  1-C ) :   0.9801 B(  0-C , 20-H ) :   0.9770 B(  0-C , 21-H ) :   0.9726
B(  0-C , 22-H ) :   0.9693 B(  1-C ,  2-O ) :   0.9125 B(  1-C , 23-H ) :   0.9762
B(  1-C , 24-H ) :   0.9820 B(  2-O ,  3-C ) :   1.1515 B(  3-C ,  4-O ) :   1.9982
B(  3-C ,  5-C ) :   1.0121 B(  5-C ,  6-C ) :   1.6961 B(  5-C , 12-C ) :   0.9755
B(  6-C ,  7-C ) :   0.9315 B(  6-C ,  8-N ) :   1.1152 B(  7-C , 25-H ) :   0.9692
B(  7-C , 26-H ) :   0.9701 B(  7-C , 27-H ) :   0.9889 B(  8-N ,  9-C ) :   1.1910
B(  8-N , 28-H ) :   0.9519 B(  9-C , 10-S ) :   1.5995 B(  9-C , 11-N ) :   1.3018
B( 11-N , 12-C ) :   1.0027 B( 11-N , 29-H ) :   0.9524 B( 12-C , 13-C ) :   0.9008
B( 12-C , 30-H ) :   0.9770 B( 13-C , 14-C ) :   1.3797 B( 13-C , 19-C ) :   1.3864
B( 14-C , 15-C ) :   1.3826 B( 14-C , 31-H ) :   0.9725 B( 15-C , 16-C ) :   1.3655
B( 15-C , 32-H ) :   0.9719 B( 16-C , 17-C ) :   1.3225 B( 16-C , 33-H ) :   0.9878
B( 17-C , 18-O ) :   1.1021 B( 17-C , 19-C ) :   1.3841 B( 18-O , 34-H ) :   0.9790
B( 19-C , 35-H ) :   0.9530

MP2 TOTAL ENERGY:    -1274.270612140 Eh
FINAL SINGLE POINT ENERGY     -1274.270612140043

DIPOLE MOMENT
-------------
                                X             Y             Z
Electronic contribution:     10.04161      10.68054      10.82742
Nuclear contribution   :    -11.70140     -11.85629     -11.97450
                        -----------------------------------------
Total Dipole Moment    :     -1.65980      -1.17575      -1.14708
                        -----------------------------------------
Magnitude (a.u.)       :      2.33519
Magnitude (Debye)      :      5.93558

Rotational constants in cm-1:     0.010997     0.008957     0.006070
Rotational constants in MHz :   329.668151   268.523191   181.969350

                             ****ORCA TERMINATED NORMALLY****
TOTAL RUN TIME: 0 days 1 hours 35 minutes 34 seconds 917 msec
