                         Program Version 4.2.0 -  RELEASE  -
|  1> ! ri-mp2 cc-pvtz cc-pvtz/c TightSCF  NoKeepInts
|  2>
|  3> %scf
|  4>   MaxCore 4096
|  5> end
|  6> *xyz  0  1
|  7>     C       15.6531073   14.7068520   14.0867767
|  8>     C       15.1783596   14.7270769   15.5592423
|  9>     O       15.8491333   15.6816299   16.4145841
| 10>     C       17.0843775   15.4648334   16.9556730
| 11>     O       17.5371301   14.3377417   17.0810301
| 12>     C       17.5633905   16.6073872   17.8078406
| 13>     C       17.2641393   17.9113438   17.5124198
| 14>     C       16.4743269   18.4684467   16.3419396
| 15>     N       18.0754880   18.8815447   18.1300243
| 16>     C       19.1021521   18.6834558   19.0141250
| 17>     S       19.9777821   19.9613171   19.6055822
| 18>     N       19.3434966   17.3848879   19.3912409
| 19>     C       18.6696825   16.2038736   18.7934340
| 20>     C       17.8744467   15.8304546   20.0977156
| 21>     C       17.9210913   14.4547615   20.4741231
| 22>     C       17.1994340   13.9309698   21.5610071
| 23>     C       16.3786846   14.7792665   22.3099633
| 24>     C       16.2797008   16.1299187   21.9468774
| 25>     O       15.4634575   16.9394344   22.6693603
| 26>     C       17.0020294   16.6506072   20.8527997
| 27>     H       15.4063192   15.6726595   13.6241421
| 28>     H       15.0737790   13.9537393   13.5303859
| 29>     H       16.7185596   14.5028130   13.9431689
| 30>     H       14.0984547   14.8713225   15.6271371
| 31>     H       15.4004475   13.7243719   15.9559948
| 32>     H       16.7883859   18.0230581   15.3862101
| 33>     H       16.5866827   19.5556725   16.2305819
| 34>     H       15.4109692   18.2578404   16.4835289
| 35>     H       17.9433995   19.8494108   17.8697301
| 36>     H       20.1157198   17.2756493   20.0347964
| 37>     H       19.1458726   15.2279266   18.6802390
| 38>     H       18.5093700   13.7439962   19.8963351
| 39>     H       17.2703430   12.8709348   21.8131561
| 40>     H       15.8195212   14.3819057   23.1544057
| 41>     H       15.0976007   16.4122660   23.3981963
| 42>     H       16.8701648   17.6926297   20.6002368
| 43> *
| 44>
| 45>                          ****END OF INPUT****

CARTESIAN COORDINATES (ANGSTROEM)
---------------------------------
  C     15.653107   14.706852   14.086777
  C     15.178360   14.727077   15.559242
  O     15.849133   15.681630   16.414584
  C     17.084377   15.464833   16.955673
  O     17.537130   14.337742   17.081030
  C     17.563391   16.607387   17.807841
  C     17.264139   17.911344   17.512420
  C     16.474327   18.468447   16.341940
  N     18.075488   18.881545   18.130024
  C     19.102152   18.683456   19.014125
  S     19.977782   19.961317   19.605582
  N     19.343497   17.384888   19.391241
  C     18.669683   16.203874   18.793434
  C     17.874447   15.830455   20.097716
  C     17.921091   14.454761   20.474123
  C     17.199434   13.930970   21.561007
  C     16.378685   14.779266   22.309963
  C     16.279701   16.129919   21.946877
  O     15.463457   16.939434   22.669360
  C     17.002029   16.650607   20.852800
  H     15.406319   15.672659   13.624142
  H     15.073779   13.953739   13.530386
  H     16.718560   14.502813   13.943169
  H     14.098455   14.871322   15.627137
  H     15.400448   13.724372   15.955995
  H     16.788386   18.023058   15.386210
  H     16.586683   19.555673   16.230582
  H     15.410969   18.257840   16.483529
  H     17.943400   19.849411   17.869730
  H     20.115720   17.275649   20.034796
  H     19.145873   15.227927   18.680239
  H     18.509370   13.743996   19.896335
  H     17.270343   12.870935   21.813156
  H     15.819521   14.381906   23.154406
  H     15.097601   16.412266   23.398196
  H     16.870165   17.692630   20.600237

 Total Charge           Charge          ....    0
 Multiplicity           Mult            ....    1
 Number of Electrons    NEL             ....  154
 Basis Dimension        Dim             ....  828

ORBITAL ENERGIES
----------------

  NO   OCC          E(Eh)            E(eV)
   0   2.0000     -91.889010     -2500.4271
   1   2.0000     -20.602533      -560.6234
   2   2.0000     -20.587477      -560.2137
   3   2.0000     -20.546151      -559.0892
   4   2.0000     -15.627329      -425.2412
   5   2.0000     -15.609918      -424.7675
   6   2.0000     -11.396458      -310.1134
   7   2.0000     -11.384339      -309.7836
   8   2.0000     -11.341658      -308.6222
   9   2.0000     -11.315001      -307.8968
  10   2.0000     -11.306112      -307.6550
  11   2.0000     -11.302566      -307.5585
  12   2.0000     -11.267842      -306.6136
  13   2.0000     -11.265612      -306.5529
  14   2.0000     -11.253939      -306.2353
  15   2.0000     -11.242890      -305.9346
  16   2.0000     -11.237851      -305.7975
  17   2.0000     -11.231424      -305.6226
  18   2.0000     -11.231267      -305.6183
  19   2.0000     -11.224988      -305.4474
  20   2.0000      -8.893877      -242.0147
  21   2.0000      -6.575440      -178.9268
  22   2.0000      -6.573431      -178.8721
  23   2.0000      -6.572859      -178.8566
  24   2.0000      -1.451414       -39.4950
  25   2.0000      -1.406587       -38.2752
  26   2.0000      -1.355383       -36.8818
  27   2.0000      -1.337837       -36.4044
  28   2.0000      -1.238079       -33.6898
  29   2.0000      -1.146060       -31.1859
  30   2.0000      -1.117540       -30.4098
  31   2.0000      -1.042733       -28.3742
  32   2.0000      -1.036060       -28.1926
  33   2.0000      -1.004723       -27.3399
  34   2.0000      -0.995437       -27.0872
  35   2.0000      -0.980907       -26.6918
  36   2.0000      -0.923453       -25.1284
  37   2.0000      -0.898170       -24.4405
  38   2.0000      -0.850392       -23.1403
  39   2.0000      -0.828775       -22.5521
  40   2.0000      -0.822356       -22.3774
  41   2.0000      -0.812632       -22.1128
  42   2.0000      -0.752386       -20.4735
  43   2.0000      -0.732791       -19.9402
  44   2.0000      -0.716086       -19.4857
  45   2.0000      -0.691537       -18.8177
  46   2.0000      -0.684634       -18.6298
  47   2.0000      -0.678262       -18.4564
  48   2.0000      -0.672718       -18.3056
  49   2.0000      -0.660010       -17.9598
  50   2.0000      -0.645814       -17.5735
  51   2.0000      -0.642103       -17.4725
  52   2.0000      -0.629640       -17.1334
  53   2.0000      -0.615871       -16.7587
  54   2.0000      -0.598233       -16.2788
  55   2.0000      -0.595558       -16.2060
  56   2.0000      -0.589821       -16.0499
  57   2.0000      -0.584161       -15.8958
  58   2.0000      -0.570466       -15.5232
  59   2.0000      -0.565779       -15.3956
  60   2.0000      -0.554528       -15.0895
  61   2.0000      -0.550067       -14.9681
  62   2.0000      -0.540488       -14.7074
  63   2.0000      -0.539009       -14.6672
  64   2.0000      -0.512106       -13.9351
  65   2.0000      -0.507468       -13.8089
  66   2.0000      -0.493627       -13.4323
  67   2.0000      -0.492799       -13.4097
  68   2.0000      -0.480683       -13.0801
  69   2.0000      -0.460611       -12.5339
  70   2.0000      -0.454308       -12.3623
  71   2.0000      -0.451627       -12.2894
  72   2.0000      -0.345175        -9.3927
  73   2.0000      -0.341100        -9.2818
  74   2.0000      -0.326211        -8.8767
  75   2.0000      -0.311892        -8.4870
  76   2.0000      -0.306604        -8.3431
  77   0.0000       0.065973         1.7952
  78   0.0000       0.117146         3.1877
  79   0.0000       0.119426         3.2497
  80   0.0000       0.137019         3.7285
  81   0.0000       0.139689         3.8011

MULLIKEN ATOMIC CHARGES
-----------------------
   0 C :   -0.291082
   1 C :    0.024049
   2 O :   -0.351482
   3 C :    0.462306
   4 O :   -0.430092
   5 C :   -0.190171
   6 C :    0.140740
   7 C :   -0.289871
   8 N :   -0.123374
   9 C :    0.196374
  10 S :   -0.437439
  11 N :   -0.203678
  12 C :    0.074896
  13 C :    0.038330
  14 C :   -0.197895
  15 C :   -0.126573
  16 C :   -0.277809
  17 C :    0.310238
  18 O :   -0.361570
  19 C :   -0.254627
  20 H :    0.084797
  21 H :    0.103973
  22 H :    0.114288
  23 H :    0.121950
  24 H :    0.106921
  25 H :    0.124936
  26 H :    0.107509
  27 H :    0.135996
  28 H :    0.192046
  29 H :    0.190085
  30 H :    0.187987
  31 H :    0.137219
  32 H :    0.155297
  33 H :    0.124569
  34 H :    0.241882
  35 H :    0.159274
Sum of atomic charges:    0.0000000

LOEWDIN ATOMIC CHARGES
----------------------
   0 C :    0.106763
   1 C :   -0.012665
   2 O :    0.301505
   3 C :   -0.419406
   4 O :    0.097382
   5 C :   -0.092800
   6 C :   -0.053525
   7 C :    0.126274
   8 N :    0.397927
   9 C :   -0.457708
  10 S :   -0.038203
  11 N :    0.396527
  12 C :    0.002696
  13 C :   -0.031117
  14 C :    0.003658
  15 C :    0.034885
  16 C :   -0.010810
  17 C :   -0.187217
  18 O :    0.388021
  19 C :    0.023543
  20 H :   -0.032925
  21 H :   -0.018281
  22 H :   -0.026697
  23 H :   -0.025956
  24 H :   -0.027968
  25 H :   -0.006791
  26 H :   -0.017729
  27 H :   -0.011363
  28 H :   -0.060292
  29 H :   -0.065405
  30 H :   -0.010914
  31 H :   -0.031440
  32 H :   -0.019683
  33 H :   -0.035402
  34 H :   -0.152038
  35 H :   -0.032849

  Mayer bond orders larger than 0.100000
B(  0-C ,  1-C ) :   0.9602 B(  0-C , 20-H ) :   0.9786 B(  0-C , 21-H ) :   0.9747
B(  0-C , 22-H ) :   0.9758 B(  1-C ,  2-O ) :   0.8922 B(  1-C , 23-H ) :   0.9826
B(  1-C , 24-H ) :   0.9789 B(  2-O ,  3-C ) :   1.1524 B(  3-C ,  4-O ) :   1.9746
B(  3-C ,  5-C ) :   1.0427 B(  5-C ,  6-C ) :   1.6712 B(  5-C , 12-C ) :   0.9846
B(  6-C ,  7-C ) :   0.9484 B(  6-C ,  8-N ) :   1.1266 B(  7-C , 25-H ) :   0.9650
B(  7-C , 26-H ) :   0.9879 B(  7-C , 27-H ) :   0.9675 B(  8-N ,  9-C ) :   1.1856
B(  8-N , 28-H ) :   0.9500 B(  9-C , 10-S ) :   1.6025 B(  9-C , 11-N ) :   1.3036
B( 11-N , 12-C ) :   0.9974 B( 11-N , 29-H ) :   0.9516 B( 12-C , 13-C ) :   0.9092
B( 12-C , 30-H ) :   0.9767 B( 13-C , 14-C ) :   1.3829 B( 13-C , 19-C ) :   1.3846
B( 14-C , 15-C ) :   1.3840 B( 14-C , 31-H ) :   0.9714 B( 15-C , 16-C ) :   1.3650
B( 15-C , 32-H ) :   0.9721 B( 16-C , 17-C ) :   1.3241 B( 16-C , 33-H ) :   0.9877
B( 17-C , 18-O ) :   1.1011 B( 17-C , 19-C ) :   1.3855 B( 18-O , 34-H ) :   0.9791
B( 19-C , 35-H ) :   0.9531

MP2 TOTAL ENERGY:    -1274.293645790 Eh
FINAL SINGLE POINT ENERGY     -1274.293645789997

DIPOLE MOMENT
-------------
                                X             Y             Z
Electronic contribution:     10.16269       8.18002      12.88711
Nuclear contribution   :    -11.81097      -9.18077     -14.09128
                        -----------------------------------------
Total Dipole Moment    :     -1.64828      -1.00076      -1.20418
                        -----------------------------------------
Magnitude (a.u.)       :      2.27341
Magnitude (Debye)      :      5.77855

Rotational constants in cm-1:     0.010888     0.008473     0.005748
Rotational constants in MHz :   326.423783   254.000060   172.316317

                             ****ORCA TERMINATED NORMALLY****
TOTAL RUN TIME: 0 days 1 hours 33 minutes 8 seconds 759 msec
