                         Program Version 4.2.0 -  RELEASE  -
|  1> ! ri-mp2 cc-pvtz cc-pvtz/c TightSCF  NoKeepInts
|  2>
|  3> %scf
|  4>   MaxCore 4096
|  5> end
|  6> *xyz  0  1
|  7>     C       14.5866759   14.4013152   16.8096350
|  8>     C       15.5868213   15.5582779   16.7480546
|  9>     O       16.9061987   14.9753058   16.5935084
| 10>     C       18.0665772   15.7085667   16.5008931
| 11>     O       19.1354349   15.1852628   16.2465698
| 12>     C       17.9748808   16.8161271   17.4729755
| 13>     C       17.4275286   17.9932478   17.0626323
| 14>     C       16.9358556   18.3160187   15.6530577
| 15>     N       17.6001889   19.1533398   17.8185850
| 16>     C       18.2926844   19.2225477   18.9992061
| 17>     S       18.3742373   20.6388205   19.8517891
| 18>     N       18.8818286   18.0566692   19.4437140
| 19>     C       18.8566866   16.7644443   18.7103510
| 20>     C       17.9988179   15.8556208   19.6496206
| 21>     C       18.4061051   14.4929671   19.7523496
| 22>     C       17.7073795   13.5461678   20.5143302
| 23>     C       16.5490861   13.9364931   21.1922025
| 24>     C       16.1058219   15.2628730   21.0896467
| 25>     O       14.9665559   15.6203434   21.7335368
| 26>     C       16.8116748   16.2141369   20.3264851
| 27>     H       14.9558297   13.6253090   17.4908239
| 28>     H       14.4577796   13.9627061   15.8131856
| 29>     H       13.6102481   14.7450291   17.1729663
| 30>     H       15.2956421   16.3026631   15.9971861
| 31>     H       15.5560931   16.0411535   17.7372746
| 32>     H       17.0448623   17.4812275   14.9480138
| 33>     H       17.5073647   19.1437369   15.2047007
| 34>     H       15.8822847   18.6145288   15.6577197
| 35>     H       17.2411611   20.0316917   17.4722445
| 36>     H       19.3239813   18.1263020   20.3500996
| 37>     H       19.6653211   16.0333721   18.7506763
| 38>     H       19.2820187   14.1330499   19.2129701
| 39>     H       18.0610557   12.5151849   20.5656429
| 40>     H       16.0006345   13.2051419   21.7800533
| 41>     H       14.6694337   14.8508245   22.2461484
| 42>     H       16.4222499   17.2215353   20.2651499
| 43> *
| 44>
| 45>                          ****END OF INPUT****

CARTESIAN COORDINATES (ANGSTROEM)
---------------------------------
  C     14.586676   14.401315   16.809635
  C     15.586821   15.558278   16.748055
  O     16.906199   14.975306   16.593508
  C     18.066577   15.708567   16.500893
  O     19.135435   15.185263   16.246570
  C     17.974881   16.816127   17.472976
  C     17.427529   17.993248   17.062632
  C     16.935856   18.316019   15.653058
  N     17.600189   19.153340   17.818585
  C     18.292684   19.222548   18.999206
  S     18.374237   20.638820   19.851789
  N     18.881829   18.056669   19.443714
  C     18.856687   16.764444   18.710351
  C     17.998818   15.855621   19.649621
  C     18.406105   14.492967   19.752350
  C     17.707379   13.546168   20.514330
  C     16.549086   13.936493   21.192203
  C     16.105822   15.262873   21.089647
  O     14.966556   15.620343   21.733537
  C     16.811675   16.214137   20.326485
  H     14.955830   13.625309   17.490824
  H     14.457780   13.962706   15.813186
  H     13.610248   14.745029   17.172966
  H     15.295642   16.302663   15.997186
  H     15.556093   16.041154   17.737275
  H     17.044862   17.481227   14.948014
  H     17.507365   19.143737   15.204701
  H     15.882285   18.614529   15.657720
  H     17.241161   20.031692   17.472244
  H     19.323981   18.126302   20.350100
  H     19.665321   16.033372   18.750676
  H     19.282019   14.133050   19.212970
  H     18.061056   12.515185   20.565643
  H     16.000635   13.205142   21.780053
  H     14.669434   14.850824   22.246148
  H     16.422250   17.221535   20.265150

 Total Charge           Charge          ....    0
 Multiplicity           Mult            ....    1
 Number of Electrons    NEL             ....  154
 Basis Dimension        Dim             ....  828

ORBITAL ENERGIES
----------------

  NO   OCC          E(Eh)            E(eV)
   0   2.0000     -91.891478     -2500.4942
   1   2.0000     -20.601234      -560.5881
   2   2.0000     -20.596916      -560.4706
   3   2.0000     -20.558755      -559.4322
   4   2.0000     -15.626328      -425.2140
   5   2.0000     -15.616948      -424.9588
   6   2.0000     -11.398287      -310.1631
   7   2.0000     -11.388898      -309.9077
   8   2.0000     -11.327980      -308.2500
   9   2.0000     -11.322607      -308.1038
  10   2.0000     -11.316112      -307.9270
  11   2.0000     -11.303646      -307.5878
  12   2.0000     -11.273754      -306.7744
  13   2.0000     -11.266719      -306.5830
  14   2.0000     -11.262664      -306.4727
  15   2.0000     -11.252780      -306.2037
  16   2.0000     -11.240615      -305.8727
  17   2.0000     -11.240282      -305.8636
  18   2.0000     -11.235012      -305.7202
  19   2.0000     -11.231554      -305.6261
  20   2.0000      -8.896470      -242.0853
  21   2.0000      -6.578041      -178.9976
  22   2.0000      -6.576029      -178.9428
  23   2.0000      -6.575450      -178.9271
  24   2.0000      -1.449184       -39.4343
  25   2.0000      -1.416623       -38.5483
  26   2.0000      -1.363895       -37.1135
  27   2.0000      -1.339715       -36.4555
  28   2.0000      -1.239837       -33.7377
  29   2.0000      -1.157869       -31.5072
  30   2.0000      -1.125417       -30.6242
  31   2.0000      -1.048384       -28.5280
  32   2.0000      -1.043189       -28.3866
  33   2.0000      -1.015012       -27.6199
  34   2.0000      -1.002392       -27.2765
  35   2.0000      -0.989308       -26.9204
  36   2.0000      -0.930086       -25.3089
  37   2.0000      -0.880924       -23.9712
  38   2.0000      -0.855332       -23.2748
  39   2.0000      -0.841375       -22.8950
  40   2.0000      -0.833866       -22.6906
  41   2.0000      -0.831491       -22.6260
  42   2.0000      -0.756321       -20.5805
  43   2.0000      -0.738861       -20.1054
  44   2.0000      -0.725317       -19.7369
  45   2.0000      -0.698136       -18.9973
  46   2.0000      -0.693632       -18.8747
  47   2.0000      -0.683596       -18.6016
  48   2.0000      -0.679758       -18.4971
  49   2.0000      -0.665002       -18.0956
  50   2.0000      -0.658085       -17.9074
  51   2.0000      -0.648773       -17.6540
  52   2.0000      -0.638216       -17.3667
  53   2.0000      -0.609439       -16.5837
  54   2.0000      -0.606908       -16.5148
  55   2.0000      -0.600352       -16.3364
  56   2.0000      -0.595739       -16.2109
  57   2.0000      -0.585246       -15.9253
  58   2.0000      -0.573312       -15.6006
  59   2.0000      -0.565161       -15.3788
  60   2.0000      -0.558542       -15.1987
  61   2.0000      -0.555520       -15.1165
  62   2.0000      -0.554812       -15.0972
  63   2.0000      -0.526789       -14.3347
  64   2.0000      -0.516539       -14.0557
  65   2.0000      -0.513745       -13.9797
  66   2.0000      -0.505030       -13.7426
  67   2.0000      -0.500427       -13.6173
  68   2.0000      -0.486905       -13.2494
  69   2.0000      -0.464091       -12.6286
  70   2.0000      -0.458266       -12.4700
  71   2.0000      -0.450167       -12.2497
  72   2.0000      -0.353035        -9.6066
  73   2.0000      -0.345834        -9.4106
  74   2.0000      -0.330215        -8.9856
  75   2.0000      -0.320652        -8.7254
  76   2.0000      -0.313081        -8.5194
  77   0.0000       0.080144         2.1808
  78   0.0000       0.105241         2.8638
  79   0.0000       0.110470         3.0060
  80   0.0000       0.128679         3.5015
  81   0.0000       0.129847         3.5333

MULLIKEN ATOMIC CHARGES
-----------------------
   0 C :   -0.263777
   1 C :    0.019196
   2 O :   -0.315036
   3 C :    0.402500
   4 O :   -0.371010
   5 C :   -0.173316
   6 C :    0.113652
   7 C :   -0.333005
   8 N :   -0.131948
   9 C :    0.202501
  10 S :   -0.436026
  11 N :   -0.220202
  12 C :    0.096950
  13 C :    0.065427
  14 C :   -0.234176
  15 C :   -0.120385
  16 C :   -0.281429
  17 C :    0.325844
  18 O :   -0.359617
  19 C :   -0.307827
  20 H :    0.112521
  21 H :    0.097636
  22 H :    0.089169
  23 H :    0.100323
  24 H :    0.099244
  25 H :    0.117894
  26 H :    0.140850
  27 H :    0.124445
  28 H :    0.195459
  29 H :    0.197836
  30 H :    0.192746
  31 H :    0.142805
  32 H :    0.160805
  33 H :    0.128899
  34 H :    0.243306
  35 H :    0.177746
Sum of atomic charges:   -0.0000000

LOEWDIN ATOMIC CHARGES
----------------------
   0 C :    0.111513
   1 C :   -0.020782
   2 O :    0.307932
   3 C :   -0.422932
   4 O :    0.132118
   5 C :   -0.086892
   6 C :   -0.098377
   7 C :    0.120946
   8 N :    0.397825
   9 C :   -0.452697
  10 S :   -0.036057
  11 N :    0.394128
  12 C :   -0.002014
  13 C :   -0.033233
  14 C :    0.007882
  15 C :    0.039643
  16 C :   -0.008613
  17 C :   -0.188899
  18 O :    0.390587
  19 C :    0.021513
  20 H :   -0.019665
  21 H :   -0.028552
  22 H :   -0.023654
  23 H :   -0.036283
  24 H :   -0.034047
  25 H :   -0.012141
  26 H :   -0.005849
  27 H :   -0.021492
  28 H :   -0.056042
  29 H :   -0.065487
  30 H :   -0.010897
  31 H :   -0.027375
  32 H :   -0.016798
  33 H :   -0.034517
  34 H :   -0.150388
  35 H :   -0.030401

  Mayer bond orders larger than 0.100000
B(  0-C ,  1-C ) :   0.9787 B(  0-C , 20-H ) :   0.9771 B(  0-C , 21-H ) :   0.9832
B(  0-C , 22-H ) :   0.9771 B(  1-C ,  2-O ) :   0.9138 B(  1-C , 23-H ) :   0.9709
B(  1-C , 24-H ) :   0.9587 B(  2-O ,  3-C ) :   1.1367 B(  3-C ,  4-O ) :   2.1122
B(  3-C ,  5-C ) :   0.9112 B(  5-C ,  6-C ) :   1.7157 B(  5-C , 12-C ) :   0.9543
B(  6-C ,  7-C ) :   0.9428 B(  6-C ,  8-N ) :   1.1021 B(  7-C , 25-H ) :   0.9795
B(  7-C , 26-H ) :   0.9693 B(  7-C , 27-H ) :   0.9691 B(  8-N ,  9-C ) :   1.2004
B(  8-N , 28-H ) :   0.9518 B(  9-C , 10-S ) :   1.6112 B(  9-C , 11-N ) :   1.2779
B( 11-N , 12-C ) :   1.0238 B( 11-N , 29-H ) :   0.9476 B( 12-C , 13-C ) :   0.8752
B( 12-C , 30-H ) :   0.9869 B( 13-C , 14-C ) :   1.3838 B( 13-C , 19-C ) :   1.3509
B( 14-C , 15-C ) :   1.3951 B( 14-C , 31-H ) :   0.9728 B( 15-C , 16-C ) :   1.3564
B( 15-C , 32-H ) :   0.9702 B( 16-C , 17-C ) :   1.3290 B( 16-C , 33-H ) :   0.9864
B( 17-C , 18-O ) :   1.1058 B( 17-C , 19-C ) :   1.3577 B( 18-O , 34-H ) :   0.9780
B( 19-C , 35-H ) :   0.9537

MP2 TOTAL ENERGY:    -1274.277330634 Eh
FINAL SINGLE POINT ENERGY     -1274.277330634211

DIPOLE MOMENT
-------------
                                X             Y             Z
Electronic contribution:     10.84155       8.70201       6.78166
Nuclear contribution   :    -12.35544      -9.74057      -7.35106
                        -----------------------------------------
Total Dipole Moment    :     -1.51389      -1.03856      -0.56941
                        -----------------------------------------
Magnitude (a.u.)       :      1.92216
Magnitude (Debye)      :      4.88574

Rotational constants in cm-1:     0.012071     0.009208     0.006895
Rotational constants in MHz :   361.871074   276.061923   206.696795

                             ****ORCA TERMINATED NORMALLY****
TOTAL RUN TIME: 0 days 1 hours 41 minutes 56 seconds 821 msec
