                         Program Version 4.2.0 -  RELEASE  -
|  1> ! ri-mp2 cc-pvtz cc-pvtz/c TightSCF  NoKeepInts
|  2>
|  3> %scf
|  4>   MaxCore 4096
|  5> end
|  6> *xyz  0  1
|  7>     C       14.2531866   14.8362429   16.4848732
|  8>     C       15.4465554   15.6044992   17.0729909
|  9>     O       16.6064026   15.3203791   16.2374469
| 10>     C       17.8663238   15.8414636   16.4624613
| 11>     O       18.8654948   15.2383933   16.1153432
| 12>     C       17.8158886   16.9302878   17.4761853
| 13>     C       17.3431039   18.1740437   17.1898313
| 14>     C       16.6367472   18.6254428   15.9237849
| 15>     N       17.5611830   19.2331686   18.0833619
| 16>     C       18.3472052   19.1702250   19.2071554
| 17>     S       18.5564044   20.4589049   20.2098952
| 18>     N       18.9752358   17.9863523   19.4533473
| 19>     C       18.8286765   16.8132192   18.6060787
| 20>     C       18.1521045   15.6710887   19.4921658
| 21>     C       18.5563833   14.3055369   19.3667341
| 22>     C       17.9601340   13.2635983   20.1164851
| 23>     C       16.9217625   13.5614256   21.0141991
| 24>     C       16.4877656   14.8864337   21.1497784
| 25>     O       15.4716817   15.1787770   22.0054940
| 26>     C       17.0871262   15.9159516   20.3980125
| 27>     H       13.3346180   15.0495153   17.0445054
| 28>     H       14.4539549   13.7568282   16.5839307
| 29>     H       14.0922891   15.0584901   15.4274041
| 30>     H       15.1983430   16.6800343   16.9686547
| 31>     H       15.5864405   15.3889623   18.1328608
| 32>     H       16.5581357   17.8226474   15.1813395
| 33>     H       17.1601670   19.4595192   15.4345180
| 34>     H       15.6202041   18.9608728   16.1617416
| 35>     H       17.1326559   20.1305523   17.9166159
| 36>     H       19.5340382   17.9276656   20.2912471
| 37>     H       19.6852819   16.1742942   18.3744022
| 38>     H       19.3459741   14.0436306   18.6641677
| 39>     H       18.2998427   12.2313222   19.9959017
| 40>     H       16.4565807   12.7675719   21.5920521
| 41>     H       15.2326531   14.3607695   22.4688365
| 42>     H       16.7164568   16.9238933   20.5301991
| 43> *
| 44>
| 45>                          ****END OF INPUT****

CARTESIAN COORDINATES (ANGSTROEM)
---------------------------------
  C     14.253187   14.836243   16.484873
  C     15.446555   15.604499   17.072991
  O     16.606403   15.320379   16.237447
  C     17.866324   15.841464   16.462461
  O     18.865495   15.238393   16.115343
  C     17.815889   16.930288   17.476185
  C     17.343104   18.174044   17.189831
  C     16.636747   18.625443   15.923785
  N     17.561183   19.233169   18.083362
  C     18.347205   19.170225   19.207155
  S     18.556404   20.458905   20.209895
  N     18.975236   17.986352   19.453347
  C     18.828677   16.813219   18.606079
  C     18.152105   15.671089   19.492166
  C     18.556383   14.305537   19.366734
  C     17.960134   13.263598   20.116485
  C     16.921762   13.561426   21.014199
  C     16.487766   14.886434   21.149778
  O     15.471682   15.178777   22.005494
  C     17.087126   15.915952   20.398013
  H     13.334618   15.049515   17.044505
  H     14.453955   13.756828   16.583931
  H     14.092289   15.058490   15.427404
  H     15.198343   16.680034   16.968655
  H     15.586440   15.388962   18.132861
  H     16.558136   17.822647   15.181339
  H     17.160167   19.459519   15.434518
  H     15.620204   18.960873   16.161742
  H     17.132656   20.130552   17.916616
  H     19.534038   17.927666   20.291247
  H     19.685282   16.174294   18.374402
  H     19.345974   14.043631   18.664168
  H     18.299843   12.231322   19.995902
  H     16.456581   12.767572   21.592052
  H     15.232653   14.360769   22.468836
  H     16.716457   16.923893   20.530199

 Total Charge           Charge          ....    0
 Multiplicity           Mult            ....    1
 Number of Electrons    NEL             ....  154
 Basis Dimension        Dim             ....  828

ORBITAL ENERGIES
----------------

  NO   OCC          E(Eh)            E(eV)
   0   2.0000     -91.893754     -2500.5562
   1   2.0000     -20.597788      -560.4943
   2   2.0000     -20.596013      -560.4460
   3   2.0000     -20.555841      -559.3529
   4   2.0000     -15.632341      -425.3776
   5   2.0000     -15.619808      -425.0366
   6   2.0000     -11.401531      -310.2514
   7   2.0000     -11.390419      -309.9490
   8   2.0000     -11.338412      -308.5339
   9   2.0000     -11.319579      -308.0214
  10   2.0000     -11.315966      -307.9231
  11   2.0000     -11.302970      -307.5695
  12   2.0000     -11.271398      -306.7103
  13   2.0000     -11.267485      -306.6038
  14   2.0000     -11.265318      -306.5449
  15   2.0000     -11.256973      -306.3178
  16   2.0000     -11.243260      -305.9447
  17   2.0000     -11.239735      -305.8487
  18   2.0000     -11.239580      -305.8445
  19   2.0000     -11.232378      -305.6486
  20   2.0000      -8.899123      -242.1574
  21   2.0000      -6.580727      -179.0707
  22   2.0000      -6.578678      -179.0149
  23   2.0000      -6.578084      -178.9988
  24   2.0000      -1.442705       -39.2580
  25   2.0000      -1.415693       -38.5230
  26   2.0000      -1.358388       -36.9636
  27   2.0000      -1.347591       -36.6698
  28   2.0000      -1.247966       -33.9589
  29   2.0000      -1.155316       -31.4377
  30   2.0000      -1.127068       -30.6691
  31   2.0000      -1.046256       -28.4701
  32   2.0000      -1.038931       -28.2707
  33   2.0000      -1.013183       -27.5701
  34   2.0000      -1.003580       -27.3088
  35   2.0000      -0.995303       -27.0836
  36   2.0000      -0.927549       -25.2399
  37   2.0000      -0.878749       -23.9120
  38   2.0000      -0.858711       -23.3667
  39   2.0000      -0.846448       -23.0330
  40   2.0000      -0.832959       -22.6660
  41   2.0000      -0.831661       -22.6307
  42   2.0000      -0.755188       -20.5497
  43   2.0000      -0.744257       -20.2523
  44   2.0000      -0.725602       -19.7446
  45   2.0000      -0.697212       -18.9721
  46   2.0000      -0.690162       -18.7803
  47   2.0000      -0.680971       -18.5302
  48   2.0000      -0.678082       -18.4515
  49   2.0000      -0.666819       -18.1451
  50   2.0000      -0.659496       -17.9458
  51   2.0000      -0.652325       -17.7507
  52   2.0000      -0.641476       -17.4555
  53   2.0000      -0.609198       -16.5771
  54   2.0000      -0.602639       -16.3986
  55   2.0000      -0.599705       -16.3188
  56   2.0000      -0.596411       -16.2292
  57   2.0000      -0.586147       -15.9499
  58   2.0000      -0.575282       -15.6542
  59   2.0000      -0.565369       -15.3845
  60   2.0000      -0.560791       -15.2599
  61   2.0000      -0.557790       -15.1782
  62   2.0000      -0.548878       -14.9357
  63   2.0000      -0.527720       -14.3600
  64   2.0000      -0.517117       -14.0715
  65   2.0000      -0.516541       -14.0558
  66   2.0000      -0.500556       -13.6208
  67   2.0000      -0.498015       -13.5517
  68   2.0000      -0.487384       -13.2624
  69   2.0000      -0.469309       -12.7705
  70   2.0000      -0.453565       -12.3421
  71   2.0000      -0.453192       -12.3320
  72   2.0000      -0.355611        -9.6767
  73   2.0000      -0.346165        -9.4196
  74   2.0000      -0.333676        -9.0798
  75   2.0000      -0.322303        -8.7703
  76   2.0000      -0.317993        -8.6530
  77   0.0000       0.077303         2.1035
  78   0.0000       0.107614         2.9283
  79   0.0000       0.112738         3.0678
  80   0.0000       0.129215         3.5161
  81   0.0000       0.131567         3.5801

MULLIKEN ATOMIC CHARGES
-----------------------
   0 C :   -0.262010
   1 C :    0.032689
   2 O :   -0.330578
   3 C :    0.417336
   4 O :   -0.377346
   5 C :   -0.216582
   6 C :    0.149791
   7 C :   -0.324201
   8 N :   -0.142398
   9 C :    0.193362
  10 S :   -0.430428
  11 N :   -0.188157
  12 C :    0.086620
  13 C :   -0.001574
  14 C :   -0.224493
  15 C :   -0.134203
  16 C :   -0.271233
  17 C :    0.313292
  18 O :   -0.360151
  19 C :   -0.276379
  20 H :    0.091034
  21 H :    0.100895
  22 H :    0.104368
  23 H :    0.068637
  24 H :    0.133091
  25 H :    0.129109
  26 H :    0.143625
  27 H :    0.118384
  28 H :    0.197952
  29 H :    0.203084
  30 H :    0.184058
  31 H :    0.161439
  32 H :    0.163874
  33 H :    0.132190
  34 H :    0.241921
  35 H :    0.172983
Sum of atomic charges:    0.0000000

LOEWDIN ATOMIC CHARGES
----------------------
   0 C :    0.110757
   1 C :   -0.013280
   2 O :    0.283747
   3 C :   -0.407541
   4 O :    0.122940
   5 C :   -0.094525
   6 C :   -0.084354
   7 C :    0.123703
   8 N :    0.402971
   9 C :   -0.465722
  10 S :   -0.021979
  11 N :    0.405136
  12 C :   -0.024495
  13 C :   -0.026884
  14 C :    0.009573
  15 C :    0.041777
  16 C :   -0.008029
  17 C :   -0.191662
  18 O :    0.389539
  19 C :    0.015194
  20 H :   -0.024534
  21 H :   -0.022006
  22 H :   -0.027779
  23 H :   -0.034222
  24 H :   -0.031332
  25 H :   -0.008423
  26 H :   -0.007368
  27 H :   -0.018291
  28 H :   -0.056691
  29 H :   -0.058516
  30 H :   -0.011810
  31 H :   -0.029228
  32 H :   -0.017100
  33 H :   -0.034759
  34 H :   -0.152919
  35 H :   -0.031888

  Mayer bond orders larger than 0.100000
B(  0-C ,  1-C ) :   0.9832 B(  0-C , 20-H ) :   0.9765 B(  0-C , 21-H ) :   0.9803
B(  0-C , 22-H ) :   0.9771 B(  1-C ,  2-O ) :   0.8999 B(  1-C , 23-H ) :   0.9710
B(  1-C , 24-H ) :   0.9601 B(  2-O ,  3-C ) :   1.1692 B(  3-C ,  4-O ) :   2.1078
B(  3-C ,  5-C ) :   0.9196 B(  5-C ,  6-C ) :   1.6860 B(  5-C , 12-C ) :   0.9426
B(  6-C ,  7-C ) :   0.9399 B(  6-C ,  8-N ) :   1.1144 B(  7-C , 25-H ) :   0.9797
B(  7-C , 26-H ) :   0.9672 B(  7-C , 27-H ) :   0.9665 B(  8-N ,  9-C ) :   1.1925
B(  8-N , 28-H ) :   0.9506 B(  9-C , 10-S ) :   1.6288 B(  9-C , 11-N ) :   1.2861
B( 11-N , 12-C ) :   1.0324 B( 11-N , 29-H ) :   0.9454 B( 12-C , 13-C ) :   0.8985
B( 12-C , 30-H ) :   0.9901 B( 13-C , 14-C ) :   1.3947 B( 13-C , 19-C ) :   1.3459
B( 14-C , 15-C ) :   1.3980 B( 14-C , 31-H ) :   0.9634 B( 15-C , 16-C ) :   1.3590
B( 15-C , 32-H ) :   0.9691 B( 16-C , 17-C ) :   1.3306 B( 16-C , 33-H ) :   0.9841
B( 17-C , 18-O ) :   1.1044 B( 17-C , 19-C ) :   1.3599 B( 18-O , 34-H ) :   0.9789
B( 19-C , 35-H ) :   0.9580

MP2 TOTAL ENERGY:    -1274.305141656 Eh
FINAL SINGLE POINT ENERGY     -1274.305141655719

DIPOLE MOMENT
-------------
                                X             Y             Z
Electronic contribution:     11.92073       7.68035       7.23899
Nuclear contribution   :    -13.39639      -8.48493      -7.56069
                        -----------------------------------------
Total Dipole Moment    :     -1.47566      -0.80458      -0.32170
                        -----------------------------------------
Magnitude (a.u.)       :      1.71126
Magnitude (Debye)      :      4.34968

Rotational constants in cm-1:     0.011598     0.009129     0.006712
Rotational constants in MHz :   347.694226   273.674016   201.227826

                             ****ORCA TERMINATED NORMALLY****
TOTAL RUN TIME: 0 days 1 hours 39 minutes 5 seconds 149 msec
