                         Program Version 4.2.0 -  RELEASE  -
|  1> ! ri-mp2 cc-pvtz cc-pvtz/c TightSCF NoKeepInts
|  2>
|  3> %scf
|  4>   MaxCore 4096
|  5> end
|  6> *xyz  0  1
|  7>     C       15.4066329   13.6092697   15.8451408
|  8>     C       16.8987300   13.9564348   15.6728611
|  9>     O       17.2568357   14.9705166   16.6302814
| 10>     C       16.8907238   16.2752690   16.4302903
| 11>     O       16.3459177   16.6412542   15.4020938
| 12>     C       17.2250770   17.1487102   17.6138103
| 13>     C       17.1448378   18.4977114   17.4456230
| 14>     C       16.3463846   19.2697815   16.4144427
| 15>     N       17.8459616   19.3536445   18.2996487
| 16>     C       18.8728054   18.9671561   19.1156347
| 17>     S       19.7758839   20.0589502   19.9687825
| 18>     N       19.1292796   17.6224605   19.1682449
| 19>     C       18.2722530   16.5720315   18.5860552
| 20>     C       17.5864092   15.8172556   19.7195402
| 21>     C       17.7748478   14.4297463   19.8591982
| 22>     C       17.1428031   13.7224350   20.8957730
| 23>     C       16.3139129   14.4078174   21.8002568
| 24>     C       16.1215035   15.7893779   21.6629193
| 25>     O       15.3185596   16.4530076   22.5324086
| 26>     C       16.7519661   16.4905482   20.6303485
| 27>     H       15.1946352   13.3149205   16.8806182
| 28>     H       15.1291063   12.7765000   15.1878094
| 29>     H       14.7698607   14.4659083   15.5911548
| 30>     H       17.4972118   13.0557040   15.8596906
| 31>     H       17.1009983   14.2939548   14.6469972
| 32>     H       15.3431101   18.8401808   16.2985710
| 33>     H       16.8378673   19.2289668   15.4339737
| 34>     H       16.2151317   20.3253914   16.6797315
| 35>     H       17.6894998   20.3474088   18.2451064
| 36>     H       19.8765185   17.3620764   19.7990332
| 37>     H       18.9539930   15.9063189   18.0387832
| 38>     H       18.4089645   13.8964436   19.1560016
| 39>     H       17.2943668   12.6490166   20.9943559
| 40>     H       15.8229335   13.8659490   22.6018224
| 41>     H       14.9997474   15.8100146   23.1832326
| 42>     H       16.5917274   17.5598594   20.5437643
| 43> *
| 44>
| 45>                          ****END OF INPUT****

CARTESIAN COORDINATES (ANGSTROEM)
---------------------------------
  C     15.406633   13.609270   15.845141
  C     16.898730   13.956435   15.672861
  O     17.256836   14.970517   16.630281
  C     16.890724   16.275269   16.430290
  O     16.345918   16.641254   15.402094
  C     17.225077   17.148710   17.613810
  C     17.144838   18.497711   17.445623
  C     16.346385   19.269781   16.414443
  N     17.845962   19.353644   18.299649
  C     18.872805   18.967156   19.115635
  S     19.775884   20.058950   19.968782
  N     19.129280   17.622460   19.168245
  C     18.272253   16.572032   18.586055
  C     17.586409   15.817256   19.719540
  C     17.774848   14.429746   19.859198
  C     17.142803   13.722435   20.895773
  C     16.313913   14.407817   21.800257
  C     16.121503   15.789378   21.662919
  O     15.318560   16.453008   22.532409
  C     16.751966   16.490548   20.630349
  H     15.194635   13.314920   16.880618
  H     15.129106   12.776500   15.187809
  H     14.769861   14.465908   15.591155
  H     17.497212   13.055704   15.859691
  H     17.100998   14.293955   14.646997
  H     15.343110   18.840181   16.298571
  H     16.837867   19.228967   15.433974
  H     16.215132   20.325391   16.679731
  H     17.689500   20.347409   18.245106
  H     19.876518   17.362076   19.799033
  H     18.953993   15.906319   18.038783
  H     18.408964   13.896444   19.156002
  H     17.294367   12.649017   20.994356
  H     15.822933   13.865949   22.601822
  H     14.999747   15.810015   23.183233
  H     16.591727   17.559859   20.543764

 Total Charge           Charge          ....    0
 Multiplicity           Mult            ....    1
 Number of Electrons    NEL             ....  154
 Basis Dimension        Dim             ....  828

ORBITAL ENERGIES
----------------

  NO   OCC          E(Eh)            E(eV)
   0   2.0000     -91.889621     -2500.4437
   1   2.0000     -20.601844      -560.6047
   2   2.0000     -20.593973      -560.3905
   3   2.0000     -20.541724      -558.9687
   4   2.0000     -15.630298      -425.3220
   5   2.0000     -15.606996      -424.6880
   6   2.0000     -11.396171      -310.1056
   7   2.0000     -11.383633      -309.7644
   8   2.0000     -11.340452      -308.5894
   9   2.0000     -11.310984      -307.7875
  10   2.0000     -11.308442      -307.7184
  11   2.0000     -11.298613      -307.4509
  12   2.0000     -11.259192      -306.3782
  13   2.0000     -11.257063      -306.3202
  14   2.0000     -11.253274      -306.2171
  15   2.0000     -11.252233      -306.1888
  16   2.0000     -11.240121      -305.8592
  17   2.0000     -11.235767      -305.7408
  18   2.0000     -11.234973      -305.7192
  19   2.0000     -11.224169      -305.4252
  20   2.0000      -8.894662      -242.0361
  21   2.0000      -6.576232      -178.9484
  22   2.0000      -6.574233      -178.8940
  23   2.0000      -6.573640      -178.8778
  24   2.0000      -1.451640       -39.5011
  25   2.0000      -1.413613       -38.4664
  26   2.0000      -1.354824       -36.8666
  27   2.0000      -1.342368       -36.5277
  28   2.0000      -1.239445       -33.7270
  29   2.0000      -1.155148       -31.4332
  30   2.0000      -1.121199       -30.5094
  31   2.0000      -1.041185       -28.3321
  32   2.0000      -1.036922       -28.2161
  33   2.0000      -1.012206       -27.5435
  34   2.0000      -0.996045       -27.1038
  35   2.0000      -0.984325       -26.7849
  36   2.0000      -0.922177       -25.0937
  37   2.0000      -0.894391       -24.3376
  38   2.0000      -0.847770       -23.0690
  39   2.0000      -0.836222       -22.7548
  40   2.0000      -0.831523       -22.6269
  41   2.0000      -0.814533       -22.1646
  42   2.0000      -0.757222       -20.6050
  43   2.0000      -0.729646       -19.8547
  44   2.0000      -0.721860       -19.6428
  45   2.0000      -0.695990       -18.9388
  46   2.0000      -0.689533       -18.7632
  47   2.0000      -0.679877       -18.5004
  48   2.0000      -0.667211       -18.1557
  49   2.0000      -0.656816       -17.8729
  50   2.0000      -0.647222       -17.6118
  51   2.0000      -0.641950       -17.4683
  52   2.0000      -0.633787       -17.2462
  53   2.0000      -0.609857       -16.5951
  54   2.0000      -0.603643       -16.4260
  55   2.0000      -0.600549       -16.3418
  56   2.0000      -0.596871       -16.2417
  57   2.0000      -0.576594       -15.6899
  58   2.0000      -0.569918       -15.5083
  59   2.0000      -0.568494       -15.4695
  60   2.0000      -0.559648       -15.2288
  61   2.0000      -0.545944       -14.8559
  62   2.0000      -0.535571       -14.5736
  63   2.0000      -0.530282       -14.4297
  64   2.0000      -0.521067       -14.1790
  65   2.0000      -0.513051       -13.9608
  66   2.0000      -0.499583       -13.5944
  67   2.0000      -0.497380       -13.5344
  68   2.0000      -0.482090       -13.1183
  69   2.0000      -0.462183       -12.5766
  70   2.0000      -0.456412       -12.4196
  71   2.0000      -0.446533       -12.1508
  72   2.0000      -0.357437        -9.7263
  73   2.0000      -0.346319        -9.4238
  74   2.0000      -0.328585        -8.9412
  75   2.0000      -0.319584        -8.6963
  76   2.0000      -0.316329        -8.6078
  77   0.0000       0.074681         2.0322
  78   0.0000       0.109838         2.9888
  79   0.0000       0.125430         3.4131
  80   0.0000       0.133676         3.6375
  81   0.0000       0.137980         3.7546

MULLIKEN ATOMIC CHARGES
-----------------------
   0 C :   -0.294669
   1 C :    0.026800
   2 O :   -0.352625
   3 C :    0.436806
   4 O :   -0.436494
   5 C :   -0.175278
   6 C :    0.150594
   7 C :   -0.265672
   8 N :   -0.124073
   9 C :    0.194607
  10 S :   -0.436805
  11 N :   -0.202235
  12 C :    0.029435
  13 C :    0.080959
  14 C :   -0.186577
  15 C :   -0.132325
  16 C :   -0.280171
  17 C :    0.311775
  18 O :   -0.356747
  19 C :   -0.259344
  20 H :    0.099769
  21 H :    0.093818
  22 H :    0.114514
  23 H :    0.107052
  24 H :    0.109391
  25 H :    0.131706
  26 H :    0.132187
  27 H :    0.094800
  28 H :    0.200897
  29 H :    0.193271
  30 H :    0.159074
  31 H :    0.146879
  32 H :    0.158352
  33 H :    0.128487
  34 H :    0.240196
  35 H :    0.161649
Sum of atomic charges:   -0.0000000

LOEWDIN ATOMIC CHARGES
----------------------
   0 C :    0.105810
   1 C :   -0.018444
   2 O :    0.302973
   3 C :   -0.413037
   4 O :    0.093918
   5 C :   -0.094084
   6 C :   -0.048685
   7 C :    0.130876
   8 N :    0.408350
   9 C :   -0.462168
  10 S :   -0.033275
  11 N :    0.396476
  12 C :   -0.050998
  13 C :   -0.039377
  14 C :    0.012176
  15 C :    0.039616
  16 C :   -0.002082
  17 C :   -0.189683
  18 O :    0.395071
  19 C :    0.032273
  20 H :   -0.027650
  21 H :   -0.027365
  22 H :   -0.025209
  23 H :   -0.026557
  24 H :   -0.028385
  25 H :   -0.004283
  26 H :   -0.004457
  27 H :   -0.022907
  28 H :   -0.057056
  29 H :   -0.064135
  30 H :   -0.011201
  31 H :   -0.030377
  32 H :   -0.021820
  33 H :   -0.036029
  34 H :   -0.154358
  35 H :   -0.023916

  Mayer bond orders larger than 0.100000
B(  0-C ,  1-C ) :   0.9632 B(  0-C , 20-H ) :   0.9758 B(  0-C , 21-H ) :   0.9763
B(  0-C , 22-H ) :   0.9753 B(  1-C ,  2-O ) :   0.8989 B(  1-C , 23-H ) :   0.9844
B(  1-C , 24-H ) :   0.9787 B(  2-O ,  3-C ) :   1.1492 B(  3-C ,  4-O ) :   1.9631
B(  3-C ,  5-C ) :   1.0715 B(  5-C ,  6-C ) :   1.6317 B(  5-C , 12-C ) :   0.9690
B(  6-C ,  7-C ) :   0.9698 B(  6-C ,  8-N ) :   1.1334 B(  7-C , 25-H ) :   0.9642
B(  7-C , 26-H ) :   0.9550 B(  7-C , 27-H ) :   0.9886 B(  8-N ,  9-C ) :   1.1840
B(  8-N , 28-H ) :   0.9474 B(  9-C , 10-S ) :   1.6171 B(  9-C , 11-N ) :   1.3032
B( 11-N , 12-C ) :   0.9783 B( 11-N , 29-H ) :   0.9527 B( 12-C , 13-C ) :   0.9532
B( 12-C , 30-H ) :   0.9981 B( 13-C , 14-C ) :   1.3600 B( 13-C , 19-C ) :   1.3742
B( 14-C , 15-C ) :   1.3894 B( 14-C , 31-H ) :   0.9713 B( 15-C , 16-C ) :   1.3688
B( 15-C , 32-H ) :   0.9714 B( 16-C , 17-C ) :   1.3287 B( 16-C , 33-H ) :   0.9857
B( 17-C , 18-O ) :   1.1088 B( 17-C , 19-C ) :   1.3732 B( 18-O , 34-H ) :   0.9803
B( 19-C , 35-H ) :   0.9591

MP2 TOTAL ENERGY:    -1274.342909071 Eh
FINAL SINGLE POINT ENERGY     -1274.342909070889

DIPOLE MOMENT
-------------
                                X             Y             Z
Electronic contribution:      8.46836      11.31576       9.37604
Nuclear contribution   :     -9.35625     -13.04965      -9.78598
                        -----------------------------------------
Total Dipole Moment    :     -0.88789      -1.73389      -0.40995
                        -----------------------------------------
Magnitude (a.u.)       :      1.99067
Magnitude (Debye)      :      5.05989

Rotational constants in cm-1:     0.010466     0.009212     0.005865
Rotational constants in MHz :   313.758569   276.155953   175.819842

                             ****ORCA TERMINATED NORMALLY****
TOTAL RUN TIME: 0 days 2 hours 25 minutes 6 seconds 991 msec
