                         Program Version 4.2.0 -  RELEASE  -
|  1> ! ri-mp2 cc-pvtz cc-pvtz/c TightSCF NoKeepInts
|  2>
|  3> %scf
|  4>   MaxCore 4096
|  5> end
|  6> *xyz  0  1
|  7>     C       14.9639675   14.0119943   15.4262575
|  8>     C       15.8358325   15.1011562   14.7696478
|  9>     O       16.1894695   16.0841091   15.7616393
| 10>     C       17.1597578   15.8171647   16.6867084
| 11>     O       17.7999113   14.7773929   16.6673392
| 12>     C       17.3487172   16.8596231   17.7605436
| 13>     C       17.0886550   18.1719557   17.4925163
| 14>     C       16.2367120   18.7796434   16.3938707
| 15>     N       17.6649658   19.1688281   18.2864210
| 16>     C       18.7436644   18.9859994   19.1064118
| 17>     S       19.4887369   20.2506239   19.8685665
| 18>     N       19.1842837   17.6967265   19.2434063
| 19>     C       18.4664099   16.5034315   18.7556878
| 20>     C       17.8831510   15.7410706   19.9408167
| 21>     C       18.0801971   14.3517465   20.0414093
| 22>     C       17.5427965   13.6275383   21.1186900
| 23>     C       16.7969821   14.2974842   22.1033580
| 24>     C       16.5900157   15.6800108   22.0023768
| 25>     O       15.8623294   16.3276238   22.9470513
| 26>     C       17.1260604   16.3983140   20.9287974
| 27>     H       15.5298263   13.4551030   16.1836331
| 28>     H       14.6153235   13.2956428   14.6726330
| 29>     H       14.0850319   14.4571264   15.9086321
| 30>     H       16.7339313   14.6565009   14.3191399
| 31>     H       15.2586875   15.5849857   13.9713409
| 32>     H       15.2269754   18.3502839   16.4022053
| 33>     H       16.6801340   18.5941336   15.4076495
| 34>     H       16.1210954   19.8654777   16.4965744
| 35>     H       17.3692744   20.1255049   18.1765709
| 36>     H       19.9706947   17.5812061   19.8697566
| 37>     H       19.2241747   15.8885767   18.2488660
| 38>     H       18.6440242   13.8298526   19.2713688
| 39>     H       17.7011879   12.5525582   21.1836540
| 40>     H       16.3784439   13.7420861   22.9360084
| 41>     H       15.6047499   15.6734243   23.6135837
| 42>     H       16.9508288   17.4670990   20.8708652
| 43> *
| 44>
| 45>                          ****END OF INPUT****

CARTESIAN COORDINATES (ANGSTROEM)
---------------------------------
  C     14.963967   14.011994   15.426258
  C     15.835833   15.101156   14.769648
  O     16.189470   16.084109   15.761639
  C     17.159758   15.817165   16.686708
  O     17.799911   14.777393   16.667339
  C     17.348717   16.859623   17.760544
  C     17.088655   18.171956   17.492516
  C     16.236712   18.779643   16.393871
  N     17.664966   19.168828   18.286421
  C     18.743664   18.985999   19.106412
  S     19.488737   20.250624   19.868566
  N     19.184284   17.696727   19.243406
  C     18.466410   16.503432   18.755688
  C     17.883151   15.741071   19.940817
  C     18.080197   14.351747   20.041409
  C     17.542796   13.627538   21.118690
  C     16.796982   14.297484   22.103358
  C     16.590016   15.680011   22.002377
  O     15.862329   16.327624   22.947051
  C     17.126060   16.398314   20.928797
  H     15.529826   13.455103   16.183633
  H     14.615324   13.295643   14.672633
  H     14.085032   14.457126   15.908632
  H     16.733931   14.656501   14.319140
  H     15.258688   15.584986   13.971341
  H     15.226975   18.350284   16.402205
  H     16.680134   18.594134   15.407649
  H     16.121095   19.865478   16.496574
  H     17.369274   20.125505   18.176571
  H     19.970695   17.581206   19.869757
  H     19.224175   15.888577   18.248866
  H     18.644024   13.829853   19.271369
  H     17.701188   12.552558   21.183654
  H     16.378444   13.742086   22.936008
  H     15.604750   15.673424   23.613584
  H     16.950829   17.467099   20.870865

 Total Charge           Charge          ....    0
 Multiplicity           Mult            ....    1
 Number of Electrons    NEL             ....  154
 Basis Dimension        Dim             ....  828

ORBITAL ENERGIES
----------------

  NO   OCC          E(Eh)            E(eV)
   0   2.0000     -91.888755     -2500.4201
   1   2.0000     -20.604460      -560.6759
   2   2.0000     -20.590711      -560.3017
   3   2.0000     -20.544033      -559.0316
   4   2.0000     -15.629704      -425.3059
   5   2.0000     -15.605532      -424.6481
   6   2.0000     -11.397074      -310.1302
   7   2.0000     -11.382550      -309.7349
   8   2.0000     -11.342222      -308.6376
   9   2.0000     -11.307047      -307.6804
  10   2.0000     -11.304384      -307.6079
  11   2.0000     -11.301488      -307.5291
  12   2.0000     -11.262171      -306.4592
  13   2.0000     -11.260611      -306.4168
  14   2.0000     -11.253122      -306.2130
  15   2.0000     -11.247290      -306.0543
  16   2.0000     -11.236025      -305.7478
  17   2.0000     -11.232078      -305.6404
  18   2.0000     -11.228745      -305.5497
  19   2.0000     -11.226315      -305.4836
  20   2.0000      -8.893812      -242.0129
  21   2.0000      -6.575389      -178.9254
  22   2.0000      -6.573382      -178.8708
  23   2.0000      -6.572793      -178.8548
  24   2.0000      -1.454100       -39.5681
  25   2.0000      -1.410391       -38.3787
  26   2.0000      -1.356554       -36.9137
  27   2.0000      -1.341954       -36.5164
  28   2.0000      -1.238149       -33.6917
  29   2.0000      -1.151479       -31.3333
  30   2.0000      -1.120689       -30.4955
  31   2.0000      -1.042326       -28.3631
  32   2.0000      -1.033945       -28.1351
  33   2.0000      -1.009093       -27.4588
  34   2.0000      -0.998584       -27.1729
  35   2.0000      -0.983181       -26.7537
  36   2.0000      -0.921552       -25.0767
  37   2.0000      -0.893342       -24.3091
  38   2.0000      -0.849017       -23.1029
  39   2.0000      -0.834986       -22.7211
  40   2.0000      -0.827046       -22.5051
  41   2.0000      -0.813872       -22.1466
  42   2.0000      -0.754492       -20.5308
  43   2.0000      -0.734470       -19.9859
  44   2.0000      -0.724148       -19.7051
  45   2.0000      -0.693022       -18.8581
  46   2.0000      -0.685723       -18.6595
  47   2.0000      -0.679335       -18.4856
  48   2.0000      -0.668764       -18.1980
  49   2.0000      -0.653332       -17.7781
  50   2.0000      -0.652030       -17.7426
  51   2.0000      -0.644785       -17.5455
  52   2.0000      -0.631407       -17.1814
  53   2.0000      -0.611186       -16.6312
  54   2.0000      -0.602498       -16.3948
  55   2.0000      -0.597102       -16.2480
  56   2.0000      -0.593872       -16.1601
  57   2.0000      -0.581877       -15.8337
  58   2.0000      -0.574833       -15.6420
  59   2.0000      -0.563854       -15.3433
  60   2.0000      -0.557233       -15.1631
  61   2.0000      -0.548533       -14.9263
  62   2.0000      -0.537233       -14.6188
  63   2.0000      -0.529525       -14.4091
  64   2.0000      -0.514684       -14.0053
  65   2.0000      -0.509574       -13.8662
  66   2.0000      -0.498387       -13.5618
  67   2.0000      -0.493840       -13.4381
  68   2.0000      -0.479893       -13.0585
  69   2.0000      -0.462284       -12.5794
  70   2.0000      -0.458701       -12.4819
  71   2.0000      -0.450933       -12.2705
  72   2.0000      -0.357864        -9.7380
  73   2.0000      -0.342556        -9.3214
  74   2.0000      -0.327778        -8.9193
  75   2.0000      -0.317448        -8.6382
  76   2.0000      -0.313303        -8.5254
  77   0.0000       0.075937         2.0663
  78   0.0000       0.114552         3.1171
  79   0.0000       0.121287         3.3004
  80   0.0000       0.137136         3.7317
  81   0.0000       0.140734         3.8296

MULLIKEN ATOMIC CHARGES
-----------------------
   0 C :   -0.292307
   1 C :    0.030663
   2 O :   -0.349499
   3 C :    0.426012
   4 O :   -0.435271
   5 C :   -0.142308
   6 C :    0.149373
   7 C :   -0.275481
   8 N :   -0.125764
   9 C :    0.188660
  10 S :   -0.437409
  11 N :   -0.201871
  12 C :    0.030711
  13 C :    0.061289
  14 C :   -0.198844
  15 C :   -0.128618
  16 C :   -0.280974
  17 C :    0.308021
  18 O :   -0.357586
  19 C :   -0.253860
  20 H :    0.118766
  21 H :    0.094754
  22 H :    0.094136
  23 H :    0.105282
  24 H :    0.105924
  25 H :    0.130205
  26 H :    0.125386
  27 H :    0.102109
  28 H :    0.199374
  29 H :    0.194256
  30 H :    0.162799
  31 H :    0.160885
  32 H :    0.159475
  33 H :    0.127550
  34 H :    0.239780
  35 H :    0.164382
Sum of atomic charges:   -0.0000000

LOEWDIN ATOMIC CHARGES
----------------------
   0 C :    0.106175
   1 C :   -0.017249
   2 O :    0.305139
   3 C :   -0.413790
   4 O :    0.094255
   5 C :   -0.089366
   6 C :   -0.055317
   7 C :    0.124909
   8 N :    0.406806
   9 C :   -0.464461
  10 S :   -0.035055
  11 N :    0.397803
  12 C :   -0.043500
  13 C :   -0.039830
  14 C :    0.017234
  15 C :    0.041087
  16 C :   -0.003153
  17 C :   -0.191109
  18 O :    0.394070
  19 C :    0.029119
  20 H :   -0.023896
  21 H :   -0.026729
  22 H :   -0.029187
  23 H :   -0.028203
  24 H :   -0.026387
  25 H :   -0.008835
  26 H :   -0.009188
  27 H :   -0.020939
  28 H :   -0.059074
  29 H :   -0.063090
  30 H :   -0.005698
  31 H :   -0.024776
  32 H :   -0.021262
  33 H :   -0.036636
  34 H :   -0.154921
  35 H :   -0.024947

  Mayer bond orders larger than 0.100000
B(  0-C ,  1-C ) :   0.9654 B(  0-C , 20-H ) :   0.9742 B(  0-C , 21-H ) :   0.9761
B(  0-C , 22-H ) :   0.9767 B(  1-C ,  2-O ) :   0.8939 B(  1-C , 23-H ) :   0.9768
B(  1-C , 24-H ) :   0.9840 B(  2-O ,  3-C ) :   1.1458 B(  3-C ,  4-O ) :   1.9535
B(  3-C ,  5-C ) :   1.0509 B(  5-C ,  6-C ) :   1.6367 B(  5-C , 12-C ) :   0.9620
B(  6-C ,  7-C ) :   0.9588 B(  6-C ,  8-N ) :   1.1174 B(  7-C , 25-H ) :   0.9640
B(  7-C , 26-H ) :   0.9623 B(  7-C , 27-H ) :   0.9910 B(  8-N ,  9-C ) :   1.1809
B(  8-N , 28-H ) :   0.9477 B(  9-C , 10-S ) :   1.6156 B(  9-C , 11-N ) :   1.3038
B( 11-N , 12-C ) :   0.9803 B( 11-N , 29-H ) :   0.9524 B( 12-C , 13-C ) :   0.9642
B( 12-C , 30-H ) :   0.9933 B( 13-C , 14-C ) :   1.3784 B( 13-C , 19-C ) :   1.3668
B( 14-C , 15-C ) :   1.3872 B( 14-C , 31-H ) :   0.9642 B( 15-C , 16-C ) :   1.3661
B( 15-C , 32-H ) :   0.9715 B( 16-C , 17-C ) :   1.3299 B( 16-C , 33-H ) :   0.9862
B( 17-C , 18-O ) :   1.1092 B( 17-C , 19-C ) :   1.3746 B( 18-O , 34-H ) :   0.9808
B( 19-C , 35-H ) :   0.9572

MP2 TOTAL ENERGY:    -1274.341872601 Eh
FINAL SINGLE POINT ENERGY     -1274.341872600590

DIPOLE MOMENT
-------------
                                X             Y             Z
Electronic contribution:     10.14524       9.85409      11.15715
Nuclear contribution   :    -11.67033     -10.93818     -12.25903
                        -----------------------------------------
Total Dipole Moment    :     -1.52509      -1.08409      -1.10188
                        -----------------------------------------
Magnitude (a.u.)       :      2.17147
Magnitude (Debye)      :      5.51944

Rotational constants in cm-1:     0.010575     0.008688     0.005593
Rotational constants in MHz :   317.018186   260.448161   167.678193

                             ****ORCA TERMINATED NORMALLY****
TOTAL RUN TIME: 0 days 2 hours 38 minutes 1 seconds 759 msec
