                         Program Version 4.2.0 -  RELEASE  -
|  1> ! ri-mp2 cc-pvtz cc-pvtz/c TightSCF NoKeepInts
|  2>
|  3> %scf
|  4>   MaxCore 4096
|  5> end
|  6> *xyz  0  1
|  7>     C       14.3778212   14.8512655   15.5189760
|  8>     C       15.4362350   15.3758245   16.5025081
|  9>     O       16.6507415   15.5772838   15.7540361
| 10>     C       17.8024650   15.9834088   16.3743198
| 11>     O       18.8974236   15.6284849   15.9797390
| 12>     C       17.6130075   16.8232606   17.5958243
| 13>     C       17.1902004   18.0917377   17.3498479
| 14>     C       16.5382570   18.6177636   16.0833748
| 15>     N       17.4325346   19.1028459   18.2831150
| 16>     C       18.3854422   19.0322734   19.2624451
| 17>     S       18.7552962   20.3300747   20.2182878
| 18>     N       19.0357476   17.8315312   19.3866853
| 19>     C       18.6345034   16.5805004   18.7134788
| 20>     C       18.0616072   15.6013634   19.7298868
| 21>     C       18.5586096   14.2865911   19.7893123
| 22>     C       18.0352012   13.3647853   20.7112093
| 23>     C       17.0019914   13.7591934   21.5782164
| 24>     C       16.4983604   15.0656830   21.5164066
| 25>     O       15.4955990   15.4464089   22.3470415
| 26>     C       17.0203983   15.9812063   20.5966404
| 27>     H       13.4271626   14.6691357   16.0348037
| 28>     H       14.7081967   13.9083274   15.0649251
| 29>     H       14.2010046   15.5772180   14.7154926
| 30>     H       15.0792184   16.3054130   16.9615431
| 31>     H       15.6003527   14.6352660   17.2974248
| 32>     H       15.4826885   18.3296207   16.0250356
| 33>     H       17.0410405   18.2391379   15.1836627
| 34>     H       16.5831357   19.7123790   16.0202642
| 35>     H       16.9963243   20.0045960   18.1717329
| 36>     H       19.7348954   17.8009269   20.1178861
| 37>     H       19.5526062   16.1635415   18.2736999
| 38>     H       19.3537610   13.9772280   19.1145765
| 39>     H       18.4303720   12.3509506   20.7508182
| 40>     H       16.5953387   13.0503688   22.2920375
| 41>     H       15.3212214   14.7080311   22.9503922
| 42>     H       16.6182363   16.9883729   20.5683543
| 43> *
| 44>
| 45>                          ****END OF INPUT****

CARTESIAN COORDINATES (ANGSTROEM)
---------------------------------
  C     14.377821   14.851266   15.518976
  C     15.436235   15.375824   16.502508
  O     16.650741   15.577284   15.754036
  C     17.802465   15.983409   16.374320
  O     18.897424   15.628485   15.979739
  C     17.613007   16.823261   17.595824
  C     17.190200   18.091738   17.349848
  C     16.538257   18.617764   16.083375
  N     17.432535   19.102846   18.283115
  C     18.385442   19.032273   19.262445
  S     18.755296   20.330075   20.218288
  N     19.035748   17.831531   19.386685
  C     18.634503   16.580500   18.713479
  C     18.061607   15.601363   19.729887
  C     18.558610   14.286591   19.789312
  C     18.035201   13.364785   20.711209
  C     17.001991   13.759193   21.578216
  C     16.498360   15.065683   21.516407
  O     15.495599   15.446409   22.347041
  C     17.020398   15.981206   20.596640
  H     13.427163   14.669136   16.034804
  H     14.708197   13.908327   15.064925
  H     14.201005   15.577218   14.715493
  H     15.079218   16.305413   16.961543
  H     15.600353   14.635266   17.297425
  H     15.482689   18.329621   16.025036
  H     17.041041   18.239138   15.183663
  H     16.583136   19.712379   16.020264
  H     16.996324   20.004596   18.171733
  H     19.734895   17.800927   20.117886
  H     19.552606   16.163542   18.273700
  H     19.353761   13.977228   19.114576
  H     18.430372   12.350951   20.750818
  H     16.595339   13.050369   22.292037
  H     15.321221   14.708031   22.950392
  H     16.618236   16.988373   20.568354

 Total Charge           Charge          ....    0
 Multiplicity           Mult            ....    1
 Number of Electrons    NEL             ....  154
 Basis Dimension        Dim             ....  828

ORBITAL ENERGIES
----------------

  NO   OCC          E(Eh)            E(eV)
   0   2.0000     -91.890179     -2500.4589
   1   2.0000     -20.601311      -560.5902
   2   2.0000     -20.599076      -560.5293
   3   2.0000     -20.550492      -559.2073
   4   2.0000     -15.629823      -425.3091
   5   2.0000     -15.608550      -424.7302
   6   2.0000     -11.396485      -310.1141
   7   2.0000     -11.385234      -309.8080
   8   2.0000     -11.338965      -308.5489
   9   2.0000     -11.316565      -307.9394
  10   2.0000     -11.310658      -307.7786
  11   2.0000     -11.305995      -307.6518
  12   2.0000     -11.268398      -306.6287
  13   2.0000     -11.262151      -306.4587
  14   2.0000     -11.260087      -306.4025
  15   2.0000     -11.257348      -306.3280
  16   2.0000     -11.245076      -305.9941
  17   2.0000     -11.240622      -305.8729
  18   2.0000     -11.239663      -305.8468
  19   2.0000     -11.236070      -305.7490
  20   2.0000      -8.895245      -242.0519
  21   2.0000      -6.576824      -178.9645
  22   2.0000      -6.574809      -178.9097
  23   2.0000      -6.574225      -178.8938
  24   2.0000      -1.449923       -39.4544
  25   2.0000      -1.418712       -38.6051
  26   2.0000      -1.362544       -37.0767
  27   2.0000      -1.343105       -36.5478
  28   2.0000      -1.240045       -33.7433
  29   2.0000      -1.160472       -31.5781
  30   2.0000      -1.127249       -30.6740
  31   2.0000      -1.048471       -28.5303
  32   2.0000      -1.041324       -28.3359
  33   2.0000      -1.018125       -27.7046
  34   2.0000      -1.006322       -27.3834
  35   2.0000      -0.989425       -26.9236
  36   2.0000      -0.927077       -25.2270
  37   2.0000      -0.879926       -23.9440
  38   2.0000      -0.855898       -23.2902
  39   2.0000      -0.844194       -22.9717
  40   2.0000      -0.837028       -22.7767
  41   2.0000      -0.833816       -22.6893
  42   2.0000      -0.758717       -20.6457
  43   2.0000      -0.736304       -20.0359
  44   2.0000      -0.731383       -19.9019
  45   2.0000      -0.698427       -19.0052
  46   2.0000      -0.690786       -18.7973
  47   2.0000      -0.682282       -18.5658
  48   2.0000      -0.672581       -18.3018
  49   2.0000      -0.664487       -18.0816
  50   2.0000      -0.658109       -17.9081
  51   2.0000      -0.649043       -17.6614
  52   2.0000      -0.638665       -17.3789
  53   2.0000      -0.612128       -16.6568
  54   2.0000      -0.608736       -16.5645
  55   2.0000      -0.602578       -16.3970
  56   2.0000      -0.597365       -16.2551
  57   2.0000      -0.583186       -15.8693
  58   2.0000      -0.579074       -15.7574
  59   2.0000      -0.567822       -15.4512
  60   2.0000      -0.560173       -15.2431
  61   2.0000      -0.559721       -15.2308
  62   2.0000      -0.548743       -14.9321
  63   2.0000      -0.525983       -14.3127
  64   2.0000      -0.524439       -14.2707
  65   2.0000      -0.515884       -14.0379
  66   2.0000      -0.507107       -13.7991
  67   2.0000      -0.500990       -13.6326
  68   2.0000      -0.487790       -13.2734
  69   2.0000      -0.466138       -12.6843
  70   2.0000      -0.458620       -12.4797
  71   2.0000      -0.452241       -12.3061
  72   2.0000      -0.360632        -9.8133
  73   2.0000      -0.350045        -9.5252
  74   2.0000      -0.329718        -8.9721
  75   2.0000      -0.324895        -8.8408
  76   2.0000      -0.318610        -8.6698
  77   0.0000       0.080354         2.1865
  78   0.0000       0.104443         2.8420
  79   0.0000       0.115745         3.1496
  80   0.0000       0.129004         3.5104
  81   0.0000       0.131141         3.5685

MULLIKEN ATOMIC CHARGES
-----------------------
   0 C :   -0.257865
   1 C :    0.023471
   2 O :   -0.319502
   3 C :    0.413417
   4 O :   -0.382007
   5 C :   -0.213394
   6 C :    0.141489
   7 C :   -0.306818
   8 N :   -0.128075
   9 C :    0.194462
  10 S :   -0.437985
  11 N :   -0.197278
  12 C :    0.043860
  13 C :    0.049841
  14 C :   -0.211220
  15 C :   -0.126608
  16 C :   -0.279766
  17 C :    0.308292
  18 O :   -0.355566
  19 C :   -0.254524
  20 H :    0.090722
  21 H :    0.106363
  22 H :    0.095127
  23 H :    0.089066
  24 H :    0.112347
  25 H :    0.121056
  26 H :    0.139162
  27 H :    0.117741
  28 H :    0.196127
  29 H :    0.193657
  30 H :    0.171140
  31 H :    0.161375
  32 H :    0.162665
  33 H :    0.131187
  34 H :    0.241262
  35 H :    0.166779
Sum of atomic charges:   -0.0000000

LOEWDIN ATOMIC CHARGES
----------------------
   0 C :    0.111382
   1 C :   -0.026928
   2 O :    0.303444
   3 C :   -0.420842
   4 O :    0.118786
   5 C :   -0.089315
   6 C :   -0.075140
   7 C :    0.131177
   8 N :    0.404475
   9 C :   -0.461834
  10 S :   -0.035305
  11 N :    0.397653
  12 C :   -0.044037
  13 C :   -0.043637
  14 C :    0.010315
  15 C :    0.043457
  16 C :   -0.001458
  17 C :   -0.190309
  18 O :    0.395254
  19 C :    0.029396
  20 H :   -0.024284
  21 H :   -0.022364
  22 H :   -0.027228
  23 H :   -0.039662
  24 H :   -0.027719
  25 H :   -0.015666
  26 H :   -0.004011
  27 H :   -0.014162
  28 H :   -0.058765
  29 H :   -0.063621
  30 H :   -0.002285
  31 H :   -0.025533
  32 H :   -0.019523
  33 H :   -0.035129
  34 H :   -0.153001
  35 H :   -0.023582

  Mayer bond orders larger than 0.100000
B(  0-C ,  1-C ) :   0.9782 B(  0-C , 20-H ) :   0.9767 B(  0-C , 21-H ) :   0.9775
B(  0-C , 22-H ) :   0.9771 B(  1-C ,  2-O ) :   0.9041 B(  1-C , 23-H ) :   0.9662
B(  1-C , 24-H ) :   0.9752 B(  2-O ,  3-C ) :   1.1604 B(  3-C ,  4-O ) :   2.1124
B(  3-C ,  5-C ) :   0.9319 B(  5-C ,  6-C ) :   1.7068 B(  5-C , 12-C ) :   0.9438
B(  6-C ,  7-C ) :   0.9384 B(  6-C ,  8-N ) :   1.1088 B(  7-C , 25-H ) :   0.9676
B(  7-C , 26-H ) :   0.9647 B(  7-C , 27-H ) :   0.9864 B(  8-N ,  9-C ) :   1.1863
B(  8-N , 28-H ) :   0.9497 B(  9-C , 10-S ) :   1.6166 B(  9-C , 11-N ) :   1.2920
B( 11-N , 12-C ) :   0.9969 B( 11-N , 29-H ) :   0.9526 B( 12-C , 13-C ) :   0.9505
B( 12-C , 30-H ) :   0.9875 B( 13-C , 14-C ) :   1.3747 B( 13-C , 19-C ) :   1.3673
B( 14-C , 15-C ) :   1.3854 B( 14-C , 31-H ) :   0.9668 B( 15-C , 16-C ) :   1.3725
B( 15-C , 32-H ) :   0.9702 B( 16-C , 17-C ) :   1.3250 B( 16-C , 33-H ) :   0.9848
B( 17-C , 18-O ) :   1.1125 B( 17-C , 19-C ) :   1.3740 B( 18-O , 34-H ) :   0.9793
B( 19-C , 35-H ) :   0.9575

MP2 TOTAL ENERGY:    -1274.327874954 Eh
FINAL SINGLE POINT ENERGY     -1274.327874954270

DIPOLE MOMENT
-------------
                                X             Y             Z
Electronic contribution:     11.35969       7.70673       9.25967
Nuclear contribution   :    -13.14151      -8.97011      -9.37334
                        -----------------------------------------
Total Dipole Moment    :     -1.78181      -1.26338      -0.11368
                        -----------------------------------------
Magnitude (a.u.)       :      2.18722
Magnitude (Debye)      :      5.55946

Rotational constants in cm-1:     0.009892     0.009639     0.006223
Rotational constants in MHz :   296.554809   288.959460   186.575119

                             ****ORCA TERMINATED NORMALLY****
TOTAL RUN TIME: 0 days 2 hours 41 minutes 59 seconds 368 msec
