                         Program Version 4.2.0 -  RELEASE  -
|  1> ! ri-mp2 cc-pvtz cc-pvtz/c TightSCF  NoKeepInts
|  2>
|  3> %scf
|  4>   MaxCore 4096
|  5> end
|  6> *xyz  0  1
|  7>     C       16.0367132   12.9675895   16.1866333
|  8>     C       15.7389911   14.4219800   15.7782443
|  9>     O       16.1926659   15.2650742   16.8411556
| 10>     C       16.0524098   16.6207042   16.7453250
| 11>     O       15.2046865   17.1268648   16.0321363
| 12>     C       17.0323079   17.3479552   17.6217696
| 13>     C       16.9238383   18.7008054   17.7834287
| 14>     C       15.9626228   19.6518943   17.0953927
| 15>     N       18.0458643   19.3452851   18.3289162
| 16>     C       19.2029606   18.7792264   18.7899437
| 17>     S       20.3991838   19.7157549   19.4507534
| 18>     N       19.3034854   17.4137127   18.6848128
| 19>     C       18.2756730   16.5517053   18.0514560
| 20>     C       17.8647603   15.8923456   19.4051865
| 21>     C       17.9860787   14.4732209   19.4351805
| 22>     C       17.4541364   13.6841044   20.4620097
| 23>     C       16.7803044   14.3035388   21.5165313
| 24>     C       16.6355612   15.6982328   21.5178118
| 25>     O       15.9457945   16.2706415   22.5353563
| 26>     C       17.1537927   16.4901579   20.4728365
| 27>     H       17.1084947   12.7559963   16.0928184
| 28>     H       15.4894423   12.2666668   15.5446457
| 29>     H       15.7377913   12.7810110   17.2268327
| 30>     H       16.1577563   14.6816102   14.7993857
| 31>     H       14.6454930   14.5348784   15.7326516
| 32>     H       16.0109614   19.5214424   16.0036179
| 33>     H       16.1857192   20.7080036   17.2877870
| 34>     H       14.9295459   19.4552315   17.4001252
| 35>     H       18.0431744   20.3545519   18.3610675
| 36>     H       20.1299758   17.0203707   19.1161606
| 37>     H       18.4892992   15.6068474   17.5497476
| 38>     H       18.4472937   13.9362993   18.6096110
| 39>     H       17.5439060   12.5980844   20.4199542
| 40>     H       16.3596327   13.6952380   22.3123447
| 41>     H       15.7118591   15.5592685   23.1538018
| 42>     H       16.9648284   17.5557065   20.4885685
| 43> *
| 44>
| 45>                          ****END OF INPUT****

CARTESIAN COORDINATES (ANGSTROEM)
---------------------------------
  C     16.036713   12.967589   16.186633
  C     15.738991   14.421980   15.778244
  O     16.192666   15.265074   16.841156
  C     16.052410   16.620704   16.745325
  O     15.204686   17.126865   16.032136
  C     17.032308   17.347955   17.621770
  C     16.923838   18.700805   17.783429
  C     15.962623   19.651894   17.095393
  N     18.045864   19.345285   18.328916
  C     19.202961   18.779226   18.789944
  S     20.399184   19.715755   19.450753
  N     19.303485   17.413713   18.684813
  C     18.275673   16.551705   18.051456
  C     17.864760   15.892346   19.405186
  C     17.986079   14.473221   19.435180
  C     17.454136   13.684104   20.462010
  C     16.780304   14.303539   21.516531
  C     16.635561   15.698233   21.517812
  O     15.945794   16.270641   22.535356
  C     17.153793   16.490158   20.472836
  H     17.108495   12.755996   16.092818
  H     15.489442   12.266667   15.544646
  H     15.737791   12.781011   17.226833
  H     16.157756   14.681610   14.799386
  H     14.645493   14.534878   15.732652
  H     16.010961   19.521442   16.003618
  H     16.185719   20.708004   17.287787
  H     14.929546   19.455232   17.400125
  H     18.043174   20.354552   18.361067
  H     20.129976   17.020371   19.116161
  H     18.489299   15.606847   17.549748
  H     18.447294   13.936299   18.609611
  H     17.543906   12.598084   20.419954
  H     16.359633   13.695238   22.312345
  H     15.711859   15.559268   23.153802
  H     16.964828   17.555706   20.488568

 Total Charge           Charge          ....    0
 Multiplicity           Mult            ....    1
 Number of Electrons    NEL             ....  154
 Basis Dimension        Dim             ....  828

ORBITAL ENERGIES
----------------

  NO   OCC          E(Eh)            E(eV)
   0   2.0000     -91.890024     -2500.4547
   1   2.0000     -20.600761      -560.5752
   2   2.0000     -20.591867      -560.3332
   3   2.0000     -20.545041      -559.0590
   4   2.0000     -15.626809      -425.2271
   5   2.0000     -15.613433      -424.8631
   6   2.0000     -11.394743      -310.0667
   7   2.0000     -11.385465      -309.8143
   8   2.0000     -11.339932      -308.5752
   9   2.0000     -11.318774      -307.9995
  10   2.0000     -11.311219      -307.7939
  11   2.0000     -11.298617      -307.4510
  12   2.0000     -11.265809      -306.5582
  13   2.0000     -11.258724      -306.3655
  14   2.0000     -11.256624      -306.3083
  15   2.0000     -11.248013      -306.0740
  16   2.0000     -11.236276      -305.7546
  17   2.0000     -11.235222      -305.7259
  18   2.0000     -11.233992      -305.6925
  19   2.0000     -11.230436      -305.5957
  20   2.0000      -8.894938      -242.0436
  21   2.0000      -6.576499      -178.9556
  22   2.0000      -6.574496      -178.9011
  23   2.0000      -6.573914      -178.8853
  24   2.0000      -1.455369       -39.6026
  25   2.0000      -1.412000       -38.4225
  26   2.0000      -1.357887       -36.9500
  27   2.0000      -1.340040       -36.4643
  28   2.0000      -1.241821       -33.7917
  29   2.0000      -1.152252       -31.3544
  30   2.0000      -1.119757       -30.4701
  31   2.0000      -1.044584       -28.4246
  32   2.0000      -1.039277       -28.2802
  33   2.0000      -1.009481       -27.4694
  34   2.0000      -0.995782       -27.0966
  35   2.0000      -0.982224       -26.7277
  36   2.0000      -0.925414       -25.1818
  37   2.0000      -0.890474       -24.2310
  38   2.0000      -0.850248       -23.1364
  39   2.0000      -0.831179       -22.6175
  40   2.0000      -0.827578       -22.5195
  41   2.0000      -0.817967       -22.2580
  42   2.0000      -0.765164       -20.8212
  43   2.0000      -0.726929       -19.7807
  44   2.0000      -0.721132       -19.6230
  45   2.0000      -0.696463       -18.9517
  46   2.0000      -0.691177       -18.8079
  47   2.0000      -0.682016       -18.5586
  48   2.0000      -0.677925       -18.4473
  49   2.0000      -0.659613       -17.9490
  50   2.0000      -0.650872       -17.7111
  51   2.0000      -0.645586       -17.5673
  52   2.0000      -0.633972       -17.2513
  53   2.0000      -0.603357       -16.4182
  54   2.0000      -0.598696       -16.2914
  55   2.0000      -0.593953       -16.1623
  56   2.0000      -0.591083       -16.0842
  57   2.0000      -0.577652       -15.7187
  58   2.0000      -0.571153       -15.5419
  59   2.0000      -0.566938       -15.4272
  60   2.0000      -0.553699       -15.0669
  61   2.0000      -0.552410       -15.0318
  62   2.0000      -0.548387       -14.9224
  63   2.0000      -0.524703       -14.2779
  64   2.0000      -0.517699       -14.0873
  65   2.0000      -0.512169       -13.9368
  66   2.0000      -0.506389       -13.7795
  67   2.0000      -0.499596       -13.5947
  68   2.0000      -0.486960       -13.2508
  69   2.0000      -0.459792       -12.5116
  70   2.0000      -0.455019       -12.3817
  71   2.0000      -0.449996       -12.2450
  72   2.0000      -0.346370        -9.4252
  73   2.0000      -0.344028        -9.3615
  74   2.0000      -0.328170        -8.9299
  75   2.0000      -0.315780        -8.5928
  76   2.0000      -0.308986        -8.4079
  77   0.0000       0.065818         1.7910
  78   0.0000       0.111553         3.0355
  79   0.0000       0.123904         3.3716
  80   0.0000       0.131890         3.5889
  81   0.0000       0.138119         3.7584

MULLIKEN ATOMIC CHARGES
-----------------------
   0 C :   -0.285544
   1 C :    0.038734
   2 O :   -0.337843
   3 C :    0.448109
   4 O :   -0.427031
   5 C :   -0.201307
   6 C :    0.132502
   7 C :   -0.274209
   8 N :   -0.116695
   9 C :    0.202216
  10 S :   -0.436264
  11 N :   -0.198346
  12 C :    0.075321
  13 C :    0.052480
  14 C :   -0.196780
  15 C :   -0.126757
  16 C :   -0.282249
  17 C :    0.315434
  18 O :   -0.359732
  19 C :   -0.257397
  20 H :    0.088327
  21 H :    0.105583
  22 H :    0.109931
  23 H :    0.092893
  24 H :    0.099464
  25 H :    0.138053
  26 H :    0.098712
  27 H :    0.132761
  28 H :    0.193159
  29 H :    0.187229
  30 H :    0.178198
  31 H :    0.127578
  32 H :    0.155593
  33 H :    0.125160
  34 H :    0.243119
  35 H :    0.159599
Sum of atomic charges:    0.0000000

LOEWDIN ATOMIC CHARGES
----------------------
   0 C :    0.106966
   1 C :   -0.024321
   2 O :    0.313577
   3 C :   -0.417716
   4 O :    0.101663
   5 C :   -0.096305
   6 C :   -0.049413
   7 C :    0.131915
   8 N :    0.400873
   9 C :   -0.457761
  10 S :   -0.034625
  11 N :    0.395262
  12 C :   -0.006458
  13 C :   -0.032774
  14 C :   -0.001313
  15 C :    0.033395
  16 C :   -0.010048
  17 C :   -0.185960
  18 O :    0.390528
  19 C :    0.025925
  20 H :   -0.033238
  21 H :   -0.023518
  22 H :   -0.021982
  23 H :   -0.032044
  24 H :   -0.027229
  25 H :   -0.000018
  26 H :   -0.021876
  27 H :   -0.007206
  28 H :   -0.059314
  29 H :   -0.063819
  30 H :   -0.018518
  31 H :   -0.036932
  32 H :   -0.020115
  33 H :   -0.035630
  34 H :   -0.150666
  35 H :   -0.031302

  Mayer bond orders larger than 0.100000
B(  0-C ,  1-C ) :   0.9681 B(  0-C , 20-H ) :   0.9808 B(  0-C , 21-H ) :   0.9795
B(  0-C , 22-H ) :   0.9720 B(  1-C ,  2-O ) :   0.9104 B(  1-C , 23-H ) :   0.9737
B(  1-C , 24-H ) :   0.9832 B(  2-O ,  3-C ) :   1.1738 B(  3-C ,  4-O ) :   1.9784
B(  3-C ,  5-C ) :   1.0478 B(  5-C ,  6-C ) :   1.6672 B(  5-C , 12-C ) :   0.9823
B(  6-C ,  7-C ) :   0.9718 B(  6-C ,  8-N ) :   1.1457 B(  7-C , 25-H ) :   0.9524
B(  7-C , 26-H ) :   0.9854 B(  7-C , 27-H ) :   0.9674 B(  8-N ,  9-C ) :   1.1848
B(  8-N , 28-H ) :   0.9501 B(  9-C , 10-S ) :   1.6034 B(  9-C , 11-N ) :   1.3070
B( 11-N , 12-C ) :   0.9891 B( 11-N , 29-H ) :   0.9527 B( 12-C , 13-C ) :   0.9047
B( 12-C , 30-H ) :   0.9812 B( 13-C , 14-C ) :   1.3654 B( 13-C , 19-C ) :   1.3842
B( 14-C , 15-C ) :   1.3857 B( 14-C , 31-H ) :   0.9772 B( 15-C , 16-C ) :   1.3646
B( 15-C , 32-H ) :   0.9717 B( 16-C , 17-C ) :   1.3198 B( 16-C , 33-H ) :   0.9882
B( 17-C , 18-O ) :   1.1030 B( 17-C , 19-C ) :   1.3859 B( 18-O , 34-H ) :   0.9781
B( 19-C , 35-H ) :   0.9553

MP2 TOTAL ENERGY:    -1274.297430005 Eh
FINAL SINGLE POINT ENERGY     -1274.297430004929

DIPOLE MOMENT
-------------
                                X             Y             Z
Electronic contribution:      8.41597      12.12469       7.35909
Nuclear contribution   :     -9.40784     -13.78236      -7.91162
                        -----------------------------------------
Total Dipole Moment    :     -0.99187      -1.65766      -0.55252
                        -----------------------------------------
Magnitude (a.u.)       :      2.00921
Magnitude (Debye)      :      5.10702

Rotational constants in cm-1:     0.011221     0.008830     0.006271
Rotational constants in MHz :   336.407460   264.713724   188.010919

                             ****ORCA TERMINATED NORMALLY****
TOTAL RUN TIME: 0 days 1 hours 37 minutes 9 seconds 868 msec
