                         Program Version 4.2.0 -  RELEASE  -
|  1> ! ri-mp2 cc-pvtz cc-pvtz/c TightSCF  NoKeepInts
|  2>
|  3> %scf
|  4>   MaxCore 4096
|  5> end
|  6> *xyz  0  1
|  7>     C       15.6005507   13.1424988   16.6754967
|  8>     C       15.9214649   14.3539707   15.7717515
|  9>     O       16.6500515   15.2833852   16.5940462
| 10>     C       16.3064893   16.6073124   16.6405914
| 11>     O       15.3399940   17.0551954   16.0500049
| 12>     C       17.1947227   17.3992184   17.5589865
| 13>     C       17.1679496   18.7670843   17.5705042
| 14>     C       16.1417418   19.6707208   16.9191348
| 15>     N       18.1112790   19.4831556   18.3175459
| 16>     C       19.2114451   18.9376146   18.9229545
| 17>     S       20.3259086   19.8643782   19.7167580
| 18>     N       19.3380999   17.5794165   18.8568695
| 19>     C       18.4225791   16.7071622   18.1663586
| 20>     C       17.7861937   15.7836464   19.3188212
| 21>     C       18.0147253   14.3809714   19.3210023
| 22>     C       17.4717156   13.5480430   20.3175890
| 23>     C       16.6789739   14.1090175   21.3327338
| 24>     C       16.4352503   15.4892126   21.3458273
| 25>     O       15.6704079   16.0344227   22.3256423
| 26>     C       16.9774389   16.3138005   20.3513470
| 27>     H       16.5333697   12.6699424   17.0192611
| 28>     H       15.0242182   12.3899105   16.1235080
| 29>     H       15.0246433   13.4426355   17.5578415
| 30>     H       16.4963001   14.0493827   14.9026116
| 31>     H       14.9600900   14.7803866   15.4340214
| 32>     H       16.1711442   19.5623798   15.8284706
| 33>     H       16.2919387   20.7315335   17.1516718
| 34>     H       15.1289063   19.4012652   17.2478145
| 35>     H       18.0273000   20.4838180   18.3986892
| 36>     H       20.1483808   17.1954553   19.3176461
| 37>     H       18.8384086   15.9500247   17.5290354
| 38>     H       18.6213184   13.9385088   18.5338561
| 39>     H       17.6654135   12.4763137   20.3007192
| 40>     H       16.2574094   13.4732896   22.1045081
| 41>     H       15.4109284   15.3188569   22.9250267
| 42>     H       16.7802484   17.3780656   20.3853548
| 43> *
| 44>
| 45>                          ****END OF INPUT****

CARTESIAN COORDINATES (ANGSTROEM)
---------------------------------
  C     15.600551   13.142499   16.675497
  C     15.921465   14.353971   15.771751
  O     16.650052   15.283385   16.594046
  C     16.306489   16.607312   16.640591
  O     15.339994   17.055195   16.050005
  C     17.194723   17.399218   17.558986
  C     17.167950   18.767084   17.570504
  C     16.141742   19.670721   16.919135
  N     18.111279   19.483156   18.317546
  C     19.211445   18.937615   18.922954
  S     20.325909   19.864378   19.716758
  N     19.338100   17.579417   18.856869
  C     18.422579   16.707162   18.166359
  C     17.786194   15.783646   19.318821
  C     18.014725   14.380971   19.321002
  C     17.471716   13.548043   20.317589
  C     16.678974   14.109018   21.332734
  C     16.435250   15.489213   21.345827
  O     15.670408   16.034423   22.325642
  C     16.977439   16.313800   20.351347
  H     16.533370   12.669942   17.019261
  H     15.024218   12.389910   16.123508
  H     15.024643   13.442635   17.557841
  H     16.496300   14.049383   14.902612
  H     14.960090   14.780387   15.434021
  H     16.171144   19.562380   15.828471
  H     16.291939   20.731534   17.151672
  H     15.128906   19.401265   17.247815
  H     18.027300   20.483818   18.398689
  H     20.148381   17.195455   19.317646
  H     18.838409   15.950025   17.529035
  H     18.621318   13.938509   18.533856
  H     17.665413   12.476314   20.300719
  H     16.257409   13.473290   22.104508
  H     15.410928   15.318857   22.925027
  H     16.780248   17.378066   20.385355

 Total Charge           Charge          ....    0
 Multiplicity           Mult            ....    1
 Number of Electrons    NEL             ....  154
 Basis Dimension        Dim             ....  828

ORBITAL ENERGIES
----------------

  NO   OCC          E(Eh)            E(eV)
   0   2.0000     -91.891176     -2500.4860
   1   2.0000     -20.603065      -560.6379
   2   2.0000     -20.592132      -560.3404
   3   2.0000     -20.542093      -558.9788
   4   2.0000     -15.631509      -425.3550
   5   2.0000     -15.613866      -424.8749
   6   2.0000     -11.396972      -310.1274
   7   2.0000     -11.386645      -309.8464
   8   2.0000     -11.339067      -308.5517
   9   2.0000     -11.312307      -307.8235
  10   2.0000     -11.308954      -307.7323
  11   2.0000     -11.295757      -307.3732
  12   2.0000     -11.262355      -306.4643
  13   2.0000     -11.257939      -306.3441
  14   2.0000     -11.252734      -306.2025
  15   2.0000     -11.250281      -306.1357
  16   2.0000     -11.237205      -305.7799
  17   2.0000     -11.233417      -305.6768
  18   2.0000     -11.233297      -305.6736
  19   2.0000     -11.227422      -305.5137
  20   2.0000      -8.896280      -242.0801
  21   2.0000      -6.577855      -178.9925
  22   2.0000      -6.575848      -178.9379
  23   2.0000      -6.575251      -178.9217
  24   2.0000      -1.451952       -39.5096
  25   2.0000      -1.411514       -38.4093
  26   2.0000      -1.356367       -36.9086
  27   2.0000      -1.345814       -36.6215
  28   2.0000      -1.246663       -33.9234
  29   2.0000      -1.148821       -31.2610
  30   2.0000      -1.119986       -30.4764
  31   2.0000      -1.041183       -28.3320
  32   2.0000      -1.033112       -28.1124
  33   2.0000      -1.007974       -27.4284
  34   2.0000      -0.994234       -27.0545
  35   2.0000      -0.987554       -26.8727
  36   2.0000      -0.920821       -25.0568
  37   2.0000      -0.889772       -24.2119
  38   2.0000      -0.850621       -23.1466
  39   2.0000      -0.831984       -22.6394
  40   2.0000      -0.827011       -22.5041
  41   2.0000      -0.818814       -22.2810
  42   2.0000      -0.765861       -20.8401
  43   2.0000      -0.730818       -19.8866
  44   2.0000      -0.719888       -19.5892
  45   2.0000      -0.698419       -19.0049
  46   2.0000      -0.686979       -18.6937
  47   2.0000      -0.683166       -18.5899
  48   2.0000      -0.673462       -18.3258
  49   2.0000      -0.665044       -18.0968
  50   2.0000      -0.650877       -17.7113
  51   2.0000      -0.644624       -17.5411
  52   2.0000      -0.635353       -17.2888
  53   2.0000      -0.602529       -16.3956
  54   2.0000      -0.599890       -16.3238
  55   2.0000      -0.594566       -16.1790
  56   2.0000      -0.593541       -16.1511
  57   2.0000      -0.575111       -15.6496
  58   2.0000      -0.569746       -15.5036
  59   2.0000      -0.563907       -15.3447
  60   2.0000      -0.559305       -15.2195
  61   2.0000      -0.546310       -14.8658
  62   2.0000      -0.541898       -14.7458
  63   2.0000      -0.529896       -14.4192
  64   2.0000      -0.518129       -14.0990
  65   2.0000      -0.511129       -13.9085
  66   2.0000      -0.496996       -13.5239
  67   2.0000      -0.494697       -13.4614
  68   2.0000      -0.478985       -13.0338
  69   2.0000      -0.461872       -12.5682
  70   2.0000      -0.458258       -12.4698
  71   2.0000      -0.450336       -12.2543
  72   2.0000      -0.350993        -9.5510
  73   2.0000      -0.343346        -9.3429
  74   2.0000      -0.330271        -8.9871
  75   2.0000      -0.316576        -8.6145
  76   2.0000      -0.313639        -8.5345
  77   0.0000       0.074584         2.0295
  78   0.0000       0.111564         3.0358
  79   0.0000       0.125756         3.4220
  80   0.0000       0.133067         3.6210
  81   0.0000       0.139314         3.7909

MULLIKEN ATOMIC CHARGES
-----------------------
   0 C :   -0.277207
   1 C :    0.020798
   2 O :   -0.345000
   3 C :    0.452011
   4 O :   -0.436636
   5 C :   -0.236134
   6 C :    0.172983
   7 C :   -0.271214
   8 N :   -0.125808
   9 C :    0.199454
  10 S :   -0.434678
  11 N :   -0.179273
  12 C :    0.083087
  13 C :    0.015042
  14 C :   -0.188264
  15 C :   -0.130528
  16 C :   -0.279513
  17 C :    0.313238
  18 O :   -0.357595
  19 C :   -0.261938
  20 H :    0.084221
  21 H :    0.100957
  22 H :    0.110677
  23 H :    0.099354
  24 H :    0.115514
  25 H :    0.130361
  26 H :    0.095069
  27 H :    0.134070
  28 H :    0.199672
  29 H :    0.196665
  30 H :    0.168133
  31 H :    0.143602
  32 H :    0.159318
  33 H :    0.128215
  34 H :    0.240212
  35 H :    0.161134
Sum of atomic charges:    0.0000000

LOEWDIN ATOMIC CHARGES
----------------------
   0 C :    0.105406
   1 C :   -0.007872
   2 O :    0.310350
   3 C :   -0.415052
   4 O :    0.097546
   5 C :   -0.096457
   6 C :   -0.052882
   7 C :    0.130215
   8 N :    0.406973
   9 C :   -0.456587
  10 S :   -0.029582
  11 N :    0.406050
  12 C :   -0.034608
  13 C :   -0.016099
  14 C :    0.002598
  15 C :    0.036400
  16 C :   -0.006901
  17 C :   -0.191108
  18 O :    0.393662
  19 C :    0.020802
  20 H :   -0.030481
  21 H :   -0.027562
  22 H :   -0.023804
  23 H :   -0.037374
  24 H :   -0.025247
  25 H :   -0.005541
  26 H :   -0.023620
  27 H :   -0.002759
  28 H :   -0.056974
  29 H :   -0.059937
  30 H :   -0.030262
  31 H :   -0.036585
  32 H :   -0.022486
  33 H :   -0.036842
  34 H :   -0.154771
  35 H :   -0.028612

  Mayer bond orders larger than 0.100000
B(  0-C ,  1-C ) :   0.9732 B(  0-C , 20-H ) :   0.9785 B(  0-C , 21-H ) :   0.9775
B(  0-C , 22-H ) :   0.9746 B(  1-C ,  2-O ) :   0.8934 B(  1-C , 23-H ) :   0.9818
B(  1-C , 24-H ) :   0.9760 B(  2-O ,  3-C ) :   1.1821 B(  3-C ,  4-O ) :   1.9622
B(  3-C ,  5-C ) :   1.0651 B(  5-C ,  6-C ) :   1.6419 B(  5-C , 12-C ) :   0.9535
B(  6-C ,  7-C ) :   0.9683 B(  6-C ,  8-N ) :   1.1511 B(  7-C , 25-H ) :   0.9607
B(  7-C , 26-H ) :   0.9902 B(  7-C , 27-H ) :   0.9587 B(  8-N ,  9-C ) :   1.1877
B(  8-N , 28-H ) :   0.9463 B(  9-C , 10-S ) :   1.6175 B(  9-C , 11-N ) :   1.3004
B( 11-N , 12-C ) :   1.0191 B( 11-N , 29-H ) :   0.9495 B( 12-C , 13-C ) :   0.9239
B( 12-C , 30-H ) :   0.9888 B( 13-C , 14-C ) :   1.3653 B( 13-C , 19-C ) :   1.3892
B( 14-C , 15-C ) :   1.3905 B( 14-C , 31-H ) :   0.9715 B( 15-C , 16-C ) :   1.3614
B( 15-C , 32-H ) :   0.9696 B( 16-C , 17-C ) :   1.3305 B( 16-C , 33-H ) :   0.9856
B( 17-C , 18-O ) :   1.1038 B( 17-C , 19-C ) :   1.3721 B( 18-O , 34-H ) :   0.9804
B( 19-C , 35-H ) :   0.9573

MP2 TOTAL ENERGY:    -1274.333883332 Eh
FINAL SINGLE POINT ENERGY     -1274.333883331655

DIPOLE MOMENT
-------------
                                X             Y             Z
Electronic contribution:      9.41717      12.03655       6.51876
Nuclear contribution   :    -10.26537     -13.59759      -7.13160
                        -----------------------------------------
Total Dipole Moment    :     -0.84820      -1.56104      -0.61284
                        -----------------------------------------
Magnitude (a.u.)       :      1.87932
Magnitude (Debye)      :      4.77686

Rotational constants in cm-1:     0.011846     0.008539     0.006140
Rotational constants in MHz :   355.148625   255.989053   184.082336

                             ****ORCA TERMINATED NORMALLY****
TOTAL RUN TIME: 0 days 1 hours 32 minutes 53 seconds 331 msec
