                         Program Version 4.2.0 -  RELEASE  -
|  1> ! ri-mp2 cc-pvtz cc-pvtz/c TightSCF  NoKeepInts
|  2>
|  3> %scf
|  4>   MaxCore 4096
|  5> end
|  6> *xyz  0  1
|  7>     C       14.7160966   14.6125768   15.6546706
|  8>     C       14.9483189   14.9828834   17.1295562
|  9>     O       16.1386420   15.7535129   17.2678293
| 10>     C       17.4101383   15.8074891   16.7058387
| 11>     O       17.9982560   15.1082972   15.9070353
| 12>     C       17.8178561   16.9395032   17.5540934
| 13>     C       17.1959913   18.1579608   17.5569817
| 14>     C       16.2885308   18.6813000   16.4378306
| 15>     N       17.6330357   19.1468173   18.4322929
| 16>     C       18.7276605   19.0351985   19.2702461
| 17>     S       18.9527957   20.1081910   20.5100446
| 18>     N       19.5102550   17.8898118   19.1273576
| 19>     C       19.0658467   16.7071426   18.3595552
| 20>     C       18.3889918   15.8843360   19.4955214
| 21>     C       18.6589598   14.4838188   19.4704088
| 22>     C       17.9278278   13.5569214   20.2196756
| 23>     C       16.8986296   14.0089143   21.0336935
| 24>     C       16.6093997   15.3751442   21.1032021
| 25>     O       15.5667901   15.7656570   21.8657258
| 26>     C       17.3357366   16.3141208   20.3395209
| 27>     H       13.6691231   14.6696348   15.3097358
| 28>     H       15.0334708   13.5609657   15.5568566
| 29>     H       15.3949918   15.1902893   15.0083311
| 30>     H       14.1500151   15.6810938   17.4832526
| 31>     H       14.8971525   14.1386307   17.8296262
| 32>     H       15.2946757   18.9730899   16.7904712
| 33>     H       16.1555172   17.9485357   15.6337433
| 34>     H       16.7317129   19.5641612   15.9470959
| 35>     H       17.0528325   19.9647050   18.5865581
| 36>     H       20.1555063   17.7473899   19.8972802
| 37>     H       19.7040586   15.8462053   18.1589159
| 38>     H       19.4121099   14.0559115   18.8069039
| 39>     H       18.1472406   12.4947067   20.1249796
| 40>     H       16.3036297   13.2896237   21.5912063
| 41>     H       15.2235552   14.9584465   22.2857714
| 42>     H       17.0316481   17.3490110   20.3821933
| 43> *
| 44>
| 45>                          ****END OF INPUT****

CARTESIAN COORDINATES (ANGSTROEM)
---------------------------------
  C     14.716097   14.612577   15.654671
  C     14.948319   14.982883   17.129556
  O     16.138642   15.753513   17.267829
  C     17.410138   15.807489   16.705839
  O     17.998256   15.108297   15.907035
  C     17.817856   16.939503   17.554093
  C     17.195991   18.157961   17.556982
  C     16.288531   18.681300   16.437831
  N     17.633036   19.146817   18.432293
  C     18.727660   19.035198   19.270246
  S     18.952796   20.108191   20.510045
  N     19.510255   17.889812   19.127358
  C     19.065847   16.707143   18.359555
  C     18.388992   15.884336   19.495521
  C     18.658960   14.483819   19.470409
  C     17.927828   13.556921   20.219676
  C     16.898630   14.008914   21.033693
  C     16.609400   15.375144   21.103202
  O     15.566790   15.765657   21.865726
  C     17.335737   16.314121   20.339521
  H     13.669123   14.669635   15.309736
  H     15.033471   13.560966   15.556857
  H     15.394992   15.190289   15.008331
  H     14.150015   15.681094   17.483253
  H     14.897153   14.138631   17.829626
  H     15.294676   18.973090   16.790471
  H     16.155517   17.948536   15.633743
  H     16.731713   19.564161   15.947096
  H     17.052832   19.964705   18.586558
  H     20.155506   17.747390   19.897280
  H     19.704059   15.846205   18.158916
  H     19.412110   14.055912   18.806904
  H     18.147241   12.494707   20.124980
  H     16.303630   13.289624   21.591206
  H     15.223555   14.958446   22.285771
  H     17.031648   17.349011   20.382193

 Total Charge           Charge          ....    0
 Multiplicity           Mult            ....    1
 Number of Electrons    NEL             ....  154
 Basis Dimension        Dim             ....  828

ORBITAL ENERGIES
----------------

  NO   OCC          E(Eh)            E(eV)
   0   2.0000     -91.891011     -2500.4815
   1   2.0000     -20.595485      -560.4316
   2   2.0000     -20.592952      -560.3627
   3   2.0000     -20.569380      -559.7213
   4   2.0000     -15.620049      -425.0431
   5   2.0000     -15.610088      -424.7721
   6   2.0000     -11.408657      -310.4453
   7   2.0000     -11.387405      -309.8670
   8   2.0000     -11.317214      -307.9571
   9   2.0000     -11.312484      -307.8284
  10   2.0000     -11.312469      -307.8279
  11   2.0000     -11.304069      -307.5994
  12   2.0000     -11.263121      -306.4851
  13   2.0000     -11.259760      -306.3936
  14   2.0000     -11.258951      -306.3716
  15   2.0000     -11.249403      -306.1118
  16   2.0000     -11.236858      -305.7705
  17   2.0000     -11.236276      -305.7546
  18   2.0000     -11.233003      -305.6656
  19   2.0000     -11.232718      -305.6578
  20   2.0000      -8.895845      -242.0682
  21   2.0000      -6.577382      -178.9797
  22   2.0000      -6.575419      -178.9262
  23   2.0000      -6.574813      -178.9098
  24   2.0000      -1.447185       -39.3799
  25   2.0000      -1.418402       -38.5967
  26   2.0000      -1.375977       -37.4422
  27   2.0000      -1.330543       -36.2059
  28   2.0000      -1.234324       -33.5877
  29   2.0000      -1.158068       -31.5126
  30   2.0000      -1.123322       -30.5672
  31   2.0000      -1.048924       -28.5427
  32   2.0000      -1.039238       -28.2791
  33   2.0000      -1.012402       -27.5488
  34   2.0000      -0.991328       -26.9754
  35   2.0000      -0.983410       -26.7599
  36   2.0000      -0.925819       -25.1928
  37   2.0000      -0.905518       -24.6404
  38   2.0000      -0.844463       -22.9790
  39   2.0000      -0.834965       -22.7206
  40   2.0000      -0.829535       -22.5728
  41   2.0000      -0.815380       -22.1876
  42   2.0000      -0.743817       -20.2403
  43   2.0000      -0.724976       -19.7276
  44   2.0000      -0.720802       -19.6140
  45   2.0000      -0.698315       -19.0021
  46   2.0000      -0.695627       -18.9290
  47   2.0000      -0.691164       -18.8075
  48   2.0000      -0.669463       -18.2170
  49   2.0000      -0.664724       -18.0881
  50   2.0000      -0.650252       -17.6943
  51   2.0000      -0.641671       -17.4608
  52   2.0000      -0.634122       -17.2554
  53   2.0000      -0.614784       -16.7291
  54   2.0000      -0.601972       -16.3805
  55   2.0000      -0.599158       -16.3039
  56   2.0000      -0.591331       -16.0909
  57   2.0000      -0.586188       -15.9510
  58   2.0000      -0.569360       -15.4931
  59   2.0000      -0.567973       -15.4553
  60   2.0000      -0.550649       -14.9839
  61   2.0000      -0.547138       -14.8884
  62   2.0000      -0.543923       -14.8009
  63   2.0000      -0.536460       -14.5978
  64   2.0000      -0.515217       -14.0198
  65   2.0000      -0.510235       -13.8842
  66   2.0000      -0.501827       -13.6554
  67   2.0000      -0.497571       -13.5396
  68   2.0000      -0.476158       -12.9569
  69   2.0000      -0.465420       -12.6647
  70   2.0000      -0.455742       -12.4014
  71   2.0000      -0.449537       -12.2325
  72   2.0000      -0.346644        -9.4327
  73   2.0000      -0.334401        -9.0995
  74   2.0000      -0.328652        -8.9431
  75   2.0000      -0.317980        -8.6527
  76   2.0000      -0.302040        -8.2189
  77   0.0000       0.073684         2.0050
  78   0.0000       0.116755         3.1771
  79   0.0000       0.117057         3.1853
  80   0.0000       0.130173         3.5422
  81   0.0000       0.136621         3.7176

MULLIKEN ATOMIC CHARGES
-----------------------
   0 C :   -0.299249
   1 C :    0.047989
   2 O :   -0.345189
   3 C :    0.415949
   4 O :   -0.394144
   5 C :   -0.057362
   6 C :    0.109409
   7 C :   -0.306356
   8 N :   -0.153046
   9 C :    0.199602
  10 S :   -0.415568
  11 N :   -0.202840
  12 C :    0.033601
  13 C :    0.060200
  14 C :   -0.242118
  15 C :   -0.123657
  16 C :   -0.282858
  17 C :    0.307018
  18 O :   -0.356329
  19 C :   -0.240602
  20 H :    0.104187
  21 H :    0.099841
  22 H :    0.106818
  23 H :    0.082837
  24 H :    0.104516
  25 H :    0.114294
  26 H :    0.115885
  27 H :    0.128627
  28 H :    0.195591
  29 H :    0.174139
  30 H :    0.193032
  31 H :    0.135541
  32 H :    0.159208
  33 H :    0.123889
  34 H :    0.243258
  35 H :    0.163887
Sum of atomic charges:   -0.0000000

LOEWDIN ATOMIC CHARGES
----------------------
   0 C :    0.100076
   1 C :   -0.045393
   2 O :    0.331569
   3 C :   -0.384596
   4 O :    0.119074
   5 C :   -0.107057
   6 C :   -0.090589
   7 C :    0.121598
   8 N :    0.389201
   9 C :   -0.438312
  10 S :   -0.027827
  11 N :    0.377396
  12 C :   -0.013593
  13 C :   -0.033752
  14 C :   -0.002077
  15 C :    0.032965
  16 C :   -0.013419
  17 C :   -0.191304
  18 O :    0.396158
  19 C :    0.038393
  20 H :   -0.026015
  21 H :   -0.022377
  22 H :   -0.023315
  23 H :   -0.019267
  24 H :   -0.028627
  25 H :   -0.024597
  26 H :   -0.013655
  27 H :   -0.008126
  28 H :   -0.053427
  29 H :   -0.065928
  30 H :   -0.012320
  31 H :   -0.029675
  32 H :   -0.017934
  33 H :   -0.034433
  34 H :   -0.148011
  35 H :   -0.030802

  Mayer bond orders larger than 0.100000
B(  0-C ,  1-C ) :   0.9435 B(  0-C , 20-H ) :   0.9789 B(  0-C , 21-H ) :   0.9796
B(  0-C , 22-H ) :   0.9798 B(  1-C ,  2-O ) :   0.9058 B(  1-C , 23-H ) :   0.9874
B(  1-C , 24-H ) :   0.9777 B(  2-O ,  3-C ) :   1.1246 B(  2-O ,  5-C ) :  -0.1080
B(  3-C ,  4-O ) :   2.0659 B(  3-C ,  5-C ) :   0.9859 B(  5-C ,  6-C ) :   1.6973
B(  5-C , 12-C ) :   0.9867 B(  6-C ,  7-C ) :   0.9464 B(  6-C ,  8-N ) :   1.0876
B(  7-C , 25-H ) :   0.9692 B(  7-C , 26-H ) :   0.9823 B(  7-C , 27-H ) :   0.9691
B(  8-N ,  9-C ) :   1.1923 B(  8-N , 28-H ) :   0.9506 B(  9-C , 10-S ) :   1.6167
B(  9-C , 11-N ) :   1.2679 B( 11-N , 12-C ) :   1.0060 B( 11-N , 29-H ) :   0.9611
B( 12-C , 13-C ) :   0.8704 B( 12-C , 30-H ) :   0.9862 B( 13-C , 14-C ) :   1.3750
B( 13-C , 19-C ) :   1.3676 B( 14-C , 15-C ) :   1.3771 B( 14-C , 31-H ) :   0.9770
B( 15-C , 16-C ) :   1.3677 B( 15-C , 32-H ) :   0.9715 B( 16-C , 17-C ) :   1.3119
B( 16-C , 33-H ) :   0.9892 B( 17-C , 18-O ) :   1.1125 B( 17-C , 19-C ) :   1.3897
B( 18-O , 34-H ) :   0.9771 B( 19-C , 35-H ) :   0.9514

MP2 TOTAL ENERGY:    -1274.245771607 Eh
FINAL SINGLE POINT ENERGY     -1274.245771607058

DIPOLE MOMENT
-------------
                                X             Y             Z
Electronic contribution:     12.03492       8.78433       9.42527
Nuclear contribution   :    -13.71540     -10.22635     -10.07984
                        -----------------------------------------
Total Dipole Moment    :     -1.68048      -1.44201      -0.65458
                        -----------------------------------------
Magnitude (a.u.)       :      2.30909
Magnitude (Debye)      :      5.86924

Rotational constants in cm-1:     0.012635     0.009467     0.007084
Rotational constants in MHz :   378.776112   283.817152   212.361497

                             ****ORCA TERMINATED NORMALLY****
TOTAL RUN TIME: 0 days 1 hours 42 minutes 28 seconds 814 msec
