                         Program Version 4.2.0 -  RELEASE  -
|  1> ! ri-mp2 cc-pvtz cc-pvtz/c TightSCF NoKeepInts
|  2>
|  3> %scf
|  4>   MaxCore 4096
|  5> end
|  6> *xyz  0  1
|  7>     C       16.4762090   14.1615349   14.6003522
|  8>     C       15.6790435   14.1089819   15.9190597
|  9>     O       16.2808347   15.0070188   16.8702641
| 10>     C       16.0850680   16.3591055   16.7701969
| 11>     O       15.3521136   16.8440758   15.9243069
| 12>     C       16.8422779   17.1223476   17.8279451
| 13>     C       16.9071132   18.4768116   17.7023194
| 14>     C       15.9705706   19.3955766   16.9435659
| 15>     N       17.9274902   19.1916484   18.3357500
| 16>     C       19.0762010   18.6354615   18.8263330
| 17>     S       20.3227208   19.5574061   19.4022195
| 18>     N       19.1485339   17.2679070   18.7898828
| 19>     C       18.0264977   16.3675608   18.4624056
| 20>     C       17.5871868   15.6559785   19.7372197
| 21>     C       17.6342818   14.2516888   19.8139854
| 22>     C       17.2292405   13.5850215   20.9826797
| 23>     C       16.7720928   14.3284935   22.0841435
| 24>     C       16.7216117   15.7273008   22.0107521
| 25>     O       16.2775526   16.4475046   23.0715443
| 26>     C       17.1256998   16.3879359   20.8464550
| 27>     H       16.4048323   15.1522138   14.1341932
| 28>     H       16.0838319   13.4259430   13.8878048
| 29>     H       17.5350500   13.9361744   14.7770938
| 30>     H       14.6261529   14.3702088   15.7444662
| 31>     H       15.7140196   13.0864370   16.3161815
| 32>     H       14.9252379   19.0992148   17.0985074
| 33>     H       16.1704848   19.3480357   15.8654653
| 34>     H       16.0567087   20.4432583   17.2548016
| 35>     H       17.9012277   20.1987919   18.3377044
| 36>     H       19.9974580   16.8821280   19.1830110
| 37>     H       18.4301106   15.6458907   17.7385822
| 38>     H       17.9803993   13.6745156   18.9607235
| 39>     H       17.2682845   12.4982788   21.0314717
| 40>     H       16.4573043   13.8182257   22.9884212
| 41>     H       16.0711998   15.8221068   23.7821444
| 42>     H       17.0823603   17.4712116   20.8120439
| 43> *
| 44>
| 45>                          ****END OF INPUT****

CARTESIAN COORDINATES (ANGSTROEM)
---------------------------------
  C     16.476209   14.161535   14.600352
  C     15.679043   14.108982   15.919060
  O     16.280835   15.007019   16.870264
  C     16.085068   16.359105   16.770197
  O     15.352114   16.844076   15.924307
  C     16.842278   17.122348   17.827945
  C     16.907113   18.476812   17.702319
  C     15.970571   19.395577   16.943566
  N     17.927490   19.191648   18.335750
  C     19.076201   18.635462   18.826333
  S     20.322721   19.557406   19.402220
  N     19.148534   17.267907   18.789883
  C     18.026498   16.367561   18.462406
  C     17.587187   15.655978   19.737220
  C     17.634282   14.251689   19.813985
  C     17.229240   13.585021   20.982680
  C     16.772093   14.328494   22.084143
  C     16.721612   15.727301   22.010752
  O     16.277553   16.447505   23.071544
  C     17.125700   16.387936   20.846455
  H     16.404832   15.152214   14.134193
  H     16.083832   13.425943   13.887805
  H     17.535050   13.936174   14.777094
  H     14.626153   14.370209   15.744466
  H     15.714020   13.086437   16.316181
  H     14.925238   19.099215   17.098507
  H     16.170485   19.348036   15.865465
  H     16.056709   20.443258   17.254802
  H     17.901228   20.198792   18.337704
  H     19.997458   16.882128   19.183011
  H     18.430111   15.645891   17.738582
  H     17.980399   13.674516   18.960724
  H     17.268285   12.498279   21.031472
  H     16.457304   13.818226   22.988421
  H     16.071200   15.822107   23.782144
  H     17.082360   17.471212   20.812044

 Total Charge           Charge          ....    0
 Multiplicity           Mult            ....    1
 Number of Electrons    NEL             ....  154
 Basis Dimension        Dim             ....  828

ORBITAL ENERGIES
----------------

  NO   OCC          E(Eh)            E(eV)
   0   2.0000     -91.889632     -2500.4440
   1   2.0000     -20.602207      -560.6145
   2   2.0000     -20.593476      -560.3770
   3   2.0000     -20.541892      -558.9733
   4   2.0000     -15.630299      -425.3221
   5   2.0000     -15.606987      -424.6877
   6   2.0000     -11.396271      -310.1083
   7   2.0000     -11.383624      -309.7642
   8   2.0000     -11.340395      -308.5878
   9   2.0000     -11.310432      -307.7725
  10   2.0000     -11.308613      -307.7230
  11   2.0000     -11.299201      -307.4669
  12   2.0000     -11.259121      -306.3763
  13   2.0000     -11.256593      -306.3075
  14   2.0000     -11.253279      -306.2173
  15   2.0000     -11.251630      -306.1724
  16   2.0000     -11.239538      -305.8434
  17   2.0000     -11.235228      -305.7261
  18   2.0000     -11.234514      -305.7067
  19   2.0000     -11.227069      -305.5041
  20   2.0000      -8.894672      -242.0363
  21   2.0000      -6.576242      -178.9486
  22   2.0000      -6.574243      -178.8942
  23   2.0000      -6.573649      -178.8781
  24   2.0000      -1.451813       -39.5058
  25   2.0000      -1.413101       -38.4524
  26   2.0000      -1.355065       -36.8732
  27   2.0000      -1.342412       -36.5289
  28   2.0000      -1.239489       -33.7282
  29   2.0000      -1.154689       -31.4207
  30   2.0000      -1.121114       -30.5071
  31   2.0000      -1.041125       -28.3305
  32   2.0000      -1.037864       -28.2417
  33   2.0000      -1.011693       -27.5296
  34   2.0000      -0.996437       -27.1144
  35   2.0000      -0.984288       -26.7838
  36   2.0000      -0.922101       -25.0916
  37   2.0000      -0.895308       -24.3626
  38   2.0000      -0.847802       -23.0699
  39   2.0000      -0.835758       -22.7421
  40   2.0000      -0.831007       -22.6129
  41   2.0000      -0.815441       -22.1893
  42   2.0000      -0.757454       -20.6114
  43   2.0000      -0.729022       -19.8377
  44   2.0000      -0.721916       -19.6443
  45   2.0000      -0.695390       -18.9225
  46   2.0000      -0.688779       -18.7426
  47   2.0000      -0.680590       -18.5198
  48   2.0000      -0.669462       -18.2170
  49   2.0000      -0.656616       -17.8674
  50   2.0000      -0.645790       -17.5728
  51   2.0000      -0.643740       -17.5170
  52   2.0000      -0.629994       -17.1430
  53   2.0000      -0.610862       -16.6224
  54   2.0000      -0.603091       -16.4109
  55   2.0000      -0.600175       -16.3316
  56   2.0000      -0.596239       -16.2245
  57   2.0000      -0.578269       -15.7355
  58   2.0000      -0.571841       -15.5606
  59   2.0000      -0.569372       -15.4934
  60   2.0000      -0.561102       -15.2684
  61   2.0000      -0.543341       -14.7851
  62   2.0000      -0.537832       -14.6352
  63   2.0000      -0.530744       -14.4423
  64   2.0000      -0.521204       -14.1827
  65   2.0000      -0.513061       -13.9611
  66   2.0000      -0.500060       -13.6073
  67   2.0000      -0.496736       -13.5169
  68   2.0000      -0.482991       -13.1428
  69   2.0000      -0.462060       -12.5733
  70   2.0000      -0.456879       -12.4323
  71   2.0000      -0.446454       -12.1486
  72   2.0000      -0.357452        -9.7268
  73   2.0000      -0.345944        -9.4136
  74   2.0000      -0.328560        -8.9406
  75   2.0000      -0.319147        -8.6844
  76   2.0000      -0.316105        -8.6016
  77   0.0000       0.074771         2.0346
  78   0.0000       0.110396         3.0040
  79   0.0000       0.123309         3.3554
  80   0.0000       0.133388         3.6297
  81   0.0000       0.136768         3.7216

MULLIKEN ATOMIC CHARGES
-----------------------
   0 C :   -0.296453
   1 C :    0.032598
   2 O :   -0.346366
   3 C :    0.430914
   4 O :   -0.436417
   5 C :   -0.174223
   6 C :    0.152171
   7 C :   -0.266195
   8 N :   -0.124358
   9 C :    0.195366
  10 S :   -0.436941
  11 N :   -0.201887
  12 C :    0.023297
  13 C :    0.080633
  14 C :   -0.181542
  15 C :   -0.131329
  16 C :   -0.279626
  17 C :    0.311632
  18 O :   -0.356950
  19 C :   -0.257293
  20 H :    0.116239
  21 H :    0.097704
  22 H :    0.090972
  23 H :    0.105558
  24 H :    0.108690
  25 H :    0.132091
  26 H :    0.131510
  27 H :    0.094956
  28 H :    0.200820
  29 H :    0.193345
  30 H :    0.161131
  31 H :    0.143009
  32 H :    0.157623
  33 H :    0.128132
  34 H :    0.240157
  35 H :    0.161034
Sum of atomic charges:    0.0000000

LOEWDIN ATOMIC CHARGES
----------------------
   0 C :    0.103855
   1 C :   -0.016881
   2 O :    0.304177
   3 C :   -0.413311
   4 O :    0.093951
   5 C :   -0.093617
   6 C :   -0.048832
   7 C :    0.130781
   8 N :    0.408355
   9 C :   -0.462078
  10 S :   -0.033359
  11 N :    0.396386
  12 C :   -0.051459
  13 C :   -0.039009
  14 C :    0.012554
  15 C :    0.040389
  16 C :   -0.001883
  17 C :   -0.189553
  18 O :    0.394987
  19 C :    0.032329
  20 H :   -0.025347
  21 H :   -0.026299
  22 H :   -0.031253
  23 H :   -0.027383
  24 H :   -0.025546
  25 H :   -0.003982
  26 H :   -0.004768
  27 H :   -0.022839
  28 H :   -0.057022
  29 H :   -0.064205
  30 H :   -0.011975
  31 H :   -0.030806
  32 H :   -0.021856
  33 H :   -0.036056
  34 H :   -0.154383
  35 H :   -0.024066

  Mayer bond orders larger than 0.100000
B(  0-C ,  1-C ) :   0.9618 B(  0-C , 20-H ) :   0.9744 B(  0-C , 21-H ) :   0.9767
B(  0-C , 22-H ) :   0.9777 B(  1-C ,  2-O ) :   0.9027 B(  1-C , 23-H ) :   0.9774
B(  1-C , 24-H ) :   0.9842 B(  2-O ,  3-C ) :   1.1582 B(  3-C ,  4-O ) :   1.9600
B(  3-C ,  5-C ) :   1.0833 B(  5-C ,  6-C ) :   1.6317 B(  5-C , 12-C ) :   0.9663
B(  6-C ,  7-C ) :   0.9706 B(  6-C ,  8-N ) :   1.1340 B(  7-C , 25-H ) :   0.9641
B(  7-C , 26-H ) :   0.9549 B(  7-C , 27-H ) :   0.9887 B(  8-N ,  9-C ) :   1.1839
B(  8-N , 28-H ) :   0.9473 B(  9-C , 10-S ) :   1.6172 B(  9-C , 11-N ) :   1.3032
B( 11-N , 12-C ) :   0.9769 B( 11-N , 29-H ) :   0.9527 B( 12-C , 13-C ) :   0.9559
B( 12-C , 30-H ) :   0.9986 B( 13-C , 14-C ) :   1.3599 B( 13-C , 19-C ) :   1.3749
B( 14-C , 15-C ) :   1.3909 B( 14-C , 31-H ) :   0.9723 B( 15-C , 16-C ) :   1.3689
B( 15-C , 32-H ) :   0.9716 B( 16-C , 17-C ) :   1.3286 B( 16-C , 33-H ) :   0.9858
B( 17-C , 18-O ) :   1.1079 B( 17-C , 19-C ) :   1.3736 B( 18-O , 34-H ) :   0.9803
B( 19-C , 35-H ) :   0.9592

MP2 TOTAL ENERGY:    -1274.342357947 Eh
FINAL SINGLE POINT ENERGY     -1274.342357947384

DIPOLE MOMENT
-------------
                                X             Y             Z
Electronic contribution:      7.19248       9.17040      10.97532
Nuclear contribution   :     -8.28088     -10.74638     -11.24686
                        -----------------------------------------
Total Dipole Moment    :     -1.08840      -1.57597      -0.27154
                        -----------------------------------------
Magnitude (a.u.)       :      1.93444
Magnitude (Debye)      :      4.91695

Rotational constants in cm-1:     0.010187     0.009048     0.005861
Rotational constants in MHz :   305.406805   271.253708   175.703796

                             ****ORCA TERMINATED NORMALLY****
TOTAL RUN TIME: 0 days 2 hours 20 minutes 36 seconds 838 msec
