                         Program Version 4.2.0 -  RELEASE  -
|  1> ! ri-mp2 cc-pvtz cc-pvtz/c TightSCF  NoKeepInts
|  2>
|  3> %scf
|  4>   MaxCore 4096
|  5> end
|  6> *xyz  0  1
|  7>     C       14.8539964   13.9874592   15.9732525
|  8>     C       15.4953121   15.1637413   15.2107657
|  9>     O       16.2085224   15.9458011   16.1553931
| 10>     C       17.4337836   15.7255613   16.6914963
| 11>     O       18.1693527   14.7858347   16.4385751
| 12>     C       17.7276086   16.8432905   17.6335055
| 13>     C       17.1888408   18.0978524   17.5442018
| 14>     C       16.3849048   18.7424504   16.4097209
| 15>     N       17.7166593   19.1257115   18.3276472
| 16>     C       18.7435749   19.0068867   19.2255635
| 17>     S       19.2953617   20.3294935   20.0535053
| 18>     N       19.2816604   17.7491485   19.3887762
| 19>     C       18.8734336   16.5577045   18.6020761
| 20>     C       18.1127827   15.9176007   19.8111192
| 21>     C       18.5035493   14.5817739   20.1143655
| 22>     C       17.8082461   13.7671428   21.0130961
| 23>     C       16.6809350   14.2741835   21.6598299
| 24>     C       16.2619450   15.5833679   21.3891497
| 25>     O       15.1418518   16.0308676   22.0080508
| 26>     C       16.9522237   16.3994922   20.4691297
| 27>     H       15.5559185   13.4353335   16.6071737
| 28>     H       14.3535774   13.3013838   15.2812903
| 29>     H       14.0693075   14.3991503   16.6282586
| 30>     H       16.1907565   14.7788926   14.4547544
| 31>     H       14.7335498   15.7867188   14.7292045
| 32>     H       15.9865977   18.0841378   15.6391815
| 33>     H       17.0266200   19.4308241   15.8438367
| 34>     H       15.5311935   19.3091102   16.7930179
| 35>     H       17.4008968   20.0689354   18.1611565
| 36>     H       19.9558406   17.6711030   20.1389352
| 37>     H       19.4953265   15.6747127   18.4468414
| 38>     H       19.3408833   14.1129658   19.6021154
| 39>     H       18.1335638   12.7401092   21.1785571
| 40>     H       16.1321081   13.6403131   22.3498848
| 41>     H       14.8512432   15.3186409   22.6018583
| 42>     H       16.5550808   17.3843083   20.2587124
| 43> *
| 44>
| 45>                          ****END OF INPUT****

CARTESIAN COORDINATES (ANGSTROEM)
---------------------------------
  C     14.853996   13.987459   15.973252
  C     15.495312   15.163741   15.210766
  O     16.208522   15.945801   16.155393
  C     17.433784   15.725561   16.691496
  O     18.169353   14.785835   16.438575
  C     17.727609   16.843290   17.633505
  C     17.188841   18.097852   17.544202
  C     16.384905   18.742450   16.409721
  N     17.716659   19.125712   18.327647
  C     18.743575   19.006887   19.225563
  S     19.295362   20.329494   20.053505
  N     19.281660   17.749149   19.388776
  C     18.873434   16.557704   18.602076
  C     18.112783   15.917601   19.811119
  C     18.503549   14.581774   20.114366
  C     17.808246   13.767143   21.013096
  C     16.680935   14.274183   21.659830
  C     16.261945   15.583368   21.389150
  O     15.141852   16.030868   22.008051
  C     16.952224   16.399492   20.469130
  H     15.555918   13.435333   16.607174
  H     14.353577   13.301384   15.281290
  H     14.069308   14.399150   16.628259
  H     16.190756   14.778893   14.454754
  H     14.733550   15.786719   14.729204
  H     15.986598   18.084138   15.639181
  H     17.026620   19.430824   15.843837
  H     15.531193   19.309110   16.793018
  H     17.400897   20.068935   18.161156
  H     19.955841   17.671103   20.138935
  H     19.495326   15.674713   18.446841
  H     19.340883   14.112966   19.602115
  H     18.133564   12.740109   21.178557
  H     16.132108   13.640313   22.349885
  H     14.851243   15.318641   22.601858
  H     16.555081   17.384308   20.258712

 Total Charge           Charge          ....    0
 Multiplicity           Mult            ....    1
 Number of Electrons    NEL             ....  154
 Basis Dimension        Dim             ....  828

ORBITAL ENERGIES
----------------

  NO   OCC          E(Eh)            E(eV)
   0   2.0000     -91.888748     -2500.4200
   1   2.0000     -20.599570      -560.5428
   2   2.0000     -20.591662      -560.3276
   3   2.0000     -20.550978      -559.2205
   4   2.0000     -15.625788      -425.1993
   5   2.0000     -15.611199      -424.8023
   6   2.0000     -11.400828      -310.2323
   7   2.0000     -11.384517      -309.7885
   8   2.0000     -11.337977      -308.5220
   9   2.0000     -11.313433      -307.8542
  10   2.0000     -11.310379      -307.7710
  11   2.0000     -11.305375      -307.6349
  12   2.0000     -11.268541      -306.6326
  13   2.0000     -11.259098      -306.3756
  14   2.0000     -11.258040      -306.3468
  15   2.0000     -11.246038      -306.0202
  16   2.0000     -11.235617      -305.7367
  17   2.0000     -11.233778      -305.6866
  18   2.0000     -11.229394      -305.5673
  19   2.0000     -11.228028      -305.5302
  20   2.0000      -8.893720      -242.0104
  21   2.0000      -6.575284      -178.9226
  22   2.0000      -6.573287      -178.8682
  23   2.0000      -6.572698      -178.8522
  24   2.0000      -1.457921       -39.6720
  25   2.0000      -1.412075       -38.4245
  26   2.0000      -1.365186       -37.1486
  27   2.0000      -1.340073       -36.4652
  28   2.0000      -1.240884       -33.7662
  29   2.0000      -1.151853       -31.3435
  30   2.0000      -1.120046       -30.4780
  31   2.0000      -1.048785       -28.5389
  32   2.0000      -1.035899       -28.1882
  33   2.0000      -1.008864       -27.4526
  34   2.0000      -0.998743       -27.1772
  35   2.0000      -0.980237       -26.6736
  36   2.0000      -0.926132       -25.2013
  37   2.0000      -0.903111       -24.5749
  38   2.0000      -0.850250       -23.1365
  39   2.0000      -0.833046       -22.6683
  40   2.0000      -0.826357       -22.4863
  41   2.0000      -0.816843       -22.2274
  42   2.0000      -0.756819       -20.5941
  43   2.0000      -0.737027       -20.0555
  44   2.0000      -0.720097       -19.5948
  45   2.0000      -0.696015       -18.9395
  46   2.0000      -0.690895       -18.8002
  47   2.0000      -0.685075       -18.6418
  48   2.0000      -0.678648       -18.4669
  49   2.0000      -0.660343       -17.9688
  50   2.0000      -0.652938       -17.7674
  51   2.0000      -0.641780       -17.4637
  52   2.0000      -0.633976       -17.2514
  53   2.0000      -0.621823       -16.9207
  54   2.0000      -0.600740       -16.3470
  55   2.0000      -0.596326       -16.2268
  56   2.0000      -0.594105       -16.1664
  57   2.0000      -0.580516       -15.7966
  58   2.0000      -0.572519       -15.5790
  59   2.0000      -0.562100       -15.2955
  60   2.0000      -0.551599       -15.0098
  61   2.0000      -0.548281       -14.9195
  62   2.0000      -0.542417       -14.7599
  63   2.0000      -0.530082       -14.4243
  64   2.0000      -0.513202       -13.9649
  65   2.0000      -0.509709       -13.8699
  66   2.0000      -0.499149       -13.5825
  67   2.0000      -0.496589       -13.5129
  68   2.0000      -0.486274       -13.2322
  69   2.0000      -0.463674       -12.6172
  70   2.0000      -0.455695       -12.4001
  71   2.0000      -0.450490       -12.2585
  72   2.0000      -0.344739        -9.3808
  73   2.0000      -0.343312        -9.3420
  74   2.0000      -0.325893        -8.8680
  75   2.0000      -0.315459        -8.5841
  76   2.0000      -0.308054        -8.3826
  77   0.0000       0.068645         1.8679
  78   0.0000       0.115344         3.1387
  79   0.0000       0.120587         3.2813
  80   0.0000       0.135749         3.6939
  81   0.0000       0.140949         3.8354

MULLIKEN ATOMIC CHARGES
-----------------------
   0 C :   -0.275972
   1 C :    0.033214
   2 O :   -0.343836
   3 C :    0.458639
   4 O :   -0.425559
   5 C :   -0.162728
   6 C :    0.123116
   7 C :   -0.314433
   8 N :   -0.116490
   9 C :    0.195707
  10 S :   -0.437138
  11 N :   -0.194848
  12 C :    0.073028
  13 C :    0.030063
  14 C :   -0.205288
  15 C :   -0.118444
  16 C :   -0.283566
  17 C :    0.313072
  18 O :   -0.360848
  19 C :   -0.254376
  20 H :    0.118711
  21 H :    0.092283
  22 H :    0.088984
  23 H :    0.097129
  24 H :    0.106228
  25 H :    0.139369
  26 H :    0.119223
  27 H :    0.116175
  28 H :    0.196389
  29 H :    0.186180
  30 H :    0.189082
  31 H :    0.131843
  32 H :    0.156312
  33 H :    0.124425
  34 H :    0.243717
  35 H :    0.160640
Sum of atomic charges:    0.0000000

LOEWDIN ATOMIC CHARGES
----------------------
   0 C :    0.108081
   1 C :   -0.032118
   2 O :    0.343287
   3 C :   -0.425433
   4 O :    0.093994
   5 C :   -0.092156
   6 C :   -0.060261
   7 C :    0.124397
   8 N :    0.401802
   9 C :   -0.456268
  10 S :   -0.033991
  11 N :    0.394906
  12 C :    0.004860
  13 C :   -0.033637
  14 C :   -0.003544
  15 C :    0.035816
  16 C :   -0.010833
  17 C :   -0.187806
  18 O :    0.389417
  19 C :    0.024317
  20 H :   -0.022515
  21 H :   -0.028351
  22 H :   -0.025811
  23 H :   -0.030924
  24 H :   -0.025277
  25 H :   -0.023129
  26 H :   -0.011116
  27 H :   -0.020247
  28 H :   -0.055016
  29 H :   -0.064310
  30 H :   -0.010676
  31 H :   -0.031355
  32 H :   -0.018618
  33 H :   -0.035778
  34 H :   -0.150038
  35 H :   -0.031669

  Mayer bond orders larger than 0.100000
B(  0-C ,  1-C ) :   0.9660 B(  0-C , 20-H ) :   0.9759 B(  0-C , 21-H ) :   0.9765
B(  0-C , 22-H ) :   0.9783 B(  1-C ,  2-O ) :   0.8913 B(  1-C , 23-H ) :   0.9803
B(  1-C , 24-H ) :   0.9815 B(  2-O ,  3-C ) :   1.1734 B(  3-C ,  4-O ) :   1.9993
B(  3-C ,  5-C ) :   1.0206 B(  5-C ,  6-C ) :   1.6539 B(  5-C , 12-C ) :   0.9944
B(  6-C ,  7-C ) :   0.9538 B(  6-C ,  8-N ) :   1.1320 B(  7-C , 25-H ) :   0.9753
B(  7-C , 26-H ) :   0.9680 B(  7-C , 27-H ) :   0.9729 B(  8-N ,  9-C ) :   1.1814
B(  8-N , 28-H ) :   0.9512 B(  9-C , 10-S ) :   1.6103 B(  9-C , 11-N ) :   1.3018
B( 11-N , 12-C ) :   0.9925 B( 11-N , 29-H ) :   0.9551 B( 12-C , 13-C ) :   0.8936
B( 12-C , 30-H ) :   0.9774 B( 13-C , 14-C ) :   1.3780 B( 13-C , 19-C ) :   1.3784
B( 14-C , 15-C ) :   1.3769 B( 14-C , 31-H ) :   0.9758 B( 15-C , 16-C ) :   1.3685
B( 15-C , 32-H ) :   0.9720 B( 16-C , 17-C ) :   1.3134 B( 16-C , 33-H ) :   0.9892
B( 17-C , 18-O ) :   1.1027 B( 17-C , 19-C ) :   1.3962 B( 18-O , 34-H ) :   0.9776
B( 19-C , 35-H ) :   0.9526

MP2 TOTAL ENERGY:    -1274.284714454 Eh
FINAL SINGLE POINT ENERGY     -1274.284714453555

DIPOLE MOMENT
-------------
                                X             Y             Z
Electronic contribution:     11.00311       9.71110       9.49781
Nuclear contribution   :    -12.59272     -10.91581     -10.54759
                        -----------------------------------------
Total Dipole Moment    :     -1.58961      -1.20472      -1.04978
                        -----------------------------------------
Magnitude (a.u.)       :      2.25394
Magnitude (Debye)      :      5.72906

Rotational constants in cm-1:     0.010993     0.009099     0.006267
Rotational constants in MHz :   329.549690   272.787464   187.887231

                             ****ORCA TERMINATED NORMALLY****
TOTAL RUN TIME: 0 days 1 hours 29 minutes 59 seconds 106 msec
