                         Program Version 4.2.0 -  RELEASE  -
|  1> ! ri-mp2 cc-pvtz cc-pvtz/c TightSCF  NoKeepInts
|  2>
|  3> %scf
|  4>   MaxCore 4096
|  5> end
|  6> *xyz  0  1
|  7>     C       15.8471345   12.9956590   16.4746365
|  8>     C       15.7220359   14.3981529   15.8484966
|  9>     O       16.5227164   15.2872588   16.6443024
| 10>     C       16.2249650   16.6212534   16.6949699
| 11>     O       15.2737178   17.0948323   16.0962214
| 12>     C       17.1731419   17.3977966   17.5798334
| 13>     C       17.1755511   18.7704136   17.5495632
| 14>     C       16.1787205   19.6956940   16.9151930
| 15>     N       18.1788851   19.4401594   18.2746709
| 16>     C       19.2748340   18.8714582   18.8587167
| 17>     S       20.4421251   19.7707278   19.6073315
| 18>     N       19.3494534   17.5109774   18.8086656
| 19>     C       18.3802507   16.6605060   18.1635075
| 20>     C       17.7420225   15.7887368   19.3456911
| 21>     C       17.9025134   14.3764438   19.3618018
| 22>     C       17.3558720   13.5835153   20.3892194
| 23>     C       16.6259870   14.1954143   21.4218578
| 24>     C       16.4474683   15.5856461   21.4212301
| 25>     O       15.7431960   16.1801058   22.4177909
| 26>     C       16.9932113   16.3699928   20.3960037
| 27>     H       16.8964501   12.6595733   16.4102591
| 28>     H       15.2328747   12.2714529   15.9260491
| 29>     H       15.5487933   12.9890011   17.5250022
| 30>     H       16.0129031   14.4152487   14.8053436
| 31>     H       14.6513676   14.6889610   15.9265484
| 32>     H       16.1878793   19.5710578   15.8279015
| 33>     H       16.3743821   20.7498856   17.1359167
| 34>     H       15.1679241   19.4613400   17.2690651
| 35>     H       18.1345580   20.4508698   18.3416397
| 36>     H       20.1562844   17.1044558   19.2538889
| 37>     H       18.7512688   15.8784341   17.5239988
| 38>     H       18.4597353   13.8936869   18.5617109
| 39>     H       17.4985350   12.5034692   20.3825978
| 40>     H       16.2021292   13.5912626   22.2174241
| 41>     H       15.4710845   15.4860746   23.0365822
| 42>     H       16.8470319   17.4424804   20.4203675
| 43> *
| 44>
| 45>                          ****END OF INPUT****

CARTESIAN COORDINATES (ANGSTROEM)
---------------------------------
  C     15.847134   12.995659   16.474636
  C     15.722036   14.398153   15.848497
  O     16.522716   15.287259   16.644302
  C     16.224965   16.621253   16.694970
  O     15.273718   17.094832   16.096221
  C     17.173142   17.397797   17.579833
  C     17.175551   18.770414   17.549563
  C     16.178721   19.695694   16.915193
  N     18.178885   19.440159   18.274671
  C     19.274834   18.871458   18.858717
  S     20.442125   19.770728   19.607331
  N     19.349453   17.510977   18.808666
  C     18.380251   16.660506   18.163508
  C     17.742023   15.788737   19.345691
  C     17.902513   14.376444   19.361802
  C     17.355872   13.583515   20.389219
  C     16.625987   14.195414   21.421858
  C     16.447468   15.585646   21.421230
  O     15.743196   16.180106   22.417791
  C     16.993211   16.369993   20.396004
  H     16.896450   12.659573   16.410259
  H     15.232875   12.271453   15.926049
  H     15.548793   12.989001   17.525002
  H     16.012903   14.415249   14.805344
  H     14.651368   14.688961   15.926548
  H     16.187879   19.571058   15.827901
  H     16.374382   20.749886   17.135917
  H     15.167924   19.461340   17.269065
  H     18.134558   20.450870   18.341640
  H     20.156284   17.104456   19.253889
  H     18.751269   15.878434   17.523999
  H     18.459735   13.893687   18.561711
  H     17.498535   12.503469   20.382598
  H     16.202129   13.591263   22.217424
  H     15.471084   15.486075   23.036582
  H     16.847032   17.442480   20.420367

 Total Charge           Charge          ....    0
 Multiplicity           Mult            ....    1
 Number of Electrons    NEL             ....  154
 Basis Dimension        Dim             ....  828

ORBITAL ENERGIES
----------------

  NO   OCC          E(Eh)            E(eV)
   0   2.0000     -91.890286     -2500.4618
   1   2.0000     -20.603094      -560.6387
   2   2.0000     -20.592353      -560.3464
   3   2.0000     -20.542244      -558.9829
   4   2.0000     -15.629944      -425.3124
   5   2.0000     -15.612712      -424.8435
   6   2.0000     -11.396153      -310.1051
   7   2.0000     -11.385662      -309.8196
   8   2.0000     -11.339562      -308.5652
   9   2.0000     -11.312859      -307.8386
  10   2.0000     -11.309326      -307.7424
  11   2.0000     -11.296479      -307.3928
  12   2.0000     -11.263364      -306.4917
  13   2.0000     -11.258349      -306.3553
  14   2.0000     -11.253132      -306.2133
  15   2.0000     -11.250752      -306.1485
  16   2.0000     -11.237811      -305.7964
  17   2.0000     -11.234056      -305.6942
  18   2.0000     -11.233936      -305.6909
  19   2.0000     -11.230338      -305.5930
  20   2.0000      -8.895392      -242.0559
  21   2.0000      -6.576976      -178.9686
  22   2.0000      -6.574951      -178.9135
  23   2.0000      -6.574365      -178.8976
  24   2.0000      -1.452510       -39.5248
  25   2.0000      -1.411704       -38.4144
  26   2.0000      -1.355198       -36.8768
  27   2.0000      -1.344746       -36.5924
  28   2.0000      -1.245169       -33.8828
  29   2.0000      -1.149434       -31.2777
  30   2.0000      -1.120146       -30.4807
  31   2.0000      -1.043352       -28.3910
  32   2.0000      -1.034817       -28.1588
  33   2.0000      -1.008546       -27.4439
  34   2.0000      -0.995785       -27.0967
  35   2.0000      -0.986578       -26.8461
  36   2.0000      -0.921470       -25.0745
  37   2.0000      -0.888486       -24.1769
  38   2.0000      -0.851433       -23.1687
  39   2.0000      -0.831913       -22.6375
  40   2.0000      -0.827431       -22.5155
  41   2.0000      -0.816716       -22.2240
  42   2.0000      -0.764959       -20.8156
  43   2.0000      -0.729742       -19.8573
  44   2.0000      -0.720148       -19.5962
  45   2.0000      -0.697063       -18.9681
  46   2.0000      -0.686895       -18.6914
  47   2.0000      -0.681132       -18.5345
  48   2.0000      -0.676826       -18.4174
  49   2.0000      -0.661963       -18.0129
  50   2.0000      -0.652471       -17.7546
  51   2.0000      -0.647045       -17.6070
  52   2.0000      -0.636020       -17.3070
  53   2.0000      -0.603042       -16.4096
  54   2.0000      -0.599251       -16.3064
  55   2.0000      -0.595032       -16.1916
  56   2.0000      -0.588425       -16.0119
  57   2.0000      -0.577610       -15.7176
  58   2.0000      -0.572065       -15.5667
  59   2.0000      -0.566556       -15.4168
  60   2.0000      -0.558787       -15.2054
  61   2.0000      -0.551279       -15.0011
  62   2.0000      -0.545325       -14.8391
  63   2.0000      -0.527958       -14.3665
  64   2.0000      -0.518914       -14.1204
  65   2.0000      -0.511144       -13.9089
  66   2.0000      -0.497439       -13.5360
  67   2.0000      -0.493675       -13.4336
  68   2.0000      -0.480162       -13.0659
  69   2.0000      -0.462955       -12.5977
  70   2.0000      -0.459840       -12.5129
  71   2.0000      -0.449654       -12.2357
  72   2.0000      -0.350659        -9.5419
  73   2.0000      -0.343370        -9.3436
  74   2.0000      -0.329595        -8.9687
  75   2.0000      -0.316237        -8.6052
  76   2.0000      -0.313572        -8.5327
  77   0.0000       0.074451         2.0259
  78   0.0000       0.110471         3.0061
  79   0.0000       0.125920         3.4264
  80   0.0000       0.132891         3.6161
  81   0.0000       0.138919         3.7802

MULLIKEN ATOMIC CHARGES
-----------------------
   0 C :   -0.286544
   1 C :    0.040708
   2 O :   -0.340769
   3 C :    0.443504
   4 O :   -0.436374
   5 C :   -0.240551
   6 C :    0.181782
   7 C :   -0.272173
   8 N :   -0.128892
   9 C :    0.199159
  10 S :   -0.436815
  11 N :   -0.178630
  12 C :    0.086309
  13 C :    0.012756
  14 C :   -0.181758
  15 C :   -0.137240
  16 C :   -0.278688
  17 C :    0.312816
  18 O :   -0.357482
  19 C :   -0.259901
  20 H :    0.084799
  21 H :    0.105857
  22 H :    0.113929
  23 H :    0.100377
  24 H :    0.094510
  25 H :    0.131873
  26 H :    0.096730
  27 H :    0.135239
  28 H :    0.197143
  29 H :    0.195193
  30 H :    0.166824
  31 H :    0.144958
  32 H :    0.161264
  33 H :    0.128290
  34 H :    0.240195
  35 H :    0.161603
Sum of atomic charges:   -0.0000000

LOEWDIN ATOMIC CHARGES
----------------------
   0 C :    0.105927
   1 C :   -0.013539
   2 O :    0.308508
   3 C :   -0.410903
   4 O :    0.094022
   5 C :   -0.095441
   6 C :   -0.050266
   7 C :    0.130130
   8 N :    0.401802
   9 C :   -0.461956
  10 S :   -0.031266
  11 N :    0.407052
  12 C :   -0.037786
  13 C :   -0.017449
  14 C :    0.004128
  15 C :    0.035323
  16 C :   -0.006577
  17 C :   -0.190738
  18 O :    0.393625
  19 C :    0.022358
  20 H :   -0.028883
  21 H :   -0.025087
  22 H :   -0.026427
  23 H :   -0.038043
  24 H :   -0.021124
  25 H :   -0.004113
  26 H :   -0.022055
  27 H :   -0.001461
  28 H :   -0.052924
  29 H :   -0.061339
  30 H :   -0.027584
  31 H :   -0.035799
  32 H :   -0.022266
  33 H :   -0.036689
  34 H :   -0.154742
  35 H :   -0.028420

  Mayer bond orders larger than 0.100000
B(  0-C ,  1-C ) :   0.9728 B(  0-C , 20-H ) :   0.9791 B(  0-C , 21-H ) :   0.9789
B(  0-C , 22-H ) :   0.9718 B(  1-C ,  2-O ) :   0.9029 B(  1-C , 23-H ) :   0.9800
B(  1-C , 24-H ) :   0.9771 B(  2-O ,  3-C ) :   1.1801 B(  3-C ,  4-O ) :   1.9591
B(  3-C ,  5-C ) :   1.0735 B(  5-C ,  6-C ) :   1.6437 B(  5-C , 12-C ) :   0.9535
B(  6-C ,  7-C ) :   0.9699 B(  6-C ,  8-N ) :   1.1407 B(  7-C , 25-H ) :   0.9598
B(  7-C , 26-H ) :   0.9891 B(  7-C , 27-H ) :   0.9582 B(  8-N ,  9-C ) :   1.1934
B(  8-N , 28-H ) :   0.9476 B(  9-C , 10-S ) :   1.6129 B(  9-C , 11-N ) :   1.2997
B( 11-N , 12-C ) :   1.0197 B( 11-N , 29-H ) :   0.9505 B( 12-C , 13-C ) :   0.9255
B( 12-C , 30-H ) :   0.9887 B( 13-C , 14-C ) :   1.3635 B( 13-C , 19-C ) :   1.3901
B( 14-C , 15-C ) :   1.3917 B( 14-C , 31-H ) :   0.9716 B( 15-C , 16-C ) :   1.3591
B( 15-C , 32-H ) :   0.9694 B( 16-C , 17-C ) :   1.3304 B( 16-C , 33-H ) :   0.9856
B( 17-C , 18-O ) :   1.1037 B( 17-C , 19-C ) :   1.3719 B( 18-O , 34-H ) :   0.9804
B( 19-C , 35-H ) :   0.9571

MP2 TOTAL ENERGY:    -1274.335800731 Eh
FINAL SINGLE POINT ENERGY     -1274.335800731283

DIPOLE MOMENT
-------------
                                X             Y             Z
Electronic contribution:      9.09762      12.09564       6.77822
Nuclear contribution   :    -10.05260     -13.65061      -7.33705
                        -----------------------------------------
Total Dipole Moment    :     -0.95498      -1.55496      -0.55883
                        -----------------------------------------
Magnitude (a.u.)       :      1.90845
Magnitude (Debye)      :      4.85090

Rotational constants in cm-1:     0.011612     0.008528     0.006129
Rotational constants in MHz :   348.127581   255.654275   183.756149

                             ****ORCA TERMINATED NORMALLY****
TOTAL RUN TIME: 0 days 1 hours 32 minutes 5 seconds 491 msec
