                         Program Version 4.2.0 -  RELEASE  -
|  1> ! ri-mp2 cc-pvtz cc-pvtz/c TightSCF  NoKeepInts
|  2>
|  3> %scf
|  4>   MaxCore 4096
|  5> end
|  6> *xyz  0  1
|  7>     C       14.6957162   14.0504712   15.2160095
|  8>     C       16.1320705   14.0291314   15.7632743
|  9>     O       16.4335754   15.2973425   16.3834371
| 10>     C       17.6855931   15.4298972   16.9204802
| 11>     O       18.5150903   14.5323363   16.8849947
| 12>     C       17.9126123   16.6916195   17.6954363
| 13>     C       17.2708647   17.8814746   17.5381237
| 14>     C       16.1179701   18.2006776   16.6147794
| 15>     N       17.8189679   19.0399091   18.1303138
| 16>     C       18.8943787   19.0796672   18.9926249
| 17>     S       19.3536852   20.4779242   19.7495690
| 18>     N       19.4560113   17.8686227   19.3237896
| 19>     C       19.0766420   16.6012653   18.6747363
| 20>     C       18.1810319   16.2241145   19.9060290
| 21>     C       18.3122483   14.8758764   20.3263925
| 22>     C       17.3844326   14.2599197   21.1761435
| 23>     C       16.2846816   14.9880385   21.6420350
| 24>     C       16.1473708   16.3323886   21.2835695
| 25>     O       15.0531224   17.0218087   21.6898127
| 26>     C       17.0790070   16.9506744   20.4418465
| 27>     H       14.5287437   13.1788022   14.5702598
| 28>     H       14.5205966   14.9530633   14.6204719
| 29>     H       13.9652096   14.0143657   16.0366885
| 30>     H       16.2156587   13.2213777   16.5048889
| 31>     H       16.8436014   13.8133546   14.9569633
| 32>     H       16.3501363   17.9218090   15.5808934
| 33>     H       15.8607787   19.2675527   16.6226989
| 34>     H       15.2234984   17.6500045   16.9271264
| 35>     H       17.4144161   19.9389460   17.9275888
| 36>     H       20.1639757   17.8881854   20.0466591
| 37>     H       19.7283160   15.7212667   18.6949730
| 38>     H       19.1053463   14.2493059   19.9214155
| 39>     H       17.4997402   13.2071124   21.4256730
| 40>     H       15.5386551   14.5039197   22.2608837
| 41>     H       14.5093590   16.4117052   22.2100385
| 42>     H       16.8738952   17.9780770   20.1733769
| 43> *
| 44>
| 45>                          ****END OF INPUT****

CARTESIAN COORDINATES (ANGSTROEM)
---------------------------------
  C     14.695716   14.050471   15.216010
  C     16.132071   14.029131   15.763274
  O     16.433575   15.297342   16.383437
  C     17.685593   15.429897   16.920480
  O     18.515090   14.532336   16.884995
  C     17.912612   16.691620   17.695436
  C     17.270865   17.881475   17.538124
  C     16.117970   18.200678   16.614779
  N     17.818968   19.039909   18.130314
  C     18.894379   19.079667   18.992625
  S     19.353685   20.477924   19.749569
  N     19.456011   17.868623   19.323790
  C     19.076642   16.601265   18.674736
  C     18.181032   16.224114   19.906029
  C     18.312248   14.875876   20.326392
  C     17.384433   14.259920   21.176143
  C     16.284682   14.988039   21.642035
  C     16.147371   16.332389   21.283569
  O     15.053122   17.021809   21.689813
  C     17.079007   16.950674   20.441846
  H     14.528744   13.178802   14.570260
  H     14.520597   14.953063   14.620472
  H     13.965210   14.014366   16.036689
  H     16.215659   13.221378   16.504889
  H     16.843601   13.813355   14.956963
  H     16.350136   17.921809   15.580893
  H     15.860779   19.267553   16.622699
  H     15.223498   17.650005   16.927126
  H     17.414416   19.938946   17.927589
  H     20.163976   17.888185   20.046659
  H     19.728316   15.721267   18.694973
  H     19.105346   14.249306   19.921415
  H     17.499740   13.207112   21.425673
  H     15.538655   14.503920   22.260884
  H     14.509359   16.411705   22.210038
  H     16.873895   17.978077   20.173377

 Total Charge           Charge          ....    0
 Multiplicity           Mult            ....    1
 Number of Electrons    NEL             ....  154
 Basis Dimension        Dim             ....  828

ORBITAL ENERGIES
----------------

  NO   OCC          E(Eh)            E(eV)
   0   2.0000     -91.889973     -2500.4533
   1   2.0000     -20.609591      -560.8155
   2   2.0000     -20.591299      -560.3177
   3   2.0000     -20.548512      -559.1534
   4   2.0000     -15.627194      -425.2376
   5   2.0000     -15.610491      -424.7831
   6   2.0000     -11.399454      -310.1949
   7   2.0000     -11.384729      -309.7942
   8   2.0000     -11.335286      -308.4488
   9   2.0000     -11.310955      -307.7867
  10   2.0000     -11.306255      -307.6588
  11   2.0000     -11.298916      -307.4591
  12   2.0000     -11.268792      -306.6394
  13   2.0000     -11.259520      -306.3871
  14   2.0000     -11.257458      -306.3310
  15   2.0000     -11.245052      -305.9934
  16   2.0000     -11.236096      -305.7497
  17   2.0000     -11.231798      -305.6328
  18   2.0000     -11.230692      -305.6027
  19   2.0000     -11.224782      -305.4419
  20   2.0000      -8.894868      -242.0417
  21   2.0000      -6.576419      -178.9535
  22   2.0000      -6.574439      -178.8996
  23   2.0000      -6.573844      -178.8834
  24   2.0000      -1.455908       -39.6173
  25   2.0000      -1.412018       -38.4230
  26   2.0000      -1.358751       -36.9735
  27   2.0000      -1.338237       -36.4153
  28   2.0000      -1.240928       -33.7674
  29   2.0000      -1.153678       -31.3932
  30   2.0000      -1.120111       -30.4798
  31   2.0000      -1.044422       -28.4202
  32   2.0000      -1.036923       -28.2161
  33   2.0000      -1.008688       -27.4478
  34   2.0000      -0.996670       -27.1208
  35   2.0000      -0.983761       -26.7695
  36   2.0000      -0.922085       -25.0912
  37   2.0000      -0.889887       -24.2151
  38   2.0000      -0.846917       -23.0458
  39   2.0000      -0.833784       -22.6884
  40   2.0000      -0.824204       -22.4277
  41   2.0000      -0.818466       -22.2716
  42   2.0000      -0.763391       -20.7729
  43   2.0000      -0.736906       -20.0522
  44   2.0000      -0.718299       -19.5459
  45   2.0000      -0.696054       -18.9406
  46   2.0000      -0.689899       -18.7731
  47   2.0000      -0.683010       -18.5857
  48   2.0000      -0.679657       -18.4944
  49   2.0000      -0.661718       -18.0063
  50   2.0000      -0.656210       -17.8564
  51   2.0000      -0.642247       -17.4764
  52   2.0000      -0.633227       -17.2310
  53   2.0000      -0.600374       -16.3370
  54   2.0000      -0.597817       -16.2674
  55   2.0000      -0.594478       -16.1766
  56   2.0000      -0.590609       -16.0713
  57   2.0000      -0.585226       -15.9248
  58   2.0000      -0.570966       -15.5368
  59   2.0000      -0.566795       -15.4233
  60   2.0000      -0.557735       -15.1767
  61   2.0000      -0.551504       -15.0072
  62   2.0000      -0.543464       -14.7884
  63   2.0000      -0.521908       -14.2018
  64   2.0000      -0.512664       -13.9503
  65   2.0000      -0.510594       -13.8940
  66   2.0000      -0.506388       -13.7795
  67   2.0000      -0.501222       -13.6389
  68   2.0000      -0.487388       -13.2625
  69   2.0000      -0.464604       -12.6425
  70   2.0000      -0.461938       -12.5700
  71   2.0000      -0.449864       -12.2414
  72   2.0000      -0.343761        -9.3542
  73   2.0000      -0.334495        -9.1021
  74   2.0000      -0.326435        -8.8828
  75   2.0000      -0.315484        -8.5848
  76   2.0000      -0.303177        -8.2499
  77   0.0000       0.064274         1.7490
  78   0.0000       0.120035         3.2663
  79   0.0000       0.122573         3.3354
  80   0.0000       0.136309         3.7092
  81   0.0000       0.138033         3.7561

MULLIKEN ATOMIC CHARGES
-----------------------
   0 C :   -0.267043
   1 C :    0.050662
   2 O :   -0.335513
   3 C :    0.442627
   4 O :   -0.437483
   5 C :   -0.108463
   6 C :    0.104959
   7 C :   -0.285469
   8 N :   -0.146137
   9 C :    0.202628
  10 S :   -0.421879
  11 N :   -0.194195
  12 C :    0.057898
  13 C :    0.048622
  14 C :   -0.206827
  15 C :   -0.126437
  16 C :   -0.286018
  17 C :    0.309054
  18 O :   -0.360612
  19 C :   -0.264946
  20 H :    0.097540
  21 H :    0.093480
  22 H :    0.096688
  23 H :    0.091296
  24 H :    0.093246
  25 H :    0.126434
  26 H :    0.102439
  27 H :    0.130937
  28 H :    0.195451
  29 H :    0.186971
  30 H :    0.184462
  31 H :    0.139687
  32 H :    0.156631
  33 H :    0.126229
  34 H :    0.241135
  35 H :    0.161946
Sum of atomic charges:    0.0000000

LOEWDIN ATOMIC CHARGES
----------------------
   0 C :    0.108445
   1 C :   -0.016504
   2 O :    0.296715
   3 C :   -0.406259
   4 O :    0.097727
   5 C :   -0.096861
   6 C :   -0.059359
   7 C :    0.126759
   8 N :    0.400258
   9 C :   -0.456436
  10 S :   -0.030024
  11 N :    0.398834
  12 C :    0.007296
  13 C :   -0.036900
  14 C :   -0.002854
  15 C :    0.037119
  16 C :   -0.010854
  17 C :   -0.195835
  18 O :    0.394346
  19 C :    0.024316
  20 H :   -0.021526
  21 H :   -0.029089
  22 H :   -0.025883
  23 H :   -0.026243
  24 H :   -0.030029
  25 H :   -0.009337
  26 H :   -0.018784
  27 H :   -0.008731
  28 H :   -0.064861
  29 H :   -0.061851
  30 H :   -0.005789
  31 H :   -0.030627
  32 H :   -0.020972
  33 H :   -0.038207
  34 H :   -0.154720
  35 H :   -0.033278

  Mayer bond orders larger than 0.100000
B(  0-C ,  1-C ) :   0.9657 B(  0-C , 20-H ) :   0.9788 B(  0-C , 21-H ) :   0.9765
B(  0-C , 22-H ) :   0.9802 B(  1-C ,  2-O ) :   0.9040 B(  1-C , 23-H ) :   0.9771
B(  1-C , 24-H ) :   0.9790 B(  2-O ,  3-C ) :   1.1799 B(  3-C ,  4-O ) :   1.9477
B(  3-C ,  5-C ) :   1.0377 B(  5-C ,  6-C ) :   1.6368 B(  5-C , 12-C ) :   1.0021
B(  6-C ,  7-C ) :   0.9580 B(  6-C ,  8-N ) :   1.1393 B(  7-C , 25-H ) :   0.9650
B(  7-C , 26-H ) :   0.9904 B(  7-C , 27-H ) :   0.9642 B(  8-N ,  9-C ) :   1.1551
B(  8-N , 28-H ) :   0.9482 B(  9-C , 10-S ) :   1.6195 B(  9-C , 11-N ) :   1.3053
B( 11-N , 12-C ) :   0.9795 B( 11-N , 29-H ) :   0.9552 B( 12-C , 13-C ) :   0.8859
B( 12-C , 30-H ) :   0.9820 B( 13-C , 14-C ) :   1.4012 B( 13-C , 19-C ) :   1.3518
B( 14-C , 15-C ) :   1.3689 B( 14-C , 31-H ) :   0.9717 B( 15-C , 16-C ) :   1.3819
B( 15-C , 32-H ) :   0.9722 B( 16-C , 17-C ) :   1.3083 B( 16-C , 33-H ) :   0.9867
B( 17-C , 18-O ) :   1.1113 B( 17-C , 19-C ) :   1.4029 B( 18-O , 34-H ) :   0.9802
B( 19-C , 35-H ) :   0.9495

MP2 TOTAL ENERGY:    -1274.285553808 Eh
FINAL SINGLE POINT ENERGY     -1274.285553808494

DIPOLE MOMENT
-------------
                                X             Y             Z
Electronic contribution:     12.52606      11.41333       9.67581
Nuclear contribution   :    -14.23298     -12.92509     -10.61992
                        -----------------------------------------
Total Dipole Moment    :     -1.70692      -1.51176      -0.94410
                        -----------------------------------------
Magnitude (a.u.)       :      2.46786
Magnitude (Debye)      :      6.27280

Rotational constants in cm-1:     0.012420     0.008353     0.006537
Rotational constants in MHz :   372.333264   250.430582   195.967177

                             ****ORCA TERMINATED NORMALLY****
TOTAL RUN TIME: 0 days 1 hours 36 minutes 42 seconds 821 msec
