                         Program Version 4.2.0 -  RELEASE  -
|  1> ! ri-mp2 cc-pvtz cc-pvtz/c TightSCF  NoKeepInts
|  2>
|  3> %scf
|  4>   MaxCore 4096
|  5> end
|  6> *xyz  0  1
|  7>     C       14.6903125   14.1505804   16.3475193
|  8>     C       15.5818283   15.3486899   16.7073646
|  9>     O       16.9121073   14.9831646   16.2825109
| 10>     C       18.0427600   15.7512737   16.4032662
| 11>     O       19.1147329   15.3458583   15.9966503
| 12>     C       17.9762042   16.7913741   17.4556293
| 13>     C       17.3230995   17.9589898   17.2201334
| 14>     C       16.7349652   18.3752917   15.8756859
| 15>     N       17.5826775   19.0675271   18.0325548
| 16>     C       18.4372487   19.0771598   19.1065940
| 17>     S       18.7511635   20.4777183   19.9295314
| 18>     N       19.0171490   17.8745289   19.4519284
| 19>     C       18.9318860   16.6438777   18.6284467
| 20>     C       18.0204865   15.9178822   19.6659372
| 21>     C       18.3611113   14.5578826   19.8866209
| 22>     C       17.6100377   13.7131110   20.7117009
| 23>     C       16.4696007   14.2133210   21.3452270
| 24>     C       16.0915487   15.5457799   21.1351576
| 25>     O       14.9651413   16.0001153   21.7373169
| 26>     C       16.8413025   16.3925465   20.2975428
| 27>     H       15.2378826   13.2066520   16.4572084
| 28>     H       14.3881978   14.2418047   15.2954069
| 29>     H       13.7825191   14.1095713   16.9602995
| 30>     H       15.1847014   16.2856312   16.3095550
| 31>     H       15.5905794   15.4157956   17.8073298
| 32>     H       17.1353548   17.7763615   15.0457093
| 33>     H       16.9943750   19.4131496   15.6240021
| 34>     H       15.6431493   18.3074443   15.8508482
| 35>     H       17.2491962   19.9769009   17.7479241
| 36>     H       19.6194412   17.9077301   20.2632495
| 37>     H       19.7180555   15.8834193   18.5825914
| 38>     H       19.2195191   14.1157624   19.3855387
| 39>     H       17.9103289   12.6735314   20.8422038
| 40>     H       15.8813300   13.5592264   21.9817735
| 41>     H       14.6444639   15.2846397   22.3106504
| 42>     H       16.4925457   17.4077069   20.1523877
| 43> *
| 44>
| 45>                          ****END OF INPUT****

CARTESIAN COORDINATES (ANGSTROEM)
---------------------------------
  C     14.690312   14.150580   16.347519
  C     15.581828   15.348690   16.707365
  O     16.912107   14.983165   16.282511
  C     18.042760   15.751274   16.403266
  O     19.114733   15.345858   15.996650
  C     17.976204   16.791374   17.455629
  C     17.323100   17.958990   17.220133
  C     16.734965   18.375292   15.875686
  N     17.582677   19.067527   18.032555
  C     18.437249   19.077160   19.106594
  S     18.751163   20.477718   19.929531
  N     19.017149   17.874529   19.451928
  C     18.931886   16.643878   18.628447
  C     18.020487   15.917882   19.665937
  C     18.361111   14.557883   19.886621
  C     17.610038   13.713111   20.711701
  C     16.469601   14.213321   21.345227
  C     16.091549   15.545780   21.135158
  O     14.965141   16.000115   21.737317
  C     16.841303   16.392547   20.297543
  H     15.237883   13.206652   16.457208
  H     14.388198   14.241805   15.295407
  H     13.782519   14.109571   16.960299
  H     15.184701   16.285631   16.309555
  H     15.590579   15.415796   17.807330
  H     17.135355   17.776362   15.045709
  H     16.994375   19.413150   15.624002
  H     15.643149   18.307444   15.850848
  H     17.249196   19.976901   17.747924
  H     19.619441   17.907730   20.263250
  H     19.718055   15.883419   18.582591
  H     19.219519   14.115762   19.385539
  H     17.910329   12.673531   20.842204
  H     15.881330   13.559226   21.981773
  H     14.644464   15.284640   22.310650
  H     16.492546   17.407707   20.152388

 Total Charge           Charge          ....    0
 Multiplicity           Mult            ....    1
 Number of Electrons    NEL             ....  154
 Basis Dimension        Dim             ....  828

ORBITAL ENERGIES
----------------

  NO   OCC          E(Eh)            E(eV)
   0   2.0000     -91.891275     -2500.4887
   1   2.0000     -20.603239      -560.6426
   2   2.0000     -20.598310      -560.5085
   3   2.0000     -20.552341      -559.2576
   4   2.0000     -15.627132      -425.2359
   5   2.0000     -15.613749      -424.8717
   6   2.0000     -11.398995      -310.1824
   7   2.0000     -11.387356      -309.8657
   8   2.0000     -11.330492      -308.3184
   9   2.0000     -11.323590      -308.1305
  10   2.0000     -11.317074      -307.9532
  11   2.0000     -11.304648      -307.6151
  12   2.0000     -11.272499      -306.7403
  13   2.0000     -11.270671      -306.6906
  14   2.0000     -11.264619      -306.5259
  15   2.0000     -11.253322      -306.2185
  16   2.0000     -11.242011      -305.9107
  17   2.0000     -11.240835      -305.8787
  18   2.0000     -11.233868      -305.6891
  19   2.0000     -11.232152      -305.6424
  20   2.0000      -8.896270      -242.0798
  21   2.0000      -6.577835      -178.9920
  22   2.0000      -6.575833      -178.9375
  23   2.0000      -6.575245      -178.9215
  24   2.0000      -1.449549       -39.4442
  25   2.0000      -1.418603       -38.6022
  26   2.0000      -1.362733       -37.0819
  27   2.0000      -1.341133       -36.4941
  28   2.0000      -1.243980       -33.8504
  29   2.0000      -1.158757       -31.5314
  30   2.0000      -1.127280       -30.6748
  31   2.0000      -1.047350       -28.4998
  32   2.0000      -1.042637       -28.3716
  33   2.0000      -1.016579       -27.6625
  34   2.0000      -1.004484       -27.3334
  35   2.0000      -0.988939       -26.9104
  36   2.0000      -0.930710       -25.3259
  37   2.0000      -0.882042       -24.0016
  38   2.0000      -0.857297       -23.3282
  39   2.0000      -0.843751       -22.9596
  40   2.0000      -0.834189       -22.6994
  41   2.0000      -0.832612       -22.6565
  42   2.0000      -0.759778       -20.6746
  43   2.0000      -0.741082       -20.1659
  44   2.0000      -0.724965       -19.7273
  45   2.0000      -0.701436       -19.0870
  46   2.0000      -0.696687       -18.9578
  47   2.0000      -0.681817       -18.5532
  48   2.0000      -0.680665       -18.5218
  49   2.0000      -0.664880       -18.0923
  50   2.0000      -0.660667       -17.9777
  51   2.0000      -0.647559       -17.6210
  52   2.0000      -0.639161       -17.3925
  53   2.0000      -0.610873       -16.6227
  54   2.0000      -0.607439       -16.5293
  55   2.0000      -0.602082       -16.3835
  56   2.0000      -0.594154       -16.1677
  57   2.0000      -0.581188       -15.8149
  58   2.0000      -0.574139       -15.6231
  59   2.0000      -0.568808       -15.4780
  60   2.0000      -0.560059       -15.2400
  61   2.0000      -0.557987       -15.1836
  62   2.0000      -0.553135       -15.0516
  63   2.0000      -0.526568       -14.3286
  64   2.0000      -0.519749       -14.1431
  65   2.0000      -0.514030       -13.9875
  66   2.0000      -0.506911       -13.7937
  67   2.0000      -0.503306       -13.6957
  68   2.0000      -0.491988       -13.3877
  69   2.0000      -0.463344       -12.6082
  70   2.0000      -0.455670       -12.3994
  71   2.0000      -0.450937       -12.2706
  72   2.0000      -0.350743        -9.5442
  73   2.0000      -0.348356        -9.4793
  74   2.0000      -0.327438        -8.9100
  75   2.0000      -0.323357        -8.7990
  76   2.0000      -0.312096        -8.4926
  77   0.0000       0.073933         2.0118
  78   0.0000       0.108650         2.9565
  79   0.0000       0.114731         3.1220
  80   0.0000       0.128041         3.4842
  81   0.0000       0.133021         3.6197

MULLIKEN ATOMIC CHARGES
-----------------------
   0 C :   -0.265098
   1 C :    0.024817
   2 O :   -0.297370
   3 C :    0.380004
   4 O :   -0.379867
   5 C :   -0.139855
   6 C :    0.099616
   7 C :   -0.323299
   8 N :   -0.127006
   9 C :    0.188285
  10 S :   -0.433796
  11 N :   -0.205751
  12 C :    0.102167
  13 C :    0.047984
  14 C :   -0.216958
  15 C :   -0.120542
  16 C :   -0.284595
  17 C :    0.326022
  18 O :   -0.360783
  19 C :   -0.297177
  20 H :    0.114355
  21 H :    0.091497
  22 H :    0.091877
  23 H :    0.088294
  24 H :    0.103938
  25 H :    0.130886
  26 H :    0.124878
  27 H :    0.121334
  28 H :    0.193540
  29 H :    0.190891
  30 H :    0.187822
  31 H :    0.142486
  32 H :    0.159509
  33 H :    0.128796
  34 H :    0.243976
  35 H :    0.169123
Sum of atomic charges:   -0.0000000

LOEWDIN ATOMIC CHARGES
----------------------
   0 C :    0.111009
   1 C :   -0.019382
   2 O :    0.311023
   3 C :   -0.424656
   4 O :    0.123085
   5 C :   -0.083722
   6 C :   -0.093393
   7 C :    0.125668
   8 N :    0.396649
   9 C :   -0.456053
  10 S :   -0.033243
  11 N :    0.397961
  12 C :    0.004942
  13 C :   -0.038751
  14 C :   -0.003553
  15 C :    0.039557
  16 C :   -0.009566
  17 C :   -0.191483
  18 O :    0.391941
  19 C :    0.023307
  20 H :   -0.019620
  21 H :   -0.028547
  22 H :   -0.025874
  23 H :   -0.038941
  24 H :   -0.029980
  25 H :   -0.006356
  26 H :   -0.009872
  27 H :   -0.024007
  28 H :   -0.059064
  29 H :   -0.064775
  30 H :   -0.001633
  31 H :   -0.030048
  32 H :   -0.017829
  33 H :   -0.035041
  34 H :   -0.149754
  35 H :   -0.029997

  Mayer bond orders larger than 0.100000
B(  0-C ,  1-C ) :   0.9720 B(  0-C , 20-H ) :   0.9757 B(  0-C , 21-H ) :   0.9855
B(  0-C , 22-H ) :   0.9796 B(  1-C ,  2-O ) :   0.9124 B(  1-C , 23-H ) :   0.9676
B(  1-C , 24-H ) :   0.9639 B(  2-O ,  3-C ) :   1.1958 B(  3-C ,  4-O ) :   2.1104
B(  3-C ,  5-C ) :   0.9033 B(  5-C ,  6-C ) :   1.7144 B(  5-C , 12-C ) :   0.9687
B(  6-C ,  7-C ) :   0.9283 B(  6-C ,  8-N ) :   1.0998 B(  7-C , 25-H ) :   0.9750
B(  7-C , 26-H ) :   0.9801 B(  7-C , 27-H ) :   0.9730 B(  8-N ,  9-C ) :   1.1927
B(  8-N , 28-H ) :   0.9516 B(  9-C , 10-S ) :   1.6194 B(  9-C , 11-N ) :   1.2797
B( 11-N , 12-C ) :   1.0016 B( 11-N , 29-H ) :   0.9526 B( 12-C , 13-C ) :   0.8881
B( 12-C , 30-H ) :   0.9866 B( 13-C , 14-C ) :   1.3788 B( 13-C , 19-C ) :   1.3681
B( 14-C , 15-C ) :   1.3787 B( 14-C , 31-H ) :   0.9733 B( 15-C , 16-C ) :   1.3721
B( 15-C , 32-H ) :   0.9707 B( 16-C , 17-C ) :   1.3156 B( 16-C , 33-H ) :   0.9869
B( 17-C , 18-O ) :   1.1071 B( 17-C , 19-C ) :   1.3815 B( 18-O , 34-H ) :   0.9772
B( 19-C , 35-H ) :   0.9513

MP2 TOTAL ENERGY:    -1274.274409398 Eh
FINAL SINGLE POINT ENERGY     -1274.274409397642

DIPOLE MOMENT
-------------
                                X             Y             Z
Electronic contribution:     11.48185       9.25584       7.18006
Nuclear contribution   :    -13.19107     -10.35220      -7.42149
                        -----------------------------------------
Total Dipole Moment    :     -1.70922      -1.09636      -0.24143
                        -----------------------------------------
Magnitude (a.u.)       :      2.04493
Magnitude (Debye)      :      5.19780

Rotational constants in cm-1:     0.011402     0.009577     0.006836
Rotational constants in MHz :   341.808626   287.098503   204.939497

                             ****ORCA TERMINATED NORMALLY****
TOTAL RUN TIME: 0 days 1 hours 35 minutes 59 seconds 882 msec
