                         Program Version 4.2.0 -  RELEASE  -
|  1> ! ri-mp2 cc-pvtz cc-pvtz/c TightSCF  NoKeepInts
|  2>
|  3> %scf
|  4>   MaxCore 4096
|  5> end
|  6> *xyz  0  1
|  7>     C       15.6581640   13.7689800   15.1138994
|  8>     C       15.0590060   15.0325625   15.7658706
|  9>     O       15.9043560   15.8681536   16.5777760
| 10>     C       17.2611960   15.8146172   16.7130554
| 11>     O       17.9223069   14.7969323   16.5882091
| 12>     C       17.6455901   16.8898927   17.6644756
| 13>     C       17.2487412   18.1848798   17.5067568
| 14>     C       16.4702142   18.7579845   16.3262950
| 15>     N       17.8798204   19.1974002   18.2386007
| 16>     C       18.8873549   19.0044716   19.1486114
| 17>     S       19.5677369   20.2866500   19.9465528
| 18>     N       19.2811110   17.7013750   19.3751211
| 19>     C       18.7624455   16.5188926   18.6370545
| 20>     C       17.9590308   15.9107189   19.8449819
| 21>     C       18.1545405   14.5151780   20.0752631
| 22>     C       17.4490395   13.7905125   21.0477314
| 23>     C       16.4925335   14.4455091   21.8264234
| 24>     C       16.2460201   15.8079772   21.6055027
| 25>     O       15.2956346   16.4214654   22.3554738
| 26>     C       16.9544717   16.5335623   20.6240559
| 27>     H       16.3422762   14.0651428   14.3061102
| 28>     H       14.8545100   13.1828381   14.6522682
| 29>     H       16.1949401   13.1212452   15.8150628
| 30>     H       14.3211631   15.5606102   15.1496047
| 31>     H       14.4709793   14.5869410   16.5783071
| 32>     H       15.3999160   18.5614444   16.4352714
| 33>     H       16.7983648   18.3261016   15.3693291
| 34>     H       16.5960693   19.8457927   16.2161798
| 35>     H       17.6391997   20.1621609   18.0615825
| 36>     H       20.0025141   17.5973022   20.0753584
| 37>     H       19.3183818   15.5934712   18.4853902
| 38>     H       18.8524617   13.9420742   19.4675372
| 39>     H       17.6387341   12.7244425   21.1840687
| 40>     H       15.9432485   13.8889210   22.5820112
| 41>     H       14.9705473   15.7711086   22.9995079
| 42>     H       16.7043796   17.5746840   20.4746968
| 43> *
| 44>
| 45>                          ****END OF INPUT****

CARTESIAN COORDINATES (ANGSTROEM)
---------------------------------
  C     15.658164   13.768980   15.113899
  C     15.059006   15.032562   15.765871
  O     15.904356   15.868154   16.577776
  C     17.261196   15.814617   16.713055
  O     17.922307   14.796932   16.588209
  C     17.645590   16.889893   17.664476
  C     17.248741   18.184880   17.506757
  C     16.470214   18.757984   16.326295
  N     17.879820   19.197400   18.238601
  C     18.887355   19.004472   19.148611
  S     19.567737   20.286650   19.946553
  N     19.281111   17.701375   19.375121
  C     18.762445   16.518893   18.637055
  C     17.959031   15.910719   19.844982
  C     18.154540   14.515178   20.075263
  C     17.449040   13.790513   21.047731
  C     16.492534   14.445509   21.826423
  C     16.246020   15.807977   21.605503
  O     15.295635   16.421465   22.355474
  C     16.954472   16.533562   20.624056
  H     16.342276   14.065143   14.306110
  H     14.854510   13.182838   14.652268
  H     16.194940   13.121245   15.815063
  H     14.321163   15.560610   15.149605
  H     14.470979   14.586941   16.578307
  H     15.399916   18.561444   16.435271
  H     16.798365   18.326102   15.369329
  H     16.596069   19.845793   16.216180
  H     17.639200   20.162161   18.061583
  H     20.002514   17.597302   20.075358
  H     19.318382   15.593471   18.485390
  H     18.852462   13.942074   19.467537
  H     17.638734   12.724443   21.184069
  H     15.943248   13.888921   22.582011
  H     14.970547   15.771109   22.999508
  H     16.704380   17.574684   20.474697

 Total Charge           Charge          ....    0
 Multiplicity           Mult            ....    1
 Number of Electrons    NEL             ....  154
 Basis Dimension        Dim             ....  828

ORBITAL ENERGIES
----------------

  NO   OCC          E(Eh)            E(eV)
   0   2.0000     -91.888589     -2500.4156
   1   2.0000     -20.603527      -560.6505
   2   2.0000     -20.588921      -560.2530
   3   2.0000     -20.549357      -559.1764
   4   2.0000     -15.627029      -425.2331
   5   2.0000     -15.610365      -424.7796
   6   2.0000     -11.397884      -310.1522
   7   2.0000     -11.384719      -309.7940
   8   2.0000     -11.333973      -308.4131
   9   2.0000     -11.313672      -307.8607
  10   2.0000     -11.307872      -307.7028
  11   2.0000     -11.301613      -307.5325
  12   2.0000     -11.264510      -306.5229
  13   2.0000     -11.262205      -306.4602
  14   2.0000     -11.254946      -306.2626
  15   2.0000     -11.244497      -305.9783
  16   2.0000     -11.232845      -305.6613
  17   2.0000     -11.232722      -305.6579
  18   2.0000     -11.228872      -305.5532
  19   2.0000     -11.227064      -305.5039
  20   2.0000      -8.893515      -242.0048
  21   2.0000      -6.575077      -178.9169
  22   2.0000      -6.573080      -178.8626
  23   2.0000      -6.572498      -178.8468
  24   2.0000      -1.452489       -39.5242
  25   2.0000      -1.408353       -38.3232
  26   2.0000      -1.361149       -37.0387
  27   2.0000      -1.336686       -36.3731
  28   2.0000      -1.236614       -33.6500
  29   2.0000      -1.148297       -31.2467
  30   2.0000      -1.119297       -30.4576
  31   2.0000      -1.043929       -28.4068
  32   2.0000      -1.036090       -28.1935
  33   2.0000      -1.005731       -27.3673
  34   2.0000      -0.994820       -27.0704
  35   2.0000      -0.981624       -26.7113
  36   2.0000      -0.923905       -25.1407
  37   2.0000      -0.903115       -24.5750
  38   2.0000      -0.847979       -23.0747
  39   2.0000      -0.830868       -22.6091
  40   2.0000      -0.824278       -22.4297
  41   2.0000      -0.815045       -22.1785
  42   2.0000      -0.741788       -20.1851
  43   2.0000      -0.726638       -19.7728
  44   2.0000      -0.717849       -19.5337
  45   2.0000      -0.693701       -18.8766
  46   2.0000      -0.686825       -18.6895
  47   2.0000      -0.681238       -18.5374
  48   2.0000      -0.675061       -18.3693
  49   2.0000      -0.667782       -18.1713
  50   2.0000      -0.650710       -17.7067
  51   2.0000      -0.642712       -17.4891
  52   2.0000      -0.633359       -17.2346
  53   2.0000      -0.604215       -16.4415
  54   2.0000      -0.596926       -16.2432
  55   2.0000      -0.595711       -16.2101
  56   2.0000      -0.590697       -16.0737
  57   2.0000      -0.586054       -15.9473
  58   2.0000      -0.572479       -15.5779
  59   2.0000      -0.567263       -15.4360
  60   2.0000      -0.551983       -15.0202
  61   2.0000      -0.546990       -14.8844
  62   2.0000      -0.543202       -14.7813
  63   2.0000      -0.522627       -14.2214
  64   2.0000      -0.509973       -13.8771
  65   2.0000      -0.509072       -13.8525
  66   2.0000      -0.500954       -13.6316
  67   2.0000      -0.495075       -13.4717
  68   2.0000      -0.481404       -13.0997
  69   2.0000      -0.459081       -12.4922
  70   2.0000      -0.449679       -12.2364
  71   2.0000      -0.442241       -12.0340
  72   2.0000      -0.344011        -9.3610
  73   2.0000      -0.340969        -9.2783
  74   2.0000      -0.325852        -8.8669
  75   2.0000      -0.312514        -8.5039
  76   2.0000      -0.307708        -8.3732
  77   0.0000       0.068634         1.8676
  78   0.0000       0.113420         3.0863
  79   0.0000       0.119034         3.2391
  80   0.0000       0.137392         3.7386
  81   0.0000       0.138895         3.7795

MULLIKEN ATOMIC CHARGES
-----------------------
   0 C :   -0.287923
   1 C :    0.027360
   2 O :   -0.329399
   3 C :    0.413438
   4 O :   -0.420008
   5 C :   -0.119332
   6 C :    0.120208
   7 C :   -0.300037
   8 N :   -0.121397
   9 C :    0.198986
  10 S :   -0.436717
  11 N :   -0.207049
  12 C :    0.071232
  13 C :    0.037996
  14 C :   -0.213606
  15 C :   -0.123309
  16 C :   -0.279019
  17 C :    0.310756
  18 O :   -0.360777
  19 C :   -0.248215
  20 H :    0.089899
  21 H :    0.099870
  22 H :    0.127825
  23 H :    0.102294
  24 H :    0.090072
  25 H :    0.133140
  26 H :    0.118581
  27 H :    0.107974
  28 H :    0.195506
  29 H :    0.189879
  30 H :    0.192942
  31 H :    0.136053
  32 H :    0.155780
  33 H :    0.124773
  34 H :    0.242242
  35 H :    0.159987
Sum of atomic charges:    0.0000000

LOEWDIN ATOMIC CHARGES
----------------------
   0 C :    0.103334
   1 C :   -0.024938
   2 O :    0.321312
   3 C :   -0.424436
   4 O :    0.111840
   5 C :   -0.095191
   6 C :   -0.065424
   7 C :    0.126390
   8 N :    0.398864
   9 C :   -0.452915
  10 S :   -0.036832
  11 N :    0.394276
  12 C :    0.003568
  13 C :   -0.029832
  14 C :    0.000032
  15 C :    0.033870
  16 C :   -0.010758
  17 C :   -0.186464
  18 O :    0.388496
  19 C :    0.025435
  20 H :   -0.030835
  21 H :   -0.024163
  22 H :   -0.021279
  23 H :   -0.030029
  24 H :   -0.026544
  25 H :   -0.014508
  26 H :   -0.009515
  27 H :   -0.016694
  28 H :   -0.058184
  29 H :   -0.066661
  30 H :   -0.012879
  31 H :   -0.031579
  32 H :   -0.019354
  33 H :   -0.035411
  34 H :   -0.151451
  35 H :   -0.031543

  Mayer bond orders larger than 0.100000
B(  0-C ,  1-C ) :   0.9804 B(  0-C , 20-H ) :   0.9769 B(  0-C , 21-H ) :   0.9727
B(  0-C , 22-H ) :   0.9693 B(  1-C ,  2-O ) :   0.9124 B(  1-C , 23-H ) :   0.9762
B(  1-C , 24-H ) :   0.9820 B(  2-O ,  3-C ) :   1.1556 B(  3-C ,  4-O ) :   1.9962
B(  3-C ,  5-C ) :   1.0125 B(  5-C ,  6-C ) :   1.6941 B(  5-C , 12-C ) :   0.9760
B(  6-C ,  7-C ) :   0.9303 B(  6-C ,  8-N ) :   1.1248 B(  7-C , 25-H ) :   0.9688
B(  7-C , 26-H ) :   0.9714 B(  7-C , 27-H ) :   0.9913 B(  8-N ,  9-C ) :   1.1859
B(  8-N , 28-H ) :   0.9483 B(  9-C , 10-S ) :   1.6080 B(  9-C , 11-N ) :   1.2962
B( 11-N , 12-C ) :   1.0028 B( 11-N , 29-H ) :   0.9522 B( 12-C , 13-C ) :   0.8942
B( 12-C , 30-H ) :   0.9769 B( 13-C , 14-C ) :   1.3834 B( 13-C , 19-C ) :   1.3848
B( 14-C , 15-C ) :   1.3819 B( 14-C , 31-H ) :   0.9725 B( 15-C , 16-C ) :   1.3653
B( 15-C , 32-H ) :   0.9721 B( 16-C , 17-C ) :   1.3221 B( 16-C , 33-H ) :   0.9880
B( 17-C , 18-O ) :   1.1019 B( 17-C , 19-C ) :   1.3856 B( 18-O , 34-H ) :   0.9787
B( 19-C , 35-H ) :   0.9528

MP2 TOTAL ENERGY:    -1274.268632381 Eh
FINAL SINGLE POINT ENERGY     -1274.268632380695

DIPOLE MOMENT
-------------
                                X             Y             Z
Electronic contribution:     10.07564      10.73083      10.76608
Nuclear contribution   :    -11.71577     -11.88553     -11.89652
                        -----------------------------------------
Total Dipole Moment    :     -1.64013      -1.15470      -1.13043
                        -----------------------------------------
Magnitude (a.u.)       :      2.30244
Magnitude (Debye)      :      5.85235

Rotational constants in cm-1:     0.011031     0.008925     0.006062
Rotational constants in MHz :   330.707712   267.550228   181.719649

                             ****ORCA TERMINATED NORMALLY****
TOTAL RUN TIME: 0 days 1 hours 29 minutes 1 seconds 366 msec
