                         Program Version 4.2.0 -  RELEASE  -
|  1> ! ri-mp2 cc-pvtz cc-pvtz/c TightSCF  NoKeepInts
|  2>
|  3> %scf
|  4>   MaxCore 4096
|  5> end
|  6> *xyz  0  1
|  7>     C       15.8666635   13.4386853   15.6499851
|  8>     C       15.3647952   14.3958370   16.7544194
|  9>     O       16.1583219   15.5258326   17.1485130
| 10>     C       16.5954448   16.6435546   16.4927723
| 11>     O       16.0638858   17.1225616   15.5071093
| 12>     C       17.3721712   17.3692308   17.5489309
| 13>     C       17.2802717   18.7150402   17.7518101
| 14>     C       16.4634184   19.7342689   16.9839499
| 15>     N       18.3040967   19.2749711   18.5369580
| 16>     C       19.3509320   18.6308969   19.1437921
| 17>     S       20.4671099   19.4703049   20.0341580
| 18>     N       19.4194249   17.2694890   18.9798153
| 19>     C       18.4794512   16.4883139   18.1481369
| 20>     C       17.8692328   15.8211497   19.4192218
| 21>     C       18.0090640   14.4050066   19.4564904
| 22>     C       17.2750490   13.5913925   20.3279715
| 23>     C       16.3826886   14.1841177   21.2238227
| 24>     C       16.2250020   15.5771502   21.2208158
| 25>     O       15.3204337   16.1205632   22.0723356
| 26>     C       16.9389545   16.3927369   20.3202653
| 27>     H       15.0919999   12.6661168   15.5283854
| 28>     H       16.7602262   12.8948674   15.9902429
| 29>     H       16.0527794   13.8889425   14.6713291
| 30>     H       14.4447273   14.8395527   16.3572923
| 31>     H       15.1037778   13.8326880   17.6555934
| 32>     H       15.3933910   19.6231749   17.1859057
| 33>     H       16.6139972   19.6111592   15.9025915
| 34>     H       16.7502542   20.7683517   17.2177962
| 35>     H       18.3300807   20.2789228   18.6398715
| 36>     H       20.1613972   16.8168732   19.4968590
| 37>     H       18.7104076   15.5540870   17.6301871
| 38>     H       18.6363363   13.8918270   18.7317624
| 39>     H       17.3764207   12.5069255   20.2796016
| 40>     H       15.8037479   13.5569431   21.8958172
| 41>     H       14.9900304   15.3977800   22.6305792
| 42>     H       16.7210120   17.4526798   20.2989175
| 43> *
| 44>
| 45>                          ****END OF INPUT****

CARTESIAN COORDINATES (ANGSTROEM)
---------------------------------
  C     15.866663   13.438685   15.649985
  C     15.364795   14.395837   16.754419
  O     16.158322   15.525833   17.148513
  C     16.595445   16.643555   16.492772
  O     16.063886   17.122562   15.507109
  C     17.372171   17.369231   17.548931
  C     17.280272   18.715040   17.751810
  C     16.463418   19.734269   16.983950
  N     18.304097   19.274971   18.536958
  C     19.350932   18.630897   19.143792
  S     20.467110   19.470305   20.034158
  N     19.419425   17.269489   18.979815
  C     18.479451   16.488314   18.148137
  C     17.869233   15.821150   19.419222
  C     18.009064   14.405007   19.456490
  C     17.275049   13.591392   20.327971
  C     16.382689   14.184118   21.223823
  C     16.225002   15.577150   21.220816
  O     15.320434   16.120563   22.072336
  C     16.938955   16.392737   20.320265
  H     15.092000   12.666117   15.528385
  H     16.760226   12.894867   15.990243
  H     16.052779   13.888942   14.671329
  H     14.444727   14.839553   16.357292
  H     15.103778   13.832688   17.655593
  H     15.393391   19.623175   17.185906
  H     16.613997   19.611159   15.902591
  H     16.750254   20.768352   17.217796
  H     18.330081   20.278923   18.639872
  H     20.161397   16.816873   19.496859
  H     18.710408   15.554087   17.630187
  H     18.636336   13.891827   18.731762
  H     17.376421   12.506925   20.279602
  H     15.803748   13.556943   21.895817
  H     14.990030   15.397780   22.630579
  H     16.721012   17.452680   20.298918

 Total Charge           Charge          ....    0
 Multiplicity           Mult            ....    1
 Number of Electrons    NEL             ....  154
 Basis Dimension        Dim             ....  828

ORBITAL ENERGIES
----------------

  NO   OCC          E(Eh)            E(eV)
   0   2.0000     -91.886940     -2500.3708
   1   2.0000     -20.595306      -560.4268
   2   2.0000     -20.592431      -560.3485
   3   2.0000     -20.556802      -559.3790
   4   2.0000     -15.621851      -425.0922
   5   2.0000     -15.611642      -424.8144
   6   2.0000     -11.401178      -310.2418
   7   2.0000     -11.382926      -309.7452
   8   2.0000     -11.332272      -308.3668
   9   2.0000     -11.318220      -307.9844
  10   2.0000     -11.311499      -307.8015
  11   2.0000     -11.303209      -307.5759
  12   2.0000     -11.262660      -306.4726
  13   2.0000     -11.259888      -306.3971
  14   2.0000     -11.256422      -306.3028
  15   2.0000     -11.249275      -306.1083
  16   2.0000     -11.238623      -305.8185
  17   2.0000     -11.234520      -305.7068
  18   2.0000     -11.234118      -305.6959
  19   2.0000     -11.229882      -305.5806
  20   2.0000      -8.891910      -241.9612
  21   2.0000      -6.573484      -178.8736
  22   2.0000      -6.571468      -178.8187
  23   2.0000      -6.570898      -178.8032
  24   2.0000      -1.449421       -39.4408
  25   2.0000      -1.412572       -38.4380
  26   2.0000      -1.362206       -37.0675
  27   2.0000      -1.336371       -36.3645
  28   2.0000      -1.240997       -33.7693
  29   2.0000      -1.151282       -31.3280
  30   2.0000      -1.118757       -30.4429
  31   2.0000      -1.047042       -28.4914
  32   2.0000      -1.038764       -28.2662
  33   2.0000      -1.009508       -27.4701
  34   2.0000      -0.997076       -27.1318
  35   2.0000      -0.980216       -26.6730
  36   2.0000      -0.924493       -25.1567
  37   2.0000      -0.908492       -24.7213
  38   2.0000      -0.848759       -23.0959
  39   2.0000      -0.832206       -22.6455
  40   2.0000      -0.826786       -22.4980
  41   2.0000      -0.812135       -22.0993
  42   2.0000      -0.746358       -20.3094
  43   2.0000      -0.732479       -19.9318
  44   2.0000      -0.720585       -19.6081
  45   2.0000      -0.696091       -18.9416
  46   2.0000      -0.691322       -18.8118
  47   2.0000      -0.683330       -18.5944
  48   2.0000      -0.669986       -18.2312
  49   2.0000      -0.659927       -17.9575
  50   2.0000      -0.647194       -17.6110
  51   2.0000      -0.640984       -17.4421
  52   2.0000      -0.632268       -17.2049
  53   2.0000      -0.621217       -16.9042
  54   2.0000      -0.603772       -16.4295
  55   2.0000      -0.595006       -16.1909
  56   2.0000      -0.593882       -16.1604
  57   2.0000      -0.576705       -15.6930
  58   2.0000      -0.570559       -15.5257
  59   2.0000      -0.570018       -15.5110
  60   2.0000      -0.556086       -15.1319
  61   2.0000      -0.548860       -14.9352
  62   2.0000      -0.545206       -14.8358
  63   2.0000      -0.535116       -14.5612
  64   2.0000      -0.517438       -14.0802
  65   2.0000      -0.510199       -13.8832
  66   2.0000      -0.500396       -13.6165
  67   2.0000      -0.498444       -13.5633
  68   2.0000      -0.480200       -13.0669
  69   2.0000      -0.454013       -12.3543
  70   2.0000      -0.452396       -12.3103
  71   2.0000      -0.451577       -12.2880
  72   2.0000      -0.347431        -9.4541
  73   2.0000      -0.337047        -9.1715
  74   2.0000      -0.324932        -8.8418
  75   2.0000      -0.315075        -8.5736
  76   2.0000      -0.306200        -8.3321
  77   0.0000       0.070158         1.9091
  78   0.0000       0.112324         3.0565
  79   0.0000       0.120140         3.2692
  80   0.0000       0.130105         3.5403
  81   0.0000       0.137322         3.7367

MULLIKEN ATOMIC CHARGES
-----------------------
   0 C :   -0.293180
   1 C :    0.019334
   2 O :   -0.343303
   3 C :    0.410129
   4 O :   -0.401902
   5 C :   -0.154056
   6 C :    0.125292
   7 C :   -0.284026
   8 N :   -0.123855
   9 C :    0.209419
  10 S :   -0.441873
  11 N :   -0.193184
  12 C :    0.069919
  13 C :    0.085625
  14 C :   -0.237019
  15 C :   -0.130670
  16 C :   -0.289088
  17 C :    0.314324
  18 O :   -0.359700
  19 C :   -0.246403
  20 H :    0.101309
  21 H :    0.086291
  22 H :    0.119965
  23 H :    0.102243
  24 H :    0.128025
  25 H :    0.126842
  26 H :    0.145214
  27 H :    0.099470
  28 H :    0.190853
  29 H :    0.184136
  30 H :    0.165141
  31 H :    0.129098
  32 H :    0.158082
  33 H :    0.125970
  34 H :    0.243001
  35 H :    0.158577
Sum of atomic charges:   -0.0000000

LOEWDIN ATOMIC CHARGES
----------------------
   0 C :    0.108247
   1 C :   -0.026449
   2 O :    0.329646
   3 C :   -0.418005
   4 O :    0.107646
   5 C :   -0.095691
   6 C :   -0.065741
   7 C :    0.132460
   8 N :    0.397671
   9 C :   -0.454576
  10 S :   -0.038357
  11 N :    0.397258
  12 C :   -0.009602
  13 C :   -0.029276
  14 C :   -0.009168
  15 C :    0.031068
  16 C :   -0.015497
  17 C :   -0.185808
  18 O :    0.390894
  19 C :    0.027964
  20 H :   -0.015762
  21 H :   -0.032286
  22 H :   -0.026283
  23 H :   -0.030575
  24 H :   -0.019431
  25 H :   -0.009938
  26 H :   -0.001788
  27 H :   -0.018532
  28 H :   -0.062023
  29 H :   -0.064464
  30 H :   -0.014054
  31 H :   -0.039212
  32 H :   -0.020723
  33 H :   -0.036734
  34 H :   -0.150889
  35 H :   -0.031990

  Mayer bond orders larger than 0.100000
B(  0-C ,  1-C ) :   0.9602 B(  0-C , 20-H ) :   0.9735 B(  0-C , 21-H ) :   0.9778
B(  0-C , 22-H ) :   0.9742 B(  1-C ,  2-O ) :   0.9013 B(  1-C , 23-H ) :   0.9853
B(  1-C , 24-H ) :   0.9756 B(  2-O ,  3-C ) :   1.1548 B(  3-C ,  4-O ) :   2.0327
B(  3-C ,  5-C ) :   1.0063 B(  5-C ,  6-C ) :   1.6896 B(  5-C , 12-C ) :   1.0000
B(  6-C ,  7-C ) :   0.9513 B(  6-C ,  8-N ) :   1.1358 B(  7-C , 25-H ) :   0.9719
B(  7-C , 26-H ) :   0.9562 B(  7-C , 27-H ) :   0.9869 B(  8-N ,  9-C ) :   1.1893
B(  8-N , 28-H ) :   0.9520 B(  9-C , 10-S ) :   1.5967 B(  9-C , 11-N ) :   1.3067
B( 11-N , 12-C ) :   0.9776 B( 11-N , 29-H ) :   0.9542 B( 12-C , 13-C ) :   0.9045
B( 12-C , 30-H ) :   0.9867 B( 13-C , 14-C ) :   1.3413 B( 13-C , 19-C ) :   1.3849
B( 14-C , 15-C ) :   1.3901 B( 14-C , 31-H ) :   0.9810 B( 15-C , 16-C ) :   1.3602
B( 15-C , 32-H ) :   0.9713 B( 16-C , 17-C ) :   1.3169 B( 16-C , 33-H ) :   0.9883
B( 17-C , 18-O ) :   1.1035 B( 17-C , 19-C ) :   1.3917 B( 18-O , 34-H ) :   0.9780
B( 19-C , 35-H ) :   0.9552

MP2 TOTAL ENERGY:    -1274.265009904 Eh
FINAL SINGLE POINT ENERGY     -1274.265009904026

DIPOLE MOMENT
-------------
                                X             Y             Z
Electronic contribution:      9.70737      10.92280       7.87780
Nuclear contribution   :    -11.08023     -12.69474      -8.42897
                        -----------------------------------------
Total Dipole Moment    :     -1.37286      -1.77194      -0.55118
                        -----------------------------------------
Magnitude (a.u.)       :      2.30831
Magnitude (Debye)      :      5.86727

Rotational constants in cm-1:     0.012010     0.008888     0.006391
Rotational constants in MHz :   360.040334   266.459849   191.602398

                             ****ORCA TERMINATED NORMALLY****
TOTAL RUN TIME: 0 days 1 hours 39 minutes 11 seconds 366 msec
