                         Program Version 4.2.0 -  RELEASE  -
|  1> ! ri-mp2 cc-pvtz cc-pvtz/c TightSCF  NoKeepInts
|  2>
|  3> %scf
|  4>   MaxCore 4096
|  5> end
|  6> *xyz  0  1
|  7>     C       15.7251842   13.8516888   14.9246588
|  8>     C       15.0265459   15.0067865   15.6705710
|  9>     O       15.8407630   15.8285533   16.5409714
| 10>     C       17.2040927   15.8195604   16.6889164
| 11>     O       17.9236417   14.8673032   16.4384284
| 12>     C       17.5896203   16.8427596   17.7005737
| 13>     C       17.1340778   18.1236681   17.5709972
| 14>     C       16.3578462   18.7103586   16.4004006
| 15>     N       17.8652951   19.0872353   18.2864228
| 16>     C       18.9082033   18.8866897   19.1524086
| 17>     S       19.6686522   20.1692505   19.8722834
| 18>     N       19.2737773   17.5841736   19.3873815
| 19>     C       18.7275650   16.4332698   18.6356628
| 20>     C       17.9637670   15.9099246   19.8945418
| 21>     C       18.1384649   14.5229928   20.1487521
| 22>     C       17.4411150   13.8397664   21.1532559
| 23>     C       16.5259660   14.5376443   21.9452985
| 24>     C       16.3112549   15.9024646   21.7098079
| 25>     O       15.3944355   16.5501160   22.4712132
| 26>     C       17.0047476   16.5861606   20.6917565
| 27>     H       16.4269868   14.2713883   14.1887921
| 28>     H       14.9845933   13.2729632   14.3601318
| 29>     H       16.2699567   13.1697648   15.5847615
| 30>     H       14.3603075   15.5937096   15.0262809
| 31>     H       14.3704324   14.4841554   16.3799544
| 32>     H       15.2837976   18.5255261   16.5013094
| 33>     H       16.6885190   18.2758176   15.4461311
| 34>     H       16.5037980   19.7948304   16.2997493
| 35>     H       17.6722500   20.0609930   18.1036695
| 36>     H       20.0329829   17.4641649   20.0440207
| 37>     H       19.2977887   15.5259397   18.4140649
| 38>     H       18.8038479   13.9282523   19.5275144
| 39>     H       17.5999296   12.7708547   21.2969794
| 40>     H       15.9779727   14.0102835   22.7208687
| 41>     H       15.0724438   15.9115727   23.1281487
| 42>     H       16.7763748   17.6314111   20.5273147
| 43> *
| 44>
| 45>                          ****END OF INPUT****

CARTESIAN COORDINATES (ANGSTROEM)
---------------------------------
  C     15.725184   13.851689   14.924659
  C     15.026546   15.006786   15.670571
  O     15.840763   15.828553   16.540971
  C     17.204093   15.819560   16.688916
  O     17.923642   14.867303   16.438428
  C     17.589620   16.842760   17.700574
  C     17.134078   18.123668   17.570997
  C     16.357846   18.710359   16.400401
  N     17.865295   19.087235   18.286423
  C     18.908203   18.886690   19.152409
  S     19.668652   20.169251   19.872283
  N     19.273777   17.584174   19.387381
  C     18.727565   16.433270   18.635663
  C     17.963767   15.909925   19.894542
  C     18.138465   14.522993   20.148752
  C     17.441115   13.839766   21.153256
  C     16.525966   14.537644   21.945298
  C     16.311255   15.902465   21.709808
  O     15.394435   16.550116   22.471213
  C     17.004748   16.586161   20.691757
  H     16.426987   14.271388   14.188792
  H     14.984593   13.272963   14.360132
  H     16.269957   13.169765   15.584761
  H     14.360307   15.593710   15.026281
  H     14.370432   14.484155   16.379954
  H     15.283798   18.525526   16.501309
  H     16.688519   18.275818   15.446131
  H     16.503798   19.794830   16.299749
  H     17.672250   20.060993   18.103669
  H     20.032983   17.464165   20.044021
  H     19.297789   15.525940   18.414065
  H     18.803848   13.928252   19.527514
  H     17.599930   12.770855   21.296979
  H     15.977973   14.010283   22.720869
  H     15.072444   15.911573   23.128149
  H     16.776375   17.631411   20.527315

 Total Charge           Charge          ....    0
 Multiplicity           Mult            ....    1
 Number of Electrons    NEL             ....  154
 Basis Dimension        Dim             ....  828

ORBITAL ENERGIES
----------------

  NO   OCC          E(Eh)            E(eV)
   0   2.0000     -91.886999     -2500.3724
   1   2.0000     -20.602934      -560.6343
   2   2.0000     -20.589945      -560.2809
   3   2.0000     -20.547969      -559.1387
   4   2.0000     -15.623116      -425.1266
   5   2.0000     -15.608318      -424.7239
   6   2.0000     -11.397723      -310.1478
   7   2.0000     -11.382270      -309.7273
   8   2.0000     -11.334224      -308.4199
   9   2.0000     -11.314630      -307.8867
  10   2.0000     -11.308507      -307.7201
  11   2.0000     -11.304324      -307.6063
  12   2.0000     -11.267093      -306.5932
  13   2.0000     -11.263490      -306.4951
  14   2.0000     -11.256515      -306.3053
  15   2.0000     -11.244934      -305.9902
  16   2.0000     -11.233663      -305.6835
  17   2.0000     -11.232614      -305.6550
  18   2.0000     -11.227485      -305.5154
  19   2.0000     -11.225768      -305.4687
  20   2.0000      -8.891996      -241.9635
  21   2.0000      -6.573572      -178.8760
  22   2.0000      -6.571556      -178.8211
  23   2.0000      -6.570983      -178.8055
  24   2.0000      -1.447929       -39.4002
  25   2.0000      -1.409935       -38.3663
  26   2.0000      -1.359567       -36.9957
  27   2.0000      -1.337205       -36.3872
  28   2.0000      -1.239982       -33.7416
  29   2.0000      -1.149466       -31.2786
  30   2.0000      -1.119720       -30.4691
  31   2.0000      -1.043648       -28.3991
  32   2.0000      -1.035921       -28.1888
  33   2.0000      -1.007273       -27.4093
  34   2.0000      -0.996082       -27.1048
  35   2.0000      -0.980909       -26.6919
  36   2.0000      -0.925021       -25.1711
  37   2.0000      -0.899562       -24.4783
  38   2.0000      -0.850704       -23.1488
  39   2.0000      -0.831496       -22.6262
  40   2.0000      -0.824658       -22.4401
  41   2.0000      -0.815208       -22.1829
  42   2.0000      -0.738106       -20.0849
  43   2.0000      -0.728644       -19.8274
  44   2.0000      -0.716680       -19.5019
  45   2.0000      -0.693727       -18.8773
  46   2.0000      -0.688311       -18.7299
  47   2.0000      -0.679417       -18.4879
  48   2.0000      -0.675304       -18.3760
  49   2.0000      -0.663433       -18.0529
  50   2.0000      -0.653363       -17.7789
  51   2.0000      -0.642432       -17.4815
  52   2.0000      -0.633131       -17.2284
  53   2.0000      -0.603289       -16.4163
  54   2.0000      -0.599441       -16.3116
  55   2.0000      -0.595989       -16.2177
  56   2.0000      -0.592078       -16.1113
  57   2.0000      -0.588479       -16.0133
  58   2.0000      -0.573411       -15.6033
  59   2.0000      -0.568340       -15.4653
  60   2.0000      -0.554378       -15.0854
  61   2.0000      -0.548556       -14.9270
  62   2.0000      -0.542926       -14.7738
  63   2.0000      -0.524101       -14.2615
  64   2.0000      -0.513084       -13.9617
  65   2.0000      -0.508747       -13.8437
  66   2.0000      -0.500879       -13.6296
  67   2.0000      -0.496413       -13.5081
  68   2.0000      -0.484208       -13.1760
  69   2.0000      -0.457637       -12.4529
  70   2.0000      -0.449142       -12.2218
  71   2.0000      -0.446447       -12.1484
  72   2.0000      -0.343036        -9.3345
  73   2.0000      -0.340633        -9.2691
  74   2.0000      -0.323547        -8.8042
  75   2.0000      -0.313857        -8.5405
  76   2.0000      -0.306125        -8.3301
  77   0.0000       0.066895         1.8203
  78   0.0000       0.113438         3.0868
  79   0.0000       0.119915         3.2631
  80   0.0000       0.136693         3.7196
  81   0.0000       0.138591         3.7713

MULLIKEN ATOMIC CHARGES
-----------------------
   0 C :   -0.290955
   1 C :    0.041123
   2 O :   -0.341880
   3 C :    0.401600
   4 O :   -0.419621
   5 C :   -0.093217
   6 C :    0.110071
   7 C :   -0.295804
   8 N :   -0.126017
   9 C :    0.190701
  10 S :   -0.439996
  11 N :   -0.195626
  12 C :    0.082710
  13 C :    0.031087
  14 C :   -0.208037
  15 C :   -0.122348
  16 C :   -0.282077
  17 C :    0.312829
  18 O :   -0.360087
  19 C :   -0.247596
  20 H :    0.092830
  21 H :    0.099700
  22 H :    0.125429
  23 H :    0.095306
  24 H :    0.090965
  25 H :    0.133989
  26 H :    0.120501
  27 H :    0.111776
  28 H :    0.189464
  29 H :    0.188434
  30 H :    0.185655
  31 H :    0.136981
  32 H :    0.155662
  33 H :    0.124399
  34 H :    0.242568
  35 H :    0.159480
Sum of atomic charges:   -0.0000000

LOEWDIN ATOMIC CHARGES
----------------------
   0 C :    0.102817
   1 C :   -0.017674
   2 O :    0.305675
   3 C :   -0.420776
   4 O :    0.108556
   5 C :   -0.088658
   6 C :   -0.062290
   7 C :    0.127661
   8 N :    0.396807
   9 C :   -0.459104
  10 S :   -0.037901
  11 N :    0.399501
  12 C :    0.003578
  13 C :   -0.035132
  14 C :   -0.003973
  15 C :    0.035999
  16 C :   -0.010652
  17 C :   -0.187634
  18 O :    0.390264
  19 C :    0.026546
  20 H :   -0.028516
  21 H :   -0.025851
  22 H :   -0.022924
  23 H :   -0.030619
  24 H :   -0.025489
  25 H :   -0.012853
  26 H :   -0.008002
  27 H :   -0.015914
  28 H :   -0.063204
  29 H :   -0.064174
  30 H :   -0.005584
  31 H :   -0.032149
  32 H :   -0.019843
  33 H :   -0.036150
  34 H :   -0.151336
  35 H :   -0.030996

  Mayer bond orders larger than 0.100000
B(  0-C ,  1-C ) :   0.9801 B(  0-C , 20-H ) :   0.9765 B(  0-C , 21-H ) :   0.9724
B(  0-C , 22-H ) :   0.9700 B(  1-C ,  2-O ) :   0.9104 B(  1-C , 23-H ) :   0.9767
B(  1-C , 24-H ) :   0.9811 B(  2-O ,  3-C ) :   1.1512 B(  3-C ,  4-O ) :   2.0006
B(  3-C ,  5-C ) :   0.9977 B(  5-C ,  6-C ) :   1.7023 B(  5-C , 12-C ) :   0.9813
B(  6-C ,  7-C ) :   0.9316 B(  6-C ,  8-N ) :   1.1046 B(  7-C , 25-H ) :   0.9706
B(  7-C , 26-H ) :   0.9699 B(  7-C , 27-H ) :   0.9885 B(  8-N ,  9-C ) :   1.1914
B(  8-N , 28-H ) :   0.9522 B(  9-C , 10-S ) :   1.6036 B(  9-C , 11-N ) :   1.2980
B( 11-N , 12-C ) :   0.9923 B( 11-N , 29-H ) :   0.9535 B( 12-C , 13-C ) :   0.9050
B( 12-C , 30-H ) :   0.9790 B( 13-C , 14-C ) :   1.3800 B( 13-C , 19-C ) :   1.3830
B( 14-C , 15-C ) :   1.3741 B( 14-C , 31-H ) :   0.9739 B( 15-C , 16-C ) :   1.3732
B( 15-C , 32-H ) :   0.9719 B( 16-C , 17-C ) :   1.3144 B( 16-C , 33-H ) :   0.9886
B( 17-C , 18-O ) :   1.1037 B( 17-C , 19-C ) :   1.3944 B( 18-O , 34-H ) :   0.9785
B( 19-C , 35-H ) :   0.9519

MP2 TOTAL ENERGY:    -1274.271062026 Eh
FINAL SINGLE POINT ENERGY     -1274.271062026252

DIPOLE MOMENT
-------------
                                X             Y             Z
Electronic contribution:      9.99939      10.28529      11.22000
Nuclear contribution   :    -11.71584     -11.48753     -12.26527
                        -----------------------------------------
Total Dipole Moment    :     -1.71645      -1.20224      -1.04527
                        -----------------------------------------
Magnitude (a.u.)       :      2.34183
Magnitude (Debye)      :      5.95246

Rotational constants in cm-1:     0.011049     0.008826     0.006044
Rotational constants in MHz :   331.252136   264.582456   181.206340

                             ****ORCA TERMINATED NORMALLY****
TOTAL RUN TIME: 0 days 1 hours 35 minutes 26 seconds 904 msec
