                         Program Version 4.2.0 -  RELEASE  -
|  1> ! ri-mp2 cc-pvtz cc-pvtz/c TightSCF  NoKeepInts
|  2>
|  3> %scf
|  4>   MaxCore 4096
|  5> end
|  6> *xyz  0  1
|  7>     C       15.7440342   13.7511156   14.9813226
|  8>     C       15.1595718   15.1524822   15.2616260
|  9>     O       15.8779222   15.9902010   16.2055268
| 10>     C       17.0784720   15.7425365   16.8138472
| 11>     O       17.5277659   14.6174343   16.9727440
| 12>     C       17.4976010   16.8543748   17.7310612
| 13>     C       17.2027229   18.1760316   17.5223640
| 14>     C       16.3214121   18.7767752   16.4452601
| 15>     N       17.8971166   19.1745548   18.2239815
| 16>     C       18.9415987   18.9759223   19.0868823
| 17>     S       19.7263150   20.2206669   19.8331551
| 18>     N       19.2883077   17.6656431   19.3181123
| 19>     C       18.6740226   16.5033790   18.6470995
| 20>     C       17.9161753   15.8380258   19.8966084
| 21>     C       18.0850283   14.4395372   20.1296818
| 22>     C       17.4342181   13.7532770   21.1866722
| 23>     C       16.5663276   14.4564095   22.0385528
| 24>     C       16.3561206   15.8239475   21.8101623
| 25>     O       15.5089755   16.5113698   22.6298086
| 26>     C       17.0111672   16.4941285   20.7533068
| 27>     H       16.7504073   13.8663064   14.5495587
| 28>     H       15.1348839   13.2311577   14.2322962
| 29>     H       15.8091940   13.1194068   15.8718596
| 30>     H       14.8900670   15.6645170   14.3352184
| 31>     H       14.2076810   14.9576422   15.7916407
| 32>     H       15.2858866   18.4861411   16.6395930
| 33>     H       16.5845561   18.4386174   15.4296075
| 34>     H       16.3500593   19.8771848   16.4238472
| 35>     H       17.6356428   20.1417004   18.0964434
| 36>     H       20.0788796   17.5284625   19.9406802
| 37>     H       19.2176443   15.6113294   18.4140533
| 38>     H       18.7299305   13.8456463   19.4815083
| 39>     H       17.5973980   12.6793604   21.3495332
| 40>     H       16.0615272   13.9442889   22.8558015
| 41>     H       15.1881802   15.8977752   23.3100860
| 42>     H       16.8101844   17.5446516   20.6244999
| 43> *
| 44>
| 45>                          ****END OF INPUT****

CARTESIAN COORDINATES (ANGSTROEM)
---------------------------------
  C     15.744034   13.751116   14.981323
  C     15.159572   15.152482   15.261626
  O     15.877922   15.990201   16.205527
  C     17.078472   15.742536   16.813847
  O     17.527766   14.617434   16.972744
  C     17.497601   16.854375   17.731061
  C     17.202723   18.176032   17.522364
  C     16.321412   18.776775   16.445260
  N     17.897117   19.174555   18.223982
  C     18.941599   18.975922   19.086882
  S     19.726315   20.220667   19.833155
  N     19.288308   17.665643   19.318112
  C     18.674023   16.503379   18.647099
  C     17.916175   15.838026   19.896608
  C     18.085028   14.439537   20.129682
  C     17.434218   13.753277   21.186672
  C     16.566328   14.456409   22.038553
  C     16.356121   15.823947   21.810162
  O     15.508975   16.511370   22.629809
  C     17.011167   16.494128   20.753307
  H     16.750407   13.866306   14.549559
  H     15.134884   13.231158   14.232296
  H     15.809194   13.119407   15.871860
  H     14.890067   15.664517   14.335218
  H     14.207681   14.957642   15.791641
  H     15.285887   18.486141   16.639593
  H     16.584556   18.438617   15.429607
  H     16.350059   19.877185   16.423847
  H     17.635643   20.141700   18.096443
  H     20.078880   17.528462   19.940680
  H     19.217644   15.611329   18.414053
  H     18.729930   13.845646   19.481508
  H     17.597398   12.679360   21.349533
  H     16.061527   13.944289   22.855801
  H     15.188180   15.897775   23.310086
  H     16.810184   17.544652   20.624500

 Total Charge           Charge          ....    0
 Multiplicity           Mult            ....    1
 Number of Electrons    NEL             ....  154
 Basis Dimension        Dim             ....  828

ORBITAL ENERGIES
----------------

  NO   OCC          E(Eh)            E(eV)
   0   2.0000     -91.890859     -2500.4774
   1   2.0000     -20.602889      -560.6331
   2   2.0000     -20.585211      -560.1521
   3   2.0000     -20.544450      -559.0429
   4   2.0000     -15.630792      -425.3355
   5   2.0000     -15.611497      -424.8104
   6   2.0000     -11.399724      -310.2023
   7   2.0000     -11.385650      -309.8193
   8   2.0000     -11.340825      -308.5995
   9   2.0000     -11.311328      -307.7969
  10   2.0000     -11.307477      -307.6921
  11   2.0000     -11.303586      -307.5862
  12   2.0000     -11.265401      -306.5471
  13   2.0000     -11.261779      -306.4486
  14   2.0000     -11.250991      -306.1550
  15   2.0000     -11.243786      -305.9590
  16   2.0000     -11.230616      -305.6006
  17   2.0000     -11.227490      -305.5155
  18   2.0000     -11.226889      -305.4992
  19   2.0000     -11.225942      -305.4734
  20   2.0000      -8.895977      -242.0718
  21   2.0000      -6.577559      -178.9845
  22   2.0000      -6.575536      -178.9294
  23   2.0000      -6.574943      -178.9133
  24   2.0000      -1.447794       -39.3965
  25   2.0000      -1.401197       -38.1285
  26   2.0000      -1.356518       -36.9127
  27   2.0000      -1.339783       -36.4573
  28   2.0000      -1.236883       -33.6573
  29   2.0000      -1.142513       -31.0894
  30   2.0000      -1.116559       -30.3831
  31   2.0000      -1.040497       -28.3134
  32   2.0000      -1.033026       -28.1101
  33   2.0000      -1.000694       -27.2303
  34   2.0000      -0.992036       -26.9947
  35   2.0000      -0.983684       -26.7674
  36   2.0000      -0.920893       -25.0588
  37   2.0000      -0.899109       -24.4660
  38   2.0000      -0.850384       -23.1401
  39   2.0000      -0.828320       -22.5397
  40   2.0000      -0.819402       -22.2971
  41   2.0000      -0.814242       -22.1566
  42   2.0000      -0.743209       -20.2237
  43   2.0000      -0.727536       -19.7973
  44   2.0000      -0.712619       -19.3913
  45   2.0000      -0.693859       -18.8809
  46   2.0000      -0.680849       -18.5268
  47   2.0000      -0.677817       -18.4443
  48   2.0000      -0.673235       -18.3197
  49   2.0000      -0.666552       -18.1378
  50   2.0000      -0.648437       -17.6449
  51   2.0000      -0.642042       -17.4709
  52   2.0000      -0.633241       -17.2314
  53   2.0000      -0.602054       -16.3827
  54   2.0000      -0.595069       -16.1926
  55   2.0000      -0.591332       -16.0910
  56   2.0000      -0.587533       -15.9876
  57   2.0000      -0.584823       -15.9138
  58   2.0000      -0.570505       -15.5242
  59   2.0000      -0.565311       -15.3829
  60   2.0000      -0.551586       -15.0094
  61   2.0000      -0.543726       -14.7955
  62   2.0000      -0.540288       -14.7020
  63   2.0000      -0.525084       -14.2883
  64   2.0000      -0.513327       -13.9683
  65   2.0000      -0.505137       -13.7455
  66   2.0000      -0.498350       -13.5608
  67   2.0000      -0.490035       -13.3345
  68   2.0000      -0.476232       -12.9589
  69   2.0000      -0.457787       -12.4570
  70   2.0000      -0.448810       -12.2127
  71   2.0000      -0.446477       -12.1492
  72   2.0000      -0.346707        -9.4344
  73   2.0000      -0.339057        -9.2262
  74   2.0000      -0.328813        -8.9475
  75   2.0000      -0.312429        -8.5016
  76   2.0000      -0.304449        -8.2845
  77   0.0000       0.068626         1.8674
  78   0.0000       0.118571         3.2265
  79   0.0000       0.120202         3.2709
  80   0.0000       0.137820         3.7503
  81   0.0000       0.140455         3.8220

MULLIKEN ATOMIC CHARGES
-----------------------
   0 C :   -0.286403
   1 C :    0.045255
   2 O :   -0.351376
   3 C :    0.435031
   4 O :   -0.428259
   5 C :   -0.153693
   6 C :    0.147539
   7 C :   -0.289884
   8 N :   -0.123316
   9 C :    0.196778
  10 S :   -0.428692
  11 N :   -0.199155
  12 C :    0.060107
  13 C :    0.030357
  14 C :   -0.190202
  15 C :   -0.133375
  16 C :   -0.274731
  17 C :    0.303536
  18 O :   -0.364207
  19 C :   -0.257298
  20 H :    0.095549
  21 H :    0.098056
  22 H :    0.125216
  23 H :    0.099081
  24 H :    0.085428
  25 H :    0.133488
  26 H :    0.120976
  27 H :    0.104417
  28 H :    0.196777
  29 H :    0.193171
  30 H :    0.192223
  31 H :    0.139111
  32 H :    0.153368
  33 H :    0.126269
  34 H :    0.240598
  35 H :    0.158261
Sum of atomic charges:    0.0000000

LOEWDIN ATOMIC CHARGES
----------------------
   0 C :    0.102473
   1 C :   -0.011458
   2 O :    0.300916
   3 C :   -0.417582
   4 O :    0.112240
   5 C :   -0.095555
   6 C :   -0.055701
   7 C :    0.122307
   8 N :    0.402289
   9 C :   -0.464045
  10 S :   -0.024780
  11 N :    0.392857
  12 C :    0.002159
  13 C :   -0.022853
  14 C :    0.006810
  15 C :    0.034759
  16 C :   -0.012134
  17 C :   -0.182483
  18 O :    0.381629
  19 C :    0.018515
  20 H :   -0.026706
  21 H :   -0.027016
  22 H :   -0.023261
  23 H :   -0.032305
  24 H :   -0.022809
  25 H :   -0.011493
  26 H :   -0.007386
  27 H :   -0.018635
  28 H :   -0.057217
  29 H :   -0.059177
  30 H :   -0.027458
  31 H :   -0.032488
  32 H :   -0.019270
  33 H :   -0.036065
  34 H :   -0.154634
  35 H :   -0.034441

  Mayer bond orders larger than 0.100000
B(  0-C ,  1-C ) :   0.9822 B(  0-C , 20-H ) :   0.9759 B(  0-C , 21-H ) :   0.9726
B(  0-C , 22-H ) :   0.9707 B(  1-C ,  2-O ) :   0.9014 B(  1-C , 23-H ) :   0.9762
B(  1-C , 24-H ) :   0.9807 B(  2-O ,  3-C ) :   1.1386 B(  3-C ,  4-O ) :   1.9625
B(  3-C ,  5-C ) :   1.0594 B(  5-C ,  6-C ) :   1.6478 B(  5-C , 12-C ) :   0.9732
B(  6-C ,  7-C ) :   0.9542 B(  6-C ,  8-N ) :   1.1341 B(  7-C , 25-H ) :   0.9640
B(  7-C , 26-H ) :   0.9663 B(  7-C , 27-H ) :   0.9920 B(  8-N ,  9-C ) :   1.1820
B(  8-N , 28-H ) :   0.9474 B(  9-C , 10-S ) :   1.6241 B(  9-C , 11-N ) :   1.2942
B( 11-N , 12-C ) :   1.0138 B( 11-N , 29-H ) :   0.9499 B( 12-C , 13-C ) :   0.9050
B( 12-C , 30-H ) :   0.9791 B( 13-C , 14-C ) :   1.3841 B( 13-C , 19-C ) :   1.3855
B( 14-C , 15-C ) :   1.3960 B( 14-C , 31-H ) :   0.9692 B( 15-C , 16-C ) :   1.3586
B( 15-C , 32-H ) :   0.9723 B( 16-C , 17-C ) :   1.3349 B( 16-C , 33-H ) :   0.9861
B( 17-C , 18-O ) :   1.0963 B( 17-C , 19-C ) :   1.3755 B( 18-O , 34-H ) :   0.9803
B( 19-C , 35-H ) :   0.9551

MP2 TOTAL ENERGY:    -1274.290912920 Eh
FINAL SINGLE POINT ENERGY     -1274.290912919982

DIPOLE MOMENT
-------------
                                X             Y             Z
Electronic contribution:      9.93413      10.37387      11.21262
Nuclear contribution   :    -11.41892     -11.31985     -12.58507
                        -----------------------------------------
Total Dipole Moment    :     -1.48480      -0.94598      -1.37245
                        -----------------------------------------
Magnitude (a.u.)       :      2.23229
Magnitude (Debye)      :      5.67402

Rotational constants in cm-1:     0.010647     0.008754     0.005784
Rotational constants in MHz :   319.185676   262.439050   173.393667

                             ****ORCA TERMINATED NORMALLY****
TOTAL RUN TIME: 0 days 1 hours 29 minutes 37 seconds 22 msec
