                         Program Version 4.2.0 -  RELEASE  -
|  1> ! ri-mp2 cc-pvtz cc-pvtz/c TightSCF  NoKeepInts
|  2>
|  3> %scf
|  4>   MaxCore 4096
|  5> end
|  6> *xyz  0  1
|  7>     C       15.6474012   14.7051939   14.0811964
|  8>     C       15.1792911   14.7217927   15.5548976
|  9>     O       15.8506843   15.6828746   16.3984779
| 10>     C       17.0732903   15.4515220   16.9569425
| 11>     O       17.5097955   14.3205115   17.1030602
| 12>     C       17.5672305   16.5951258   17.7929560
| 13>     C       17.2987404   17.9074912   17.5271511
| 14>     C       16.4929676   18.4631228   16.3605432
| 15>     N       18.0709458   18.9133574   18.1265931
| 16>     C       19.0996710   18.7052831   19.0094036
| 17>     S       19.9829225   19.9738089   19.6087159
| 18>     N       19.3393122   17.3991860   19.3830401
| 19>     C       18.6739151   16.2087340   18.7828624
| 20>     C       17.8701573   15.8263293   20.0858527
| 21>     C       17.9174818   14.4507954   20.4694424
| 22>     C       17.1982895   13.9286121   21.5594920
| 23>     C       16.3781943   14.7767254   22.3088959
| 24>     C       16.2797104   16.1266325   21.9439398
| 25>     O       15.4659209   16.9375131   22.6686729
| 26>     C       17.0005153   16.6458195   20.8469009
| 27>     H       15.3988424   15.6731246   13.6239845
| 28>     H       15.0663041   13.9532670   13.5253517
| 29>     H       16.7128378   14.5032872   13.9343613
| 30>     H       14.1005704   14.8659455   15.6310811
| 31>     H       15.4070128   13.7205580   15.9527466
| 32>     H       16.7992473   18.0202358   15.4008716
| 33>     H       16.5956037   19.5507434   16.2412181
| 34>     H       15.4297512   18.2501934   16.5040194
| 35>     H       17.9303015   19.8762942   17.8545500
| 36>     H       20.1110039   17.2883077   20.0271707
| 37>     H       19.1324084   15.2221385   18.7063727
| 38>     H       18.5070338   13.7370170   19.8965713
| 39>     H       17.2708191   12.8693207   21.8148589
| 40>     H       15.8205149   14.3804349   23.1553138
| 41>     H       15.0980976   16.4119656   23.3981031
| 42>     H       16.8702136   17.6887354   20.5983930
| 43> *
| 44>
| 45>                          ****END OF INPUT****

CARTESIAN COORDINATES (ANGSTROEM)
---------------------------------
  C     15.647401   14.705194   14.081196
  C     15.179291   14.721793   15.554898
  O     15.850684   15.682875   16.398478
  C     17.073290   15.451522   16.956943
  O     17.509795   14.320511   17.103060
  C     17.567230   16.595126   17.792956
  C     17.298740   17.907491   17.527151
  C     16.492968   18.463123   16.360543
  N     18.070946   18.913357   18.126593
  C     19.099671   18.705283   19.009404
  S     19.982923   19.973809   19.608716
  N     19.339312   17.399186   19.383040
  C     18.673915   16.208734   18.782862
  C     17.870157   15.826329   20.085853
  C     17.917482   14.450795   20.469442
  C     17.198290   13.928612   21.559492
  C     16.378194   14.776725   22.308896
  C     16.279710   16.126632   21.943940
  O     15.465921   16.937513   22.668673
  C     17.000515   16.645820   20.846901
  H     15.398842   15.673125   13.623985
  H     15.066304   13.953267   13.525352
  H     16.712838   14.503287   13.934361
  H     14.100570   14.865946   15.631081
  H     15.407013   13.720558   15.952747
  H     16.799247   18.020236   15.400872
  H     16.595604   19.550743   16.241218
  H     15.429751   18.250193   16.504019
  H     17.930301   19.876294   17.854550
  H     20.111004   17.288308   20.027171
  H     19.132408   15.222138   18.706373
  H     18.507034   13.737017   19.896571
  H     17.270819   12.869321   21.814859
  H     15.820515   14.380435   23.155314
  H     15.098098   16.411966   23.398103
  H     16.870214   17.688735   20.598393

 Total Charge           Charge          ....    0
 Multiplicity           Mult            ....    1
 Number of Electrons    NEL             ....  154
 Basis Dimension        Dim             ....  828

ORBITAL ENERGIES
----------------

  NO   OCC          E(Eh)            E(eV)
   0   2.0000     -91.890409     -2500.4652
   1   2.0000     -20.603727      -560.6559
   2   2.0000     -20.587030      -560.2016
   3   2.0000     -20.547054      -559.1138
   4   2.0000     -15.630500      -425.3275
   5   2.0000     -15.611133      -424.8005
   6   2.0000     -11.398090      -310.1578
   7   2.0000     -11.385904      -309.8262
   8   2.0000     -11.340531      -308.5915
   9   2.0000     -11.314563      -307.8849
  10   2.0000     -11.305729      -307.6445
  11   2.0000     -11.302234      -307.5494
  12   2.0000     -11.267563      -306.6060
  13   2.0000     -11.262705      -306.4738
  14   2.0000     -11.253851      -306.2329
  15   2.0000     -11.242603      -305.9268
  16   2.0000     -11.237760      -305.7950
  17   2.0000     -11.230978      -305.6104
  18   2.0000     -11.230839      -305.6067
  19   2.0000     -11.224998      -305.4477
  20   2.0000      -8.895243      -242.0519
  21   2.0000      -6.576792      -178.9636
  22   2.0000      -6.574807      -178.9096
  23   2.0000      -6.574219      -178.8936
  24   2.0000      -1.453357       -39.5479
  25   2.0000      -1.405791       -38.2535
  26   2.0000      -1.356907       -36.9233
  27   2.0000      -1.338184       -36.4138
  28   2.0000      -1.237334       -33.6696
  29   2.0000      -1.145492       -31.1704
  30   2.0000      -1.117838       -30.4179
  31   2.0000      -1.043070       -28.3834
  32   2.0000      -1.034875       -28.1604
  33   2.0000      -1.003695       -27.3119
  34   2.0000      -0.995130       -27.0789
  35   2.0000      -0.981644       -26.7119
  36   2.0000      -0.922390       -25.0995
  37   2.0000      -0.899628       -24.4801
  38   2.0000      -0.848281       -23.0829
  39   2.0000      -0.829287       -22.5660
  40   2.0000      -0.822196       -22.3731
  41   2.0000      -0.813667       -22.1410
  42   2.0000      -0.754870       -20.5410
  43   2.0000      -0.734850       -19.9963
  44   2.0000      -0.715789       -19.4776
  45   2.0000      -0.692834       -18.8530
  46   2.0000      -0.684406       -18.6236
  47   2.0000      -0.678934       -18.4747
  48   2.0000      -0.676397       -18.4057
  49   2.0000      -0.659077       -17.9344
  50   2.0000      -0.645950       -17.5772
  51   2.0000      -0.642102       -17.4725
  52   2.0000      -0.629608       -17.1325
  53   2.0000      -0.617090       -16.7919
  54   2.0000      -0.596638       -16.2353
  55   2.0000      -0.593495       -16.1498
  56   2.0000      -0.589066       -16.0293
  57   2.0000      -0.582035       -15.8380
  58   2.0000      -0.568623       -15.4730
  59   2.0000      -0.565388       -15.3850
  60   2.0000      -0.553853       -15.0711
  61   2.0000      -0.548685       -14.9305
  62   2.0000      -0.540117       -14.6973
  63   2.0000      -0.539249       -14.6737
  64   2.0000      -0.510958       -13.9039
  65   2.0000      -0.507624       -13.8131
  66   2.0000      -0.493621       -13.4321
  67   2.0000      -0.492719       -13.4076
  68   2.0000      -0.480029       -13.0623
  69   2.0000      -0.462352       -12.5812
  70   2.0000      -0.455166       -12.3857
  71   2.0000      -0.451798       -12.2940
  72   2.0000      -0.346129        -9.4187
  73   2.0000      -0.341106        -9.2820
  74   2.0000      -0.326981        -8.8976
  75   2.0000      -0.312425        -8.5015
  76   2.0000      -0.306454        -8.3390
  77   0.0000       0.067062         1.8249
  78   0.0000       0.117690         3.2025
  79   0.0000       0.119550         3.2531
  80   0.0000       0.136923         3.7259
  81   0.0000       0.139708         3.8017

MULLIKEN ATOMIC CHARGES
-----------------------
   0 C :   -0.289685
   1 C :    0.022506
   2 O :   -0.347826
   3 C :    0.468120
   4 O :   -0.430670
   5 C :   -0.188841
   6 C :    0.138146
   7 C :   -0.292279
   8 N :   -0.120592
   9 C :    0.197581
  10 S :   -0.433375
  11 N :   -0.208462
  12 C :    0.066974
  13 C :    0.038829
  14 C :   -0.199832
  15 C :   -0.126587
  16 C :   -0.277156
  17 C :    0.308927
  18 O :   -0.362127
  19 C :   -0.253643
  20 H :    0.085284
  21 H :    0.103663
  22 H :    0.113388
  23 H :    0.121836
  24 H :    0.107755
  25 H :    0.122824
  26 H :    0.104284
  27 H :    0.134526
  28 H :    0.197741
  29 H :    0.190768
  30 H :    0.191153
  31 H :    0.136241
  32 H :    0.155110
  33 H :    0.124456
  34 H :    0.241967
  35 H :    0.158995
Sum of atomic charges:   -0.0000000

LOEWDIN ATOMIC CHARGES
----------------------
   0 C :    0.106914
   1 C :   -0.013786
   2 O :    0.305849
   3 C :   -0.419606
   4 O :    0.099363
   5 C :   -0.094944
   6 C :   -0.057000
   7 C :    0.124910
   8 N :    0.399978
   9 C :   -0.453093
  10 S :   -0.035478
  11 N :    0.393943
  12 C :    0.005548
  13 C :   -0.029585
  14 C :    0.003192
  15 C :    0.034400
  16 C :   -0.011424
  17 C :   -0.186950
  18 O :    0.386921
  19 C :    0.022438
  20 H :   -0.032506
  21 H :   -0.018481
  22 H :   -0.026752
  23 H :   -0.026321
  24 H :   -0.027791
  25 H :   -0.008312
  26 H :   -0.019615
  27 H :   -0.012676
  28 H :   -0.057236
  29 H :   -0.066240
  30 H :   -0.013643
  31 H :   -0.031752
  32 H :   -0.019654
  33 H :   -0.035239
  34 H :   -0.151783
  35 H :   -0.033588

  Mayer bond orders larger than 0.100000
B(  0-C ,  1-C ) :   0.9606 B(  0-C , 20-H ) :   0.9786 B(  0-C , 21-H ) :   0.9748
B(  0-C , 22-H ) :   0.9761 B(  1-C ,  2-O ) :   0.8912 B(  1-C , 23-H ) :   0.9827
B(  1-C , 24-H ) :   0.9788 B(  2-O ,  3-C ) :   1.1578 B(  3-C ,  4-O ) :   1.9725
B(  3-C ,  5-C ) :   1.0436 B(  5-C ,  6-C ) :   1.6677 B(  5-C , 12-C ) :   0.9835
B(  6-C ,  7-C ) :   0.9473 B(  6-C ,  8-N ) :   1.1373 B(  7-C , 25-H ) :   0.9660
B(  7-C , 26-H ) :   0.9903 B(  7-C , 27-H ) :   0.9671 B(  8-N ,  9-C ) :   1.1806
B(  8-N , 28-H ) :   0.9464 B(  9-C , 10-S ) :   1.6107 B(  9-C , 11-N ) :   1.2981
B( 11-N , 12-C ) :   0.9990 B( 11-N , 29-H ) :   0.9512 B( 12-C , 13-C ) :   0.9029
B( 12-C , 30-H ) :   0.9766 B( 13-C , 14-C ) :   1.3869 B( 13-C , 19-C ) :   1.3829
B( 14-C , 15-C ) :   1.3843 B( 14-C , 31-H ) :   0.9712 B( 15-C , 16-C ) :   1.3642
B( 15-C , 32-H ) :   0.9723 B( 16-C , 17-C ) :   1.3246 B( 16-C , 33-H ) :   0.9877
B( 17-C , 18-O ) :   1.1005 B( 17-C , 19-C ) :   1.3859 B( 18-O , 34-H ) :   0.9790
B( 19-C , 35-H ) :   0.9531

MP2 TOTAL ENERGY:    -1274.293304161 Eh
FINAL SINGLE POINT ENERGY     -1274.293304161050

DIPOLE MOMENT
-------------
                                X             Y             Z
Electronic contribution:     10.20096       8.22572      12.83533
Nuclear contribution   :    -11.81869      -9.20205     -14.03924
                        -----------------------------------------
Total Dipole Moment    :     -1.61773      -0.97632      -1.20391
                        -----------------------------------------
Magnitude (a.u.)       :      2.24046
Magnitude (Debye)      :      5.69479

Rotational constants in cm-1:     0.010856     0.008475     0.005730
Rotational constants in MHz :   325.449405   254.064461   171.783585

                             ****ORCA TERMINATED NORMALLY****
TOTAL RUN TIME: 0 days 1 hours 29 minutes 58 seconds 627 msec
