                         Program Version 4.2.0 -  RELEASE  -
|  1> ! ri-mp2 cc-pvtz cc-pvtz/c TightSCF  NoKeepInts
|  2>
|  3> %scf
|  4>   MaxCore 4096
|  5> end
|  6> *xyz  0  1
|  7>     C       14.7802440   14.0986813   16.4854718
|  8>     C       15.5116736   15.4270379   16.7150246
|  9>     O       16.8590494   15.0451548   16.3956735
| 10>     C       17.9900809   15.8034912   16.4106726
| 11>     O       19.0484954   15.2726152   16.1338293
| 12>     C       17.9320224   16.8509818   17.4549078
| 13>     C       17.3137067   18.0307741   17.1611178
| 14>     C       16.7407979   18.4584720   15.8166767
| 15>     N       17.6633696   19.1092675   17.9894051
| 16>     C       18.4888159   19.0952186   19.0828950
| 17>     S       18.7958519   20.4859722   19.9268279
| 18>     N       19.0247859   17.8809966   19.4379591
| 19>     C       18.8894589   16.6525975   18.6239910
| 20>     C       17.9962186   15.8940802   19.6543421
| 21>     C       18.3322972   14.5240873   19.8351458
| 22>     C       17.5858445   13.6596937   20.6480559
| 23>     C       16.4525141   14.1487237   21.3039053
| 24>     C       16.0781614   15.4880759   21.1261039
| 25>     O       14.9584459   15.9371572   21.7452678
| 26>     C       16.8261714   16.3537294   20.3049323
| 27>     H       15.4265570   13.2720539   16.8122415
| 28>     H       14.5847903   13.9575361   15.4141967
| 29>     H       13.8409936   14.0336053   17.0420815
| 30>     H       15.0554711   16.2578387   16.1568599
| 31>     H       15.4876670   15.6616462   17.7893972
| 32>     H       17.1510104   17.8725473   14.9820197
| 33>     H       16.9874895   19.5045184   15.5805952
| 34>     H       15.6511159   18.3724950   15.7963352
| 35>     H       17.3478421   20.0334817   17.7305024
| 36>     H       19.6232280   17.9012622   20.2521956
| 37>     H       19.6716788   15.8919378   18.5386828
| 38>     H       19.1816474   14.0901839   19.3103812
| 39>     H       17.8815454   12.6147594   20.7529931
| 40>     H       15.8673388   13.4816734   21.9311633
| 41>     H       14.6369813   15.2170814   22.3118833
| 42>     H       16.4836336   17.3725664   20.1802655
| 43> *
| 44>
| 45>                          ****END OF INPUT****

CARTESIAN COORDINATES (ANGSTROEM)
---------------------------------
  C     14.780244   14.098681   16.485472
  C     15.511674   15.427038   16.715025
  O     16.859049   15.045155   16.395674
  C     17.990081   15.803491   16.410673
  O     19.048495   15.272615   16.133829
  C     17.932022   16.850982   17.454908
  C     17.313707   18.030774   17.161118
  C     16.740798   18.458472   15.816677
  N     17.663370   19.109268   17.989405
  C     18.488816   19.095219   19.082895
  S     18.795852   20.485972   19.926828
  N     19.024786   17.880997   19.437959
  C     18.889459   16.652597   18.623991
  C     17.996219   15.894080   19.654342
  C     18.332297   14.524087   19.835146
  C     17.585845   13.659694   20.648056
  C     16.452514   14.148724   21.303905
  C     16.078161   15.488076   21.126104
  O     14.958446   15.937157   21.745268
  C     16.826171   16.353729   20.304932
  H     15.426557   13.272054   16.812241
  H     14.584790   13.957536   15.414197
  H     13.840994   14.033605   17.042081
  H     15.055471   16.257839   16.156860
  H     15.487667   15.661646   17.789397
  H     17.151010   17.872547   14.982020
  H     16.987489   19.504518   15.580595
  H     15.651116   18.372495   15.796335
  H     17.347842   20.033482   17.730502
  H     19.623228   17.901262   20.252196
  H     19.671679   15.891938   18.538683
  H     19.181647   14.090184   19.310381
  H     17.881545   12.614759   20.752993
  H     15.867339   13.481673   21.931163
  H     14.636981   15.217081   22.311883
  H     16.483634   17.372566   20.180266

 Total Charge           Charge          ....    0
 Multiplicity           Mult            ....    1
 Number of Electrons    NEL             ....  154
 Basis Dimension        Dim             ....  828

ORBITAL ENERGIES
----------------

  NO   OCC          E(Eh)            E(eV)
   0   2.0000     -91.889220     -2500.4328
   1   2.0000     -20.598756      -560.5207
   2   2.0000     -20.597280      -560.4805
   3   2.0000     -20.550619      -559.2108
   4   2.0000     -15.623726      -425.1432
   5   2.0000     -15.612550      -424.8391
   6   2.0000     -11.393965      -310.0456
   7   2.0000     -11.385624      -309.8186
   8   2.0000     -11.332018      -308.3599
   9   2.0000     -11.322823      -308.1097
  10   2.0000     -11.316357      -307.9337
  11   2.0000     -11.304737      -307.6175
  12   2.0000     -11.276555      -306.8506
  13   2.0000     -11.269032      -306.6459
  14   2.0000     -11.262776      -306.4757
  15   2.0000     -11.252676      -306.2009
  16   2.0000     -11.241206      -305.8888
  17   2.0000     -11.240844      -305.8789
  18   2.0000     -11.233948      -305.6913
  19   2.0000     -11.228113      -305.5325
  20   2.0000      -8.894242      -242.0246
  21   2.0000      -6.575825      -178.9373
  22   2.0000      -6.573794      -178.8820
  23   2.0000      -6.573229      -178.8667
  24   2.0000      -1.453964       -39.5644
  25   2.0000      -1.417399       -38.5694
  26   2.0000      -1.361434       -37.0465
  27   2.0000      -1.339200       -36.4415
  28   2.0000      -1.241964       -33.7956
  29   2.0000      -1.157055       -31.4851
  30   2.0000      -1.125315       -30.6214
  31   2.0000      -1.047653       -28.5081
  32   2.0000      -1.043620       -28.3983
  33   2.0000      -1.015482       -27.6327
  34   2.0000      -1.003468       -27.3058
  35   2.0000      -0.986595       -26.8466
  36   2.0000      -0.930813       -25.3287
  37   2.0000      -0.880366       -23.9560
  38   2.0000      -0.857472       -23.3330
  39   2.0000      -0.840740       -22.8777
  40   2.0000      -0.833199       -22.6725
  41   2.0000      -0.831328       -22.6216
  42   2.0000      -0.759402       -20.6644
  43   2.0000      -0.738194       -20.0873
  44   2.0000      -0.724749       -19.7214
  45   2.0000      -0.698516       -19.0076
  46   2.0000      -0.694697       -18.9037
  47   2.0000      -0.682882       -18.5822
  48   2.0000      -0.676537       -18.4095
  49   2.0000      -0.665354       -18.1052
  50   2.0000      -0.655747       -17.8438
  51   2.0000      -0.647704       -17.6249
  52   2.0000      -0.639265       -17.3953
  53   2.0000      -0.611919       -16.6512
  54   2.0000      -0.607205       -16.5229
  55   2.0000      -0.600952       -16.3527
  56   2.0000      -0.595323       -16.1996
  57   2.0000      -0.584383       -15.9019
  58   2.0000      -0.573613       -15.6088
  59   2.0000      -0.564904       -15.3718
  60   2.0000      -0.558925       -15.2091
  61   2.0000      -0.555532       -15.1168
  62   2.0000      -0.549154       -14.9432
  63   2.0000      -0.524250       -14.2656
  64   2.0000      -0.518690       -14.1143
  65   2.0000      -0.513052       -13.9609
  66   2.0000      -0.506225       -13.7751
  67   2.0000      -0.501064       -13.6346
  68   2.0000      -0.489440       -13.3184
  69   2.0000      -0.461370       -12.5545
  70   2.0000      -0.455091       -12.3836
  71   2.0000      -0.448081       -12.1929
  72   2.0000      -0.349577        -9.5125
  73   2.0000      -0.347508        -9.4562
  74   2.0000      -0.327338        -8.9073
  75   2.0000      -0.320998        -8.7348
  76   2.0000      -0.311293        -8.4707
  77   0.0000       0.072556         1.9743
  78   0.0000       0.104059         2.8316
  79   0.0000       0.112949         3.0735
  80   0.0000       0.128985         3.5099
  81   0.0000       0.131751         3.5851

MULLIKEN ATOMIC CHARGES
-----------------------
   0 C :   -0.261984
   1 C :    0.015736
   2 O :   -0.288372
   3 C :    0.367529
   4 O :   -0.378421
   5 C :   -0.158439
   6 C :    0.108497
   7 C :   -0.318777
   8 N :   -0.126806
   9 C :    0.193438
  10 S :   -0.440158
  11 N :   -0.206468
  12 C :    0.107768
  13 C :    0.052725
  14 C :   -0.213554
  15 C :   -0.122197
  16 C :   -0.281572
  17 C :    0.327826
  18 O :   -0.360901
  19 C :   -0.308745
  20 H :    0.113264
  21 H :    0.093884
  22 H :    0.086637
  23 H :    0.092761
  24 H :    0.106842
  25 H :    0.130820
  26 H :    0.127083
  27 H :    0.124101
  28 H :    0.188233
  29 H :    0.191723
  30 H :    0.189618
  31 H :    0.143335
  32 H :    0.159844
  33 H :    0.128977
  34 H :    0.243454
  35 H :    0.172296
Sum of atomic charges:   -0.0000000

LOEWDIN ATOMIC CHARGES
----------------------
   0 C :    0.104812
   1 C :   -0.022181
   2 O :    0.332212
   3 C :   -0.439606
   4 O :    0.125390
   5 C :   -0.083025
   6 C :   -0.089335
   7 C :    0.127269
   8 N :    0.394228
   9 C :   -0.458738
  10 S :   -0.038537
  11 N :    0.398436
  12 C :    0.000773
  13 C :   -0.036522
  14 C :    0.002069
  15 C :    0.039050
  16 C :   -0.008630
  17 C :   -0.190474
  18 O :    0.391484
  19 C :    0.023577
  20 H :   -0.017513
  21 H :   -0.027865
  22 H :   -0.030801
  23 H :   -0.036190
  24 H :   -0.032535
  25 H :   -0.006559
  26 H :   -0.007740
  27 H :   -0.022041
  28 H :   -0.062518
  29 H :   -0.064700
  30 H :   -0.002018
  31 H :   -0.029113
  32 H :   -0.017659
  33 H :   -0.034584
  34 H :   -0.150416
  35 H :   -0.030002

  Mayer bond orders larger than 0.100000
B(  0-C ,  1-C ) :   0.9769 B(  0-C , 20-H ) :   0.9759 B(  0-C , 21-H ) :   0.9840
B(  0-C , 22-H ) :   0.9798 B(  1-C ,  2-O ) :   0.9108 B(  1-C , 23-H ) :   0.9695
B(  1-C , 24-H ) :   0.9601 B(  2-O ,  3-C ) :   1.1719 B(  3-C ,  4-O ) :   2.1061
B(  3-C ,  5-C ) :   0.9159 B(  5-C ,  6-C ) :   1.7206 B(  5-C , 12-C ) :   0.9645
B(  6-C ,  7-C ) :   0.9252 B(  6-C ,  8-N ) :   1.0914 B(  7-C , 25-H ) :   0.9731
B(  7-C , 26-H ) :   0.9796 B(  7-C , 27-H ) :   0.9735 B(  8-N ,  9-C ) :   1.2016
B(  8-N , 28-H ) :   0.9541 B(  9-C , 10-S ) :   1.6038 B(  9-C , 11-N ) :   1.2865
B( 11-N , 12-C ) :   1.0065 B( 11-N , 29-H ) :   0.9514 B( 12-C , 13-C ) :   0.8921
B( 12-C , 30-H ) :   0.9854 B( 13-C , 14-C ) :   1.3765 B( 13-C , 19-C ) :   1.3669
B( 14-C , 15-C ) :   1.3827 B( 14-C , 31-H ) :   0.9725 B( 15-C , 16-C ) :   1.3672
B( 15-C , 32-H ) :   0.9705 B( 16-C , 17-C ) :   1.3219 B( 16-C , 33-H ) :   0.9864
B( 17-C , 18-O ) :   1.1053 B( 17-C , 19-C ) :   1.3711 B( 18-O , 34-H ) :   0.9778
B( 19-C , 35-H ) :   0.9521

MP2 TOTAL ENERGY:    -1274.267450694 Eh
FINAL SINGLE POINT ENERGY     -1274.267450693700

DIPOLE MOMENT
-------------
                                X             Y             Z
Electronic contribution:     11.22718       9.35453       7.03892
Nuclear contribution   :    -12.94124     -10.39684      -7.51471
                        -----------------------------------------
Total Dipole Moment    :     -1.71407      -1.04232      -0.47579
                        -----------------------------------------
Magnitude (a.u.)       :      2.06175
Magnitude (Debye)      :      5.24056

Rotational constants in cm-1:     0.011693     0.009460     0.006824
Rotational constants in MHz :   350.556641   283.616122   204.576661

                             ****ORCA TERMINATED NORMALLY****
TOTAL RUN TIME: 0 days 1 hours 44 minutes 3 seconds 873 msec
