                         Program Version 4.2.0 -  RELEASE  -
|  1> ! ri-mp2 cc-pvtz cc-pvtz/c TightSCF  NoKeepInts
|  2>
|  3> %scf
|  4>   MaxCore 4096
|  5> end
|  6> *xyz  0  1
|  7>     C       15.8477511   12.9953434   16.4743483
|  8>     C       15.7206367   14.3981641   15.8497538
|  9>     O       16.5221626   15.2869442   16.6445888
| 10>     C       16.2227795   16.6199032   16.6917770
| 11>     O       15.2728104   17.0948495   16.0954678
| 12>     C       17.1658479   17.3931132   17.5706542
| 13>     C       17.1910857   18.7608783   17.5598138
| 14>     C       16.1834858   19.6919416   16.9183744
| 15>     N       18.1778403   19.4518391   18.2735374
| 16>     C       19.2731767   18.8744462   18.8577493
| 17>     S       20.4421693   19.7705063   19.6072769
| 18>     N       19.3473037   17.5114022   18.8099220
| 19>     C       18.3811696   16.6632502   18.1591585
| 20>     C       17.7397175   15.7870897   19.3459377
| 21>     C       17.9022770   14.3752998   19.3619672
| 22>     C       17.3558820   13.5831938   20.3893341
| 23>     C       16.6259513   14.1953699   21.4218802
| 24>     C       16.4473919   15.5855720   21.4214371
| 25>     O       15.7432071   16.1801269   22.4178153
| 26>     C       16.9926969   16.3695087   20.3964300
| 27>     H       16.8971574   12.6594998   16.4100441
| 28>     H       15.2330510   12.2714065   15.9259289
| 29>     H       15.5491086   12.9887853   17.5244676
| 30>     H       16.0122354   14.4153069   14.8067181
| 31>     H       14.6500712   14.6891978   15.9270112
| 32>     H       16.1882673   19.5707670   15.8286213
| 33>     H       16.3743889   20.7493817   17.1359080
| 34>     H       15.1685517   19.4612093   17.2691117
| 35>     H       18.1330872   20.4560254   18.3411422
| 36>     H       20.1560571   17.1045432   19.2535489
| 37>     H       18.7509795   15.8804897   17.5258099
| 38>     H       18.4598309   13.8936095   18.5615655
| 39>     H       17.4985477   12.5034123   20.3826423
| 40>     H       16.2021244   13.5912578   22.2174341
| 41>     H       15.4710824   15.4860798   23.0365834
| 42>     H       16.8471193   17.4422836   20.4202380
| 43> *
| 44>
| 45>                          ****END OF INPUT****

CARTESIAN COORDINATES (ANGSTROEM)
---------------------------------
  C     15.847751   12.995343   16.474348
  C     15.720637   14.398164   15.849754
  O     16.522163   15.286944   16.644589
  C     16.222780   16.619903   16.691777
  O     15.272810   17.094849   16.095468
  C     17.165848   17.393113   17.570654
  C     17.191086   18.760878   17.559814
  C     16.183486   19.691942   16.918374
  N     18.177840   19.451839   18.273537
  C     19.273177   18.874446   18.857749
  S     20.442169   19.770506   19.607277
  N     19.347304   17.511402   18.809922
  C     18.381170   16.663250   18.159159
  C     17.739717   15.787090   19.345938
  C     17.902277   14.375300   19.361967
  C     17.355882   13.583194   20.389334
  C     16.625951   14.195370   21.421880
  C     16.447392   15.585572   21.421437
  O     15.743207   16.180127   22.417815
  C     16.992697   16.369509   20.396430
  H     16.897157   12.659500   16.410044
  H     15.233051   12.271406   15.925929
  H     15.549109   12.988785   17.524468
  H     16.012235   14.415307   14.806718
  H     14.650071   14.689198   15.927011
  H     16.188267   19.570767   15.828621
  H     16.374389   20.749382   17.135908
  H     15.168552   19.461209   17.269112
  H     18.133087   20.456025   18.341142
  H     20.156057   17.104543   19.253549
  H     18.750979   15.880490   17.525810
  H     18.459831   13.893610   18.561566
  H     17.498548   12.503412   20.382642
  H     16.202124   13.591258   22.217434
  H     15.471082   15.486080   23.036583
  H     16.847119   17.442284   20.420238

 Total Charge           Charge          ....    0
 Multiplicity           Mult            ....    1
 Number of Electrons    NEL             ....  154
 Basis Dimension        Dim             ....  828

ORBITAL ENERGIES
----------------

  NO   OCC          E(Eh)            E(eV)
   0   2.0000     -91.891163     -2500.4857
   1   2.0000     -20.603550      -560.6511
   2   2.0000     -20.592150      -560.3409
   3   2.0000     -20.542353      -558.9858
   4   2.0000     -15.631409      -425.3523
   5   2.0000     -15.613846      -424.8743
   6   2.0000     -11.396098      -310.1036
   7   2.0000     -11.386647      -309.8464
   8   2.0000     -11.338861      -308.5461
   9   2.0000     -11.312381      -307.8255
  10   2.0000     -11.308991      -307.7333
  11   2.0000     -11.296588      -307.3958
  12   2.0000     -11.262359      -306.4644
  13   2.0000     -11.258023      -306.3464
  14   2.0000     -11.252664      -306.2006
  15   2.0000     -11.250399      -306.1389
  16   2.0000     -11.237377      -305.7846
  17   2.0000     -11.233537      -305.6801
  18   2.0000     -11.233455      -305.6779
  19   2.0000     -11.230367      -305.5938
  20   2.0000      -8.896264      -242.0796
  21   2.0000      -6.577838      -178.9921
  22   2.0000      -6.575831      -178.9375
  23   2.0000      -6.575235      -178.9212
  24   2.0000      -1.453569       -39.5536
  25   2.0000      -1.411564       -38.4106
  26   2.0000      -1.356444       -36.9107
  27   2.0000      -1.345736       -36.6193
  28   2.0000      -1.246594       -33.9215
  29   2.0000      -1.148920       -31.2637
  30   2.0000      -1.120044       -30.4780
  31   2.0000      -1.042661       -28.3722
  32   2.0000      -1.033526       -28.1237
  33   2.0000      -1.008160       -27.4334
  34   2.0000      -0.994624       -27.0651
  35   2.0000      -0.987667       -26.8758
  36   2.0000      -0.920885       -25.0585
  37   2.0000      -0.889690       -24.2097
  38   2.0000      -0.850511       -23.1436
  39   2.0000      -0.832015       -22.6403
  40   2.0000      -0.827133       -22.5074
  41   2.0000      -0.818891       -22.2832
  42   2.0000      -0.766889       -20.8681
  43   2.0000      -0.730098       -19.8670
  44   2.0000      -0.719774       -19.5860
  45   2.0000      -0.698396       -19.0043
  46   2.0000      -0.686869       -18.6907
  47   2.0000      -0.682345       -18.5676
  48   2.0000      -0.677490       -18.4354
  49   2.0000      -0.665436       -18.1074
  50   2.0000      -0.653329       -17.7780
  51   2.0000      -0.645022       -17.5519
  52   2.0000      -0.635615       -17.2960
  53   2.0000      -0.602600       -16.3976
  54   2.0000      -0.597567       -16.2606
  55   2.0000      -0.594551       -16.1785
  56   2.0000      -0.588794       -16.0219
  57   2.0000      -0.576242       -15.6803
  58   2.0000      -0.570639       -15.5279
  59   2.0000      -0.566874       -15.4254
  60   2.0000      -0.558315       -15.1925
  61   2.0000      -0.551489       -15.0068
  62   2.0000      -0.542667       -14.7667
  63   2.0000      -0.528090       -14.3701
  64   2.0000      -0.518005       -14.0956
  65   2.0000      -0.511203       -13.9105
  66   2.0000      -0.497555       -13.5392
  67   2.0000      -0.494184       -13.4474
  68   2.0000      -0.479580       -13.0500
  69   2.0000      -0.463331       -12.6079
  70   2.0000      -0.460167       -12.5218
  71   2.0000      -0.450287       -12.2529
  72   2.0000      -0.351000        -9.5512
  73   2.0000      -0.343424        -9.3450
  74   2.0000      -0.330242        -8.9863
  75   2.0000      -0.316643        -8.6163
  76   2.0000      -0.313683        -8.5357
  77   0.0000       0.074721         2.0333
  78   0.0000       0.111006         3.0206
  79   0.0000       0.125998         3.4286
  80   0.0000       0.132996         3.6190
  81   0.0000       0.139043         3.7836

MULLIKEN ATOMIC CHARGES
-----------------------
   0 C :   -0.286529
   1 C :    0.040247
   2 O :   -0.340044
   3 C :    0.441515
   4 O :   -0.434858
   5 C :   -0.231715
   6 C :    0.175001
   7 C :   -0.271322
   8 N :   -0.125976
   9 C :    0.199250
  10 S :   -0.434590
  11 N :   -0.178755
  12 C :    0.081066
  13 C :    0.011957
  14 C :   -0.183636
  15 C :   -0.136576
  16 C :   -0.279567
  17 C :    0.313620
  18 O :   -0.357576
  19 C :   -0.260968
  20 H :    0.085003
  21 H :    0.105862
  22 H :    0.113967
  23 H :    0.100235
  24 H :    0.094716
  25 H :    0.130496
  26 H :    0.095097
  27 H :    0.133837
  28 H :    0.199577
  29 H :    0.196410
  30 H :    0.168461
  31 H :    0.144998
  32 H :    0.161200
  33 H :    0.128100
  34 H :    0.240178
  35 H :    0.161321
Sum of atomic charges:   -0.0000000

LOEWDIN ATOMIC CHARGES
----------------------
   0 C :    0.106036
   1 C :   -0.013599
   2 O :    0.310420
   3 C :   -0.415396
   4 O :    0.097956
   5 C :   -0.096458
   6 C :   -0.053234
   7 C :    0.130273
   8 N :    0.406904
   9 C :   -0.456579
  10 S :   -0.029664
  11 N :    0.406002
  12 C :   -0.034134
  13 C :   -0.016205
  14 C :    0.002900
  15 C :    0.035217
  16 C :   -0.006841
  17 C :   -0.191074
  18 O :    0.393726
  19 C :    0.021013
  20 H :   -0.028766
  21 H :   -0.025047
  22 H :   -0.026464
  23 H :   -0.037974
  24 H :   -0.021038
  25 H :   -0.005427
  26 H :   -0.023603
  27 H :   -0.002826
  28 H :   -0.056984
  29 H :   -0.059967
  30 H :   -0.030767
  31 H :   -0.035897
  32 H :   -0.022416
  33 H :   -0.036840
  34 H :   -0.154749
  35 H :   -0.028497

  Mayer bond orders larger than 0.100000
B(  0-C ,  1-C ) :   0.9728 B(  0-C , 20-H ) :   0.9791 B(  0-C , 21-H ) :   0.9789
B(  0-C , 22-H ) :   0.9718 B(  1-C ,  2-O ) :   0.9031 B(  1-C , 23-H ) :   0.9800
B(  1-C , 24-H ) :   0.9771 B(  2-O ,  3-C ) :   1.1820 B(  3-C ,  4-O ) :   1.9598
B(  3-C ,  5-C ) :   1.0734 B(  5-C ,  6-C ) :   1.6426 B(  5-C , 12-C ) :   0.9540
B(  6-C ,  7-C ) :   0.9681 B(  6-C ,  8-N ) :   1.1504 B(  7-C , 25-H ) :   0.9604
B(  7-C , 26-H ) :   0.9902 B(  7-C , 27-H ) :   0.9589 B(  8-N ,  9-C ) :   1.1877
B(  8-N , 28-H ) :   0.9464 B(  9-C , 10-S ) :   1.6178 B(  9-C , 11-N ) :   1.2994
B( 11-N , 12-C ) :   1.0202 B( 11-N , 29-H ) :   0.9496 B( 12-C , 13-C ) :   0.9236
B( 12-C , 30-H ) :   0.9886 B( 13-C , 14-C ) :   1.3636 B( 13-C , 19-C ) :   1.3901
B( 14-C , 15-C ) :   1.3919 B( 14-C , 31-H ) :   0.9717 B( 15-C , 16-C ) :   1.3589
B( 15-C , 32-H ) :   0.9694 B( 16-C , 17-C ) :   1.3306 B( 16-C , 33-H ) :   0.9857
B( 17-C , 18-O ) :   1.1039 B( 17-C , 19-C ) :   1.3723 B( 18-O , 34-H ) :   0.9804
B( 19-C , 35-H ) :   0.9572

MP2 TOTAL ENERGY:    -1274.335150194 Eh
FINAL SINGLE POINT ENERGY     -1274.335150194011

DIPOLE MOMENT
-------------
                                X             Y             Z
Electronic contribution:      9.13029      12.09359       6.78074
Nuclear contribution   :    -10.05438     -13.64247      -7.33319
                        -----------------------------------------
Total Dipole Moment    :     -0.92409      -1.54888      -0.55246
                        -----------------------------------------
Magnitude (a.u.)       :      1.88631
Magnitude (Debye)      :      4.79462

Rotational constants in cm-1:     0.011618     0.008526     0.006128
Rotational constants in MHz :   348.301165   255.589064   183.708589

                             ****ORCA TERMINATED NORMALLY****
TOTAL RUN TIME: 0 days 1 hours 32 minutes 36 seconds 209 msec
