                         Program Version 4.2.0 -  RELEASE  -
|  1> ! ri-mp2 cc-pvtz cc-pvtz/c TightSCF  NoKeepInts
|  2>
|  3> %scf
|  4>   MaxCore 4096
|  5> end
|  6> *xyz  0  1
|  7>     C       15.6002628   13.1430417   16.6751598
|  8>     C       15.9227132   14.3539463   15.7708054
|  9>     O       16.6493539   15.2833771   16.5953995
| 10>     C       16.3096316   16.6092389   16.6426425
| 11>     O       15.3412664   17.0552968   16.0504709
| 12>     C       17.2010860   17.4038747   17.5693070
| 13>     C       17.1516826   18.7761178   17.5603626
| 14>     C       16.1366489   19.6745439   16.9156794
| 15>     N       18.1126440   19.4712464   18.3184120
| 16>     C       19.2132363   18.9345720   18.9240114
| 17>     S       20.3258473   19.8646161   19.7168240
| 18>     N       19.3407870   17.5793400   18.8556555
| 19>     C       18.4223621   16.7051320   18.1701799
| 20>     C       17.7889556   15.7859007   19.3183655
| 21>     C       18.0149808   14.3823303   19.3207875
| 22>     C       17.4716883   13.5484284   20.3174581
| 23>     C       16.6790135   14.1090739   21.3327119
| 24>     C       16.4353496   15.4893053   21.3455721
| 25>     O       15.6703976   16.0343992   22.3256151
| 26>     C       16.9780958   16.3143703   20.3507887
| 27>     H       16.5329216   12.6700987   17.0192016
| 28>     H       15.0241289   12.3900009   16.1235299
| 29>     H       15.0244582   13.4429052   17.5579395
| 30>     H       16.4973213   14.0491604   14.9015400
| 31>     H       14.9608792   14.7801319   15.4338871
| 32>     H       16.1707042   19.5627105   15.8276282
| 33>     H       16.2919001   20.7321137   17.1516778
| 34>     H       15.1282022   19.4013889   17.2477464
| 35>     H       18.0290659   20.4783525   18.3991689
| 36>     H       20.1486634   17.1953362   19.3180760
| 37>     H       18.8376783   15.9462576   17.5276668
| 38>     H       18.6211992   13.9385785   18.5340302
| 39>     H       17.6653960   12.4763794   20.3006686
| 40>     H       16.2574147   13.4732958   22.1044964
| 41>     H       15.4109306   15.3188505   22.9250247
| 42>     H       16.7801321   17.3782836   20.3855107
| 43> *
| 44>
| 45>                          ****END OF INPUT****

CARTESIAN COORDINATES (ANGSTROEM)
---------------------------------
  C     15.600263   13.143042   16.675160
  C     15.922713   14.353946   15.770805
  O     16.649354   15.283377   16.595399
  C     16.309632   16.609239   16.642643
  O     15.341266   17.055297   16.050471
  C     17.201086   17.403875   17.569307
  C     17.151683   18.776118   17.560363
  C     16.136649   19.674544   16.915679
  N     18.112644   19.471246   18.318412
  C     19.213236   18.934572   18.924011
  S     20.325847   19.864616   19.716824
  N     19.340787   17.579340   18.855656
  C     18.422362   16.705132   18.170180
  C     17.788956   15.785901   19.318365
  C     18.014981   14.382330   19.320788
  C     17.471688   13.548428   20.317458
  C     16.679013   14.109074   21.332712
  C     16.435350   15.489305   21.345572
  O     15.670398   16.034399   22.325615
  C     16.978096   16.314370   20.350789
  H     16.532922   12.670099   17.019202
  H     15.024129   12.390001   16.123530
  H     15.024458   13.442905   17.557939
  H     16.497321   14.049160   14.901540
  H     14.960879   14.780132   15.433887
  H     16.170704   19.562711   15.827628
  H     16.291900   20.732114   17.151678
  H     15.128202   19.401389   17.247746
  H     18.029066   20.478352   18.399169
  H     20.148663   17.195336   19.318076
  H     18.837678   15.946258   17.527667
  H     18.621199   13.938578   18.534030
  H     17.665396   12.476379   20.300669
  H     16.257415   13.473296   22.104496
  H     15.410931   15.318850   22.925025
  H     16.780132   17.378284   20.385511

 Total Charge           Charge          ....    0
 Multiplicity           Mult            ....    1
 Number of Electrons    NEL             ....  154
 Basis Dimension        Dim             ....  828

ORBITAL ENERGIES
----------------

  NO   OCC          E(Eh)            E(eV)
   0   2.0000     -91.890326     -2500.4629
   1   2.0000     -20.602537      -560.6235
   2   2.0000     -20.592284      -560.3445
   3   2.0000     -20.542008      -558.9765
   4   2.0000     -15.630053      -425.3154
   5   2.0000     -15.612841      -424.8470
   6   2.0000     -11.397025      -310.1288
   7   2.0000     -11.385711      -309.8209
   8   2.0000     -11.339837      -308.5726
   9   2.0000     -11.312900      -307.8397
  10   2.0000     -11.309251      -307.7404
  11   2.0000     -11.295670      -307.3708
  12   2.0000     -11.263395      -306.4926
  13   2.0000     -11.258256      -306.3527
  14   2.0000     -11.253253      -306.2166
  15   2.0000     -11.250603      -306.1445
  16   2.0000     -11.237582      -305.7902
  17   2.0000     -11.233924      -305.6906
  18   2.0000     -11.233751      -305.6859
  19   2.0000     -11.227360      -305.5120
  20   2.0000      -8.895437      -242.0572
  21   2.0000      -6.577022      -178.9699
  22   2.0000      -6.574996      -178.9147
  23   2.0000      -6.574410      -178.8988
  24   2.0000      -1.450840       -39.4794
  25   2.0000      -1.411587       -38.4112
  26   2.0000      -1.355128       -36.8749
  27   2.0000      -1.344929       -36.5974
  28   2.0000      -1.245383       -33.8886
  29   2.0000      -1.149263       -31.2730
  30   2.0000      -1.120079       -30.4789
  31   2.0000      -1.042141       -28.3581
  32   2.0000      -1.034066       -28.1384
  33   2.0000      -1.008237       -27.4355
  34   2.0000      -0.995476       -27.0883
  35   2.0000      -0.986437       -26.8423
  36   2.0000      -0.921411       -25.0729
  37   2.0000      -0.888489       -24.1770
  38   2.0000      -0.851652       -23.1746
  39   2.0000      -0.831772       -22.6337
  40   2.0000      -0.827261       -22.5109
  41   2.0000      -0.816589       -22.2205
  42   2.0000      -0.764040       -20.7906
  43   2.0000      -0.730464       -19.8769
  44   2.0000      -0.720225       -19.5983
  45   2.0000      -0.696915       -18.9640
  46   2.0000      -0.686930       -18.6923
  47   2.0000      -0.681813       -18.5531
  48   2.0000      -0.672933       -18.3114
  49   2.0000      -0.662186       -18.0190
  50   2.0000      -0.649826       -17.6827
  51   2.0000      -0.646792       -17.6001
  52   2.0000      -0.635672       -17.2975
  53   2.0000      -0.602849       -16.4043
  54   2.0000      -0.600158       -16.3311
  55   2.0000      -0.595650       -16.2085
  56   2.0000      -0.593486       -16.1496
  57   2.0000      -0.577140       -15.7048
  58   2.0000      -0.571331       -15.5467
  59   2.0000      -0.563264       -15.3272
  60   2.0000      -0.559572       -15.2267
  61   2.0000      -0.546232       -14.8637
  62   2.0000      -0.544109       -14.8059
  63   2.0000      -0.529659       -14.4127
  64   2.0000      -0.518983       -14.1222
  65   2.0000      -0.511036       -13.9060
  66   2.0000      -0.496983       -13.5236
  67   2.0000      -0.494283       -13.4501
  68   2.0000      -0.479394       -13.0450
  69   2.0000      -0.461555       -12.5595
  70   2.0000      -0.457954       -12.4616
  71   2.0000      -0.449704       -12.2371
  72   2.0000      -0.350619        -9.5408
  73   2.0000      -0.343223        -9.3396
  74   2.0000      -0.329654        -8.9704
  75   2.0000      -0.316096        -8.6014
  76   2.0000      -0.313512        -8.5311
  77   0.0000       0.074257         2.0206
  78   0.0000       0.111064         3.0222
  79   0.0000       0.125670         3.4196
  80   0.0000       0.132961         3.6180
  81   0.0000       0.139202         3.7879

MULLIKEN ATOMIC CHARGES
-----------------------
   0 C :   -0.277225
   1 C :    0.021413
   2 O :   -0.345774
   3 C :    0.453413
   4 O :   -0.438120
   5 C :   -0.244035
   6 C :    0.179365
   7 C :   -0.271965
   8 N :   -0.128801
   9 C :    0.199195
  10 S :   -0.436829
  11 N :   -0.178600
  12 C :    0.088284
  13 C :    0.015747
  14 C :   -0.186546
  15 C :   -0.131207
  16 C :   -0.278567
  17 C :    0.312250
  18 O :   -0.357516
  19 C :   -0.260540
  20 H :    0.083989
  21 H :    0.100863
  22 H :    0.110663
  23 H :    0.099364
  24 H :    0.115334
  25 H :    0.131759
  26 H :    0.096744
  27 H :    0.135516
  28 H :    0.197220
  29 H :    0.195452
  30 H :    0.166423
  31 H :    0.143428
  32 H :    0.159359
  33 H :    0.128399
  34 H :    0.240230
  35 H :    0.161314
Sum of atomic charges:   -0.0000000

LOEWDIN ATOMIC CHARGES
----------------------
   0 C :    0.105198
   1 C :   -0.007773
   2 O :    0.308268
   3 C :   -0.410585
   4 O :    0.093747
   5 C :   -0.095554
   6 C :   -0.049760
   7 C :    0.130196
   8 N :    0.401911
   9 C :   -0.461983
  10 S :   -0.031104
  11 N :    0.407328
  12 C :   -0.038282
  13 C :   -0.017289
  14 C :    0.003795
  15 C :    0.036475
  16 C :   -0.006707
  17 C :   -0.190732
  18 O :    0.393499
  19 C :    0.022087
  20 H :   -0.030557
  21 H :   -0.027664
  22 H :   -0.023727
  23 H :   -0.037420
  24 H :   -0.025351
  25 H :   -0.004276
  26 H :   -0.022075
  27 H :   -0.001403
  28 H :   -0.053056
  29 H :   -0.061348
  30 H :   -0.026855
  31 H :   -0.036593
  32 H :   -0.022328
  33 H :   -0.036697
  34 H :   -0.154778
  35 H :   -0.028608

  Mayer bond orders larger than 0.100000
B(  0-C ,  1-C ) :   0.9731 B(  0-C , 20-H ) :   0.9786 B(  0-C , 21-H ) :   0.9775
B(  0-C , 22-H ) :   0.9746 B(  1-C ,  2-O ) :   0.8933 B(  1-C , 23-H ) :   0.9817
B(  1-C , 24-H ) :   0.9759 B(  2-O ,  3-C ) :   1.1799 B(  3-C ,  4-O ) :   1.9612
B(  3-C ,  5-C ) :   1.0654 B(  5-C ,  6-C ) :   1.6427 B(  5-C , 12-C ) :   0.9529
B(  6-C ,  7-C ) :   0.9702 B(  6-C ,  8-N ) :   1.1413 B(  7-C , 25-H ) :   0.9600
B(  7-C , 26-H ) :   0.9891 B(  7-C , 27-H ) :   0.9579 B(  8-N ,  9-C ) :   1.1933
B(  8-N , 28-H ) :   0.9477 B(  9-C , 10-S ) :   1.6127 B(  9-C , 11-N ) :   1.3009
B( 11-N , 12-C ) :   1.0188 B( 11-N , 29-H ) :   0.9504 B( 12-C , 13-C ) :   0.9254
B( 12-C , 30-H ) :   0.9889 B( 13-C , 14-C ) :   1.3655 B( 13-C , 19-C ) :   1.3892
B( 14-C , 15-C ) :   1.3904 B( 14-C , 31-H ) :   0.9715 B( 15-C , 16-C ) :   1.3615
B( 15-C , 32-H ) :   0.9696 B( 16-C , 17-C ) :   1.3303 B( 16-C , 33-H ) :   0.9855
B( 17-C , 18-O ) :   1.1036 B( 17-C , 19-C ) :   1.3718 B( 18-O , 34-H ) :   0.9804
B( 19-C , 35-H ) :   0.9572

MP2 TOTAL ENERGY:    -1274.334186488 Eh
FINAL SINGLE POINT ENERGY     -1274.334186487875

DIPOLE MOMENT
-------------
                                X             Y             Z
Electronic contribution:      9.38782      12.04300       6.51300
Nuclear contribution   :    -10.26433     -13.60861      -7.13535
                        -----------------------------------------
Total Dipole Moment    :     -0.87651      -1.56561      -0.62234
                        -----------------------------------------
Magnitude (a.u.)       :      1.89914
Magnitude (Debye)      :      4.82722

Rotational constants in cm-1:     0.011841     0.008541     0.006142
Rotational constants in MHz :   354.973673   256.059176   184.132620

                             ****ORCA TERMINATED NORMALLY****
TOTAL RUN TIME: 0 days 1 hours 36 minutes 29 seconds 534 msec
