                         Program Version 4.2.0 -  RELEASE  -
|  1> ! ri-mp2 cc-pvtz cc-pvtz/c TightSCF NoKeepInts
|  2>
|  3> %scf
|  4>   MaxCore 4096
|  5> end
|  6> *xyz  0  1
|  7>     C       16.2637283   14.6584640   14.0393097
|  8>     C       15.2634897   14.7220974   15.2110328
|  9>     O       15.6970554   15.7267559   16.1476869
| 10>     C       16.7385169   15.4780895   16.9975247
| 11>     O       17.2707619   14.3809649   17.0626423
| 12>     C       17.1270381   16.6187184   17.9038605
| 13>     C       16.9963099   17.9047902   17.4675504
| 14>     C       16.1428571   18.4556689   16.3404207
| 15>     N       17.7413864   18.9215386   18.0734513
| 16>     C       18.8562606   18.7200109   18.8388370
| 17>     S       19.7976197   19.9749000   19.3626408
| 18>     N       19.1605085   17.4165110   19.1278664
| 19>     C       18.2759610   16.2653278   18.8638788
| 20>     C       17.7114291   15.7445837   20.1813538
| 21>     C       17.7589407   14.3673037   20.4641634
| 22>     C       17.2358341   13.8639960   21.6670273
| 23>     C       16.6551864   14.7451590   22.5949592
| 24>     C       16.5970674   16.1169241   22.3133558
| 25>     O       16.0286021   16.9685857   23.2037837
| 26>     C       17.1185316   16.6151120   21.1151177
| 27>     H       16.3778664   15.6441277   13.5718168
| 28>     H       15.9112190   13.9556825   13.2746907
| 29>     H       17.2500134   14.3184105   14.3791176
| 30>     H       14.2746480   14.9948671   14.8207420
| 31>     H       15.1777992   13.7412971   15.6989594
| 32>     H       15.0900029   18.1797449   16.4794590
| 33>     H       16.4747420   18.0632040   15.3711583
| 34>     H       16.1795052   19.5498618   16.2744672
| 35>     H       17.5457726   19.8837548   17.8484754
| 36>     H       19.9778398   17.2907037   19.7111747
| 37>     H       18.9162058   15.5004937   18.4010955
| 38>     H       18.1942031   13.6826003   19.7396119
| 39>     H       17.2772894   12.7958947   21.8728046
| 40>     H       16.2481644   14.3607834   23.5242274
| 41>     H       15.7543881   16.4449456   23.9713750
| 42>     H       17.0602550   17.6801284   20.9183620
| 43> *
| 44>
| 45>                          ****END OF INPUT****

CARTESIAN COORDINATES (ANGSTROEM)
---------------------------------
  C     16.263728   14.658464   14.039310
  C     15.263490   14.722097   15.211033
  O     15.697055   15.726756   16.147687
  C     16.738517   15.478089   16.997525
  O     17.270762   14.380965   17.062642
  C     17.127038   16.618718   17.903861
  C     16.996310   17.904790   17.467550
  C     16.142857   18.455669   16.340421
  N     17.741386   18.921539   18.073451
  C     18.856261   18.720011   18.838837
  S     19.797620   19.974900   19.362641
  N     19.160508   17.416511   19.127866
  C     18.275961   16.265328   18.863879
  C     17.711429   15.744584   20.181354
  C     17.758941   14.367304   20.464163
  C     17.235834   13.863996   21.667027
  C     16.655186   14.745159   22.594959
  C     16.597067   16.116924   22.313356
  O     16.028602   16.968586   23.203784
  C     17.118532   16.615112   21.115118
  H     16.377866   15.644128   13.571817
  H     15.911219   13.955682   13.274691
  H     17.250013   14.318411   14.379118
  H     14.274648   14.994867   14.820742
  H     15.177799   13.741297   15.698959
  H     15.090003   18.179745   16.479459
  H     16.474742   18.063204   15.371158
  H     16.179505   19.549862   16.274467
  H     17.545773   19.883755   17.848475
  H     19.977840   17.290704   19.711175
  H     18.916206   15.500494   18.401096
  H     18.194203   13.682600   19.739612
  H     17.277289   12.795895   21.872805
  H     16.248164   14.360783   23.524227
  H     15.754388   16.444946   23.971375
  H     17.060255   17.680128   20.918362

 Total Charge           Charge          ....    0
 Multiplicity           Mult            ....    1
 Number of Electrons    NEL             ....  154
 Basis Dimension        Dim             ....  828

ORBITAL ENERGIES
----------------

  NO   OCC          E(Eh)            E(eV)
   0   2.0000     -91.888745     -2500.4199
   1   2.0000     -20.604646      -560.6809
   2   2.0000     -20.590413      -560.2936
   3   2.0000     -20.544261      -559.0378
   4   2.0000     -15.629644      -425.3042
   5   2.0000     -15.605531      -424.6481
   6   2.0000     -11.397121      -310.1314
   7   2.0000     -11.382573      -309.7356
   8   2.0000     -11.342118      -308.6347
   9   2.0000     -11.306761      -307.6726
  10   2.0000     -11.304401      -307.6084
  11   2.0000     -11.302079      -307.5452
  12   2.0000     -11.262215      -306.4605
  13   2.0000     -11.261093      -306.4299
  14   2.0000     -11.252894      -306.2068
  15   2.0000     -11.247001      -306.0465
  16   2.0000     -11.235726      -305.7396
  17   2.0000     -11.231787      -305.6325
  18   2.0000     -11.229710      -305.5759
  19   2.0000     -11.228507      -305.5432
  20   2.0000      -8.893804      -242.0127
  21   2.0000      -6.575382      -178.9252
  22   2.0000      -6.573374      -178.8706
  23   2.0000      -6.572785      -178.8546
  24   2.0000      -1.454284       -39.5731
  25   2.0000      -1.410089       -38.3705
  26   2.0000      -1.356827       -36.9211
  27   2.0000      -1.341974       -36.5170
  28   2.0000      -1.238130       -33.6912
  29   2.0000      -1.151306       -31.3286
  30   2.0000      -1.120810       -30.4988
  31   2.0000      -1.042739       -28.3744
  32   2.0000      -1.035225       -28.1699
  33   2.0000      -1.008875       -27.4529
  34   2.0000      -0.998657       -27.1748
  35   2.0000      -0.983546       -26.7637
  36   2.0000      -0.921544       -25.0765
  37   2.0000      -0.894725       -24.3467
  38   2.0000      -0.849011       -23.1028
  39   2.0000      -0.834879       -22.7182
  40   2.0000      -0.826793       -22.4982
  41   2.0000      -0.814577       -22.1658
  42   2.0000      -0.755225       -20.5507
  43   2.0000      -0.733356       -19.9556
  44   2.0000      -0.724003       -19.7011
  45   2.0000      -0.692239       -18.8368
  46   2.0000      -0.685605       -18.6563
  47   2.0000      -0.680218       -18.5097
  48   2.0000      -0.669769       -18.2253
  49   2.0000      -0.660621       -17.9764
  50   2.0000      -0.647249       -17.6125
  51   2.0000      -0.641126       -17.4459
  52   2.0000      -0.631271       -17.1777
  53   2.0000      -0.612001       -16.6534
  54   2.0000      -0.602582       -16.3971
  55   2.0000      -0.596707       -16.2372
  56   2.0000      -0.593350       -16.1459
  57   2.0000      -0.585825       -15.9411
  58   2.0000      -0.573217       -15.5980
  59   2.0000      -0.565977       -15.4010
  60   2.0000      -0.560024       -15.2390
  61   2.0000      -0.548359       -14.9216
  62   2.0000      -0.537933       -14.6379
  63   2.0000      -0.530619       -14.4389
  64   2.0000      -0.514714       -14.0061
  65   2.0000      -0.510464       -13.8904
  66   2.0000      -0.498907       -13.5760
  67   2.0000      -0.493688       -13.4339
  68   2.0000      -0.479188       -13.0394
  69   2.0000      -0.463977       -12.6254
  70   2.0000      -0.454708       -12.3732
  71   2.0000      -0.454181       -12.3589
  72   2.0000      -0.357944        -9.7401
  73   2.0000      -0.342307        -9.3147
  74   2.0000      -0.327771        -8.9191
  75   2.0000      -0.317382        -8.6364
  76   2.0000      -0.313088        -8.5195
  77   0.0000       0.076354         2.0777
  78   0.0000       0.114796         3.1238
  79   0.0000       0.120778         3.2865
  80   0.0000       0.137188         3.7331
  81   0.0000       0.140740         3.8297

MULLIKEN ATOMIC CHARGES
-----------------------
   0 C :   -0.301677
   1 C :    0.029819
   2 O :   -0.345428
   3 C :    0.422452
   4 O :   -0.436263
   5 C :   -0.145599
   6 C :    0.155499
   7 C :   -0.281017
   8 N :   -0.126113
   9 C :    0.188820
  10 S :   -0.437594
  11 N :   -0.201596
  12 C :    0.030555
  13 C :    0.059932
  14 C :   -0.197157
  15 C :   -0.128018
  16 C :   -0.280848
  17 C :    0.307496
  18 O :   -0.357568
  19 C :   -0.252996
  20 H :    0.089834
  21 H :    0.101132
  22 H :    0.118357
  23 H :    0.110457
  24 H :    0.109501
  25 H :    0.133489
  26 H :    0.123462
  27 H :    0.103737
  28 H :    0.199373
  29 H :    0.194236
  30 H :    0.162388
  31 H :    0.160499
  32 H :    0.159339
  33 H :    0.127480
  34 H :    0.239751
  35 H :    0.164264
Sum of atomic charges:   -0.0000000

LOEWDIN ATOMIC CHARGES
----------------------
   0 C :    0.103937
   1 C :   -0.016198
   2 O :    0.306211
   3 C :   -0.414162
   4 O :    0.093824
   5 C :   -0.088148
   6 C :   -0.055839
   7 C :    0.124624
   8 N :    0.406716
   9 C :   -0.464553
  10 S :   -0.035253
  11 N :    0.397722
  12 C :   -0.043302
  13 C :   -0.039970
  14 C :    0.017455
  15 C :    0.041417
  16 C :   -0.003019
  17 C :   -0.190976
  18 O :    0.394097
  19 C :    0.029180
  20 H :   -0.032315
  21 H :   -0.025564
  22 H :   -0.024517
  23 H :   -0.025170
  24 H :   -0.026217
  25 H :   -0.008074
  26 H :   -0.010576
  27 H :   -0.020785
  28 H :   -0.059133
  29 H :   -0.063095
  30 H :   -0.005846
  31 H :   -0.024748
  32 H :   -0.021216
  33 H :   -0.036621
  34 H :   -0.154923
  35 H :   -0.024962

  Mayer bond orders larger than 0.100000
B(  0-C ,  1-C ) :   0.9602 B(  0-C , 20-H ) :   0.9780 B(  0-C , 21-H ) :   0.9768
B(  0-C , 22-H ) :   0.9737 B(  1-C ,  2-O ) :   0.8977 B(  1-C , 23-H ) :   0.9846
B(  1-C , 24-H ) :   0.9772 B(  2-O ,  3-C ) :   1.1507 B(  3-C ,  4-O ) :   1.9458
B(  3-C ,  5-C ) :   1.0632 B(  5-C ,  6-C ) :   1.6384 B(  5-C , 12-C ) :   0.9591
B(  6-C ,  7-C ) :   0.9577 B(  6-C ,  8-N ) :   1.1153 B(  7-C , 25-H ) :   0.9633
B(  7-C , 26-H ) :   0.9635 B(  7-C , 27-H ) :   0.9913 B(  8-N ,  9-C ) :   1.1814
B(  8-N , 28-H ) :   0.9476 B(  9-C , 10-S ) :   1.6154 B(  9-C , 11-N ) :   1.3033
B( 11-N , 12-C ) :   0.9806 B( 11-N , 29-H ) :   0.9523 B( 12-C , 13-C ) :   0.9660
B( 12-C , 30-H ) :   0.9930 B( 13-C , 14-C ) :   1.3795 B( 13-C , 19-C ) :   1.3674
B( 14-C , 15-C ) :   1.3869 B( 14-C , 31-H ) :   0.9642 B( 15-C , 16-C ) :   1.3663
B( 15-C , 32-H ) :   0.9715 B( 16-C , 17-C ) :   1.3298 B( 16-C , 33-H ) :   0.9862
B( 17-C , 18-O ) :   1.1090 B( 17-C , 19-C ) :   1.3747 B( 18-O , 34-H ) :   0.9808
B( 19-C , 35-H ) :   0.9572

MP2 TOTAL ENERGY:    -1274.341409847 Eh
FINAL SINGLE POINT ENERGY     -1274.341409846602

DIPOLE MOMENT
-------------
                                X             Y             Z
Electronic contribution:      7.78151       8.11652      13.46509
Nuclear contribution   :     -9.41017      -9.11875     -14.40764
                        -----------------------------------------
Total Dipole Moment    :     -1.62866      -1.00223      -0.94256
                        -----------------------------------------
Magnitude (a.u.)       :      2.13200
Magnitude (Debye)      :      5.41911

Rotational constants in cm-1:     0.011332     0.008022     0.005472
Rotational constants in MHz :   339.718417   240.504015   164.057344

                             ****ORCA TERMINATED NORMALLY****
TOTAL RUN TIME: 0 days 2 hours 22 minutes 52 seconds 267 msec
