                         Program Version 4.2.0 -  RELEASE  -
|  1> ! ri-mp2 cc-pvtz cc-pvtz/c TightSCF  NoKeepInts
|  2>
|  3> %scf
|  4>   MaxCore 4096
|  5> end
|  6> *xyz  0  1
|  7>     C       15.2208446   13.6306223   16.0469860
|  8>     C       15.0074561   15.0512168   16.5654172
|  9>     O       16.1571284   15.7950196   16.9535458
| 10>     C       17.4243358   15.9600917   16.4600977
| 11>     O       18.0918921   15.2038830   15.7781276
| 12>     C       17.8866053   16.8883858   17.5014641
| 13>     C       17.3883134   18.1440930   17.3978737
| 14>     C       16.6534543   18.6476306   16.1586810
| 15>     N       17.8898091   19.1675803   18.1960351
| 16>     C       18.8687998   19.0075034   19.1431631
| 17>     S       19.3023740   20.2776393   20.1108370
| 18>     N       19.4018735   17.7377796   19.2890538
| 19>     C       18.9878881   16.5500090   18.4878560
| 20>     C       18.1280422   15.9797972   19.6642485
| 21>     C       18.3894515   14.6181671   19.9795579
| 22>     C       17.5610048   13.8592735   20.8132693
| 23>     C       16.4315426   14.4530943   21.3801374
| 24>     C       16.1472280   15.7959396   21.1050621
| 25>     O       15.0238550   16.3358089   21.6380585
| 26>     C       16.9701960   16.5546417   20.2528308
| 27>     H       16.2332468   13.2548673   16.2182998
| 28>     H       15.0455624   13.6671990   14.9627932
| 29>     H       14.4806451   12.9430750   16.4707359
| 30>     H       14.2855034   15.6477224   15.9993935
| 31>     H       14.5299908   14.8907480   17.5439794
| 32>     H       17.0679364   18.1903918   15.2455004
| 33>     H       16.7669189   19.7268823   16.0070480
| 34>     H       15.5856463   18.4057189   16.1869414
| 35>     H       17.5363216   20.1044007   18.0765565
| 36>     H       20.0189820   17.6347016   20.0831162
| 37>     H       19.5834402   15.6432379   18.3576892
| 38>     H       19.2219478   14.0912659   19.5204313
| 39>     H       17.7826388   12.8070914   20.9859875
| 40>     H       15.7753832   13.8616300   22.0117464
| 41>     H       14.6341141   15.6562967   22.2122435
| 42>     H       16.6666220   17.5685924   20.0292415
| 43> *
| 44>
| 45>                          ****END OF INPUT****

CARTESIAN COORDINATES (ANGSTROEM)
---------------------------------
  C     15.220845   13.630622   16.046986
  C     15.007456   15.051217   16.565417
  O     16.157128   15.795020   16.953546
  C     17.424336   15.960092   16.460098
  O     18.091892   15.203883   15.778128
  C     17.886605   16.888386   17.501464
  C     17.388313   18.144093   17.397874
  C     16.653454   18.647631   16.158681
  N     17.889809   19.167580   18.196035
  C     18.868800   19.007503   19.143163
  S     19.302374   20.277639   20.110837
  N     19.401874   17.737780   19.289054
  C     18.987888   16.550009   18.487856
  C     18.128042   15.979797   19.664248
  C     18.389451   14.618167   19.979558
  C     17.561005   13.859273   20.813269
  C     16.431543   14.453094   21.380137
  C     16.147228   15.795940   21.105062
  O     15.023855   16.335809   21.638058
  C     16.970196   16.554642   20.252831
  H     16.233247   13.254867   16.218300
  H     15.045562   13.667199   14.962793
  H     14.480645   12.943075   16.470736
  H     14.285503   15.647722   15.999394
  H     14.529991   14.890748   17.543979
  H     17.067936   18.190392   15.245500
  H     16.766919   19.726882   16.007048
  H     15.585646   18.405719   16.186941
  H     17.536322   20.104401   18.076556
  H     20.018982   17.634702   20.083116
  H     19.583440   15.643238   18.357689
  H     19.221948   14.091266   19.520431
  H     17.782639   12.807091   20.985987
  H     15.775383   13.861630   22.011746
  H     14.634114   15.656297   22.212243
  H     16.666622   17.568592   20.029242

 Total Charge           Charge          ....    0
 Multiplicity           Mult            ....    1
 Number of Electrons    NEL             ....  154
 Basis Dimension        Dim             ....  828

ORBITAL ENERGIES
----------------

  NO   OCC          E(Eh)            E(eV)
   0   2.0000     -91.886318     -2500.3538
   1   2.0000     -20.600825      -560.5770
   2   2.0000     -20.593623      -560.3810
   3   2.0000     -20.562720      -559.5401
   4   2.0000     -15.619118      -425.0178
   5   2.0000     -15.611240      -424.8034
   6   2.0000     -11.402349      -310.2737
   7   2.0000     -11.383128      -309.7507
   8   2.0000     -11.322152      -308.0914
   9   2.0000     -11.314124      -307.8730
  10   2.0000     -11.311373      -307.7981
  11   2.0000     -11.299372      -307.4715
  12   2.0000     -11.261478      -306.4404
  13   2.0000     -11.260624      -306.4172
  14   2.0000     -11.257537      -306.3332
  15   2.0000     -11.248991      -306.1006
  16   2.0000     -11.236206      -305.7527
  17   2.0000     -11.235949      -305.7457
  18   2.0000     -11.231179      -305.6159
  19   2.0000     -11.227984      -305.5290
  20   2.0000      -8.891328      -241.9453
  21   2.0000      -6.572901      -178.8577
  22   2.0000      -6.570896      -178.8032
  23   2.0000      -6.570320      -178.7875
  24   2.0000      -1.454146       -39.5693
  25   2.0000      -1.414071       -38.4788
  26   2.0000      -1.371512       -37.3207
  27   2.0000      -1.334358       -36.3097
  28   2.0000      -1.237189       -33.6656
  29   2.0000      -1.154637       -31.4193
  30   2.0000      -1.125634       -30.6301
  31   2.0000      -1.052778       -28.6475
  32   2.0000      -1.038604       -28.2619
  33   2.0000      -1.011008       -27.5109
  34   2.0000      -0.994724       -27.0678
  35   2.0000      -0.983782       -26.7701
  36   2.0000      -0.927565       -25.2403
  37   2.0000      -0.907216       -24.6866
  38   2.0000      -0.845207       -22.9993
  39   2.0000      -0.833678       -22.6855
  40   2.0000      -0.828032       -22.5319
  41   2.0000      -0.815978       -22.2039
  42   2.0000      -0.740281       -20.1441
  43   2.0000      -0.730845       -19.8873
  44   2.0000      -0.720886       -19.6163
  45   2.0000      -0.697699       -18.9854
  46   2.0000      -0.694077       -18.8868
  47   2.0000      -0.689233       -18.7550
  48   2.0000      -0.675988       -18.3946
  49   2.0000      -0.662796       -18.0356
  50   2.0000      -0.656176       -17.8555
  51   2.0000      -0.643571       -17.5125
  52   2.0000      -0.633101       -17.2276
  53   2.0000      -0.609907       -16.5964
  54   2.0000      -0.601385       -16.3645
  55   2.0000      -0.599386       -16.3101
  56   2.0000      -0.596129       -16.2215
  57   2.0000      -0.587381       -15.9835
  58   2.0000      -0.572453       -15.5772
  59   2.0000      -0.569463       -15.4959
  60   2.0000      -0.553425       -15.0595
  61   2.0000      -0.550039       -14.9673
  62   2.0000      -0.548134       -14.9155
  63   2.0000      -0.529966       -14.4211
  64   2.0000      -0.514798       -14.0084
  65   2.0000      -0.509436       -13.8625
  66   2.0000      -0.501188       -13.6380
  67   2.0000      -0.493873       -13.4390
  68   2.0000      -0.481621       -13.1056
  69   2.0000      -0.463245       -12.6055
  70   2.0000      -0.453581       -12.3426
  71   2.0000      -0.446341       -12.1456
  72   2.0000      -0.343155        -9.3377
  73   2.0000      -0.335194        -9.1211
  74   2.0000      -0.324131        -8.8201
  75   2.0000      -0.316768        -8.6197
  76   2.0000      -0.303680        -8.2635
  77   0.0000       0.076739         2.0882
  78   0.0000       0.112052         3.0491
  79   0.0000       0.119534         3.2527
  80   0.0000       0.131089         3.5671
  81   0.0000       0.136513         3.7147

MULLIKEN ATOMIC CHARGES
-----------------------
   0 C :   -0.291936
   1 C :    0.040275
   2 O :   -0.317561
   3 C :    0.385905
   4 O :   -0.398587
   5 C :   -0.041287
   6 C :    0.073440
   7 C :   -0.321174
   8 N :   -0.124969
   9 C :    0.203323
  10 S :   -0.436853
  11 N :   -0.199723
  12 C :    0.075381
  13 C :    0.038210
  14 C :   -0.217759
  15 C :   -0.120619
  16 C :   -0.285123
  17 C :    0.310156
  18 O :   -0.360766
  19 C :   -0.239926
  20 H :    0.126269
  21 H :    0.088000
  22 H :    0.099064
  23 H :    0.088677
  24 H :    0.090480
  25 H :    0.118933
  26 H :    0.112945
  27 H :    0.128140
  28 H :    0.192065
  29 H :    0.182675
  30 H :    0.183136
  31 H :    0.133380
  32 H :    0.156507
  33 H :    0.125753
  34 H :    0.242904
  35 H :    0.160664
Sum of atomic charges:   -0.0000000

LOEWDIN ATOMIC CHARGES
----------------------
   0 C :    0.108256
   1 C :   -0.045617
   2 O :    0.349482
   3 C :   -0.413336
   4 O :    0.111888
   5 C :   -0.096371
   6 C :   -0.096511
   7 C :    0.125458
   8 N :    0.397052
   9 C :   -0.451427
  10 S :   -0.037267
  11 N :    0.392248
  12 C :    0.011244
  13 C :   -0.031986
  14 C :   -0.008971
  15 C :    0.035715
  16 C :   -0.010764
  17 C :   -0.189531
  18 O :    0.391432
  19 C :    0.033155
  20 H :   -0.020536
  21 H :   -0.027428
  22 H :   -0.023959
  23 H :   -0.033863
  24 H :   -0.020268
  25 H :   -0.006882
  26 H :   -0.016944
  27 H :   -0.018717
  28 H :   -0.060033
  29 H :   -0.067589
  30 H :   -0.007024
  31 H :   -0.034596
  32 H :   -0.019722
  33 H :   -0.035871
  34 H :   -0.150889
  35 H :   -0.029829

  Mayer bond orders larger than 0.100000
B(  0-C ,  1-C ) :   0.9422 B(  0-C , 20-H ) :   0.9724 B(  0-C , 21-H ) :   0.9823
B(  0-C , 22-H ) :   0.9804 B(  1-C ,  2-O ) :   0.9238 B(  1-C , 23-H ) :   0.9793
B(  1-C , 24-H ) :   0.9871 B(  2-O ,  3-C ) :   1.1594 B(  2-O ,  5-C ) :  -0.1000
B(  3-C ,  4-O ) :   2.0697 B(  3-C ,  5-C ) :   0.9547 B(  5-C ,  6-C ) :   1.7376
B(  5-C , 12-C ) :   0.9823 B(  6-C ,  7-C ) :   0.9190 B(  6-C ,  8-N ) :   1.0973
B(  7-C , 25-H ) :   0.9739 B(  7-C , 26-H ) :   0.9870 B(  7-C , 27-H ) :   0.9756
B(  8-N ,  9-C ) :   1.1949 B(  8-N , 28-H ) :   0.9520 B(  9-C , 10-S ) :   1.6059
B(  9-C , 11-N ) :   1.2840 B( 11-N , 12-C ) :   0.9989 B( 11-N , 29-H ) :   0.9565
B( 12-C , 13-C ) :   0.8897 B( 12-C , 30-H ) :   0.9835 B( 13-C , 14-C ) :   1.3741
B( 13-C , 19-C ) :   1.3794 B( 14-C , 15-C ) :   1.3762 B( 14-C , 31-H ) :   0.9764
B( 15-C , 16-C ) :   1.3768 B( 15-C , 32-H ) :   0.9717 B( 16-C , 17-C ) :   1.3092
B( 16-C , 33-H ) :   0.9883 B( 17-C , 18-O ) :   1.1042 B( 17-C , 19-C ) :   1.3987
B( 18-O , 34-H ) :   0.9780 B( 19-C , 35-H ) :   0.9526

MP2 TOTAL ENERGY:    -1274.239909782 Eh
FINAL SINGLE POINT ENERGY     -1274.239909781994

DIPOLE MOMENT
-------------
                                X             Y             Z
Electronic contribution:     11.03952      11.06196       8.09453
Nuclear contribution   :    -12.72841     -12.54123      -8.74137
                        -----------------------------------------
Total Dipole Moment    :     -1.68889      -1.47927      -0.64685
                        -----------------------------------------
Magnitude (a.u.)       :      2.33645
Magnitude (Debye)      :      5.93879

Rotational constants in cm-1:     0.012265     0.009233     0.006715
Rotational constants in MHz :   367.696870   276.811835   201.307683

                             ****ORCA TERMINATED NORMALLY****
TOTAL RUN TIME: 0 days 1 hours 38 minutes 38 seconds 570 msec
