                         Program Version 5.0.0 -  RELEASE  -
|  1> ! RI-MP2 cc-pVTZ cc-pVTZ/c TightSCF KeepDens NoKeepInts
|  2>
|  3> *xyz  0  1
|  4>     C     6.2356043   -9.2236611    6.8377042
|  5>     C     7.5770311   -9.8269564    7.2021081
|  6>     O     8.6220577   -8.8493207    7.2111798
|  7>     C     9.9066454   -9.2480268    7.0644096
|  8>     O    10.1597829  -10.3245560    6.5510154
|  9>     C    10.9247487   -8.2182253    7.2795071
| 10>     C    10.6982229   -6.9515707    7.6852817
| 11>     C     9.3855095   -6.3169874    7.9757284
| 12>     N    11.7644577   -6.1022565    7.9836061
| 13>     C    13.0102239   -6.3799151    7.7464307
| 14>     S    14.2315003   -5.3468029    7.9280740
| 15>     N    13.2887839   -7.6051984    7.3142982
| 16>     C    12.2797218   -8.7520482    7.1001760
| 17>     C    12.6894293   -9.8013000    8.0836914
| 18>     C    12.1865422   -9.8328288    9.3719887
| 19>     C    12.6945818  -10.6414170   10.3950007
| 20>     C    13.8129867  -11.4576635   10.1104388
| 21>     C    14.3644134  -11.4461077    8.8394407
| 22>     O    15.5380018  -12.1132241    8.6731687
| 23>     C    13.7961511  -10.6361539    7.8011311
| 24>     H     5.5161800  -10.0167666    6.5997708
| 25>     H     6.3576655   -8.4790077    6.0415995
| 26>     H     5.7601106   -8.7025426    7.6776630
| 27>     H     7.5963878  -10.2670146    8.2066795
| 28>     H     7.7553458  -10.6515305    6.5010575
| 29>     H     8.7889744   -6.0817802    7.0857780
| 30>     H     9.4214851   -5.2854458    8.3469659
| 31>     H     8.7743959   -6.8601029    8.7069989
| 32>     H    11.5441853   -5.1734789    8.3224549
| 33>     H    14.2694128   -7.8584127    7.3289930
| 34>     H    12.4127920   -9.1066303    6.0707327
| 35>     H    11.4190184   -9.0906266    9.5705816
| 36>     H    12.1775651  -10.6442706   11.3500350
| 37>     H    14.2547692  -12.1208680   10.8482627
| 38>     H    15.6875788  -12.5972104    9.5038992
| 39>     H    14.3203226  -10.5964117    6.8508360
| 40> *
| 41>
| 42>                          ****END OF INPUT****

CARTESIAN COORDINATES (ANGSTROEM)
---------------------------------
  C      6.235604   -9.223661    6.837704
  C      7.577031   -9.826956    7.202108
  O      8.622058   -8.849321    7.211180
  C      9.906645   -9.248027    7.064410
  O     10.159783  -10.324556    6.551015
  C     10.924749   -8.218225    7.279507
  C     10.698223   -6.951571    7.685282
  C      9.385509   -6.316987    7.975728
  N     11.764458   -6.102257    7.983606
  C     13.010224   -6.379915    7.746431
  S     14.231500   -5.346803    7.928074
  N     13.288784   -7.605198    7.314298
  C     12.279722   -8.752048    7.100176
  C     12.689429   -9.801300    8.083691
  C     12.186542   -9.832829    9.371989
  C     12.694582  -10.641417   10.395001
  C     13.812987  -11.457663   10.110439
  C     14.364413  -11.446108    8.839441
  O     15.538002  -12.113224    8.673169
  C     13.796151  -10.636154    7.801131
  H      5.516180  -10.016767    6.599771
  H      6.357666   -8.479008    6.041600
  H      5.760111   -8.702543    7.677663
  H      7.596388  -10.267015    8.206679
  H      7.755346  -10.651530    6.501057
  H      8.788974   -6.081780    7.085778
  H      9.421485   -5.285446    8.346966
  H      8.774396   -6.860103    8.706999
  H     11.544185   -5.173479    8.322455
  H     14.269413   -7.858413    7.328993
  H     12.412792   -9.106630    6.070733
  H     11.419018   -9.090627    9.570582
  H     12.177565  -10.644271   11.350035
  H     14.254769  -12.120868   10.848263
  H     15.687579  -12.597210    9.503899
  H     14.320323  -10.596412    6.850836

 Total Charge           Charge          ....    0
 Multiplicity           Mult            ....    1
 Number of Electrons    NEL             ....  154
 Basis Dimension        Dim             ....  828

ORBITAL ENERGIES
----------------

  NO   OCC          E(Eh)            E(eV)
   0   2.0000     -91.873814     -2500.0136
   1   2.0000     -20.603360      -560.6459
   2   2.0000     -20.593334      -560.3731
   3   2.0000     -20.542174      -558.9810
   4   2.0000     -15.628892      -425.2838
   5   2.0000     -15.594617      -424.3511
   6   2.0000     -11.390479      -309.9507
   7   2.0000     -11.360453      -309.1336
   8   2.0000     -11.341697      -308.6233
   9   2.0000     -11.312682      -307.8337
  10   2.0000     -11.304170      -307.6021
  11   2.0000     -11.295977      -307.3792
  12   2.0000     -11.260306      -306.4085
  13   2.0000     -11.256908      -306.3160
  14   2.0000     -11.256439      -306.3033
  15   2.0000     -11.255190      -306.2693
  16   2.0000     -11.242075      -305.9124
  17   2.0000     -11.239208      -305.8344
  18   2.0000     -11.235660      -305.7379
  19   2.0000     -11.229382      -305.5670
  20   2.0000      -8.881438      -241.6762
  21   2.0000      -6.563321      -178.5970
  22   2.0000      -6.560932      -178.5320
  23   2.0000      -6.560401      -178.5176
  24   2.0000      -1.462513       -39.7970
  25   2.0000      -1.412163       -38.4269
  26   2.0000      -1.365513       -37.1575
  27   2.0000      -1.357060       -36.9275
  28   2.0000      -1.237604       -33.6769
  29   2.0000      -1.165424       -31.7128
  30   2.0000      -1.134146       -30.8617
  31   2.0000      -1.054669       -28.6990
  32   2.0000      -1.047769       -28.5113
  33   2.0000      -1.016644       -27.6643
  34   2.0000      -1.003708       -27.3123
  35   2.0000      -0.988311       -26.8933
  36   2.0000      -0.931044       -25.3350
  37   2.0000      -0.895856       -24.3775
  38   2.0000      -0.862845       -23.4792
  39   2.0000      -0.845325       -23.0025
  40   2.0000      -0.831074       -22.6147
  41   2.0000      -0.817122       -22.2350
  42   2.0000      -0.765121       -20.8200
  43   2.0000      -0.750836       -20.4313
  44   2.0000      -0.726790       -19.7770
  45   2.0000      -0.695625       -18.9289
  46   2.0000      -0.690108       -18.7788
  47   2.0000      -0.685272       -18.6472
  48   2.0000      -0.681605       -18.5474
  49   2.0000      -0.661265       -17.9939
  50   2.0000      -0.656950       -17.8765
  51   2.0000      -0.648560       -17.6482
  52   2.0000      -0.631864       -17.1939
  53   2.0000      -0.621076       -16.9003
  54   2.0000      -0.603937       -16.4340
  55   2.0000      -0.597879       -16.2691
  56   2.0000      -0.593552       -16.1514
  57   2.0000      -0.587859       -15.9965
  58   2.0000      -0.579428       -15.7670
  59   2.0000      -0.573276       -15.5996
  60   2.0000      -0.565439       -15.3864
  61   2.0000      -0.552310       -15.0291
  62   2.0000      -0.548845       -14.9348
  63   2.0000      -0.525771       -14.3070
  64   2.0000      -0.517474       -14.0812
  65   2.0000      -0.508656       -13.8412
  66   2.0000      -0.501888       -13.6571
  67   2.0000      -0.497165       -13.5286
  68   2.0000      -0.481494       -13.1021
  69   2.0000      -0.465900       -12.6778
  70   2.0000      -0.459740       -12.5102
  71   2.0000      -0.451198       -12.2777
  72   2.0000      -0.361539        -9.8380
  73   2.0000      -0.344980        -9.3874
  74   2.0000      -0.320282        -8.7153
  75   2.0000      -0.319039        -8.6815
  76   2.0000      -0.311087        -8.4651
  77   0.0000       0.073640         2.0038
  78   0.0000       0.107946         2.9374
  79   0.0000       0.112211         3.0534
  80   0.0000       0.131362         3.5745
  81   0.0000       0.135115         3.6767

MULLIKEN ATOMIC CHARGES
-----------------------
   0 C :   -0.273585
   1 C :    0.026235
   2 O :   -0.331600
   3 C :    0.462619
   4 O :   -0.434797
   5 C :   -0.185135
   6 C :    0.128281
   7 C :   -0.312481
   8 N :   -0.076591
   9 C :    0.192947
  10 S :   -0.468942
  11 N :   -0.218070
  12 C :    0.079814
  13 C :    0.143347
  14 C :   -0.212155
  15 C :   -0.148492
  16 C :   -0.258013
  17 C :    0.306038
  18 O :   -0.357784
  19 C :   -0.284206
  20 H :    0.102069
  21 H :    0.101617
  22 H :    0.089572
  23 H :    0.082791
  24 H :    0.117903
  25 H :    0.129779
  26 H :    0.102631
  27 H :    0.128240
  28 H :    0.193020
  29 H :    0.192745
  30 H :    0.156731
  31 H :    0.137617
  32 H :    0.160992
  33 H :    0.123711
  34 H :    0.243378
  35 H :    0.159774
Sum of atomic charges:   -0.0000000

LOEWDIN ATOMIC CHARGES
----------------------
   0 C :    0.104843
   1 C :   -0.029592
   2 O :    0.325238
   3 C :   -0.432681
   4 O :    0.113976
   5 C :   -0.105578
   6 C :   -0.050053
   7 C :    0.117375
   8 N :    0.432631
   9 C :   -0.578991
  10 S :   -0.004298
  11 N :    0.406656
  12 C :   -0.021200
  13 C :   -0.038295
  14 C :    0.006759
  15 C :    0.052256
  16 C :   -0.006163
  17 C :   -0.179826
  18 O :    0.384083
  19 C :    0.042602
  20 H :   -0.018275
  21 H :   -0.023342
  22 H :   -0.029159
  23 H :   -0.032001
  24 H :   -0.024675
  25 H :   -0.005253
  26 H :   -0.018249
  27 H :   -0.009123
  28 H :   -0.040188
  29 H :   -0.068371
  30 H :    0.000302
  31 H :   -0.034364
  32 H :   -0.021809
  33 H :   -0.035213
  34 H :   -0.149565
  35 H :   -0.030456

  Mayer bond orders larger than 0.100000
B(  0-C ,  1-C ) :   0.9628 B(  0-C , 20-H ) :   0.9801 B(  0-C , 21-H ) :   0.9748
B(  0-C , 22-H ) :   0.9821 B(  1-C ,  2-O ) :   0.8983 B(  1-C , 23-H ) :   0.9817
B(  1-C , 24-H ) :   0.9767 B(  2-O ,  3-C ) :   1.1852 B(  3-C ,  4-O ) :   1.9754
B(  3-C ,  5-C ) :   1.0550 B(  5-C ,  6-C ) :   1.6279 B(  5-C , 12-C ) :   0.9992
B(  6-C ,  7-C ) :   0.9634 B(  6-C ,  8-N ) :   1.1652 B(  7-C , 25-H ) :   0.9630
B(  7-C , 26-H ) :   0.9949 B(  7-C , 27-H ) :   0.9639 B(  8-N ,  9-C ) :   1.2218
B(  8-N , 28-H ) :   0.9463 B(  9-C , 10-S ) :   1.5966 B(  9-C , 11-N ) :   1.3241
B( 11-N , 12-C ) :   0.9341 B( 11-N , 29-H ) :   0.9479 B( 12-C , 13-C ) :   0.9729
B( 12-C , 30-H ) :   0.9926 B( 13-C , 14-C ) :   1.3393 B( 13-C , 19-C ) :   1.3741
B( 14-C , 15-C ) :   1.4065 B( 14-C , 31-H ) :   0.9780 B( 15-C , 16-C ) :   1.3425
B( 15-C , 32-H ) :   0.9690 B( 16-C , 17-C ) :   1.3507 B( 16-C , 33-H ) :   0.9876
B( 17-C , 18-O ) :   1.0966 B( 17-C , 19-C ) :   1.3542 B( 18-O , 34-H ) :   0.9758
B( 19-C , 35-H ) :   0.9639

MP2 TOTAL ENERGY:    -1274.313755710 Eh
FINAL SINGLE POINT ENERGY     -1274.313755710162

DIPOLE MOMENT
-------------
                                X             Y             Z
Electronic contribution:     18.63532       3.09006      -0.90789
Nuclear contribution   :    -20.92136      -3.63132       1.86193
                        -----------------------------------------
Total Dipole Moment    :     -2.28604      -0.54126       0.95403
                        -----------------------------------------
Magnitude (a.u.)       :      2.53557
Magnitude (Debye)      :      6.44491

Rotational constants in cm-1:     0.011582     0.008048     0.005300
Rotational constants in MHz :   347.220739   241.264985   158.902359

                             ****ORCA TERMINATED NORMALLY****
TOTAL RUN TIME: 0 days 1 hours 50 minutes 15 seconds 221 msec
