                         Program Version 5.0.0 -  RELEASE  -
|  1> ! RI-MP2 cc-pVTZ cc-pVTZ/c TightSCF KeepDens NoKeepInts
|  2>
|  3> %pointcharges "srfp_output"
|  4>
|  5> *xyz  0  1
|  6>     C     6.2356043   -9.2236611    6.8377042
|  7>     C     7.5770311   -9.8269564    7.2021081
|  8>     O     8.6220577   -8.8493207    7.2111798
|  9>     C     9.9066454   -9.2480268    7.0644096
| 10>     O    10.1597829  -10.3245560    6.5510154
| 11>     C    10.9247487   -8.2182253    7.2795071
| 12>     C    10.6982229   -6.9515707    7.6852817
| 13>     C     9.3855095   -6.3169874    7.9757284
| 14>     N    11.7644577   -6.1022565    7.9836061
| 15>     C    13.0102239   -6.3799151    7.7464307
| 16>     S    14.2315003   -5.3468029    7.9280740
| 17>     N    13.2887839   -7.6051984    7.3142982
| 18>     C    12.2797218   -8.7520482    7.1001760
| 19>     C    12.6894293   -9.8013000    8.0836914
| 20>     C    12.1865422   -9.8328288    9.3719887
| 21>     C    12.6945818  -10.6414170   10.3950007
| 22>     C    13.8129867  -11.4576635   10.1104388
| 23>     C    14.3644134  -11.4461077    8.8394407
| 24>     O    15.5380018  -12.1132241    8.6731687
| 25>     C    13.7961511  -10.6361539    7.8011311
| 26>     H     5.5161800  -10.0167666    6.5997708
| 27>     H     6.3576655   -8.4790077    6.0415995
| 28>     H     5.7601106   -8.7025426    7.6776630
| 29>     H     7.5963878  -10.2670146    8.2066795
| 30>     H     7.7553458  -10.6515305    6.5010575
| 31>     H     8.7889744   -6.0817802    7.0857780
| 32>     H     9.4214851   -5.2854458    8.3469659
| 33>     H     8.7743959   -6.8601029    8.7069989
| 34>     H    11.5441853   -5.1734789    8.3224549
| 35>     H    14.2694128   -7.8584127    7.3289930
| 36>     H    12.4127920   -9.1066303    6.0707327
| 37>     H    11.4190184   -9.0906266    9.5705816
| 38>     H    12.1775651  -10.6442706   11.3500350
| 39>     H    14.2547692  -12.1208680   10.8482627
| 40>     H    15.6875788  -12.5972104    9.5038992
| 41>     H    14.3203226  -10.5964117    6.8508360
| 42> *
| 43>
| 44>                          ****END OF INPUT****

CARTESIAN COORDINATES (ANGSTROEM)
---------------------------------
  C      6.235604   -9.223661    6.837704
  C      7.577031   -9.826956    7.202108
  O      8.622058   -8.849321    7.211180
  C      9.906645   -9.248027    7.064410
  O     10.159783  -10.324556    6.551015
  C     10.924749   -8.218225    7.279507
  C     10.698223   -6.951571    7.685282
  C      9.385509   -6.316987    7.975728
  N     11.764458   -6.102257    7.983606
  C     13.010224   -6.379915    7.746431
  S     14.231500   -5.346803    7.928074
  N     13.288784   -7.605198    7.314298
  C     12.279722   -8.752048    7.100176
  C     12.689429   -9.801300    8.083691
  C     12.186542   -9.832829    9.371989
  C     12.694582  -10.641417   10.395001
  C     13.812987  -11.457663   10.110439
  C     14.364413  -11.446108    8.839441
  O     15.538002  -12.113224    8.673169
  C     13.796151  -10.636154    7.801131
  H      5.516180  -10.016767    6.599771
  H      6.357666   -8.479008    6.041600
  H      5.760111   -8.702543    7.677663
  H      7.596388  -10.267015    8.206679
  H      7.755346  -10.651530    6.501057
  H      8.788974   -6.081780    7.085778
  H      9.421485   -5.285446    8.346966
  H      8.774396   -6.860103    8.706999
  H     11.544185   -5.173479    8.322455
  H     14.269413   -7.858413    7.328993
  H     12.412792   -9.106630    6.070733
  H     11.419018   -9.090627    9.570582
  H     12.177565  -10.644271   11.350035
  H     14.254769  -12.120868   10.848263
  H     15.687579  -12.597210    9.503899
  H     14.320323  -10.596412    6.850836

 Total Charge           Charge          ....    0
 Multiplicity           Mult            ....    1
 Number of Electrons    NEL             ....  154
 Basis Dimension        Dim             ....  828

ORBITAL ENERGIES
----------------

  NO   OCC          E(Eh)            E(eV)
   0   2.0000     -92.326609     -2512.3348
   1   2.0000     -21.012689      -571.7843
   2   2.0000     -20.997245      -571.3641
   3   2.0000     -20.972920      -570.7022
   4   2.0000     -16.041582      -436.5136
   5   2.0000     -16.019569      -435.9146
   6   2.0000     -11.818647      -321.6017
   7   2.0000     -11.798297      -321.0480
   8   2.0000     -11.750635      -319.7510
   9   2.0000     -11.720228      -318.9236
  10   2.0000     -11.717117      -318.8390
  11   2.0000     -11.690805      -318.1230
  12   2.0000     -11.665726      -317.4406
  13   2.0000     -11.665646      -317.4384
  14   2.0000     -11.660755      -317.3053
  15   2.0000     -11.652160      -317.0714
  16   2.0000     -11.645477      -316.8896
  17   2.0000     -11.644883      -316.8734
  18   2.0000     -11.638791      -316.7076
  19   2.0000     -11.621691      -316.2423
  20   2.0000      -9.335994      -254.0453
  21   2.0000      -7.018341      -190.9788
  22   2.0000      -7.015939      -190.9134
  23   2.0000      -7.015581      -190.9037
  24   2.0000      -1.880387       -51.1679
  25   2.0000      -1.817156       -49.4473
  26   2.0000      -1.783973       -48.5444
  27   2.0000      -1.781836       -48.4862
  28   2.0000      -1.655396       -45.0456
  29   2.0000      -1.579161       -42.9712
  30   2.0000      -1.545271       -42.0490
  31   2.0000      -1.461083       -39.7581
  32   2.0000      -1.448871       -39.4258
  33   2.0000      -1.422071       -38.6965
  34   2.0000      -1.416821       -38.5536
  35   2.0000      -1.410109       -38.3710
  36   2.0000      -1.340661       -36.4813
  37   2.0000      -1.301600       -35.4183
  38   2.0000      -1.276330       -34.7307
  39   2.0000      -1.252637       -34.0860
  40   2.0000      -1.237630       -33.6776
  41   2.0000      -1.223644       -33.2970
  42   2.0000      -1.177229       -32.0340
  43   2.0000      -1.167855       -31.7790
  44   2.0000      -1.134564       -30.8731
  45   2.0000      -1.109453       -30.1898
  46   2.0000      -1.102974       -30.0135
  47   2.0000      -1.097367       -29.8609
  48   2.0000      -1.091866       -29.7112
  49   2.0000      -1.075875       -29.2760
  50   2.0000      -1.065859       -29.0035
  51   2.0000      -1.053113       -28.6567
  52   2.0000      -1.050487       -28.5852
  53   2.0000      -1.025635       -27.9089
  54   2.0000      -1.007616       -27.4186
  55   2.0000      -1.007586       -27.4178
  56   2.0000      -0.998688       -27.1757
  57   2.0000      -0.995344       -27.0847
  58   2.0000      -0.986252       -26.8373
  59   2.0000      -0.976748       -26.5787
  60   2.0000      -0.966676       -26.3046
  61   2.0000      -0.960673       -26.1412
  62   2.0000      -0.951458       -25.8905
  63   2.0000      -0.936760       -25.4905
  64   2.0000      -0.923231       -25.1224
  65   2.0000      -0.920784       -25.0558
  66   2.0000      -0.914050       -24.8726
  67   2.0000      -0.901670       -24.5357
  68   2.0000      -0.893775       -24.3209
  69   2.0000      -0.888407       -24.1748
  70   2.0000      -0.876289       -23.8450
  71   2.0000      -0.861848       -23.4521
  72   2.0000      -0.785920       -21.3860
  73   2.0000      -0.779592       -21.2138
  74   2.0000      -0.761824       -20.7303
  75   2.0000      -0.750509       -20.4224
  76   2.0000      -0.728217       -19.8158
  77   0.0000      -0.345866        -9.4115
  78   0.0000      -0.300753        -8.1839
  79   0.0000      -0.281233        -7.6527
  80   0.0000      -0.266404        -7.2492
  81   0.0000      -0.249209        -6.7813

MULLIKEN ATOMIC CHARGES
-----------------------
   0 C :   -0.276175
   1 C :    0.022512
   2 O :   -0.308661
   3 C :    0.516334
   4 O :   -0.592186
   5 C :   -0.171203
   6 C :    0.153666
   7 C :   -0.308965
   8 N :   -0.089985
   9 C :    0.345904
  10 S :   -0.763097
  11 N :   -0.239479
  12 C :    0.104429
  13 C :    0.026599
  14 C :   -0.241791
  15 C :   -0.189237
  16 C :   -0.269996
  17 C :    0.300339
  18 O :   -0.443672
  19 C :   -0.236083
  20 H :    0.113529
  21 H :    0.100941
  22 H :    0.100141
  23 H :    0.103949
  24 H :    0.110085
  25 H :    0.137694
  26 H :    0.126629
  27 H :    0.136087
  28 H :    0.257278
  29 H :    0.244266
  30 H :    0.179697
  31 H :    0.186112
  32 H :    0.195846
  33 H :    0.172709
  34 H :    0.323663
  35 H :    0.172121
Sum of atomic charges:   -0.0000000

LOEWDIN ATOMIC CHARGES
----------------------
   0 C :    0.110132
   1 C :   -0.026300
   2 O :    0.342602
   3 C :   -0.406868
   4 O :    0.011466
   5 C :   -0.101847
   6 C :   -0.023033
   7 C :    0.129372
   8 N :    0.454305
   9 C :   -0.540822
  10 S :   -0.192470
  11 N :    0.427520
  12 C :   -0.015478
  13 C :   -0.063170
  14 C :   -0.003018
  15 C :    0.043427
  16 C :    0.001847
  17 C :   -0.190748
  18 O :    0.352361
  19 C :    0.044477
  20 H :   -0.013264
  21 H :   -0.022682
  22 H :   -0.024465
  23 H :   -0.024755
  24 H :   -0.028276
  25 H :    0.000279
  26 H :   -0.005121
  27 H :   -0.002909
  28 H :   -0.007038
  29 H :   -0.045302
  30 H :    0.007170
  31 H :   -0.023882
  32 H :   -0.011968
  33 H :   -0.016581
  34 H :   -0.112459
  35 H :   -0.022502

  Mayer bond orders larger than 0.100000
B(  0-C ,  1-C ) :   0.9676 B(  0-C , 20-H ) :   0.9766 B(  0-C , 21-H ) :   0.9747
B(  0-C , 22-H ) :   0.9812 B(  1-C ,  2-O ) :   0.8807 B(  1-C , 23-H ) :   0.9776
B(  1-C , 24-H ) :   0.9773 B(  2-O ,  3-C ) :   1.2422 B(  3-C ,  4-O ) :   1.8933
B(  3-C ,  5-C ) :   1.0832 B(  5-C ,  6-C ) :   1.6092 B(  5-C , 12-C ) :   0.9938
B(  6-C ,  7-C ) :   0.9667 B(  6-C ,  8-N ) :   1.1593 B(  7-C , 25-H ) :   0.9573
B(  7-C , 26-H ) :   0.9891 B(  7-C , 27-H ) :   0.9600 B(  8-N ,  9-C ) :   1.3245
B(  8-N , 28-H ) :   0.9178 B(  9-C , 10-S ) :   1.2570 B(  9-C , 11-N ) :   1.4249
B( 11-N , 12-C ) :   0.9112 B( 11-N , 29-H ) :   0.9296 B( 12-C , 13-C ) :   0.9591
B( 12-C , 30-H ) :   0.9948 B( 13-C , 14-C ) :   1.3237 B( 13-C , 19-C ) :   1.3962
B( 14-C , 15-C ) :   1.3928 B( 14-C , 31-H ) :   0.9670 B( 15-C , 16-C ) :   1.3256
B( 15-C , 32-H ) :   0.9592 B( 16-C , 17-C ) :   1.3578 B( 16-C , 33-H ) :   0.9719
B( 17-C , 18-O ) :   1.0883 B( 17-C , 19-C ) :   1.3536 B( 18-O , 34-H ) :   0.9181
B( 19-C , 35-H ) :   0.9538

MP2 TOTAL ENERGY:    -1274.447441527 Eh
FINAL SINGLE POINT ENERGY     -1274.447441527032

DIPOLE MOMENT
-------------
                                X             Y             Z
Electronic contribution:     17.38965       2.80397      -0.41505
Nuclear contribution   :    -20.92136      -3.63132       1.86193
                        -----------------------------------------
Total Dipole Moment    :     -3.53172      -0.82736       1.44688
                        -----------------------------------------
Magnitude (a.u.)       :      3.90525
Magnitude (Debye)      :      9.92636

Rotational constants in cm-1:     0.011582     0.008048     0.005300
Rotational constants in MHz :   347.220739   241.264985   158.902359

                             ****ORCA TERMINATED NORMALLY****
TOTAL RUN TIME: 0 days 1 hours 55 minutes 1 seconds 322 msec
