                         Program Version 5.0.0 -  RELEASE  -
|  1> ! RI-MP2 cc-pVTZ cc-pVTZ/c TightSCF KeepDens NoKeepInts
|  2>
|  3> %pointcharges "srfp_output"
|  4>
|  5> *xyz  0  1
|  6>     C     3.7344654  -17.4982189   11.9803465
|  7>     C     2.8642649  -16.6865362   12.9943931
|  8>     O     3.1836118  -15.2909420   12.9149715
|  9>     C     2.8461598  -14.4337132   11.8851389
| 10>     O     2.1116581  -14.7841117   11.0036062
| 11>     C     3.5218887  -13.0775777   11.9676189
| 12>     C     3.1804265  -12.0806353   11.1577830
| 13>     C     2.3148447  -12.2316536    9.8928838
| 14>     N     3.8322382  -10.8798689   11.3424514
| 15>     C     4.9214484  -10.6260565   12.1194465
| 16>     S     5.7952129   -9.1733264   12.0498967
| 17>     N     5.2859829  -11.6414889   12.9508683
| 18>     C     4.4542957  -12.9122116   13.1156666
| 19>     C     3.7946341  -12.8801238   14.4761213
| 20>     C     4.1712158  -13.7846168   15.4994854
| 21>     C     3.6404004  -13.6051478   16.7464203
| 22>     C     2.6625321  -12.6429392   17.0533711
| 23>     C     2.3733887  -11.7401678   16.0459922
| 24>     O     1.4903913  -10.7083369   16.2903643
| 25>     C     2.9494902  -11.8279447   14.8216932
| 26>     H     3.5612526  -18.5801101   12.0322366
| 27>     H     4.7986631  -17.2855046   12.1398019
| 28>     H     3.6036751  -17.2645903   10.9166261
| 29>     H     1.7943331  -16.8658005   12.8322207
| 30>     H     3.0631333  -17.0825144   13.9978134
| 31>     H     2.3658661  -11.4051879    9.1734807
| 32>     H     1.2678380  -12.3003468   10.2126503
| 33>     H     2.7071174  -13.0543720    9.2826001
| 34>     H     3.5330079  -10.1096094   10.7566801
| 35>     H     6.1797521  -11.5271368   13.4135415
| 36>     H     5.1991730  -13.7159028   13.1649397
| 37>     H     4.9415732  -14.5272897   15.3140550
| 38>     H     3.9019721  -14.3026176   17.5366822
| 39>     H     2.0669993  -12.6477088   17.9615087
| 40>     H     1.3489603  -10.6748455   17.2524479
| 41>     H     2.5956979  -11.1175116   14.0804014
| 42> *
| 43>
| 44>                          ****END OF INPUT****

CARTESIAN COORDINATES (ANGSTROEM)
---------------------------------
  C      3.734465  -17.498219   11.980346
  C      2.864265  -16.686536   12.994393
  O      3.183612  -15.290942   12.914971
  C      2.846160  -14.433713   11.885139
  O      2.111658  -14.784112   11.003606
  C      3.521889  -13.077578   11.967619
  C      3.180426  -12.080635   11.157783
  C      2.314845  -12.231654    9.892884
  N      3.832238  -10.879869   11.342451
  C      4.921448  -10.626057   12.119447
  S      5.795213   -9.173326   12.049897
  N      5.285983  -11.641489   12.950868
  C      4.454296  -12.912212   13.115667
  C      3.794634  -12.880124   14.476121
  C      4.171216  -13.784617   15.499485
  C      3.640400  -13.605148   16.746420
  C      2.662532  -12.642939   17.053371
  C      2.373389  -11.740168   16.045992
  O      1.490391  -10.708337   16.290364
  C      2.949490  -11.827945   14.821693
  H      3.561253  -18.580110   12.032237
  H      4.798663  -17.285505   12.139802
  H      3.603675  -17.264590   10.916626
  H      1.794333  -16.865800   12.832221
  H      3.063133  -17.082514   13.997813
  H      2.365866  -11.405188    9.173481
  H      1.267838  -12.300347   10.212650
  H      2.707117  -13.054372    9.282600
  H      3.533008  -10.109609   10.756680
  H      6.179752  -11.527137   13.413541
  H      5.199173  -13.715903   13.164940
  H      4.941573  -14.527290   15.314055
  H      3.901972  -14.302618   17.536682
  H      2.066999  -12.647709   17.961509
  H      1.348960  -10.674845   17.252448
  H      2.595698  -11.117512   14.080401

 Total Charge           Charge          ....    0
 Multiplicity           Mult            ....    1
 Number of Electrons    NEL             ....  154
 Basis Dimension        Dim             ....  828

ORBITAL ENERGIES
----------------

  NO   OCC          E(Eh)            E(eV)
   0   2.0000     -93.780508     -2551.8974
   1   2.0000     -22.482777      -611.7875
   2   2.0000     -22.464996      -611.3036
   3   2.0000     -22.442024      -610.6785
   4   2.0000     -17.500930      -476.2245
   5   2.0000     -17.487800      -475.8672
   6   2.0000     -13.291949      -361.6923
   7   2.0000     -13.272321      -361.1582
   8   2.0000     -13.209927      -359.4604
   9   2.0000     -13.187524      -358.8508
  10   2.0000     -13.182386      -358.7110
  11   2.0000     -13.175783      -358.5313
  12   2.0000     -13.139581      -357.5462
  13   2.0000     -13.134696      -357.4133
  14   2.0000     -13.124484      -357.1354
  15   2.0000     -13.122555      -357.0829
  16   2.0000     -13.116946      -356.9303
  17   2.0000     -13.115018      -356.8778
  18   2.0000     -13.112438      -356.8076
  19   2.0000     -13.096144      -356.3642
  20   2.0000     -10.785187      -293.4799
  21   2.0000      -8.466936      -230.3970
  22   2.0000      -8.465014      -230.3447
  23   2.0000      -8.464595      -230.3333
  24   2.0000      -3.344733       -91.0148
  25   2.0000      -3.278746       -89.2192
  26   2.0000      -3.253857       -88.5419
  27   2.0000      -3.221359       -87.6576
  28   2.0000      -3.109478       -84.6132
  29   2.0000      -3.049307       -82.9759
  30   2.0000      -3.008306       -81.8602
  31   2.0000      -2.923319       -79.5475
  32   2.0000      -2.907163       -79.1079
  33   2.0000      -2.904191       -79.0270
  34   2.0000      -2.869669       -78.0877
  35   2.0000      -2.858593       -77.7863
  36   2.0000      -2.805125       -76.3313
  37   2.0000      -2.775684       -75.5302
  38   2.0000      -2.733162       -74.3731
  39   2.0000      -2.717930       -73.9586
  40   2.0000      -2.707913       -73.6861
  41   2.0000      -2.695145       -73.3386
  42   2.0000      -2.636864       -71.7527
  43   2.0000      -2.607862       -70.9635
  44   2.0000      -2.604941       -70.8840
  45   2.0000      -2.578010       -70.1512
  46   2.0000      -2.572436       -69.9995
  47   2.0000      -2.562460       -69.7281
  48   2.0000      -2.546692       -69.2990
  49   2.0000      -2.538144       -69.0664
  50   2.0000      -2.528335       -68.7995
  51   2.0000      -2.523161       -68.6587
  52   2.0000      -2.510007       -68.3008
  53   2.0000      -2.493064       -67.8397
  54   2.0000      -2.486728       -67.6673
  55   2.0000      -2.477477       -67.4156
  56   2.0000      -2.474315       -67.3295
  57   2.0000      -2.457223       -66.8644
  58   2.0000      -2.448379       -66.6238
  59   2.0000      -2.440654       -66.4136
  60   2.0000      -2.427848       -66.0651
  61   2.0000      -2.421754       -65.8993
  62   2.0000      -2.418245       -65.8038
  63   2.0000      -2.409457       -65.5647
  64   2.0000      -2.403963       -65.4152
  65   2.0000      -2.400510       -65.3212
  66   2.0000      -2.376065       -64.6560
  67   2.0000      -2.372677       -64.5638
  68   2.0000      -2.364698       -64.3467
  69   2.0000      -2.346242       -63.8445
  70   2.0000      -2.340044       -63.6758
  71   2.0000      -2.334521       -63.5255
  72   2.0000      -2.237228       -60.8781
  73   2.0000      -2.232877       -60.7597
  74   2.0000      -2.220480       -60.4223
  75   2.0000      -2.212552       -60.2066
  76   2.0000      -2.205278       -60.0087
  77   0.0000      -1.807524       -49.1852
  78   0.0000      -1.769607       -48.1535
  79   0.0000      -1.740057       -47.3494
  80   0.0000      -1.737301       -47.2744
  81   0.0000      -1.720365       -46.8135

MULLIKEN ATOMIC CHARGES
-----------------------
   0 C :   -0.305602
   1 C :    0.016087
   2 O :   -0.363088
   3 C :    0.505295
   4 O :   -0.518959
   5 C :   -0.179554
   6 C :    0.113991
   7 C :   -0.263127
   8 N :   -0.118771
   9 C :    0.288891
  10 S :   -0.627502
  11 N :   -0.237923
  12 C :    0.054094
  13 C :    0.023918
  14 C :   -0.199251
  15 C :   -0.128923
  16 C :   -0.291555
  17 C :    0.286498
  18 O :   -0.452300
  19 C :   -0.283189
  20 H :    0.118289
  21 H :    0.103468
  22 H :    0.098796
  23 H :    0.114198
  24 H :    0.132420
  25 H :    0.132396
  26 H :    0.129624
  27 H :    0.125278
  28 H :    0.250918
  29 H :    0.251664
  30 H :    0.185149
  31 H :    0.183021
  32 H :    0.180380
  33 H :    0.179633
  34 H :    0.320932
  35 H :    0.174803
Sum of atomic charges:    0.0000000

LOEWDIN ATOMIC CHARGES
----------------------
   0 C :    0.108327
   1 C :   -0.016310
   2 O :    0.299542
   3 C :   -0.397790
   4 O :    0.058912
   5 C :   -0.109909
   6 C :   -0.054817
   7 C :    0.150036
   8 N :    0.423733
   9 C :   -0.409098
  10 S :   -0.198495
  11 N :    0.412836
  12 C :   -0.029831
  13 C :   -0.044094
  14 C :    0.015524
  15 C :    0.026044
  16 C :    0.019962
  17 C :   -0.211522
  18 O :    0.341602
  19 C :    0.003113
  20 H :   -0.019859
  21 H :   -0.027048
  22 H :   -0.032080
  23 H :   -0.029202
  24 H :   -0.016067
  25 H :   -0.009325
  26 H :   -0.009409
  27 H :   -0.008338
  28 H :   -0.020286
  29 H :   -0.045408
  30 H :    0.003632
  31 H :   -0.014716
  32 H :   -0.011388
  33 H :   -0.015663
  34 H :   -0.116743
  35 H :   -0.015864

  Mayer bond orders larger than 0.100000
B(  0-C ,  1-C ) :   0.9626 B(  0-C , 20-H ) :   0.9725 B(  0-C , 21-H ) :   0.9749
B(  0-C , 22-H ) :   0.9782 B(  1-C ,  2-O ) :   0.8866 B(  1-C , 23-H ) :   0.9770
B(  1-C , 24-H ) :   0.9782 B(  2-O ,  3-C ) :   1.1735 B(  3-C ,  4-O ) :   1.9391
B(  3-C ,  5-C ) :   1.0699 B(  5-C ,  6-C ) :   1.6439 B(  5-C , 12-C ) :   0.9772
B(  6-C ,  7-C ) :   0.9566 B(  6-C ,  8-N ) :   1.1735 B(  7-C , 25-H ) :   0.9775
B(  7-C , 26-H ) :   0.9663 B(  7-C , 27-H ) :   0.9634 B(  8-N ,  9-C ) :   1.2483
B(  8-N , 28-H ) :   0.9267 B(  9-C , 10-S ) :   1.3618 B(  9-C , 11-N ) :   1.3921
B( 11-N , 12-C ) :   0.9539 B( 11-N , 29-H ) :   0.9234 B( 12-C , 13-C ) :   0.9299
B( 12-C , 30-H ) :   0.9978 B( 13-C , 14-C ) :   1.3341 B( 13-C , 19-C ) :   1.3766
B( 14-C , 15-C ) :   1.4063 B( 14-C , 31-H ) :   0.9605 B( 15-C , 16-C ) :   1.3222
B( 15-C , 32-H ) :   0.9665 B( 16-C , 17-C ) :   1.3661 B( 16-C , 33-H ) :   0.9677
B( 17-C , 18-O ) :   1.1045 B( 17-C , 19-C ) :   1.3481 B( 18-O , 34-H ) :   0.9182
B( 19-C , 35-H ) :   0.9492

MP2 TOTAL ENERGY:    -1274.418353190 Eh
FINAL SINGLE POINT ENERGY     -1274.418353190283

DIPOLE MOMENT
-------------
                                X             Y             Z
Electronic contribution:      3.55082      15.35882       2.31854
Nuclear contribution   :     -4.11570     -17.79595      -1.12169
                        -----------------------------------------
Total Dipole Moment    :     -0.56487      -2.43713       1.19685
                        -----------------------------------------
Magnitude (a.u.)       :      2.77329
Magnitude (Debye)      :      7.04914

Rotational constants in cm-1:     0.010600     0.009077     0.006018
Rotational constants in MHz :   317.785062   272.118248   180.405848

                             ****ORCA TERMINATED NORMALLY****
TOTAL RUN TIME: 0 days 2 hours 10 minutes 11 seconds 105 msec
