                         Program Version 5.0.0 -  RELEASE  -
|  1> ! RI-MP2 cc-pVTZ cc-pVTZ/c TightSCF KeepDens NoKeepInts
|  2>
|  3> *xyz  0  1
|  4>     C     3.7344654  -17.4982189   11.9803465
|  5>     C     2.8642649  -16.6865362   12.9943931
|  6>     O     3.1836118  -15.2909420   12.9149715
|  7>     C     2.8461598  -14.4337132   11.8851389
|  8>     O     2.1116581  -14.7841117   11.0036062
|  9>     C     3.5218887  -13.0775777   11.9676189
| 10>     C     3.1804265  -12.0806353   11.1577830
| 11>     C     2.3148447  -12.2316536    9.8928838
| 12>     N     3.8322382  -10.8798689   11.3424514
| 13>     C     4.9214484  -10.6260565   12.1194465
| 14>     S     5.7952129   -9.1733264   12.0498967
| 15>     N     5.2859829  -11.6414889   12.9508683
| 16>     C     4.4542957  -12.9122116   13.1156666
| 17>     C     3.7946341  -12.8801238   14.4761213
| 18>     C     4.1712158  -13.7846168   15.4994854
| 19>     C     3.6404004  -13.6051478   16.7464203
| 20>     C     2.6625321  -12.6429392   17.0533711
| 21>     C     2.3733887  -11.7401678   16.0459922
| 22>     O     1.4903913  -10.7083369   16.2903643
| 23>     C     2.9494902  -11.8279447   14.8216932
| 24>     H     3.5612526  -18.5801101   12.0322366
| 25>     H     4.7986631  -17.2855046   12.1398019
| 26>     H     3.6036751  -17.2645903   10.9166261
| 27>     H     1.7943331  -16.8658005   12.8322207
| 28>     H     3.0631333  -17.0825144   13.9978134
| 29>     H     2.3658661  -11.4051879    9.1734807
| 30>     H     1.2678380  -12.3003468   10.2126503
| 31>     H     2.7071174  -13.0543720    9.2826001
| 32>     H     3.5330079  -10.1096094   10.7566801
| 33>     H     6.1797521  -11.5271368   13.4135415
| 34>     H     5.1991730  -13.7159028   13.1649397
| 35>     H     4.9415732  -14.5272897   15.3140550
| 36>     H     3.9019721  -14.3026176   17.5366822
| 37>     H     2.0669993  -12.6477088   17.9615087
| 38>     H     1.3489603  -10.6748455   17.2524479
| 39>     H     2.5956979  -11.1175116   14.0804014
| 40> *
| 41>
| 42>                          ****END OF INPUT****

CARTESIAN COORDINATES (ANGSTROEM)
---------------------------------
  C      3.734465  -17.498219   11.980346
  C      2.864265  -16.686536   12.994393
  O      3.183612  -15.290942   12.914971
  C      2.846160  -14.433713   11.885139
  O      2.111658  -14.784112   11.003606
  C      3.521889  -13.077578   11.967619
  C      3.180426  -12.080635   11.157783
  C      2.314845  -12.231654    9.892884
  N      3.832238  -10.879869   11.342451
  C      4.921448  -10.626057   12.119447
  S      5.795213   -9.173326   12.049897
  N      5.285983  -11.641489   12.950868
  C      4.454296  -12.912212   13.115667
  C      3.794634  -12.880124   14.476121
  C      4.171216  -13.784617   15.499485
  C      3.640400  -13.605148   16.746420
  C      2.662532  -12.642939   17.053371
  C      2.373389  -11.740168   16.045992
  O      1.490391  -10.708337   16.290364
  C      2.949490  -11.827945   14.821693
  H      3.561253  -18.580110   12.032237
  H      4.798663  -17.285505   12.139802
  H      3.603675  -17.264590   10.916626
  H      1.794333  -16.865800   12.832221
  H      3.063133  -17.082514   13.997813
  H      2.365866  -11.405188    9.173481
  H      1.267838  -12.300347   10.212650
  H      2.707117  -13.054372    9.282600
  H      3.533008  -10.109609   10.756680
  H      6.179752  -11.527137   13.413541
  H      5.199173  -13.715903   13.164940
  H      4.941573  -14.527290   15.314055
  H      3.901972  -14.302618   17.536682
  H      2.066999  -12.647709   17.961509
  H      1.348960  -10.674845   17.252448
  H      2.595698  -11.117512   14.080401

 Total Charge           Charge          ....    0
 Multiplicity           Mult            ....    1
 Number of Electrons    NEL             ....  154
 Basis Dimension        Dim             ....  828

ORBITAL ENERGIES
----------------

  NO   OCC          E(Eh)            E(eV)
   0   2.0000     -91.887103     -2500.3752
   1   2.0000     -20.597701      -560.4919
   2   2.0000     -20.588092      -560.2305
   3   2.0000     -20.544842      -559.0536
   4   2.0000     -15.628070      -425.2614
   5   2.0000     -15.609244      -424.7491
   6   2.0000     -11.396875      -310.1247
   7   2.0000     -11.384868      -309.7980
   8   2.0000     -11.332563      -308.3747
   9   2.0000     -11.311914      -307.8128
  10   2.0000     -11.305823      -307.6471
  11   2.0000     -11.301096      -307.5185
  12   2.0000     -11.258393      -306.3565
  13   2.0000     -11.257307      -306.3269
  14   2.0000     -11.256772      -306.3123
  15   2.0000     -11.246701      -306.0383
  16   2.0000     -11.237998      -305.8015
  17   2.0000     -11.235444      -305.7320
  18   2.0000     -11.230353      -305.5935
  19   2.0000     -11.228547      -305.5443
  20   2.0000      -8.890596      -241.9254
  21   2.0000      -6.572034      -178.8341
  22   2.0000      -6.570109      -178.7818
  23   2.0000      -6.569585      -178.7675
  24   2.0000      -1.452840       -39.5338
  25   2.0000      -1.400057       -38.0975
  26   2.0000      -1.361918       -37.0597
  27   2.0000      -1.345067       -36.6011
  28   2.0000      -1.233939       -33.5772
  29   2.0000      -1.166930       -31.7538
  30   2.0000      -1.129069       -30.7235
  31   2.0000      -1.045386       -28.4464
  32   2.0000      -1.033368       -28.1194
  33   2.0000      -1.022795       -27.8317
  34   2.0000      -0.997305       -27.1381
  35   2.0000      -0.972949       -26.4753
  36   2.0000      -0.928703       -25.2713
  37   2.0000      -0.899918       -24.4880
  38   2.0000      -0.854103       -23.2413
  39   2.0000      -0.839613       -22.8470
  40   2.0000      -0.828366       -22.5410
  41   2.0000      -0.817838       -22.2545
  42   2.0000      -0.756651       -20.5895
  43   2.0000      -0.728571       -19.8254
  44   2.0000      -0.722851       -19.6698
  45   2.0000      -0.695280       -18.9195
  46   2.0000      -0.687220       -18.7002
  47   2.0000      -0.683669       -18.6036
  48   2.0000      -0.666700       -18.1418
  49   2.0000      -0.660749       -17.9799
  50   2.0000      -0.648485       -17.6462
  51   2.0000      -0.644090       -17.5266
  52   2.0000      -0.634995       -17.2791
  53   2.0000      -0.614688       -16.7265
  54   2.0000      -0.611696       -16.6451
  55   2.0000      -0.600445       -16.3389
  56   2.0000      -0.592143       -16.1130
  57   2.0000      -0.579345       -15.7648
  58   2.0000      -0.568643       -15.4735
  59   2.0000      -0.563167       -15.3245
  60   2.0000      -0.553289       -15.0558
  61   2.0000      -0.548870       -14.9355
  62   2.0000      -0.543930       -14.8011
  63   2.0000      -0.533586       -14.5196
  64   2.0000      -0.528695       -14.3865
  65   2.0000      -0.508645       -13.8409
  66   2.0000      -0.497234       -13.5304
  67   2.0000      -0.492601       -13.4043
  68   2.0000      -0.485244       -13.2042
  69   2.0000      -0.467693       -12.7266
  70   2.0000      -0.457392       -12.4463
  71   2.0000      -0.445105       -12.1119
  72   2.0000      -0.358189        -9.7468
  73   2.0000      -0.346692        -9.4340
  74   2.0000      -0.328454        -8.9377
  75   2.0000      -0.321536        -8.7495
  76   2.0000      -0.312061        -8.4916
  77   0.0000       0.075912         2.0657
  78   0.0000       0.110989         3.0202
  79   0.0000       0.118503         3.2246
  80   0.0000       0.131237         3.5711
  81   0.0000       0.137734         3.7479

MULLIKEN ATOMIC CHARGES
-----------------------
   0 C :   -0.306920
   1 C :    0.031993
   2 O :   -0.363602
   3 C :    0.473695
   4 O :   -0.408460
   5 C :   -0.165094
   6 C :    0.093163
   7 C :   -0.274516
   8 N :   -0.106167
   9 C :    0.199647
  10 S :   -0.457330
  11 N :   -0.218078
  12 C :    0.024022
  13 C :    0.110261
  14 C :   -0.192640
  15 C :   -0.107743
  16 C :   -0.297267
  17 C :    0.321563
  18 O :   -0.376985
  19 C :   -0.260812
  20 H :    0.101080
  21 H :    0.090907
  22 H :    0.115550
  23 H :    0.104675
  24 H :    0.111544
  25 H :    0.104793
  26 H :    0.130131
  27 H :    0.139394
  28 H :    0.193348
  29 H :    0.200629
  30 H :    0.155781
  31 H :    0.148258
  32 H :    0.145381
  33 H :    0.141819
  34 H :    0.240006
  35 H :    0.157975
Sum of atomic charges:    0.0000000

LOEWDIN ATOMIC CHARGES
----------------------
   0 C :    0.104453
   1 C :   -0.018292
   2 O :    0.296898
   3 C :   -0.410395
   4 O :    0.130069
   5 C :   -0.106818
   6 C :   -0.070421
   7 C :    0.143308
   8 N :    0.409048
   9 C :   -0.434206
  10 S :   -0.089068
  11 N :    0.398023
  12 C :   -0.036548
  13 C :   -0.026056
  14 C :    0.017113
  15 C :    0.028319
  16 C :    0.010892
  17 C :   -0.188968
  18 O :    0.371496
  19 C :    0.023892
  20 H :   -0.027307
  21 H :   -0.031954
  22 H :   -0.026315
  23 H :   -0.030327
  24 H :   -0.023538
  25 H :   -0.023094
  26 H :   -0.010073
  27 H :   -0.004424
  28 H :   -0.048843
  29 H :   -0.068761
  30 H :   -0.006668
  31 H :   -0.026820
  32 H :   -0.021943
  33 H :   -0.030471
  34 H :   -0.155026
  35 H :   -0.017177

  Mayer bond orders larger than 0.100000
B(  0-C ,  1-C ) :   0.9640 B(  0-C , 20-H ) :   0.9755 B(  0-C , 21-H ) :   0.9771
B(  0-C , 22-H ) :   0.9749 B(  1-C ,  2-O ) :   0.9104 B(  1-C , 23-H ) :   0.9789
B(  1-C , 24-H ) :   0.9819 B(  2-O ,  3-C ) :   1.1401 B(  3-C ,  4-O ) :   2.0053
B(  3-C ,  5-C ) :   1.0370 B(  5-C ,  6-C ) :   1.6833 B(  5-C , 12-C ) :   0.9814
B(  6-C ,  7-C ) :   0.9621 B(  6-C ,  8-N ) :   1.1582 B(  7-C , 25-H ) :   0.9835
B(  7-C , 26-H ) :   0.9681 B(  7-C , 27-H ) :   0.9611 B(  8-N ,  9-C ) :   1.1945
B(  8-N , 28-H ) :   0.9545 B(  9-C , 10-S ) :   1.5496 B(  9-C , 11-N ) :   1.3269
B( 11-N , 12-C ) :   0.9632 B( 11-N , 29-H ) :   0.9480 B( 12-C , 13-C ) :   0.9422
B( 12-C , 30-H ) :   1.0045 B( 13-C , 14-C ) :   1.3298 B( 13-C , 19-C ) :   1.3732
B( 14-C , 15-C ) :   1.4259 B( 14-C , 31-H ) :   0.9711 B( 15-C , 16-C ) :   1.3411
B( 15-C , 32-H ) :   0.9767 B( 16-C , 17-C ) :   1.3588 B( 16-C , 33-H ) :   0.9799
B( 17-C , 18-O ) :   1.0880 B( 17-C , 19-C ) :   1.3598 B( 18-O , 34-H ) :   0.9810
B( 19-C , 35-H ) :   0.9591

MP2 TOTAL ENERGY:    -1274.319080649 Eh
FINAL SINGLE POINT ENERGY     -1274.319080649213

DIPOLE MOMENT
-------------
                                X             Y             Z
Electronic contribution:      3.45876      15.88104       1.85596
Nuclear contribution   :     -4.11570     -17.79595      -1.12169
                        -----------------------------------------
Total Dipole Moment    :     -0.65693      -1.91491       0.73427
                        -----------------------------------------
Magnitude (a.u.)       :      2.15351
Magnitude (Debye)      :      5.47378

Rotational constants in cm-1:     0.010600     0.009077     0.006018
Rotational constants in MHz :   317.785062   272.118248   180.405848

                             ****ORCA TERMINATED NORMALLY****
TOTAL RUN TIME: 0 days 2 hours 7 minutes 23 seconds 931 msec
