                         Program Version 4.2.0 -  RELEASE  -
|  1> ! ri-mp2 cc-pvtz cc-pvtz/c TightSCF NoKeepInts
|  2>
|  3> %scf
|  4>   MaxCore 4096
|  5> end
|  6> *xyz  0  1
|  7>     C       13.8287237   15.3819470   16.0988580
|  8>     C       15.2478671   15.0492990   15.5962836
|  9>     O       16.1797741   15.9862453   16.1654280
| 10>     C       16.2590219   17.2662465   15.7006839
| 11>     O       15.6555212   17.6244550   14.7026084
| 12>     C       17.1885969   18.1587268   16.4858942
| 13>     C       17.6155470   19.3511512   15.9898786
| 14>     C       17.3627260   19.9256177   14.6129101
| 15>     N       18.1669738   20.2980459   16.8717121
| 16>     C       17.9670180   20.2497421   18.2359147
| 17>     S       18.2477146   21.5495073   19.2195432
| 18>     N       17.5145962   19.0440756   18.7221578
| 19>     C       17.6755802   17.8295556   17.9145193
| 20>     C       17.1933791   16.5697168   18.6273468
| 21>     C       18.0389772   15.4521006   18.7587981
| 22>     C       17.5935307   14.2935248   19.4173867
| 23>     C       16.2934647   14.2521402   19.9495866
| 24>     C       15.4508714   15.3649615   19.8233190
| 25>     O       14.1930433   15.3255869   20.3304672
| 26>     C       15.8978897   16.5192638   19.1731318
| 27>     H       13.7971992   15.3868293   17.1953737
| 28>     H       13.1108462   14.6352425   15.7392164
| 29>     H       13.5021860   16.3653524   15.7385012
| 30>     H       15.5126558   14.0357882   15.9235354
| 31>     H       15.2850923   15.0755724   14.4987058
| 32>     H       16.3114506   20.2240031   14.5082656
| 33>     H       17.5698464   19.1797865   13.8351582
| 34>     H       17.9863711   20.8013518   14.3988386
| 35>     H       18.4773184   21.1879243   16.5145965
| 36>     H       17.3497558   18.9844898   19.7191330
| 37>     H       18.7673103   17.7324431   17.8265648
| 38>     H       19.0423039   15.4783417   18.3424504
| 39>     H       18.2534166   13.4328120   19.5109014
| 40>     H       15.9445821   13.3581314   20.4557357
| 41>     H       14.0788916   14.4638275   20.7587742
| 42>     H       15.2269555   17.3661934   19.0758173
| 43> *
| 44>
| 45>                          ****END OF INPUT****

CARTESIAN COORDINATES (ANGSTROEM)
---------------------------------
  C     13.828724   15.381947   16.098858
  C     15.247867   15.049299   15.596284
  O     16.179774   15.986245   16.165428
  C     16.259022   17.266247   15.700684
  O     15.655521   17.624455   14.702608
  C     17.188597   18.158727   16.485894
  C     17.615547   19.351151   15.989879
  C     17.362726   19.925618   14.612910
  N     18.166974   20.298046   16.871712
  C     17.967018   20.249742   18.235915
  S     18.247715   21.549507   19.219543
  N     17.514596   19.044076   18.722158
  C     17.675580   17.829556   17.914519
  C     17.193379   16.569717   18.627347
  C     18.038977   15.452101   18.758798
  C     17.593531   14.293525   19.417387
  C     16.293465   14.252140   19.949587
  C     15.450871   15.364961   19.823319
  O     14.193043   15.325587   20.330467
  C     15.897890   16.519264   19.173132
  H     13.797199   15.386829   17.195374
  H     13.110846   14.635242   15.739216
  H     13.502186   16.365352   15.738501
  H     15.512656   14.035788   15.923535
  H     15.285092   15.075572   14.498706
  H     16.311451   20.224003   14.508266
  H     17.569846   19.179786   13.835158
  H     17.986371   20.801352   14.398839
  H     18.477318   21.187924   16.514596
  H     17.349756   18.984490   19.719133
  H     18.767310   17.732443   17.826565
  H     19.042304   15.478342   18.342450
  H     18.253417   13.432812   19.510901
  H     15.944582   13.358131   20.455736
  H     14.078892   14.463828   20.758774
  H     15.226955   17.366193   19.075817

 Total Charge           Charge          ....    0
 Multiplicity           Mult            ....    1
 Number of Electrons    NEL             ....  154
 Basis Dimension        Dim             ....  828

ORBITAL ENERGIES
----------------

  NO   OCC          E(Eh)            E(eV)
   0   2.0000     -91.890339     -2500.4632
   1   2.0000     -20.600846      -560.5775
   2   2.0000     -20.595395      -560.4292
   3   2.0000     -20.538508      -558.8812
   4   2.0000     -15.631058      -425.3427
   5   2.0000     -15.604402      -424.6174
   6   2.0000     -11.393451      -310.0316
   7   2.0000     -11.383792      -309.7687
   8   2.0000     -11.333245      -308.3933
   9   2.0000     -11.316478      -307.9370
  10   2.0000     -11.308355      -307.7160
  11   2.0000     -11.293648      -307.3158
  12   2.0000     -11.268844      -306.6408
  13   2.0000     -11.258621      -306.3626
  14   2.0000     -11.258109      -306.3487
  15   2.0000     -11.250624      -306.1450
  16   2.0000     -11.246358      -306.0290
  17   2.0000     -11.241641      -305.9006
  18   2.0000     -11.240455      -305.8683
  19   2.0000     -11.219676      -305.3029
  20   2.0000      -8.895272      -242.0526
  21   2.0000      -6.576821      -178.9644
  22   2.0000      -6.574855      -178.9109
  23   2.0000      -6.574234      -178.8940
  24   2.0000      -1.448305       -39.4104
  25   2.0000      -1.420351       -38.6497
  26   2.0000      -1.350681       -36.7539
  27   2.0000      -1.339274       -36.4435
  28   2.0000      -1.236179       -33.6381
  29   2.0000      -1.158617       -31.5276
  30   2.0000      -1.117510       -30.4090
  31   2.0000      -1.043567       -28.3969
  32   2.0000      -1.032439       -28.0941
  33   2.0000      -1.017839       -27.6968
  34   2.0000      -0.995646       -27.0929
  35   2.0000      -0.981717       -26.7139
  36   2.0000      -0.918761       -25.0008
  37   2.0000      -0.893338       -24.3090
  38   2.0000      -0.846814       -23.0430
  39   2.0000      -0.838872       -22.8269
  40   2.0000      -0.832707       -22.6591
  41   2.0000      -0.818411       -22.2701
  42   2.0000      -0.752969       -20.4893
  43   2.0000      -0.733774       -19.9670
  44   2.0000      -0.713803       -19.4236
  45   2.0000      -0.697870       -18.9900
  46   2.0000      -0.688548       -18.7363
  47   2.0000      -0.679852       -18.4997
  48   2.0000      -0.672718       -18.3056
  49   2.0000      -0.659197       -17.9377
  50   2.0000      -0.654080       -17.7984
  51   2.0000      -0.638053       -17.3623
  52   2.0000      -0.629601       -17.1323
  53   2.0000      -0.610901       -16.6235
  54   2.0000      -0.608917       -16.5695
  55   2.0000      -0.602418       -16.3926
  56   2.0000      -0.594747       -16.1839
  57   2.0000      -0.577442       -15.7130
  58   2.0000      -0.572315       -15.5735
  59   2.0000      -0.565069       -15.3763
  60   2.0000      -0.560409       -15.2495
  61   2.0000      -0.542986       -14.7754
  62   2.0000      -0.531060       -14.4509
  63   2.0000      -0.528565       -14.3830
  64   2.0000      -0.521356       -14.1868
  65   2.0000      -0.515157       -14.0181
  66   2.0000      -0.501367       -13.6429
  67   2.0000      -0.497822       -13.5464
  68   2.0000      -0.480317       -13.0701
  69   2.0000      -0.460325       -12.5261
  70   2.0000      -0.450710       -12.2645
  71   2.0000      -0.437840       -11.9142
  72   2.0000      -0.359389        -9.7795
  73   2.0000      -0.347410        -9.4535
  74   2.0000      -0.329990        -8.9795
  75   2.0000      -0.323862        -8.8127
  76   2.0000      -0.316855        -8.6221
  77   0.0000       0.076838         2.0909
  78   0.0000       0.106788         2.9059
  79   0.0000       0.123142         3.3509
  80   0.0000       0.128707         3.5023
  81   0.0000       0.132020         3.5924

MULLIKEN ATOMIC CHARGES
-----------------------
   0 C :   -0.315469
   1 C :    0.034604
   2 O :   -0.342814
   3 C :    0.466272
   4 O :   -0.438359
   5 C :   -0.145974
   6 C :    0.117396
   7 C :   -0.268397
   8 N :   -0.146879
   9 C :    0.214049
  10 S :   -0.433637
  11 N :   -0.203501
  12 C :    0.013321
  13 C :    0.064480
  14 C :   -0.213609
  15 C :   -0.129096
  16 C :   -0.274013
  17 C :    0.304902
  18 O :   -0.365332
  19 C :   -0.229449
  20 H :    0.108847
  21 H :    0.099343
  22 H :    0.115707
  23 H :    0.111447
  24 H :    0.108812
  25 H :    0.138585
  26 H :    0.125299
  27 H :    0.092854
  28 H :    0.197520
  29 H :    0.204056
  30 H :    0.129424
  31 H :    0.146530
  32 H :    0.161950
  33 H :    0.131731
  34 H :    0.241666
  35 H :    0.177736
Sum of atomic charges:    0.0000000

LOEWDIN ATOMIC CHARGES
----------------------
   0 C :    0.104347
   1 C :   -0.016574
   2 O :    0.317344
   3 C :   -0.423561
   4 O :    0.094347
   5 C :   -0.089508
   6 C :   -0.055914
   7 C :    0.126575
   8 N :    0.406293
   9 C :   -0.446463
  10 S :   -0.033162
  11 N :    0.387748
  12 C :   -0.058544
  13 C :   -0.030876
  14 C :    0.021059
  15 C :    0.043598
  16 C :   -0.000809
  17 C :   -0.193781
  18 O :    0.395280
  19 C :    0.028096
  20 H :   -0.028024
  21 H :   -0.027717
  22 H :   -0.025930
  23 H :   -0.024574
  24 H :   -0.029030
  25 H :   -0.002753
  26 H :   -0.007290
  27 H :   -0.023681
  28 H :   -0.059158
  29 H :   -0.069529
  30 H :   -0.016315
  31 H :   -0.028920
  32 H :   -0.019970
  33 H :   -0.035149
  34 H :   -0.153072
  35 H :   -0.024386

  Mayer bond orders larger than 0.100000
B(  0-C ,  1-C ) :   0.9596 B(  0-C , 20-H ) :   0.9741 B(  0-C , 21-H ) :   0.9778
B(  0-C , 22-H ) :   0.9750 B(  1-C ,  2-O ) :   0.8950 B(  1-C , 23-H ) :   0.9824
B(  1-C , 24-H ) :   0.9810 B(  2-O ,  3-C ) :   1.1733 B(  3-C ,  4-O ) :   1.9526
B(  3-C ,  5-C ) :   1.0191 B(  5-C ,  6-C ) :   1.6938 B(  5-C , 12-C ) :   0.9316
B(  6-C ,  7-C ) :   0.9741 B(  6-C ,  8-N ) :   1.1283 B(  7-C , 25-H ) :   0.9536
B(  7-C , 26-H ) :   0.9687 B(  7-C , 27-H ) :   0.9852 B(  8-N ,  9-C ) :   1.1896
B(  8-N , 28-H ) :   0.9513 B(  9-C , 10-S ) :   1.6136 B(  9-C , 11-N ) :   1.3046
B( 11-N , 12-C ) :   0.9427 B( 11-N , 29-H ) :   0.9379 B( 12-C , 13-C ) :   1.0274
B( 12-C , 30-H ) :   0.9938 B( 13-C , 14-C ) :   1.3755 B( 13-C , 19-C ) :   1.3259
B( 14-C , 15-C ) :   1.3991 B( 14-C , 31-H ) :   0.9751 B( 15-C , 16-C ) :   1.3629
B( 15-C , 32-H ) :   0.9710 B( 16-C , 17-C ) :   1.3386 B( 16-C , 33-H ) :   0.9841
B( 17-C , 18-O ) :   1.0831 B( 17-C , 19-C ) :   1.3720 B( 18-O , 34-H ) :   0.9799
B( 19-C , 35-H ) :   0.9534

MP2 TOTAL ENERGY:    -1274.338338827 Eh
FINAL SINGLE POINT ENERGY     -1274.338338826725

DIPOLE MOMENT
-------------
                                X             Y             Z
Electronic contribution:      7.07255       9.97548       7.83361
Nuclear contribution   :     -7.01236     -12.14640      -8.39462
                        -----------------------------------------
Total Dipole Moment    :      0.06018      -2.17092      -0.56101
                        -----------------------------------------
Magnitude (a.u.)       :      2.24304
Magnitude (Debye)      :      5.70136

Rotational constants in cm-1:     0.013725     0.007878     0.005827
Rotational constants in MHz :   411.462677   236.165554   174.678755

                             ****ORCA TERMINATED NORMALLY****
TOTAL RUN TIME: 0 days 1 hours 34 minutes 13 seconds 200 msec
