                         Program Version 4.2.0 -  RELEASE  -
|  1> ! ri-mp2 cc-pvtz cc-pvtz/c TightSCF NoKeepInts
|  2>
|  3> %scf
|  4>   MaxCore 4096
|  5> end
|  6> *xyz  0  1
|  7>     C       15.5225176   13.9236978   14.0643523
|  8>     C       15.3344085   15.4493470   14.0197276
|  9>     O       16.0433954   16.0040321   15.1392524
| 10>     C       16.0223934   17.3569712   15.3245607
| 11>     O       15.4225703   18.1106983   14.5768146
| 12>     C       16.7947663   17.7897431   16.5352507
| 13>     C       16.8844201   19.0800929   16.9441757
| 14>     C       16.1963656   20.2855851   16.3452870
| 15>     N       17.9760284   19.4173782   17.7650845
| 16>     C       19.0904384   18.6036001   17.8706160
| 17>     S       20.5345923   19.1420983   18.4728464
| 18>     N       18.9143292   17.2939343   17.4635007
| 19>     C       17.5488958   16.7472977   17.3731321
| 20>     C       16.9280969   16.6251531   18.7783038
| 21>     C       17.7076523   16.5447922   19.9547287
| 22>     C       17.1017826   16.4168624   21.2157488
| 23>     C       15.7029516   16.3516042   21.3143119
| 24>     C       14.9222808   16.4081427   20.1537403
| 25>     O       13.5702600   16.3338749   20.2408740
| 26>     C       15.5270633   16.5366612   18.8994831
| 27>     H       16.5858688   13.6626391   13.9952961
| 28>     H       14.9969734   13.4471428   13.2278436
| 29>     H       15.1237229   13.5118621   14.9998445
| 30>     H       15.7327726   15.8500040   13.0776045
| 31>     H       14.2660961   15.6976515   14.0819632
| 32>     H       15.1168774   20.1097551   16.2563612
| 33>     H       16.5802392   20.4886229   15.3374055
| 34>     H       16.3315657   21.1889892   16.9511465
| 35>     H       18.0997220   20.3696362   18.0689293
| 36>     H       19.7186702   16.6866600   17.5437025
| 37>     H       17.5078985   15.7387951   16.9408207
| 38>     H       18.7922437   16.5885395   19.9061593
| 39>     H       17.7192837   16.3693819   22.1112504
| 40>     H       15.2326097   16.2528440   22.2870605
| 41>     H       13.3450156   16.2513047   21.1799715
| 42>     H       14.8922350   16.5646030   18.0208442
| 43> *
| 44>
| 45>                          ****END OF INPUT****

CARTESIAN COORDINATES (ANGSTROEM)
---------------------------------
  C     15.522518   13.923698   14.064352
  C     15.334409   15.449347   14.019728
  O     16.043395   16.004032   15.139252
  C     16.022393   17.356971   15.324561
  O     15.422570   18.110698   14.576815
  C     16.794766   17.789743   16.535251
  C     16.884420   19.080093   16.944176
  C     16.196366   20.285585   16.345287
  N     17.976028   19.417378   17.765084
  C     19.090438   18.603600   17.870616
  S     20.534592   19.142098   18.472846
  N     18.914329   17.293934   17.463501
  C     17.548896   16.747298   17.373132
  C     16.928097   16.625153   18.778304
  C     17.707652   16.544792   19.954729
  C     17.101783   16.416862   21.215749
  C     15.702952   16.351604   21.314312
  C     14.922281   16.408143   20.153740
  O     13.570260   16.333875   20.240874
  C     15.527063   16.536661   18.899483
  H     16.585869   13.662639   13.995296
  H     14.996973   13.447143   13.227844
  H     15.123723   13.511862   14.999845
  H     15.732773   15.850004   13.077604
  H     14.266096   15.697651   14.081963
  H     15.116877   20.109755   16.256361
  H     16.580239   20.488623   15.337405
  H     16.331566   21.188989   16.951147
  H     18.099722   20.369636   18.068929
  H     19.718670   16.686660   17.543702
  H     17.507898   15.738795   16.940821
  H     18.792244   16.588539   19.906159
  H     17.719284   16.369382   22.111250
  H     15.232610   16.252844   22.287060
  H     13.345016   16.251305   21.179971
  H     14.892235   16.564603   18.020844

 Total Charge           Charge          ....    0
 Multiplicity           Mult            ....    1
 Number of Electrons    NEL             ....  154
 Basis Dimension        Dim             ....  828

ORBITAL ENERGIES
----------------

  NO   OCC          E(Eh)            E(eV)
   0   2.0000     -91.891829     -2500.5038
   1   2.0000     -20.606535      -560.7323
   2   2.0000     -20.594850      -560.4144
   3   2.0000     -20.541425      -558.9606
   4   2.0000     -15.631184      -425.3461
   5   2.0000     -15.606825      -424.6833
   6   2.0000     -11.393100      -310.0220
   7   2.0000     -11.385879      -309.8255
   8   2.0000     -11.332482      -308.3725
   9   2.0000     -11.310098      -307.7634
  10   2.0000     -11.307309      -307.6875
  11   2.0000     -11.298097      -307.4369
  12   2.0000     -11.260086      -306.4025
  13   2.0000     -11.253364      -306.2196
  14   2.0000     -11.250600      -306.1444
  15   2.0000     -11.249994      -306.1279
  16   2.0000     -11.237940      -305.7999
  17   2.0000     -11.234294      -305.7007
  18   2.0000     -11.233065      -305.6673
  19   2.0000     -11.232971      -305.6647
  20   2.0000      -8.896714      -242.0919
  21   2.0000      -6.578262      -179.0036
  22   2.0000      -6.576303      -178.9503
  23   2.0000      -6.575693      -178.9337
  24   2.0000      -1.454880       -39.5893
  25   2.0000      -1.414476       -38.4898
  26   2.0000      -1.355815       -36.8936
  27   2.0000      -1.338402       -36.4198
  28   2.0000      -1.234822       -33.6012
  29   2.0000      -1.152372       -31.3576
  30   2.0000      -1.117442       -30.4071
  31   2.0000      -1.042860       -28.3777
  32   2.0000      -1.038177       -28.2502
  33   2.0000      -1.009355       -27.4659
  34   2.0000      -0.993909       -27.0457
  35   2.0000      -0.982119       -26.7248
  36   2.0000      -0.918309       -24.9885
  37   2.0000      -0.892421       -24.2840
  38   2.0000      -0.842829       -22.9346
  39   2.0000      -0.838122       -22.8065
  40   2.0000      -0.827496       -22.5173
  41   2.0000      -0.817180       -22.2366
  42   2.0000      -0.766423       -20.8554
  43   2.0000      -0.729045       -19.8383
  44   2.0000      -0.708219       -19.2716
  45   2.0000      -0.692532       -18.8447
  46   2.0000      -0.689284       -18.7564
  47   2.0000      -0.681838       -18.5537
  48   2.0000      -0.679475       -18.4895
  49   2.0000      -0.667078       -18.1521
  50   2.0000      -0.651505       -17.7284
  51   2.0000      -0.638040       -17.3619
  52   2.0000      -0.635086       -17.2816
  53   2.0000      -0.608870       -16.5682
  54   2.0000      -0.597648       -16.2628
  55   2.0000      -0.592076       -16.1112
  56   2.0000      -0.584858       -15.9148
  57   2.0000      -0.576687       -15.6924
  58   2.0000      -0.571834       -15.5604
  59   2.0000      -0.570565       -15.5259
  60   2.0000      -0.555740       -15.1224
  61   2.0000      -0.553519       -15.0620
  62   2.0000      -0.543031       -14.7766
  63   2.0000      -0.520703       -14.1690
  64   2.0000      -0.517119       -14.0715
  65   2.0000      -0.509858       -13.8739
  66   2.0000      -0.507603       -13.8126
  67   2.0000      -0.502225       -13.6662
  68   2.0000      -0.477566       -12.9952
  69   2.0000      -0.462778       -12.5928
  70   2.0000      -0.461674       -12.5628
  71   2.0000      -0.434910       -11.8345
  72   2.0000      -0.370297       -10.0763
  73   2.0000      -0.339034        -9.2256
  74   2.0000      -0.330927        -9.0050
  75   2.0000      -0.318033        -8.6541
  76   2.0000      -0.314705        -8.5636
  77   0.0000       0.076659         2.0860
  78   0.0000       0.110764         3.0140
  79   0.0000       0.124754         3.3947
  80   0.0000       0.134565         3.6617
  81   0.0000       0.135115         3.6767

MULLIKEN ATOMIC CHARGES
-----------------------
   0 C :   -0.267191
   1 C :    0.049583
   2 O :   -0.345060
   3 C :    0.506501
   4 O :   -0.433032
   5 C :   -0.221263
   6 C :    0.132800
   7 C :   -0.267097
   8 N :   -0.129389
   9 C :    0.202076
  10 S :   -0.429331
  11 N :   -0.233186
  12 C :    0.083886
  13 C :    0.020132
  14 C :   -0.198098
  15 C :   -0.133226
  16 C :   -0.282227
  17 C :    0.319253
  18 O :   -0.359755
  19 C :   -0.262356
  20 H :    0.094651
  21 H :    0.097220
  22 H :    0.098163
  23 H :    0.094245
  24 H :    0.091422
  25 H :    0.129655
  26 H :    0.135560
  27 H :    0.092650
  28 H :    0.197204
  29 H :    0.193174
  30 H :    0.168218
  31 H :    0.163826
  32 H :    0.162129
  33 H :    0.128123
  34 H :    0.241258
  35 H :    0.159480
Sum of atomic charges:    0.0000000

LOEWDIN ATOMIC CHARGES
----------------------
   0 C :    0.107476
   1 C :   -0.018106
   2 O :    0.302554
   3 C :   -0.424578
   4 O :    0.095019
   5 C :   -0.095510
   6 C :   -0.048303
   7 C :    0.128559
   8 N :    0.414007
   9 C :   -0.437992
  10 S :   -0.034225
  11 N :    0.390862
  12 C :   -0.039736
  13 C :   -0.031509
  14 C :    0.009283
  15 C :    0.042875
  16 C :   -0.005066
  17 C :   -0.192868
  18 O :    0.392660
  19 C :    0.021771
  20 H :   -0.027595
  21 H :   -0.023214
  22 H :   -0.026621
  23 H :   -0.028309
  24 H :   -0.028390
  25 H :   -0.006387
  26 H :   -0.002579
  27 H :   -0.022722
  28 H :   -0.059868
  29 H :   -0.077038
  30 H :   -0.006986
  31 H :   -0.031726
  32 H :   -0.018954
  33 H :   -0.036257
  34 H :   -0.153857
  35 H :   -0.026672

  Mayer bond orders larger than 0.100000
B(  0-C ,  1-C ) :   0.9715 B(  0-C , 20-H ) :   0.9773 B(  0-C , 21-H ) :   0.9787
B(  0-C , 22-H ) :   0.9768 B(  1-C ,  2-O ) :   0.9041 B(  1-C , 23-H ) :   0.9779
B(  1-C , 24-H ) :   0.9758 B(  2-O ,  3-C ) :   1.1694 B(  3-C ,  4-O ) :   1.9562
B(  3-C ,  5-C ) :   1.0363 B(  5-C ,  6-C ) :   1.6738 B(  5-C , 12-C ) :   0.9556
B(  6-C ,  7-C ) :   0.9716 B(  6-C ,  8-N ) :   1.1348 B(  7-C , 25-H ) :   0.9692
B(  7-C , 26-H ) :   0.9535 B(  7-C , 27-H ) :   0.9843 B(  8-N ,  9-C ) :   1.1895
B(  8-N , 28-H ) :   0.9526 B(  9-C , 10-S ) :   1.6217 B(  9-C , 11-N ) :   1.2696
B( 11-N , 12-C ) :   0.9397 B( 11-N , 29-H ) :   0.9536 B( 12-C , 13-C ) :   1.0054
B( 12-C , 30-H ) :   0.9668 B( 13-C , 14-C ) :   1.3520 B( 13-C , 19-C ) :   1.3951
B( 14-C , 15-C ) :   1.4019 B( 14-C , 31-H ) :   0.9598 B( 15-C , 16-C ) :   1.3635
B( 15-C , 32-H ) :   0.9705 B( 16-C , 17-C ) :   1.3293 B( 16-C , 33-H ) :   0.9864
B( 17-C , 18-O ) :   1.1027 B( 17-C , 19-C ) :   1.3587 B( 18-O , 34-H ) :   0.9797
B( 19-C , 35-H ) :   0.9577

MP2 TOTAL ENERGY:    -1274.343643839 Eh
FINAL SINGLE POINT ENERGY     -1274.343643838623

DIPOLE MOMENT
-------------
                                X             Y             Z
Electronic contribution:      8.38851       7.13373       7.68783
Nuclear contribution   :     -9.62777      -8.01644      -7.41446
                        -----------------------------------------
Total Dipole Moment    :     -1.23925      -0.88272       0.27337
                        -----------------------------------------
Magnitude (a.u.)       :      1.54586
Magnitude (Debye)      :      3.92925

Rotational constants in cm-1:     0.010507     0.008709     0.006108
Rotational constants in MHz :   314.990637   261.080372   183.098704

                             ****ORCA TERMINATED NORMALLY****
TOTAL RUN TIME: 0 days 1 hours 31 minutes 26 seconds 222 msec
