                         Program Version 4.2.0 -  RELEASE  -
|  1> ! ri-mp2 cc-pvtz cc-pvtz/c TightSCF NoKeepInts
|  2>
|  3> %scf
|  4>   MaxCore 4096
|  5> end
|  6> *xyz  0  1
|  7>     C       14.3925847   15.0104233   14.9089774
|  8>     C       14.1698475   15.6556409   16.2912477
|  9>     O       15.3543415   16.3784453   16.6710358
| 10>     C       15.6389916   17.5985315   16.1324742
| 11>     O       14.8903536   18.1332100   15.3311073
| 12>     C       16.9479865   18.1980726   16.5896985
| 13>     C       17.4680312   19.3055798   15.9936585
| 14>     C       16.9461516   20.0366244   14.7754639
| 15>     N       18.4721611   20.0315964   16.6594928
| 16>     C       18.6999150   19.9167728   18.0150852
| 17>     S       19.5700418   21.0367436   18.8660914
| 18>     N       18.1515317   18.8040896   18.6109892
| 19>     C       17.7654077   17.6549065   17.7841583
| 20>     C       17.2618671   16.4706925   18.6045071
| 21>     C       17.7970166   15.1840255   18.4049944
| 22>     C       17.3374006   14.0939134   19.1631197
| 23>     C       16.3364665   14.2915335   20.1295995
| 24>     C       15.8037078   15.5719731   20.3324029
| 25>     O       14.8356674   15.7649850   21.2633113
| 26>     C       16.2654577   16.6565268   19.5802162
| 27>     H       14.5138318   15.7744864   14.1311647
| 28>     H       13.5337370   14.3853072   14.6367235
| 29>     H       15.2885887   14.3777096   14.9178340
| 30>     H       13.2943299   16.3190024   16.2729032
| 31>     H       13.9824028   14.8641133   17.0281358
| 32>     H       16.7450953   19.3346940   13.9563554
| 33>     H       17.6507737   20.7859450   14.3963911
| 34>     H       16.0025080   20.5469381   15.0083848
| 35>     H       18.8569636   20.8572319   16.2282690
| 36>     H       18.2970192   18.6989806   19.6072186
| 37>     H       18.7214414   17.3327603   17.3467343
| 38>     H       18.5668932   15.0267299   17.6545190
| 39>     H       17.7552130   13.1021457   18.9993562
| 40>     H       15.9777572   13.4521658   20.7160700
| 41>     H       14.6634610   14.9101572   21.6858563
| 42>     H       15.8320565   17.6373490   19.7444488
| 43> *
| 44>
| 45>                          ****END OF INPUT****

CARTESIAN COORDINATES (ANGSTROEM)
---------------------------------
  C     14.392585   15.010423   14.908977
  C     14.169847   15.655641   16.291248
  O     15.354342   16.378445   16.671036
  C     15.638992   17.598531   16.132474
  O     14.890354   18.133210   15.331107
  C     16.947986   18.198073   16.589699
  C     17.468031   19.305580   15.993659
  C     16.946152   20.036624   14.775464
  N     18.472161   20.031596   16.659493
  C     18.699915   19.916773   18.015085
  S     19.570042   21.036744   18.866091
  N     18.151532   18.804090   18.610989
  C     17.765408   17.654906   17.784158
  C     17.261867   16.470692   18.604507
  C     17.797017   15.184026   18.404994
  C     17.337401   14.093913   19.163120
  C     16.336467   14.291533   20.129600
  C     15.803708   15.571973   20.332403
  O     14.835667   15.764985   21.263311
  C     16.265458   16.656527   19.580216
  H     14.513832   15.774486   14.131165
  H     13.533737   14.385307   14.636724
  H     15.288589   14.377710   14.917834
  H     13.294330   16.319002   16.272903
  H     13.982403   14.864113   17.028136
  H     16.745095   19.334694   13.956355
  H     17.650774   20.785945   14.396391
  H     16.002508   20.546938   15.008385
  H     18.856964   20.857232   16.228269
  H     18.297019   18.698981   19.607219
  H     18.721441   17.332760   17.346734
  H     18.566893   15.026730   17.654519
  H     17.755213   13.102146   18.999356
  H     15.977757   13.452166   20.716070
  H     14.663461   14.910157   21.685856
  H     15.832056   17.637349   19.744449

 Total Charge           Charge          ....    0
 Multiplicity           Mult            ....    1
 Number of Electrons    NEL             ....  154
 Basis Dimension        Dim             ....  828

ORBITAL ENERGIES
----------------

  NO   OCC          E(Eh)            E(eV)
   0   2.0000     -91.890361     -2500.4638
   1   2.0000     -20.598701      -560.5192
   2   2.0000     -20.595817      -560.4407
   3   2.0000     -20.538182      -558.8723
   4   2.0000     -15.631383      -425.3516
   5   2.0000     -15.604288      -424.6143
   6   2.0000     -11.393977      -310.0459
   7   2.0000     -11.383738      -309.7673
   8   2.0000     -11.334084      -308.4161
   9   2.0000     -11.315543      -307.9116
  10   2.0000     -11.308297      -307.7144
  11   2.0000     -11.294677      -307.3438
  12   2.0000     -11.268282      -306.6256
  13   2.0000     -11.259429      -306.3846
  14   2.0000     -11.257295      -306.3266
  15   2.0000     -11.250799      -306.1498
  16   2.0000     -11.245199      -305.9974
  17   2.0000     -11.240801      -305.8777
  18   2.0000     -11.239488      -305.8420
  19   2.0000     -11.222670      -305.3844
  20   2.0000      -8.895293      -242.0532
  21   2.0000      -6.576842      -178.9650
  22   2.0000      -6.574875      -178.9115
  23   2.0000      -6.574255      -178.8946
  24   2.0000      -1.448780       -39.4233
  25   2.0000      -1.418382       -38.5961
  26   2.0000      -1.350793       -36.7569
  27   2.0000      -1.339536       -36.4506
  28   2.0000      -1.236243       -33.6399
  29   2.0000      -1.157678       -31.5020
  30   2.0000      -1.117290       -30.4030
  31   2.0000      -1.042904       -28.3789
  32   2.0000      -1.033772       -28.1304
  33   2.0000      -1.016960       -27.6729
  34   2.0000      -0.995665       -27.0934
  35   2.0000      -0.981755       -26.7149
  36   2.0000      -0.918388       -24.9906
  37   2.0000      -0.894148       -24.3310
  38   2.0000      -0.846812       -23.0429
  39   2.0000      -0.838249       -22.8099
  40   2.0000      -0.831756       -22.6332
  41   2.0000      -0.818805       -22.2808
  42   2.0000      -0.754212       -20.5231
  43   2.0000      -0.732694       -19.9376
  44   2.0000      -0.713696       -19.4206
  45   2.0000      -0.697251       -18.9732
  46   2.0000      -0.689391       -18.7593
  47   2.0000      -0.679502       -18.4902
  48   2.0000      -0.668986       -18.2040
  49   2.0000      -0.657363       -17.8878
  50   2.0000      -0.653163       -17.7735
  51   2.0000      -0.640778       -17.4365
  52   2.0000      -0.632122       -17.2009
  53   2.0000      -0.610677       -16.6174
  54   2.0000      -0.607868       -16.5409
  55   2.0000      -0.601548       -16.3690
  56   2.0000      -0.594041       -16.1647
  57   2.0000      -0.576511       -15.6877
  58   2.0000      -0.572238       -15.5714
  59   2.0000      -0.566336       -15.4108
  60   2.0000      -0.560989       -15.2653
  61   2.0000      -0.542396       -14.7593
  62   2.0000      -0.534405       -14.5419
  63   2.0000      -0.527413       -14.3516
  64   2.0000      -0.520880       -14.1739
  65   2.0000      -0.515031       -14.0147
  66   2.0000      -0.500726       -13.6254
  67   2.0000      -0.498080       -13.5534
  68   2.0000      -0.480759       -13.0821
  69   2.0000      -0.460327       -12.5261
  70   2.0000      -0.450781       -12.2664
  71   2.0000      -0.438265       -11.9258
  72   2.0000      -0.359706        -9.7881
  73   2.0000      -0.346375        -9.4253
  74   2.0000      -0.329866        -8.9761
  75   2.0000      -0.322643        -8.7796
  76   2.0000      -0.316994        -8.6259
  77   0.0000       0.077188         2.1004
  78   0.0000       0.107380         2.9220
  79   0.0000       0.123479         3.3600
  80   0.0000       0.128865         3.5066
  81   0.0000       0.131908         3.5894

MULLIKEN ATOMIC CHARGES
-----------------------
   0 C :   -0.293325
   1 C :    0.038933
   2 O :   -0.342917
   3 C :    0.478475
   4 O :   -0.440823
   5 C :   -0.158739
   6 C :    0.118483
   7 C :   -0.267867
   8 N :   -0.147234
   9 C :    0.213365
  10 S :   -0.433557
  11 N :   -0.203068
  12 C :    0.011885
  13 C :    0.072639
  14 C :   -0.218437
  15 C :   -0.128923
  16 C :   -0.281625
  17 C :    0.308793
  18 O :   -0.357555
  19 C :   -0.223247
  20 H :    0.114075
  21 H :    0.093461
  22 H :    0.092609
  23 H :    0.104466
  24 H :    0.112070
  25 H :    0.125796
  26 H :    0.092701
  27 H :    0.138333
  28 H :    0.197682
  29 H :    0.204032
  30 H :    0.128847
  31 H :    0.145905
  32 H :    0.161705
  33 H :    0.131349
  34 H :    0.241049
  35 H :    0.170665
Sum of atomic charges:    0.0000000

LOEWDIN ATOMIC CHARGES
----------------------
   0 C :    0.104845
   1 C :   -0.015793
   2 O :    0.319028
   3 C :   -0.423356
   4 O :    0.093707
   5 C :   -0.089595
   6 C :   -0.054454
   7 C :    0.126505
   8 N :    0.406462
   9 C :   -0.446908
  10 S :   -0.032968
  11 N :    0.387888
  12 C :   -0.058576
  13 C :   -0.030771
  14 C :    0.018857
  15 C :    0.042324
  16 C :   -0.001550
  17 C :   -0.191062
  18 O :    0.395261
  19 C :    0.029660
  20 H :   -0.026313
  21 H :   -0.027479
  22 H :   -0.030091
  23 H :   -0.028453
  24 H :   -0.024388
  25 H :   -0.007606
  26 H :   -0.023802
  27 H :   -0.002579
  28 H :   -0.059160
  29 H :   -0.069496
  30 H :   -0.016423
  31 H :   -0.029604
  32 H :   -0.020282
  33 H :   -0.035451
  34 H :   -0.153870
  35 H :   -0.024505

  Mayer bond orders larger than 0.100000
B(  0-C ,  1-C ) :   0.9655 B(  0-C , 20-H ) :   0.9753 B(  0-C , 21-H ) :   0.9770
B(  0-C , 22-H ) :   0.9774 B(  1-C ,  2-O ) :   0.8915 B(  1-C , 23-H ) :   0.9783
B(  1-C , 24-H ) :   0.9812 B(  2-O ,  3-C ) :   1.1691 B(  3-C ,  4-O ) :   1.9463
B(  3-C ,  5-C ) :   1.0315 B(  5-C ,  6-C ) :   1.6850 B(  5-C , 12-C ) :   0.9310
B(  6-C ,  7-C ) :   0.9739 B(  6-C ,  8-N ) :   1.1267 B(  7-C , 25-H ) :   0.9682
B(  7-C , 26-H ) :   0.9856 B(  7-C , 27-H ) :   0.9539 B(  8-N ,  9-C ) :   1.1898
B(  8-N , 28-H ) :   0.9511 B(  9-C , 10-S ) :   1.6137 B(  9-C , 11-N ) :   1.3052
B( 11-N , 12-C ) :   0.9433 B( 11-N , 29-H ) :   0.9377 B( 12-C , 13-C ) :   1.0275
B( 12-C , 30-H ) :   0.9936 B( 13-C , 14-C ) :   1.3694 B( 13-C , 19-C ) :   1.3338
B( 14-C , 15-C ) :   1.4013 B( 14-C , 31-H ) :   0.9763 B( 15-C , 16-C ) :   1.3605
B( 15-C , 32-H ) :   0.9707 B( 16-C , 17-C ) :   1.3331 B( 16-C , 33-H ) :   0.9847
B( 17-C , 18-O ) :   1.1026 B( 17-C , 19-C ) :   1.3699 B( 18-O , 34-H ) :   0.9795
B( 19-C , 35-H ) :   0.9562

MP2 TOTAL ENERGY:    -1274.336651128 Eh
FINAL SINGLE POINT ENERGY     -1274.336651127744

DIPOLE MOMENT
-------------
                                X             Y             Z
Electronic contribution:      8.52412      10.16537      10.27547
Nuclear contribution   :     -9.12873     -12.26350     -10.95574
                        -----------------------------------------
Total Dipole Moment    :     -0.60461      -2.09813      -0.68027
                        -----------------------------------------
Magnitude (a.u.)       :      2.28702
Magnitude (Debye)      :      5.81315

Rotational constants in cm-1:     0.012654     0.008069     0.005594
Rotational constants in MHz :   379.354645   241.911463   167.699159

                             ****ORCA TERMINATED NORMALLY****
TOTAL RUN TIME: 0 days 1 hours 31 minutes 1 seconds 983 msec
