                         Program Version 4.2.0 -  RELEASE  -
|  1> ! ri-mp2 cc-pvtz cc-pvtz/c TightSCF NoKeepInts
|  2>
|  3> %scf
|  4>   MaxCore 4096
|  5> end
|  6> *xyz  0  1
|  7>     C       13.4812655   16.2491450   13.8719305
|  8>     C       14.3593916   15.7012177   15.0093915
|  9>     O       15.2532673   16.7529735   15.4086839
| 10>     C       16.1470852   16.5144922   16.4126069
| 11>     O       16.2107053   15.4266095   16.9574229
| 12>     C       17.0120943   17.7003730   16.7612039
| 13>     C       17.1610190   18.8016346   15.9731078
| 14>     C       16.6444200   19.0403147   14.5694817
| 15>     N       17.6842977   19.9756772   16.5454952
| 16>     C       17.7115758   20.1942103   17.9076690
| 17>     S       17.9231167   21.7008185   18.5565358
| 18>     N       17.5449069   19.0717002   18.6865344
| 19>     C       17.7707350   17.7455518   18.1006913
| 20>     C       17.6032285   16.6031827   19.0974255
| 21>     C       18.6108845   15.6319716   19.2478996
| 22>     C       18.4653916   14.5904201   20.1798433
| 23>     C       17.3043310   14.5199327   20.9685083
| 24>     C       16.2998372   15.4863391   20.8210281
| 25>     O       15.1783982   15.4208018   21.5826967
| 26>     C       16.4499970   16.5269219   19.8992729
| 27>     H       12.9052261   17.1183528   14.2130563
| 28>     H       12.7754645   15.4829222   13.5287260
| 29>     H       14.0990890   16.5545365   13.0184610
| 30>     H       13.7299513   15.3930806   15.8554540
| 31>     H       14.9268705   14.8282055   14.6593403
| 32>     H       16.8186263   18.1638031   13.9331760
| 33>     H       17.1374889   19.8905185   14.0830489
| 34>     H       15.5653929   19.2405351   14.5818404
| 35>     H       17.7918534   20.8014694   15.9779282
| 36>     H       17.5519285   19.2007057   19.6906119
| 37>     H       18.8361958   17.7682767   17.8303228
| 38>     H       19.5052405   15.6780760   18.6331581
| 39>     H       19.2461548   13.8393710   20.2828821
| 40>     H       17.1858262   13.7147001   21.6854624
| 41>     H       15.2385205   14.6120677   22.1125558
| 42>     H       15.6572183   17.2590887   19.7945415
| 43> *
| 44>
| 45>                          ****END OF INPUT****

CARTESIAN COORDINATES (ANGSTROEM)
---------------------------------
  C     13.481265   16.249145   13.871930
  C     14.359392   15.701218   15.009391
  O     15.253267   16.752973   15.408684
  C     16.147085   16.514492   16.412607
  O     16.210705   15.426609   16.957423
  C     17.012094   17.700373   16.761204
  C     17.161019   18.801635   15.973108
  C     16.644420   19.040315   14.569482
  N     17.684298   19.975677   16.545495
  C     17.711576   20.194210   17.907669
  S     17.923117   21.700819   18.556536
  N     17.544907   19.071700   18.686534
  C     17.770735   17.745552   18.100691
  C     17.603229   16.603183   19.097425
  C     18.610885   15.631972   19.247900
  C     18.465392   14.590420   20.179843
  C     17.304331   14.519933   20.968508
  C     16.299837   15.486339   20.821028
  O     15.178398   15.420802   21.582697
  C     16.449997   16.526922   19.899273
  H     12.905226   17.118353   14.213056
  H     12.775465   15.482922   13.528726
  H     14.099089   16.554537   13.018461
  H     13.729951   15.393081   15.855454
  H     14.926870   14.828205   14.659340
  H     16.818626   18.163803   13.933176
  H     17.137489   19.890518   14.083049
  H     15.565393   19.240535   14.581840
  H     17.791853   20.801469   15.977928
  H     17.551928   19.200706   19.690612
  H     18.836196   17.768277   17.830323
  H     19.505240   15.678076   18.633158
  H     19.246155   13.839371   20.282882
  H     17.185826   13.714700   21.685462
  H     15.238520   14.612068   22.112556
  H     15.657218   17.259089   19.794541

 Total Charge           Charge          ....    0
 Multiplicity           Mult            ....    1
 Number of Electrons    NEL             ....  154
 Basis Dimension        Dim             ....  828

ORBITAL ENERGIES
----------------

  NO   OCC          E(Eh)            E(eV)
   0   2.0000     -91.889756     -2500.4474
   1   2.0000     -20.601187      -560.5868
   2   2.0000     -20.590755      -560.3029
   3   2.0000     -20.539357      -558.9043
   4   2.0000     -15.631029      -425.3419
   5   2.0000     -15.603195      -424.5845
   6   2.0000     -11.391504      -309.9786
   7   2.0000     -11.383091      -309.7497
   8   2.0000     -11.334658      -308.4317
   9   2.0000     -11.306756      -307.6725
  10   2.0000     -11.305129      -307.6282
  11   2.0000     -11.296830      -307.4024
  12   2.0000     -11.260393      -306.4109
  13   2.0000     -11.259573      -306.3885
  14   2.0000     -11.258187      -306.3508
  15   2.0000     -11.248190      -306.0788
  16   2.0000     -11.236407      -305.7582
  17   2.0000     -11.234011      -305.6930
  18   2.0000     -11.232576      -305.6539
  19   2.0000     -11.231785      -305.6324
  20   2.0000      -8.894701      -242.0371
  21   2.0000      -6.576253      -178.9489
  22   2.0000      -6.574285      -178.8954
  23   2.0000      -6.573667      -178.8786
  24   2.0000      -1.452498       -39.5245
  25   2.0000      -1.410362       -38.3779
  26   2.0000      -1.352000       -36.7898
  27   2.0000      -1.339091       -36.4385
  28   2.0000      -1.235119       -33.6093
  29   2.0000      -1.150241       -31.2996
  30   2.0000      -1.117352       -30.4047
  31   2.0000      -1.043800       -28.4032
  32   2.0000      -1.034895       -28.1609
  33   2.0000      -1.009609       -27.4729
  34   2.0000      -0.997640       -27.1472
  35   2.0000      -0.981429       -26.7060
  36   2.0000      -0.916421       -24.9371
  37   2.0000      -0.887811       -24.1586
  38   2.0000      -0.846012       -23.0212
  39   2.0000      -0.831986       -22.6395
  40   2.0000      -0.825182       -22.4543
  41   2.0000      -0.818752       -22.2794
  42   2.0000      -0.762263       -20.7422
  43   2.0000      -0.726696       -19.7744
  44   2.0000      -0.722659       -19.6646
  45   2.0000      -0.693504       -18.8712
  46   2.0000      -0.685122       -18.6431
  47   2.0000      -0.679814       -18.4987
  48   2.0000      -0.668212       -18.1830
  49   2.0000      -0.660539       -17.9742
  50   2.0000      -0.651587       -17.7306
  51   2.0000      -0.649379       -17.6705
  52   2.0000      -0.630051       -17.1446
  53   2.0000      -0.602920       -16.4063
  54   2.0000      -0.597546       -16.2601
  55   2.0000      -0.593455       -16.1487
  56   2.0000      -0.587269       -15.9804
  57   2.0000      -0.581648       -15.8275
  58   2.0000      -0.570538       -15.5251
  59   2.0000      -0.564620       -15.3641
  60   2.0000      -0.560042       -15.2395
  61   2.0000      -0.554484       -15.0883
  62   2.0000      -0.536841       -14.6082
  63   2.0000      -0.517283       -14.0760
  64   2.0000      -0.514374       -13.9968
  65   2.0000      -0.512255       -13.9392
  66   2.0000      -0.505246       -13.7485
  67   2.0000      -0.494753       -13.4629
  68   2.0000      -0.483637       -13.1604
  69   2.0000      -0.461984       -12.5712
  70   2.0000      -0.454210       -12.3597
  71   2.0000      -0.441029       -12.0010
  72   2.0000      -0.359748        -9.7892
  73   2.0000      -0.337930        -9.1955
  74   2.0000      -0.328829        -8.9479
  75   2.0000      -0.316282        -8.6065
  76   2.0000      -0.313616        -8.5339
  77   0.0000       0.077540         2.1100
  78   0.0000       0.115387         3.1398
  79   0.0000       0.120786         3.2867
  80   0.0000       0.134703         3.6655
  81   0.0000       0.137757         3.7486

MULLIKEN ATOMIC CHARGES
-----------------------
   0 C :   -0.272873
   1 C :    0.046831
   2 O :   -0.333886
   3 C :    0.434638
   4 O :   -0.416912
   5 C :   -0.127685
   6 C :    0.113081
   7 C :   -0.283093
   8 N :   -0.146590
   9 C :    0.214252
  10 S :   -0.435040
  11 N :   -0.204902
  12 C :    0.026248
  13 C :    0.048417
  14 C :   -0.203425
  15 C :   -0.124762
  16 C :   -0.274636
  17 C :    0.315368
  18 O :   -0.360781
  19 C :   -0.212637
  20 H :    0.096653
  21 H :    0.101383
  22 H :    0.092193
  23 H :    0.096962
  24 H :    0.091987
  25 H :    0.120795
  26 H :    0.102053
  27 H :    0.135311
  28 H :    0.196403
  29 H :    0.204920
  30 H :    0.131120
  31 H :    0.140185
  32 H :    0.157180
  33 H :    0.127018
  34 H :    0.240481
  35 H :    0.163739
Sum of atomic charges:   -0.0000000

LOEWDIN ATOMIC CHARGES
----------------------
   0 C :    0.106619
   1 C :   -0.019589
   2 O :    0.305253
   3 C :   -0.424286
   4 O :    0.114971
   5 C :   -0.088668
   6 C :   -0.063573
   7 C :    0.119883
   8 N :    0.404899
   9 C :   -0.446706
  10 S :   -0.034429
  11 N :    0.389455
  12 C :   -0.055444
  13 C :   -0.026770
  14 C :    0.023195
  15 C :    0.045687
  16 C :    0.001981
  17 C :   -0.187416
  18 O :    0.393596
  19 C :    0.031499
  20 H :   -0.027310
  21 H :   -0.022953
  22 H :   -0.029170
  23 H :   -0.027172
  24 H :   -0.029321
  25 H :   -0.012206
  26 H :   -0.021157
  27 H :   -0.007753
  28 H :   -0.060455
  29 H :   -0.068450
  30 H :   -0.015435
  31 H :   -0.030316
  32 H :   -0.021061
  33 H :   -0.036054
  34 H :   -0.154876
  35 H :   -0.026468

  Mayer bond orders larger than 0.100000
B(  0-C ,  1-C ) :   0.9692 B(  0-C , 20-H ) :   0.9768 B(  0-C , 21-H ) :   0.9793
B(  0-C , 22-H ) :   0.9781 B(  1-C ,  2-O ) :   0.9040 B(  1-C , 23-H ) :   0.9773
B(  1-C , 24-H ) :   0.9774 B(  2-O ,  3-C ) :   1.1725 B(  3-C ,  4-O ) :   1.9705
B(  3-C ,  5-C ) :   1.0227 B(  5-C ,  6-C ) :   1.6708 B(  5-C , 12-C ) :   0.9426
B(  6-C ,  7-C ) :   0.9653 B(  6-C ,  8-N ) :   1.1212 B(  7-C , 25-H ) :   0.9730
B(  7-C , 26-H ) :   0.9860 B(  7-C , 27-H ) :   0.9573 B(  8-N ,  9-C ) :   1.1877
B(  8-N , 28-H ) :   0.9516 B(  9-C , 10-S ) :   1.6116 B(  9-C , 11-N ) :   1.3087
B( 11-N , 12-C ) :   0.9460 B( 11-N , 29-H ) :   0.9369 B( 12-C , 13-C ) :   1.0147
B( 12-C , 30-H ) :   0.9935 B( 13-C , 14-C ) :   1.3744 B( 13-C , 19-C ) :   1.3387
B( 14-C , 15-C ) :   1.4027 B( 14-C , 31-H ) :   0.9774 B( 15-C , 16-C ) :   1.3628
B( 15-C , 32-H ) :   0.9719 B( 16-C , 17-C ) :   1.3362 B( 16-C , 33-H ) :   0.9857
B( 17-C , 18-O ) :   1.0978 B( 17-C , 19-C ) :   1.3715 B( 18-O , 34-H ) :   0.9805
B( 19-C , 35-H ) :   0.9570

MP2 TOTAL ENERGY:    -1274.337402061 Eh
FINAL SINGLE POINT ENERGY     -1274.337402061182

DIPOLE MOMENT
-------------
                                X             Y             Z
Electronic contribution:      8.28495       7.75205      13.06593
Nuclear contribution   :     -8.61398      -9.25991     -14.43868
                        -----------------------------------------
Total Dipole Moment    :     -0.32903      -1.50786      -1.37274
                        -----------------------------------------
Magnitude (a.u.)       :      2.06551
Magnitude (Debye)      :      5.25011

Rotational constants in cm-1:     0.010173     0.008497     0.005333
Rotational constants in MHz :   304.982581   254.726225   159.869551

                             ****ORCA TERMINATED NORMALLY****
TOTAL RUN TIME: 0 days 1 hours 26 minutes 54 seconds 956 msec
