                         Program Version 4.2.0 -  RELEASE  -
|  1> ! ri-mp2 cc-pvtz cc-pvtz/c TightSCF NoKeepInts
|  2>
|  3> %scf
|  4>   MaxCore 4096
|  5> end
|  6> *xyz  0  1
|  7>     C       14.1276550   15.4473069   14.2303051
|  8>     C       13.7079326   16.5455818   15.2278321
|  9>     O       14.8652792   17.3237510   15.5883804
| 10>     C       15.7821225   16.8312841   16.4755228
| 11>     O       15.6251430   15.7571351   17.0284870
| 12>     C       16.9642147   17.7405159   16.7001542
| 13>     C       17.3184270   18.7586482   15.8677798
| 14>     C       16.7419215   19.1197713   14.5148019
| 15>     N       18.1933687   19.7502433   16.3482182
| 16>     C       18.4219851   19.9557289   17.6934940
| 17>     S       19.0957470   21.3512042   18.2717507
| 18>     N       18.0446048   18.9208569   18.5189719
| 19>     C       17.8439470   17.5816605   17.9538831
| 20>     C       17.4807163   16.5289320   18.9961245
| 21>     C       18.2043267   15.3244140   19.0783572
| 22>     C       17.8819717   14.3626621   20.0507934
| 23>     C       16.8290921   14.6074404   20.9488787
| 24>     C       16.1075463   15.8065129   20.8694245
| 25>     O       15.0912788   16.0453668   21.7367260
| 26>     C       16.4351650   16.7661197   19.9067173
| 27>     H       14.8139210   14.7302411   14.6980739
| 28>     H       14.6248885   15.8854783   13.3564089
| 29>     H       13.2482363   14.8923233   13.8819743
| 30>     H       12.9685920   17.1991357   14.7475414
| 31>     H       13.2413911   16.1007875   16.1178008
| 32>     H       16.5915081   18.2232921   13.9006316
| 33>     H       17.4005635   19.7882535   13.9474057
| 34>     H       15.7717117   19.6201873   14.6274001
| 35>     H       18.4568416   20.5156687   15.7479297
| 36>     H       18.1915186   19.0452690   19.5128451
| 37>     H       18.8419257   17.3156257   17.5769954
| 38>     H       19.0122741   15.1279000   18.3794397
| 39>     H       18.4416032   13.4306945   20.1009254
| 40>     H       16.5737003   13.8654852   21.6976991
| 41>     H       14.9869765   15.2513756   22.2817945
| 42>     H       15.8589006   17.6831471   19.8565332
| 43> *
| 44>
| 45>                          ****END OF INPUT****

CARTESIAN COORDINATES (ANGSTROEM)
---------------------------------
  C     14.127655   15.447307   14.230305
  C     13.707933   16.545582   15.227832
  O     14.865279   17.323751   15.588380
  C     15.782122   16.831284   16.475523
  O     15.625143   15.757135   17.028487
  C     16.964215   17.740516   16.700154
  C     17.318427   18.758648   15.867780
  C     16.741922   19.119771   14.514802
  N     18.193369   19.750243   16.348218
  C     18.421985   19.955729   17.693494
  S     19.095747   21.351204   18.271751
  N     18.044605   18.920857   18.518972
  C     17.843947   17.581661   17.953883
  C     17.480716   16.528932   18.996125
  C     18.204327   15.324414   19.078357
  C     17.881972   14.362662   20.050793
  C     16.829092   14.607440   20.948879
  C     16.107546   15.806513   20.869425
  O     15.091279   16.045367   21.736726
  C     16.435165   16.766120   19.906717
  H     14.813921   14.730241   14.698074
  H     14.624888   15.885478   13.356409
  H     13.248236   14.892323   13.881974
  H     12.968592   17.199136   14.747541
  H     13.241391   16.100787   16.117801
  H     16.591508   18.223292   13.900632
  H     17.400564   19.788253   13.947406
  H     15.771712   19.620187   14.627400
  H     18.456842   20.515669   15.747930
  H     18.191519   19.045269   19.512845
  H     18.841926   17.315626   17.576995
  H     19.012274   15.127900   18.379440
  H     18.441603   13.430694   20.100925
  H     16.573700   13.865485   21.697699
  H     14.986977   15.251376   22.281795
  H     15.858901   17.683147   19.856533

 Total Charge           Charge          ....    0
 Multiplicity           Mult            ....    1
 Number of Electrons    NEL             ....  154
 Basis Dimension        Dim             ....  828

ORBITAL ENERGIES
----------------

  NO   OCC          E(Eh)            E(eV)
   0   2.0000     -91.889737     -2500.4469
   1   2.0000     -20.600037      -560.5555
   2   2.0000     -20.590993      -560.3094
   3   2.0000     -20.539840      -558.9175
   4   2.0000     -15.630988      -425.3408
   5   2.0000     -15.603245      -424.5859
   6   2.0000     -11.393318      -310.0280
   7   2.0000     -11.383121      -309.7505
   8   2.0000     -11.334439      -308.4258
   9   2.0000     -11.307070      -307.6810
  10   2.0000     -11.305336      -307.6338
  11   2.0000     -11.298528      -307.4486
  12   2.0000     -11.260654      -306.4180
  13   2.0000     -11.259412      -306.3842
  14   2.0000     -11.258167      -306.3503
  15   2.0000     -11.248522      -306.0878
  16   2.0000     -11.236744      -305.7674
  17   2.0000     -11.232911      -305.6631
  18   2.0000     -11.232078      -305.6404
  19   2.0000     -11.226561      -305.4903
  20   2.0000      -8.894679      -242.0365
  21   2.0000      -6.576230      -178.9483
  22   2.0000      -6.574263      -178.8948
  23   2.0000      -6.573645      -178.8780
  24   2.0000      -1.450453       -39.4688
  25   2.0000      -1.410608       -38.3846
  26   2.0000      -1.352265       -36.7970
  27   2.0000      -1.339032       -36.4369
  28   2.0000      -1.235107       -33.6090
  29   2.0000      -1.150537       -31.3077
  30   2.0000      -1.117423       -30.4066
  31   2.0000      -1.041416       -28.3384
  32   2.0000      -1.032502       -28.0958
  33   2.0000      -1.009844       -27.4793
  34   2.0000      -0.997531       -27.1442
  35   2.0000      -0.981056       -26.6959
  36   2.0000      -0.916982       -24.9524
  37   2.0000      -0.893054       -24.3012
  38   2.0000      -0.846102       -23.0236
  39   2.0000      -0.832852       -22.6631
  40   2.0000      -0.825688       -22.4681
  41   2.0000      -0.819341       -22.2954
  42   2.0000      -0.753182       -20.4951
  43   2.0000      -0.726766       -19.7763
  44   2.0000      -0.721959       -19.6455
  45   2.0000      -0.692441       -18.8423
  46   2.0000      -0.684668       -18.6308
  47   2.0000      -0.678629       -18.4664
  48   2.0000      -0.672082       -18.2883
  49   2.0000      -0.656079       -17.8528
  50   2.0000      -0.650506       -17.7012
  51   2.0000      -0.638712       -17.3802
  52   2.0000      -0.631094       -17.1729
  53   2.0000      -0.613555       -16.6957
  54   2.0000      -0.600909       -16.3516
  55   2.0000      -0.596157       -16.2223
  56   2.0000      -0.593528       -16.1507
  57   2.0000      -0.581422       -15.8213
  58   2.0000      -0.570702       -15.5296
  59   2.0000      -0.564863       -15.3707
  60   2.0000      -0.558421       -15.1954
  61   2.0000      -0.543262       -14.7829
  62   2.0000      -0.533252       -14.5105
  63   2.0000      -0.528819       -14.3899
  64   2.0000      -0.514760       -14.0073
  65   2.0000      -0.511616       -13.9218
  66   2.0000      -0.498801       -13.5731
  67   2.0000      -0.494017       -13.4429
  68   2.0000      -0.483009       -13.1433
  69   2.0000      -0.461490       -12.5578
  70   2.0000      -0.449871       -12.2416
  71   2.0000      -0.441423       -12.0117
  72   2.0000      -0.359701        -9.7880
  73   2.0000      -0.338329        -9.2064
  74   2.0000      -0.328817        -8.9476
  75   2.0000      -0.316243        -8.6054
  76   2.0000      -0.313935        -8.5426
  77   0.0000       0.077300         2.1034
  78   0.0000       0.115001         3.1293
  79   0.0000       0.122316         3.3284
  80   0.0000       0.134549         3.6613
  81   0.0000       0.138003         3.7553

MULLIKEN ATOMIC CHARGES
-----------------------
   0 C :   -0.300721
   1 C :    0.032693
   2 O :   -0.347808
   3 C :    0.455004
   4 O :   -0.422608
   5 C :   -0.136981
   6 C :    0.116309
   7 C :   -0.280844
   8 N :   -0.146864
   9 C :    0.213963
  10 S :   -0.434888
  11 N :   -0.204633
  12 C :    0.026894
  13 C :    0.046235
  14 C :   -0.203896
  15 C :   -0.125041
  16 C :   -0.274694
  17 C :    0.315115
  18 O :   -0.360487
  19 C :   -0.212096
  20 H :    0.119326
  21 H :    0.088682
  22 H :    0.099310
  23 H :    0.109580
  24 H :    0.109449
  25 H :    0.119947
  26 H :    0.100634
  27 H :    0.135824
  28 H :    0.196432
  29 H :    0.204940
  30 H :    0.131240
  31 H :    0.140432
  32 H :    0.157273
  33 H :    0.127182
  34 H :    0.240444
  35 H :    0.164653
Sum of atomic charges:    0.0000000

LOEWDIN ATOMIC CHARGES
----------------------
   0 C :    0.103732
   1 C :   -0.017286
   2 O :    0.303123
   3 C :   -0.423306
   4 O :    0.114515
   5 C :   -0.087892
   6 C :   -0.063704
   7 C :    0.119979
   8 N :    0.404948
   9 C :   -0.446408
  10 S :   -0.034260
  11 N :    0.389508
  12 C :   -0.055324
  13 C :   -0.026888
  14 C :    0.023131
  15 C :    0.045544
  16 C :    0.001944
  17 C :   -0.187460
  18 O :    0.393728
  19 C :    0.031592
  20 H :   -0.024325
  21 H :   -0.032518
  22 H :   -0.026289
  23 H :   -0.026002
  24 H :   -0.026527
  25 H :   -0.012503
  26 H :   -0.021163
  27 H :   -0.007162
  28 H :   -0.060354
  29 H :   -0.068454
  30 H :   -0.015428
  31 H :   -0.030327
  32 H :   -0.021074
  33 H :   -0.036030
  34 H :   -0.154875
  35 H :   -0.026190

  Mayer bond orders larger than 0.100000
B(  0-C ,  1-C ) :   0.9607 B(  0-C , 20-H ) :   0.9739 B(  0-C , 21-H ) :   0.9782
B(  0-C , 22-H ) :   0.9770 B(  1-C ,  2-O ) :   0.8981 B(  1-C , 23-H ) :   0.9847
B(  1-C , 24-H ) :   0.9773 B(  2-O ,  3-C ) :   1.1579 B(  3-C ,  4-O ) :   1.9567
B(  3-C ,  5-C ) :   1.0251 B(  5-C ,  6-C ) :   1.6749 B(  5-C , 12-C ) :   0.9432
B(  6-C ,  7-C ) :   0.9655 B(  6-C ,  8-N ) :   1.1203 B(  7-C , 25-H ) :   0.9733
B(  7-C , 26-H ) :   0.9846 B(  7-C , 27-H ) :   0.9574 B(  8-N ,  9-C ) :   1.1884
B(  8-N , 28-H ) :   0.9515 B(  9-C , 10-S ) :   1.6116 B(  9-C , 11-N ) :   1.3083
B( 11-N , 12-C ) :   0.9470 B( 11-N , 29-H ) :   0.9370 B( 12-C , 13-C ) :   1.0133
B( 12-C , 30-H ) :   0.9934 B( 13-C , 14-C ) :   1.3750 B( 13-C , 19-C ) :   1.3386
B( 14-C , 15-C ) :   1.4026 B( 14-C , 31-H ) :   0.9771 B( 15-C , 16-C ) :   1.3627
B( 15-C , 32-H ) :   0.9719 B( 16-C , 17-C ) :   1.3362 B( 16-C , 33-H ) :   0.9857
B( 17-C , 18-O ) :   1.0981 B( 17-C , 19-C ) :   1.3713 B( 18-O , 34-H ) :   0.9805
B( 19-C , 35-H ) :   0.9567

MP2 TOTAL ENERGY:    -1274.335941757 Eh
FINAL SINGLE POINT ENERGY     -1274.335941756729

DIPOLE MOMENT
-------------
                                X             Y             Z
Electronic contribution:      8.85550       9.01034      12.06845
Nuclear contribution   :     -9.67283     -10.45298     -13.34984
                        -----------------------------------------
Total Dipole Moment    :     -0.81733      -1.44264      -1.28139
                        -----------------------------------------
Magnitude (a.u.)       :      2.09552
Magnitude (Debye)      :      5.32638

Rotational constants in cm-1:     0.010338     0.008712     0.005399
Rotational constants in MHz :   309.921442   261.185051   161.847637

                             ****ORCA TERMINATED NORMALLY****
TOTAL RUN TIME: 0 days 1 hours 28 minutes 15 seconds 491 msec
