                         Program Version 4.2.0 -  RELEASE  -
|  1> ! ri-mp2 cc-pvtz cc-pvtz/c TightSCF NoKeepInts
|  2>
|  3> %scf
|  4>   MaxCore 4096
|  5> end
|  6> *xyz  0  1
|  7>     C       13.3792465   15.9053423   15.5318470
|  8>     C       14.5557488   16.0470679   14.5449998
|  9>     O       15.4941428   17.0083275   15.0654008
| 10>     C       16.3297377   16.6700128   16.0935814
| 11>     O       16.3841566   15.5328334   16.5275382
| 12>     C       17.1544941   17.8195223   16.6143693
| 13>     C       17.3772613   18.9760090   15.9310226
| 14>     C       17.0002779   19.3197309   14.5053496
| 15>     N       17.8382664   20.1004259   16.6399885
| 16>     C       17.7317016   20.2130394   18.0112887
| 17>     S       17.8729192   21.6644202   18.7918252
| 18>     N       17.4926532   19.0346895   18.6816841
| 19>     C       17.7774742   17.7560383   18.0207021
| 20>     C       17.5074276   16.5412378   18.9024236
| 21>     C       18.5010530   15.5640634   19.0996170
| 22>     C       18.2563993   14.4536907   19.9253188
| 23>     C       17.0093367   14.3196266   20.5593577
| 24>     C       16.0186140   15.2919415   20.3649918
| 25>     O       14.8136494   15.1645619   20.9764718
| 26>     C       16.2669656   16.4009563   19.5506221
| 27>     H       13.7132806   15.4818680   16.4876203
| 28>     H       12.6120044   15.2393826   15.1190703
| 29>     H       12.9173605   16.8807762   15.7280260
| 30>     H       15.0398211   15.0744199   14.3809661
| 31>     H       14.1707159   16.4028239   13.5808776
| 32>     H       15.9290970   19.5466681   14.4311853
| 33>     H       17.2168938   18.4830019   13.8297319
| 34>     H       17.5544110   20.1870684   14.1268094
| 35>     H       17.9980113   20.9669126   16.1507666
| 36>     H       17.4001753   19.0863111   19.6884700
| 37>     H       18.8645529   17.7916451   17.8601800
| 38>     H       19.4622206   15.6592798   18.6026108
| 39>     H       19.0277718   13.6988084   20.0647085
| 40>     H       16.8145266   13.4610189   21.1928439
| 41>     H       14.8201835   14.3190157   21.4492102
| 42>     H       15.4844456   17.1374585   19.4065246
| 43> *
| 44>
| 45>                          ****END OF INPUT****

CARTESIAN COORDINATES (ANGSTROEM)
---------------------------------
  C     13.379247   15.905342   15.531847
  C     14.555749   16.047068   14.545000
  O     15.494143   17.008328   15.065401
  C     16.329738   16.670013   16.093581
  O     16.384157   15.532833   16.527538
  C     17.154494   17.819522   16.614369
  C     17.377261   18.976009   15.931023
  C     17.000278   19.319731   14.505350
  N     17.838266   20.100426   16.639989
  C     17.731702   20.213039   18.011289
  S     17.872919   21.664420   18.791825
  N     17.492653   19.034689   18.681684
  C     17.777474   17.756038   18.020702
  C     17.507428   16.541238   18.902424
  C     18.501053   15.564063   19.099617
  C     18.256399   14.453691   19.925319
  C     17.009337   14.319627   20.559358
  C     16.018614   15.291942   20.364992
  O     14.813649   15.164562   20.976472
  C     16.266966   16.400956   19.550622
  H     13.713281   15.481868   16.487620
  H     12.612004   15.239383   15.119070
  H     12.917360   16.880776   15.728026
  H     15.039821   15.074420   14.380966
  H     14.170716   16.402824   13.580878
  H     15.929097   19.546668   14.431185
  H     17.216894   18.483002   13.829732
  H     17.554411   20.187068   14.126809
  H     17.998011   20.966913   16.150767
  H     17.400175   19.086311   19.688470
  H     18.864553   17.791645   17.860180
  H     19.462221   15.659280   18.602611
  H     19.027772   13.698808   20.064708
  H     16.814527   13.461019   21.192844
  H     14.820183   14.319016   21.449210
  H     15.484446   17.137459   19.406525

 Total Charge           Charge          ....    0
 Multiplicity           Mult            ....    1
 Number of Electrons    NEL             ....  154
 Basis Dimension        Dim             ....  828

ORBITAL ENERGIES
----------------

  NO   OCC          E(Eh)            E(eV)
   0   2.0000     -91.889789     -2500.4483
   1   2.0000     -20.599881      -560.5513
   2   2.0000     -20.591868      -560.3332
   3   2.0000     -20.539891      -558.9188
   4   2.0000     -15.630810      -425.3360
   5   2.0000     -15.603406      -424.5903
   6   2.0000     -11.393044      -310.0205
   7   2.0000     -11.383197      -309.7525
   8   2.0000     -11.333949      -308.4124
   9   2.0000     -11.307775      -307.7002
  10   2.0000     -11.305460      -307.6372
  11   2.0000     -11.297853      -307.4302
  12   2.0000     -11.261091      -306.4299
  13   2.0000     -11.259073      -306.3750
  14   2.0000     -11.257644      -306.3361
  15   2.0000     -11.249067      -306.1027
  16   2.0000     -11.237401      -305.7852
  17   2.0000     -11.233442      -305.6775
  18   2.0000     -11.232785      -305.6596
  19   2.0000     -11.223600      -305.4097
  20   2.0000      -8.894734      -242.0380
  21   2.0000      -6.576285      -178.9498
  22   2.0000      -6.574318      -178.8963
  23   2.0000      -6.573700      -178.8795
  24   2.0000      -1.450286       -39.4643
  25   2.0000      -1.411471       -38.4081
  26   2.0000      -1.352121       -36.7931
  27   2.0000      -1.338948       -36.4346
  28   2.0000      -1.235139       -33.6098
  29   2.0000      -1.151077       -31.3224
  30   2.0000      -1.117493       -30.4085
  31   2.0000      -1.041407       -28.3381
  32   2.0000      -1.031174       -28.0597
  33   2.0000      -1.010351       -27.4931
  34   2.0000      -0.997602       -27.1461
  35   2.0000      -0.980860       -26.6905
  36   2.0000      -0.917141       -24.9567
  37   2.0000      -0.892013       -24.2729
  38   2.0000      -0.846064       -23.0226
  39   2.0000      -0.833086       -22.6694
  40   2.0000      -0.826228       -22.4828
  41   2.0000      -0.819120       -22.2894
  42   2.0000      -0.751980       -20.4624
  43   2.0000      -0.727439       -19.7946
  44   2.0000      -0.722866       -19.6702
  45   2.0000      -0.693515       -18.8715
  46   2.0000      -0.685286       -18.6476
  47   2.0000      -0.677626       -18.4391
  48   2.0000      -0.669259       -18.2115
  49   2.0000      -0.653152       -17.7732
  50   2.0000      -0.651883       -17.7386
  51   2.0000      -0.645060       -17.5530
  52   2.0000      -0.629644       -17.1335
  53   2.0000      -0.613261       -16.6877
  54   2.0000      -0.601085       -16.3564
  55   2.0000      -0.596105       -16.2208
  56   2.0000      -0.594431       -16.1753
  57   2.0000      -0.579006       -15.7556
  58   2.0000      -0.571166       -15.5422
  59   2.0000      -0.562381       -15.3032
  60   2.0000      -0.558129       -15.1875
  61   2.0000      -0.542671       -14.7668
  62   2.0000      -0.535462       -14.5707
  63   2.0000      -0.524895       -14.2831
  64   2.0000      -0.515282       -14.0215
  65   2.0000      -0.511973       -13.9315
  66   2.0000      -0.498127       -13.5547
  67   2.0000      -0.493937       -13.4407
  68   2.0000      -0.484000       -13.1703
  69   2.0000      -0.458337       -12.4720
  70   2.0000      -0.452576       -12.3152
  71   2.0000      -0.440463       -11.9856
  72   2.0000      -0.359730        -9.7888
  73   2.0000      -0.338983        -9.2242
  74   2.0000      -0.328909        -8.9501
  75   2.0000      -0.316256        -8.6058
  76   2.0000      -0.314619        -8.5612
  77   0.0000       0.077361         2.1051
  78   0.0000       0.113969         3.1013
  79   0.0000       0.122142         3.3236
  80   0.0000       0.134149         3.6504
  81   0.0000       0.137544         3.7428

MULLIKEN ATOMIC CHARGES
-----------------------
   0 C :   -0.295968
   1 C :    0.035525
   2 O :   -0.350074
   3 C :    0.452752
   4 O :   -0.420149
   5 C :   -0.127023
   6 C :    0.108518
   7 C :   -0.275874
   8 N :   -0.146086
   9 C :    0.214308
  10 S :   -0.435071
  11 N :   -0.204618
  12 C :    0.021843
  13 C :    0.046182
  14 C :   -0.202220
  15 C :   -0.124460
  16 C :   -0.274670
  17 C :    0.314841
  18 O :   -0.361384
  19 C :   -0.213870
  20 H :    0.121496
  21 H :    0.094443
  22 H :    0.093657
  23 H :    0.104108
  24 H :    0.105489
  25 H :    0.133284
  26 H :    0.120989
  27 H :    0.099333
  28 H :    0.196422
  29 H :    0.204856
  30 H :    0.131480
  31 H :    0.140927
  32 H :    0.157568
  33 H :    0.127395
  34 H :    0.240825
  35 H :    0.165228
Sum of atomic charges:    0.0000000

LOEWDIN ATOMIC CHARGES
----------------------
   0 C :    0.105530
   1 C :   -0.018033
   2 O :    0.302412
   3 C :   -0.423170
   4 O :    0.114996
   5 C :   -0.087928
   6 C :   -0.064447
   7 C :    0.120375
   8 N :    0.404867
   9 C :   -0.446360
  10 S :   -0.034508
  11 N :    0.389308
  12 C :   -0.055431
  13 C :   -0.026929
  14 C :    0.023769
  15 C :    0.046065
  16 C :    0.002122
  17 C :   -0.188095
  18 O :    0.393449
  19 C :    0.030741
  20 H :   -0.023798
  21 H :   -0.026975
  22 H :   -0.029672
  23 H :   -0.028822
  24 H :   -0.027025
  25 H :   -0.007803
  26 H :   -0.011176
  27 H :   -0.021172
  28 H :   -0.060337
  29 H :   -0.068526
  30 H :   -0.015350
  31 H :   -0.029989
  32 H :   -0.020884
  33 H :   -0.035931
  34 H :   -0.154722
  35 H :   -0.026550

  Mayer bond orders larger than 0.100000
B(  0-C ,  1-C ) :   0.9638 B(  0-C , 20-H ) :   0.9734 B(  0-C , 21-H ) :   0.9764
B(  0-C , 22-H ) :   0.9768 B(  1-C ,  2-O ) :   0.8950 B(  1-C , 23-H ) :   0.9772
B(  1-C , 24-H ) :   0.9838 B(  2-O ,  3-C ) :   1.1536 B(  3-C ,  4-O ) :   1.9653
B(  3-C ,  5-C ) :   1.0165 B(  5-C ,  6-C ) :   1.6802 B(  5-C , 12-C ) :   0.9409
B(  6-C ,  7-C ) :   0.9662 B(  6-C ,  8-N ) :   1.1235 B(  7-C , 25-H ) :   0.9574
B(  7-C , 26-H ) :   0.9734 B(  7-C , 27-H ) :   0.9841 B(  8-N ,  9-C ) :   1.1878
B(  8-N , 28-H ) :   0.9516 B(  9-C , 10-S ) :   1.6118 B(  9-C , 11-N ) :   1.3080
B( 11-N , 12-C ) :   0.9452 B( 11-N , 29-H ) :   0.9370 B( 12-C , 13-C ) :   1.0144
B( 12-C , 30-H ) :   0.9937 B( 13-C , 14-C ) :   1.3759 B( 13-C , 19-C ) :   1.3375
B( 14-C , 15-C ) :   1.4022 B( 14-C , 31-H ) :   0.9769 B( 15-C , 16-C ) :   1.3632
B( 15-C , 32-H ) :   0.9718 B( 16-C , 17-C ) :   1.3367 B( 16-C , 33-H ) :   0.9856
B( 17-C , 18-O ) :   1.0976 B( 17-C , 19-C ) :   1.3710 B( 18-O , 34-H ) :   0.9804
B( 19-C , 35-H ) :   0.9566

MP2 TOTAL ENERGY:    -1274.336357038 Eh
FINAL SINGLE POINT ENERGY     -1274.336357037959

DIPOLE MOMENT
-------------
                                X             Y             Z
Electronic contribution:      8.25635       8.02827       9.72579
Nuclear contribution   :     -8.49822      -9.44430     -11.09660
                        -----------------------------------------
Total Dipole Moment    :     -0.24187      -1.41603      -1.37081
                        -----------------------------------------
Magnitude (a.u.)       :      1.98564
Magnitude (Debye)      :      5.04711

Rotational constants in cm-1:     0.011101     0.008387     0.005682
Rotational constants in MHz :   332.787109   251.447584   170.339112

                             ****ORCA TERMINATED NORMALLY****
TOTAL RUN TIME: 0 days 1 hours 29 minutes 26 seconds 946 msec
