                         Program Version 4.2.0 -  RELEASE  -
|  1> ! ri-mp2 cc-pvtz cc-pvtz/c TightSCF NoKeepInts
|  2>
|  3> %scf
|  4>   MaxCore 4096
|  5> end
|  6> *xyz  0  1
|  7>     C       14.2576882   14.4413360   16.4347497
|  8>     C       14.3180202   15.8295193   15.7762213
|  9>     O       15.4774789   16.5003538   16.2931719
| 10>     C       15.7499338   17.7720703   15.8897860
| 11>     O       15.0425904   18.3409677   15.0743979
| 12>     C       16.9923491   18.3779772   16.4986365
| 13>     C       17.4956118   19.5619314   16.0540597
| 14>     C       17.0213102   20.3908701   14.8798231
| 15>     N       18.4144751   20.2590144   16.8593513
| 16>     C       18.5546846   20.0171529   18.2100250
| 17>     S       19.3074156   21.0813364   19.2281289
| 18>     N       18.0231085   18.8273074   18.6520427
| 19>     C       17.7524303   17.7523047   17.6904739
| 20>     C       17.2586173   16.4692092   18.3533402
| 21>     C       17.8709853   15.2348939   18.0647553
| 22>     C       17.4302515   14.0554207   18.6884427
| 23>     C       16.3708392   14.1101145   19.6101140
| 24>     C       15.7599225   15.3377325   19.9004128
| 25>     O       14.7332918   15.3922997   20.7857600
| 26>     C       16.2017794   16.5109752   19.2810778
| 27>     H       15.1785873   13.8789280   16.2367453
| 28>     H       13.4094716   13.8659660   16.0450421
| 29>     H       14.1384787   14.5370170   17.5207187
| 30>     H       14.3922854   15.7259100   14.6853812
| 31>     H       13.4082992   16.3971659   16.0143900
| 32>     H       16.0355045   20.8260294   15.0894281
| 33>     H       16.9208360   19.7704269   13.9803516
| 34>     H       17.7067035   21.2105370   14.6346975
| 35>     H       18.7864332   21.1397061   16.5403730
| 36>     H       18.1057696   18.6277101   19.6409978
| 37>     H       18.7510910   17.5187951   17.2938613
| 38>     H       18.6885999   15.1885838   17.3506163
| 39>     H       17.9086100   13.1055161   18.4565432
| 40>     H       16.0265703   13.2015402   20.0928842
| 41>     H       14.5882156   14.4941459   21.1192537
| 42>     H       15.7087572   17.4492340   19.5119439
| 43> *
| 44>
| 45>                          ****END OF INPUT****

CARTESIAN COORDINATES (ANGSTROEM)
---------------------------------
  C     14.257688   14.441336   16.434750
  C     14.318020   15.829519   15.776221
  O     15.477479   16.500354   16.293172
  C     15.749934   17.772070   15.889786
  O     15.042590   18.340968   15.074398
  C     16.992349   18.377977   16.498636
  C     17.495612   19.561931   16.054060
  C     17.021310   20.390870   14.879823
  N     18.414475   20.259014   16.859351
  C     18.554685   20.017153   18.210025
  S     19.307416   21.081336   19.228129
  N     18.023108   18.827307   18.652043
  C     17.752430   17.752305   17.690474
  C     17.258617   16.469209   18.353340
  C     17.870985   15.234894   18.064755
  C     17.430252   14.055421   18.688443
  C     16.370839   14.110114   19.610114
  C     15.759923   15.337732   19.900413
  O     14.733292   15.392300   20.785760
  C     16.201779   16.510975   19.281078
  H     15.178587   13.878928   16.236745
  H     13.409472   13.865966   16.045042
  H     14.138479   14.537017   17.520719
  H     14.392285   15.725910   14.685381
  H     13.408299   16.397166   16.014390
  H     16.035504   20.826029   15.089428
  H     16.920836   19.770427   13.980352
  H     17.706703   21.210537   14.634697
  H     18.786433   21.139706   16.540373
  H     18.105770   18.627710   19.640998
  H     18.751091   17.518795   17.293861
  H     18.688600   15.188584   17.350616
  H     17.908610   13.105516   18.456543
  H     16.026570   13.201540   20.092884
  H     14.588216   14.494146   21.119254
  H     15.708757   17.449234   19.511944

 Total Charge           Charge          ....    0
 Multiplicity           Mult            ....    1
 Number of Electrons    NEL             ....  154
 Basis Dimension        Dim             ....  828

ORBITAL ENERGIES
----------------

  NO   OCC          E(Eh)            E(eV)
   0   2.0000     -91.890531     -2500.4685
   1   2.0000     -20.600164      -560.5590
   2   2.0000     -20.597043      -560.4740
   3   2.0000     -20.537584      -558.8561
   4   2.0000     -15.631445      -425.3532
   5   2.0000     -15.604564      -424.6218
   6   2.0000     -11.391999      -309.9921
   7   2.0000     -11.383903      -309.7718
   8   2.0000     -11.334065      -308.4156
   9   2.0000     -11.316285      -307.9318
  10   2.0000     -11.308752      -307.7268
  11   2.0000     -11.292304      -307.2792
  12   2.0000     -11.269481      -306.6582
  13   2.0000     -11.259346      -306.3824
  14   2.0000     -11.258012      -306.3461
  15   2.0000     -11.250412      -306.1393
  16   2.0000     -11.245768      -306.0129
  17   2.0000     -11.241750      -305.9036
  18   2.0000     -11.240580      -305.8717
  19   2.0000     -11.225300      -305.4559
  20   2.0000      -8.895462      -242.0578
  21   2.0000      -6.577011      -178.9696
  22   2.0000      -6.575045      -178.9161
  23   2.0000      -6.574424      -178.8992
  24   2.0000      -1.450522       -39.4707
  25   2.0000      -1.419802       -38.6348
  26   2.0000      -1.350406       -36.7464
  27   2.0000      -1.339697       -36.4550
  28   2.0000      -1.236501       -33.6469
  29   2.0000      -1.158593       -31.5269
  30   2.0000      -1.117512       -30.4090
  31   2.0000      -1.043626       -28.3985
  32   2.0000      -1.036694       -28.2099
  33   2.0000      -1.017975       -27.7005
  34   2.0000      -0.996007       -27.1027
  35   2.0000      -0.982176       -26.7264
  36   2.0000      -0.918819       -25.0023
  37   2.0000      -0.886937       -24.1348
  38   2.0000      -0.847178       -23.0529
  39   2.0000      -0.838898       -22.8276
  40   2.0000      -0.832239       -22.6464
  41   2.0000      -0.817030       -22.2325
  42   2.0000      -0.764173       -20.7942
  43   2.0000      -0.733457       -19.9584
  44   2.0000      -0.711173       -19.3520
  45   2.0000      -0.697455       -18.9787
  46   2.0000      -0.688989       -18.7483
  47   2.0000      -0.678869       -18.4730
  48   2.0000      -0.674111       -18.3435
  49   2.0000      -0.663107       -18.0441
  50   2.0000      -0.656937       -17.8762
  51   2.0000      -0.647861       -17.6292
  52   2.0000      -0.631433       -17.1822
  53   2.0000      -0.608846       -16.5675
  54   2.0000      -0.603965       -16.4347
  55   2.0000      -0.595311       -16.1992
  56   2.0000      -0.580904       -15.8072
  57   2.0000      -0.576526       -15.6881
  58   2.0000      -0.571900       -15.5622
  59   2.0000      -0.570077       -15.5126
  60   2.0000      -0.561164       -15.2700
  61   2.0000      -0.549180       -14.9439
  62   2.0000      -0.541171       -14.7260
  63   2.0000      -0.522017       -14.2048
  64   2.0000      -0.516000       -14.0411
  65   2.0000      -0.511097       -13.9077
  66   2.0000      -0.509117       -13.8538
  67   2.0000      -0.501320       -13.6416
  68   2.0000      -0.478173       -13.0117
  69   2.0000      -0.460501       -12.5309
  70   2.0000      -0.455870       -12.4049
  71   2.0000      -0.437979       -11.9180
  72   2.0000      -0.359832        -9.7915
  73   2.0000      -0.347586        -9.4583
  74   2.0000      -0.330077        -8.9819
  75   2.0000      -0.323628        -8.8064
  76   2.0000      -0.317133        -8.6296
  77   0.0000       0.077180         2.1002
  78   0.0000       0.105514         2.8712
  79   0.0000       0.121478         3.3056
  80   0.0000       0.127036         3.4568
  81   0.0000       0.131721         3.5843

MULLIKEN ATOMIC CHARGES
-----------------------
   0 C :   -0.280313
   1 C :    0.042686
   2 O :   -0.326366
   3 C :    0.456602
   4 O :   -0.436596
   5 C :   -0.150964
   6 C :    0.120957
   7 C :   -0.268046
   8 N :   -0.147396
   9 C :    0.213486
  10 S :   -0.433388
  11 N :   -0.203870
  12 C :    0.014232
  13 C :    0.064863
  14 C :   -0.210118
  15 C :   -0.137205
  16 C :   -0.272514
  17 C :    0.294660
  18 O :   -0.363566
  19 C :   -0.214724
  20 H :    0.095846
  21 H :    0.104031
  22 H :    0.102657
  23 H :    0.095088
  24 H :    0.093646
  25 H :    0.137949
  26 H :    0.126613
  27 H :    0.092345
  28 H :    0.197752
  29 H :    0.203992
  30 H :    0.129043
  31 H :    0.147423
  32 H :    0.164104
  33 H :    0.132841
  34 H :    0.241868
  35 H :    0.172381
Sum of atomic charges:   -0.0000000

LOEWDIN ATOMIC CHARGES
----------------------
   0 C :    0.107905
   1 C :   -0.018905
   2 O :    0.319243
   3 C :   -0.424299
   4 O :    0.093566
   5 C :   -0.090745
   6 C :   -0.054076
   7 C :    0.126655
   8 N :    0.406500
   9 C :   -0.447058
  10 S :   -0.032876
  11 N :    0.387769
  12 C :   -0.058564
  13 C :   -0.029836
  14 C :    0.019734
  15 C :    0.044259
  16 C :    0.000507
  17 C :   -0.192804
  18 O :    0.395613
  19 C :    0.028684
  20 H :   -0.027601
  21 H :   -0.026060
  22 H :   -0.027453
  23 H :   -0.029489
  24 H :   -0.028666
  25 H :   -0.002560
  26 H :   -0.007205
  27 H :   -0.023908
  28 H :   -0.059111
  29 H :   -0.069591
  30 H :   -0.016268
  31 H :   -0.029308
  32 H :   -0.020314
  33 H :   -0.035571
  34 H :   -0.153609
  35 H :   -0.024557

  Mayer bond orders larger than 0.100000
B(  0-C ,  1-C ) :   0.9715 B(  0-C , 20-H ) :   0.9747 B(  0-C , 21-H ) :   0.9810
B(  0-C , 22-H ) :   0.9757 B(  1-C ,  2-O ) :   0.9070 B(  1-C , 23-H ) :   0.9799
B(  1-C , 24-H ) :   0.9772 B(  2-O ,  3-C ) :   1.1883 B(  3-C ,  4-O ) :   1.9575
B(  3-C ,  5-C ) :   1.0256 B(  5-C ,  6-C ) :   1.6897 B(  5-C , 12-C ) :   0.9284
B(  6-C ,  7-C ) :   0.9741 B(  6-C ,  8-N ) :   1.1282 B(  7-C , 25-H ) :   0.9539
B(  7-C , 26-H ) :   0.9674 B(  7-C , 27-H ) :   0.9858 B(  8-N ,  9-C ) :   1.1897
B(  8-N , 28-H ) :   0.9510 B(  9-C , 10-S ) :   1.6140 B(  9-C , 11-N ) :   1.3050
B( 11-N , 12-C ) :   0.9425 B( 11-N , 29-H ) :   0.9377 B( 12-C , 13-C ) :   1.0286
B( 12-C , 30-H ) :   0.9934 B( 13-C , 14-C ) :   1.3729 B( 13-C , 19-C ) :   1.3324
B( 14-C , 15-C ) :   1.3975 B( 14-C , 31-H ) :   0.9754 B( 15-C , 16-C ) :   1.3546
B( 15-C , 32-H ) :   0.9706 B( 16-C , 17-C ) :   1.3365 B( 16-C , 33-H ) :   0.9848
B( 17-C , 18-O ) :   1.0924 B( 17-C , 19-C ) :   1.3679 B( 18-O , 34-H ) :   0.9790
B( 19-C , 35-H ) :   0.9563

MP2 TOTAL ENERGY:    -1274.339860452 Eh
FINAL SINGLE POINT ENERGY     -1274.339860452390

DIPOLE MOMENT
-------------
                                X             Y             Z
Electronic contribution:      8.31853      10.97602       7.50767
Nuclear contribution   :     -8.75664     -13.03162      -8.31925
                        -----------------------------------------
Total Dipole Moment    :     -0.43810      -2.05560      -0.81158
                        -----------------------------------------
Magnitude (a.u.)       :      2.25302
Magnitude (Debye)      :      5.72671

Rotational constants in cm-1:     0.014189     0.007709     0.005652
Rotational constants in MHz :   425.374129   231.098546   169.432632

                             ****ORCA TERMINATED NORMALLY****
TOTAL RUN TIME: 0 days 1 hours 33 minutes 27 seconds 290 msec
