                         Program Version 4.2.0 -  RELEASE  -
|  1> ! ri-mp2 cc-pvtz cc-pvtz/c TightSCF NoKeepInts
|  2>
|  3> %scf
|  4>   MaxCore 4096
|  5> end
|  6> *xyz  0  1
|  7>     C       14.0391006   15.5165534   13.9974243
|  8>     C       15.2036841   16.3785162   13.4698139
|  9>     O       15.7900250   17.1022472   14.5681397
| 10>     C       16.6106576   16.4628311   15.4534831
| 11>     O       16.9438966   15.2967072   15.3216841
| 12>     C       17.0831800   17.3084586   16.5981763
| 13>     C       16.7193690   18.5907926   16.8628493
| 14>     C       15.7002184   19.4518681   16.1491883
| 15>     N       17.5949884   19.3446707   17.6665346
| 16>     C       18.9055086   18.9577927   17.8867653
| 17>     S       20.0566978   20.0018801   18.4551245
| 18>     N       19.1859172   17.6284551   17.6302690
| 19>     C       18.0763693   16.6611486   17.5677888
| 20>     C       17.4373940   16.4772044   18.9580030
| 21>     C       18.0977091   16.8190254   20.1603420
| 22>     C       17.4784365   16.6214666   21.4058152
| 23>     C       16.1915593   16.0634427   21.4645848
| 24>     C       15.5378037   15.7006854   20.2810027
| 25>     O       14.2979883   15.1514224   20.3317785
| 26>     C       16.1555021   15.8989909   19.0423071
| 27>     H       14.4007129   14.7383676   14.6812305
| 28>     H       13.5244832   15.0201537   13.1658454
| 29>     H       13.3082522   16.1359817   14.5316809
| 30>     H       15.9530072   15.7496088   12.9694408
| 31>     H       14.8130041   17.0928867   12.7338885
| 32>     H       14.7405119   18.9275737   16.0633906
| 33>     H       16.0426556   19.7029339   15.1374905
| 34>     H       15.5060306   20.3904908   16.6817495
| 35>     H       17.3860428   20.3085553   17.8702011
| 36>     H       20.1362375   17.3250066   17.7950577
| 37>     H       18.3770476   15.6567510   17.2357720
| 38>     H       19.0962609   17.2469980   20.1435832
| 39>     H       17.9992561   16.9012424   22.3200552
| 40>     H       15.7112756   15.9098909   22.4252206
| 41>     H       14.0569290   15.0690251   21.2668291
| 42>     H       15.6292850   15.5903743   18.1454895
| 43> *
| 44>
| 45>                          ****END OF INPUT****

CARTESIAN COORDINATES (ANGSTROEM)
---------------------------------
  C     14.039101   15.516553   13.997424
  C     15.203684   16.378516   13.469814
  O     15.790025   17.102247   14.568140
  C     16.610658   16.462831   15.453483
  O     16.943897   15.296707   15.321684
  C     17.083180   17.308459   16.598176
  C     16.719369   18.590793   16.862849
  C     15.700218   19.451868   16.149188
  N     17.594988   19.344671   17.666535
  C     18.905509   18.957793   17.886765
  S     20.056698   20.001880   18.455125
  N     19.185917   17.628455   17.630269
  C     18.076369   16.661149   17.567789
  C     17.437394   16.477204   18.958003
  C     18.097709   16.819025   20.160342
  C     17.478437   16.621467   21.405815
  C     16.191559   16.063443   21.464585
  C     15.537804   15.700685   20.281003
  O     14.297988   15.151422   20.331778
  C     16.155502   15.898991   19.042307
  H     14.400713   14.738368   14.681230
  H     13.524483   15.020154   13.165845
  H     13.308252   16.135982   14.531681
  H     15.953007   15.749609   12.969441
  H     14.813004   17.092887   12.733889
  H     14.740512   18.927574   16.063391
  H     16.042656   19.702934   15.137491
  H     15.506031   20.390491   16.681749
  H     17.386043   20.308555   17.870201
  H     20.136238   17.325007   17.795058
  H     18.377048   15.656751   17.235772
  H     19.096261   17.246998   20.143583
  H     17.999256   16.901242   22.320055
  H     15.711276   15.909891   22.425221
  H     14.056929   15.069025   21.266829
  H     15.629285   15.590374   18.145490

 Total Charge           Charge          ....    0
 Multiplicity           Mult            ....    1
 Number of Electrons    NEL             ....  154
 Basis Dimension        Dim             ....  828

ORBITAL ENERGIES
----------------

  NO   OCC          E(Eh)            E(eV)
   0   2.0000     -91.891625     -2500.4982
   1   2.0000     -20.604717      -560.6828
   2   2.0000     -20.592911      -560.3616
   3   2.0000     -20.545096      -559.0605
   4   2.0000     -15.631486      -425.3544
   5   2.0000     -15.606154      -424.6650
   6   2.0000     -11.395911      -310.0985
   7   2.0000     -11.385585      -309.8175
   8   2.0000     -11.334798      -308.4355
   9   2.0000     -11.307854      -307.7023
  10   2.0000     -11.304456      -307.6099
  11   2.0000     -11.300700      -307.5077
  12   2.0000     -11.257973      -306.3450
  13   2.0000     -11.257466      -306.3312
  14   2.0000     -11.255272      -306.2715
  15   2.0000     -11.248438      -306.0856
  16   2.0000     -11.235941      -305.7455
  17   2.0000     -11.231729      -305.6309
  18   2.0000     -11.230840      -305.6067
  19   2.0000     -11.227175      -305.5070
  20   2.0000      -8.896511      -242.0864
  21   2.0000      -6.578061      -178.9981
  22   2.0000      -6.576100      -178.9448
  23   2.0000      -6.575491      -178.9282
  24   2.0000      -1.453949       -39.5640
  25   2.0000      -1.412520       -38.4366
  26   2.0000      -1.357793       -36.9474
  27   2.0000      -1.338503       -36.4225
  28   2.0000      -1.234282       -33.5865
  29   2.0000      -1.150495       -31.3066
  30   2.0000      -1.117768       -30.4160
  31   2.0000      -1.041411       -28.3382
  32   2.0000      -1.033804       -28.1312
  33   2.0000      -1.007320       -27.4106
  34   2.0000      -0.997336       -27.1389
  35   2.0000      -0.981277       -26.7019
  36   2.0000      -0.919226       -25.0134
  37   2.0000      -0.894983       -24.3537
  38   2.0000      -0.843284       -22.9469
  39   2.0000      -0.842980       -22.9387
  40   2.0000      -0.825468       -22.4621
  41   2.0000      -0.814771       -22.1710
  42   2.0000      -0.755334       -20.5537
  43   2.0000      -0.726203       -19.7610
  44   2.0000      -0.722466       -19.6593
  45   2.0000      -0.691376       -18.8133
  46   2.0000      -0.688849       -18.7445
  47   2.0000      -0.680500       -18.5173
  48   2.0000      -0.672362       -18.2959
  49   2.0000      -0.656389       -17.8613
  50   2.0000      -0.647223       -17.6118
  51   2.0000      -0.644253       -17.5310
  52   2.0000      -0.635006       -17.2794
  53   2.0000      -0.611823       -16.6485
  54   2.0000      -0.607230       -16.5236
  55   2.0000      -0.596143       -16.2219
  56   2.0000      -0.593142       -16.1402
  57   2.0000      -0.582419       -15.8484
  58   2.0000      -0.568616       -15.4728
  59   2.0000      -0.566015       -15.4020
  60   2.0000      -0.555043       -15.1035
  61   2.0000      -0.544984       -14.8298
  62   2.0000      -0.538452       -14.6520
  63   2.0000      -0.531107       -14.4522
  64   2.0000      -0.516873       -14.0648
  65   2.0000      -0.507817       -13.8184
  66   2.0000      -0.499799       -13.6002
  67   2.0000      -0.497825       -13.5465
  68   2.0000      -0.476357       -12.9623
  69   2.0000      -0.462977       -12.5982
  70   2.0000      -0.454861       -12.3774
  71   2.0000      -0.443759       -12.0753
  72   2.0000      -0.370390       -10.0788
  73   2.0000      -0.336847        -9.1661
  74   2.0000      -0.330712        -8.9991
  75   2.0000      -0.316508        -8.6126
  76   2.0000      -0.313940        -8.5428
  77   0.0000       0.075283         2.0485
  78   0.0000       0.113708         3.0941
  79   0.0000       0.121324         3.3014
  80   0.0000       0.133435         3.6310
  81   0.0000       0.136252         3.7076

MULLIKEN ATOMIC CHARGES
-----------------------
   0 C :   -0.298507
   1 C :    0.031863
   2 O :   -0.346195
   3 C :    0.525759
   4 O :   -0.444256
   5 C :   -0.219113
   6 C :    0.117443
   7 C :   -0.274764
   8 N :   -0.127853
   9 C :    0.197756
  10 S :   -0.428905
  11 N :   -0.232567
  12 C :    0.101299
  13 C :    0.009180
  14 C :   -0.198707
  15 C :   -0.135337
  16 C :   -0.282062
  17 C :    0.318160
  18 O :   -0.360415
  19 C :   -0.256092
  20 H :    0.119663
  21 H :    0.098342
  22 H :    0.092360
  23 H :    0.108402
  24 H :    0.108643
  25 H :    0.122816
  26 H :    0.133436
  27 H :    0.098648
  28 H :    0.196034
  29 H :    0.194670
  30 H :    0.170878
  31 H :    0.164480
  32 H :    0.161867
  33 H :    0.127568
  34 H :    0.240875
  35 H :    0.164630
Sum of atomic charges:   -0.0000000

LOEWDIN ATOMIC CHARGES
----------------------
   0 C :    0.104907
   1 C :   -0.017154
   2 O :    0.306061
   3 C :   -0.424332
   4 O :    0.094635
   5 C :   -0.094797
   6 C :   -0.053961
   7 C :    0.122082
   8 N :    0.412924
   9 C :   -0.438667
  10 S :   -0.034635
  11 N :    0.392701
  12 C :   -0.032817
  13 C :   -0.030476
  14 C :    0.009091
  15 C :    0.041993
  16 C :   -0.005565
  17 C :   -0.193151
  18 O :    0.392269
  19 C :    0.023933
  20 H :   -0.024454
  21 H :   -0.025936
  22 H :   -0.030566
  23 H :   -0.026816
  24 H :   -0.025693
  25 H :   -0.011823
  26 H :   -0.006632
  27 H :   -0.020675
  28 H :   -0.061208
  29 H :   -0.075269
  30 H :    0.000979
  31 H :   -0.031827
  32 H :   -0.019303
  33 H :   -0.036623
  34 H :   -0.154413
  35 H :   -0.024779

  Mayer bond orders larger than 0.100000
B(  0-C ,  1-C ) :   0.9612 B(  0-C , 20-H ) :   0.9740 B(  0-C , 21-H ) :   0.9761
B(  0-C , 22-H ) :   0.9773 B(  1-C ,  2-O ) :   0.8945 B(  1-C , 23-H ) :   0.9780
B(  1-C , 24-H ) :   0.9848 B(  2-O ,  3-C ) :   1.1587 B(  3-C ,  4-O ) :   1.9418
B(  3-C ,  5-C ) :   1.0448 B(  5-C ,  6-C ) :   1.6558 B(  5-C , 12-C ) :   0.9430
B(  6-C ,  7-C ) :   0.9653 B(  6-C ,  8-N ) :   1.1302 B(  7-C , 25-H ) :   0.9731
B(  7-C , 26-H ) :   0.9564 B(  7-C , 27-H ) :   0.9853 B(  8-N ,  9-C ) :   1.1852
B(  8-N , 28-H ) :   0.9528 B(  9-C , 10-S ) :   1.6216 B(  9-C , 11-N ) :   1.2741
B( 11-N , 12-C ) :   0.9389 B( 11-N , 29-H ) :   0.9535 B( 12-C , 13-C ) :   1.0114
B( 12-C , 30-H ) :   0.9655 B( 13-C , 14-C ) :   1.3490 B( 13-C , 19-C ) :   1.4053
B( 14-C , 15-C ) :   1.3998 B( 14-C , 31-H ) :   0.9598 B( 15-C , 16-C ) :   1.3645
B( 15-C , 32-H ) :   0.9706 B( 16-C , 17-C ) :   1.3271 B( 16-C , 33-H ) :   0.9868
B( 17-C , 18-O ) :   1.1004 B( 17-C , 19-C ) :   1.3581 B( 18-O , 34-H ) :   0.9801
B( 19-C , 35-H ) :   0.9537

MP2 TOTAL ENERGY:    -1274.342090962 Eh
FINAL SINGLE POINT ENERGY     -1274.342090962207

DIPOLE MOMENT
-------------
                                X             Y             Z
Electronic contribution:     12.75502       3.85338       8.51168
Nuclear contribution   :    -14.54537      -3.90835      -8.68497
                        -----------------------------------------
Total Dipole Moment    :     -1.79035      -0.05497      -0.17329
                        -----------------------------------------
Magnitude (a.u.)       :      1.79956
Magnitude (Debye)      :      4.57411

Rotational constants in cm-1:     0.011463     0.008642     0.005738
Rotational constants in MHz :   343.638610   259.077836   172.006089

                             ****ORCA TERMINATED NORMALLY****
TOTAL RUN TIME: 0 days 1 hours 32 minutes 11 seconds 192 msec
