                         Program Version 4.2.0 -  RELEASE  -
|  1> ! ri-mp2 cc-pvtz cc-pvtz/c TightSCF NoKeepInts
|  2>
|  3> %scf
|  4>   MaxCore 4096
|  5> end
|  6> *xyz  0  1
|  7>     C       13.7011966   16.1169306   16.1367542
|  8>     C       14.5248771   17.0683186   15.2467468
|  9>     O       15.7801178   16.4401382   14.9230306
| 10>     C       16.7064998   16.2812923   15.9126408
| 11>     O       17.0027114   15.1742427   16.3189291
| 12>     C       17.2902022   17.5620707   16.4397638
| 13>     C       17.4691729   18.6742327   15.6813390
| 14>     C       17.2850993   18.8224999   14.1867171
| 15>     N       17.6585781   19.9058739   16.3316811
| 16>     C       17.3310316   20.1039567   17.6585621
| 17>     S       17.1397992   21.6147433   18.3023873
| 18>     N       17.1500232   18.9579185   18.4023080
| 19>     C       17.6919995   17.6829949   17.9156485
| 20>     C       17.4207885   16.4974997   18.8350009
| 21>     C       18.4591124   15.6201301   19.1986114
| 22>     C       18.2079058   14.5309433   20.0501602
| 23>     C       16.9089179   14.3176165   20.5424260
| 24>     C       15.8738247   15.1910522   20.1823214
| 25>     O       14.6174353   14.9878055   20.6532280
| 26>     C       16.1274576   16.2796276   19.3425605
| 27>     H       13.5603724   15.1495136   15.6381830
| 28>     H       12.7117082   16.5423994   16.3433077
| 29>     H       14.1993768   15.9351877   17.0967470
| 30>     H       13.9683259   17.2627008   14.3208135
| 31>     H       14.6782274   18.0266889   15.7603215
| 32>     H       17.5344085   17.8912743   13.6617191
| 33>     H       17.9384905   19.6012481   13.7746295
| 34>     H       16.2496574   19.0835947   13.9377969
| 35>     H       17.7809003   20.7457666   15.7874156
| 36>     H       16.9088618   19.0766110   19.3786534
| 37>     H       18.7788725   17.8503035   17.9178092
| 38>     H       19.4605063   15.7722810   18.8059048
| 39>     H       19.0150036   13.8507351   20.3154354
| 40>     H       16.7096971   13.4731523   21.1934471
| 41>     H       14.6343383   14.1674610   21.1690168
| 42>     H       15.3115057   16.9411901   19.0759901
| 43> *
| 44>
| 45>                          ****END OF INPUT****

CARTESIAN COORDINATES (ANGSTROEM)
---------------------------------
  C     13.701197   16.116931   16.136754
  C     14.524877   17.068319   15.246747
  O     15.780118   16.440138   14.923031
  C     16.706500   16.281292   15.912641
  O     17.002711   15.174243   16.318929
  C     17.290202   17.562071   16.439764
  C     17.469173   18.674233   15.681339
  C     17.285099   18.822500   14.186717
  N     17.658578   19.905874   16.331681
  C     17.331032   20.103957   17.658562
  S     17.139799   21.614743   18.302387
  N     17.150023   18.957918   18.402308
  C     17.692000   17.682995   17.915648
  C     17.420789   16.497500   18.835001
  C     18.459112   15.620130   19.198611
  C     18.207906   14.530943   20.050160
  C     16.908918   14.317616   20.542426
  C     15.873825   15.191052   20.182321
  O     14.617435   14.987805   20.653228
  C     16.127458   16.279628   19.342560
  H     13.560372   15.149514   15.638183
  H     12.711708   16.542399   16.343308
  H     14.199377   15.935188   17.096747
  H     13.968326   17.262701   14.320813
  H     14.678227   18.026689   15.760321
  H     17.534409   17.891274   13.661719
  H     17.938491   19.601248   13.774629
  H     16.249657   19.083595   13.937797
  H     17.780900   20.745767   15.787416
  H     16.908862   19.076611   19.378653
  H     18.778872   17.850303   17.917809
  H     19.460506   15.772281   18.805905
  H     19.015004   13.850735   20.315435
  H     16.709697   13.473152   21.193447
  H     14.634338   14.167461   21.169017
  H     15.311506   16.941190   19.075990

 Total Charge           Charge          ....    0
 Multiplicity           Mult            ....    1
 Number of Electrons    NEL             ....  154
 Basis Dimension        Dim             ....  828

ORBITAL ENERGIES
----------------

  NO   OCC          E(Eh)            E(eV)
   0   2.0000     -91.893487     -2500.5489
   1   2.0000     -20.596203      -560.4512
   2   2.0000     -20.588871      -560.2517
   3   2.0000     -20.547670      -559.1305
   4   2.0000     -15.633659      -425.4135
   5   2.0000     -15.608151      -424.7194
   6   2.0000     -11.390242      -309.9442
   7   2.0000     -11.387533      -309.8705
   8   2.0000     -11.333909      -308.4113
   9   2.0000     -11.312270      -307.8225
  10   2.0000     -11.308685      -307.7250
  11   2.0000     -11.305889      -307.6489
  12   2.0000     -11.265224      -306.5423
  13   2.0000     -11.262630      -306.4718
  14   2.0000     -11.258928      -306.3710
  15   2.0000     -11.252503      -306.1962
  16   2.0000     -11.240999      -305.8831
  17   2.0000     -11.238137      -305.8052
  18   2.0000     -11.236835      -305.7698
  19   2.0000     -11.227231      -305.5085
  20   2.0000      -8.898453      -242.1392
  21   2.0000      -6.580004      -179.0510
  22   2.0000      -6.578034      -178.9974
  23   2.0000      -6.577413      -178.9805
  24   2.0000      -1.447232       -39.3812
  25   2.0000      -1.415749       -38.5245
  26   2.0000      -1.356083       -36.9009
  27   2.0000      -1.342139       -36.5214
  28   2.0000      -1.238844       -33.7107
  29   2.0000      -1.155565       -31.4445
  30   2.0000      -1.120652       -30.4945
  31   2.0000      -1.044139       -28.4125
  32   2.0000      -1.033038       -28.1104
  33   2.0000      -1.014913       -27.6172
  34   2.0000      -1.002287       -27.2736
  35   2.0000      -0.986461       -26.8430
  36   2.0000      -0.920911       -25.0593
  37   2.0000      -0.889073       -24.1929
  38   2.0000      -0.850465       -23.1423
  39   2.0000      -0.843559       -22.9544
  40   2.0000      -0.833704       -22.6862
  41   2.0000      -0.828804       -22.5529
  42   2.0000      -0.745807       -20.2944
  43   2.0000      -0.729701       -19.8562
  44   2.0000      -0.725365       -19.7382
  45   2.0000      -0.697516       -18.9804
  46   2.0000      -0.688911       -18.7462
  47   2.0000      -0.680373       -18.5139
  48   2.0000      -0.669229       -18.2107
  49   2.0000      -0.665541       -18.1103
  50   2.0000      -0.655894       -17.8478
  51   2.0000      -0.652159       -17.7461
  52   2.0000      -0.634375       -17.2622
  53   2.0000      -0.613383       -16.6910
  54   2.0000      -0.607270       -16.5247
  55   2.0000      -0.600411       -16.3380
  56   2.0000      -0.598398       -16.2832
  57   2.0000      -0.578317       -15.7368
  58   2.0000      -0.575933       -15.6719
  59   2.0000      -0.563173       -15.3247
  60   2.0000      -0.557624       -15.1737
  61   2.0000      -0.552672       -15.0390
  62   2.0000      -0.541549       -14.7363
  63   2.0000      -0.525765       -14.3068
  64   2.0000      -0.518788       -14.1170
  65   2.0000      -0.515861       -14.0373
  66   2.0000      -0.500224       -13.6118
  67   2.0000      -0.494483       -13.4556
  68   2.0000      -0.483517       -13.1572
  69   2.0000      -0.464782       -12.6473
  70   2.0000      -0.455909       -12.4059
  71   2.0000      -0.439975       -11.9723
  72   2.0000      -0.363356        -9.8874
  73   2.0000      -0.344626        -9.3777
  74   2.0000      -0.332735        -9.0542
  75   2.0000      -0.319725        -8.7002
  76   2.0000      -0.317749        -8.6464
  77   0.0000       0.071800         1.9538
  78   0.0000       0.110133         2.9969
  79   0.0000       0.118616         3.2277
  80   0.0000       0.129220         3.5163
  81   0.0000       0.133750         3.6395

MULLIKEN ATOMIC CHARGES
-----------------------
   0 C :   -0.274306
   1 C :    0.000213
   2 O :   -0.349570
   3 C :    0.445574
   4 O :   -0.367422
   5 C :   -0.179419
   6 C :    0.113557
   7 C :   -0.288435
   8 N :   -0.145611
   9 C :    0.205150
  10 S :   -0.431940
  11 N :   -0.209551
  12 C :    0.032236
  13 C :    0.041573
  14 C :   -0.185209
  15 C :   -0.120662
  16 C :   -0.272040
  17 C :    0.324187
  18 O :   -0.363873
  19 C :   -0.260148
  20 H :    0.109930
  21 H :    0.096063
  22 H :    0.104985
  23 H :    0.116987
  24 H :    0.097079
  25 H :    0.135021
  26 H :    0.114151
  27 H :    0.122373
  28 H :    0.197706
  29 H :    0.206322
  30 H :    0.136431
  31 H :    0.140878
  32 H :    0.158620
  33 H :    0.128655
  34 H :    0.242724
  35 H :    0.177772
Sum of atomic charges:    0.0000000

LOEWDIN ATOMIC CHARGES
----------------------
   0 C :    0.110188
   1 C :   -0.029669
   2 O :    0.297648
   3 C :   -0.431114
   4 O :    0.140346
   5 C :   -0.091482
   6 C :   -0.077570
   7 C :    0.122958
   8 N :    0.405068
   9 C :   -0.446922
  10 S :   -0.032422
  11 N :    0.387331
  12 C :   -0.057013
  13 C :   -0.028457
  14 C :    0.029206
  15 C :    0.049644
  16 C :    0.003970
  17 C :   -0.188593
  18 O :    0.393191
  19 C :    0.023690
  20 H :   -0.020643
  21 H :   -0.026198
  22 H :   -0.027466
  23 H :   -0.023338
  24 H :   -0.038774
  25 H :   -0.006449
  26 H :   -0.017395
  27 H :   -0.012729
  28 H :   -0.059206
  29 H :   -0.068528
  30 H :   -0.013979
  31 H :   -0.028037
  32 H :   -0.019637
  33 H :   -0.034945
  34 H :   -0.152853
  35 H :   -0.029822

  Mayer bond orders larger than 0.100000
B(  0-C ,  1-C ) :   0.9808 B(  0-C , 20-H ) :   0.9771 B(  0-C , 21-H ) :   0.9759
B(  0-C , 22-H ) :   0.9706 B(  1-C ,  2-O ) :   0.9039 B(  1-C , 23-H ) :   0.9784
B(  1-C , 24-H ) :   0.9659 B(  2-O ,  3-C ) :   1.1107 B(  3-C ,  4-O ) :   2.0911
B(  3-C ,  5-C ) :   0.9483 B(  5-C ,  6-C ) :   1.6949 B(  5-C , 12-C ) :   0.9280
B(  6-C ,  7-C ) :   0.9637 B(  6-C ,  8-N ) :   1.1170 B(  7-C , 25-H ) :   0.9742
B(  7-C , 26-H ) :   0.9765 B(  7-C , 27-H ) :   0.9612 B(  8-N ,  9-C ) :   1.1900
B(  8-N , 28-H ) :   0.9514 B(  9-C , 10-S ) :   1.6193 B(  9-C , 11-N ) :   1.3028
B( 11-N , 12-C ) :   0.9437 B( 11-N , 29-H ) :   0.9364 B( 12-C , 13-C ) :   1.0085
B( 12-C , 30-H ) :   0.9944 B( 13-C , 14-C ) :   1.3798 B( 13-C , 19-C ) :   1.3331
B( 14-C , 15-C ) :   1.4029 B( 14-C , 31-H ) :   0.9764 B( 15-C , 16-C ) :   1.3596
B( 15-C , 32-H ) :   0.9716 B( 16-C , 17-C ) :   1.3420 B( 16-C , 33-H ) :   0.9848
B( 17-C , 18-O ) :   1.0967 B( 17-C , 19-C ) :   1.3677 B( 18-O , 34-H ) :   0.9800
B( 19-C , 35-H ) :   0.9528

MP2 TOTAL ENERGY:    -1274.324611635 Eh
FINAL SINGLE POINT ENERGY     -1274.324611634819

DIPOLE MOMENT
-------------
                                X             Y             Z
Electronic contribution:      7.06614       5.42293       6.61561
Nuclear contribution   :     -7.18118      -6.21671      -7.26735
                        -----------------------------------------
Total Dipole Moment    :     -0.11504      -0.79378      -0.65174
                        -----------------------------------------
Magnitude (a.u.)       :      1.03349
Magnitude (Debye)      :      2.62691

Rotational constants in cm-1:     0.012901     0.008065     0.006348
Rotational constants in MHz :   386.750141   241.782796   190.309347

                             ****ORCA TERMINATED NORMALLY****
TOTAL RUN TIME: 0 days 1 hours 36 minutes 43 seconds 523 msec
