                         Program Version 4.2.0 -  RELEASE  -
|  1> ! ri-mp2 cc-pvtz cc-pvtz/c TightSCF NoKeepInts
|  2>
|  3> %scf
|  4>   MaxCore 4096
|  5> end
|  6> *xyz  0  1
|  7>     C       14.2958388   14.2798462   16.8194134
|  8>     C       14.4015560   15.5319494   15.9338473
|  9>     O       15.5502830   16.2780740   16.3665333
| 10>     C       15.8485322   17.4530674   15.7451312
| 11>     O       15.1850129   17.8529406   14.8026470
| 12>     C       17.0583216   18.1752129   16.2897322
| 13>     C       17.5888829   19.2516302   15.6475388
| 14>     C       17.1822345   19.8292694   14.3088050
| 15>     N       18.4615965   20.1028417   16.3489410
| 16>     C       18.5236634   20.1351730   17.7264324
| 17>     S       19.2222167   21.3857574   18.5533410
| 18>     N       17.9669008   19.0510253   18.3655871
| 19>     C       17.7482452   17.8046314   17.6222797
| 20>     C       17.2099889   16.6743696   18.4947216
| 21>     C       17.8334376   15.4122140   18.4936086
| 22>     C       17.3444788   14.3732046   19.3033356
| 23>     C       16.2255122   14.5982036   20.1231087
| 24>     C       15.6049488   15.8550441   20.1291023
| 25>     O       14.5187047   16.0719203   20.9129165
| 26>     C       16.0953672   16.8891400   19.3257278
| 27>     H       13.4430039   13.6629432   16.5118373
| 28>     H       14.1542466   14.5633260   17.8691065
| 29>     H       15.2073082   13.6744807   16.7438396
| 30>     H       14.5109692   15.2392545   14.8808761
| 31>     H       13.4921760   16.1396099   16.0363409
| 32>     H       17.1033444   19.0402407   13.5502367
| 33>     H       17.8969647   20.5702309   13.9323473
| 34>     H       16.1993570   20.3128869   14.3815431
| 35>     H       18.8537740   20.9055930   15.8824187
| 36>     H       17.9963904   19.0512513   19.3774866
| 37>     H       18.7670413   17.5045733   17.3376202
| 38>     H       18.6963987   15.2337654   17.8579713
| 39>     H       17.8307107   13.3996585   19.2919976
| 40>     H       15.8428743   13.7979444   20.7478935
| 41>     H       14.3327607   15.2477113   21.3871505
| 42>     H       15.5939542   17.8510114   19.3365794
| 43> *
| 44>
| 45>                          ****END OF INPUT****

CARTESIAN COORDINATES (ANGSTROEM)
---------------------------------
  C     14.295839   14.279846   16.819413
  C     14.401556   15.531949   15.933847
  O     15.550283   16.278074   16.366533
  C     15.848532   17.453067   15.745131
  O     15.185013   17.852941   14.802647
  C     17.058322   18.175213   16.289732
  C     17.588883   19.251630   15.647539
  C     17.182234   19.829269   14.308805
  N     18.461596   20.102842   16.348941
  C     18.523663   20.135173   17.726432
  S     19.222217   21.385757   18.553341
  N     17.966901   19.051025   18.365587
  C     17.748245   17.804631   17.622280
  C     17.209989   16.674370   18.494722
  C     17.833438   15.412214   18.493609
  C     17.344479   14.373205   19.303336
  C     16.225512   14.598204   20.123109
  C     15.604949   15.855044   20.129102
  O     14.518705   16.071920   20.912916
  C     16.095367   16.889140   19.325728
  H     13.443004   13.662943   16.511837
  H     14.154247   14.563326   17.869107
  H     15.207308   13.674481   16.743840
  H     14.510969   15.239254   14.880876
  H     13.492176   16.139610   16.036341
  H     17.103344   19.040241   13.550237
  H     17.896965   20.570231   13.932347
  H     16.199357   20.312887   14.381543
  H     18.853774   20.905593   15.882419
  H     17.996390   19.051251   19.377487
  H     18.767041   17.504573   17.337620
  H     18.696399   15.233765   17.857971
  H     17.830711   13.399658   19.291998
  H     15.842874   13.797944   20.747893
  H     14.332761   15.247711   21.387150
  H     15.593954   17.851011   19.336579

 Total Charge           Charge          ....    0
 Multiplicity           Mult            ....    1
 Number of Electrons    NEL             ....  154
 Basis Dimension        Dim             ....  828

ORBITAL ENERGIES
----------------

  NO   OCC          E(Eh)            E(eV)
   0   2.0000     -91.890527     -2500.4684
   1   2.0000     -20.600171      -560.5592
   2   2.0000     -20.597164      -560.4773
   3   2.0000     -20.537609      -558.8568
   4   2.0000     -15.631386      -425.3516
   5   2.0000     -15.604635      -424.6237
   6   2.0000     -11.391995      -309.9919
   7   2.0000     -11.383939      -309.7727
   8   2.0000     -11.334002      -308.4139
   9   2.0000     -11.316279      -307.9316
  10   2.0000     -11.308770      -307.7273
  11   2.0000     -11.292118      -307.2741
  12   2.0000     -11.269311      -306.6535
  13   2.0000     -11.259448      -306.3852
  14   2.0000     -11.257970      -306.3449
  15   2.0000     -11.250386      -306.1386
  16   2.0000     -11.245849      -306.0151
  17   2.0000     -11.241782      -305.9044
  18   2.0000     -11.240585      -305.8719
  19   2.0000     -11.225479      -305.4608
  20   2.0000      -8.895458      -242.0577
  21   2.0000      -6.577007      -178.9695
  22   2.0000      -6.575040      -178.9159
  23   2.0000      -6.574420      -178.8991
  24   2.0000      -1.450507       -39.4703
  25   2.0000      -1.419751       -38.6334
  26   2.0000      -1.350353       -36.7450
  27   2.0000      -1.339700       -36.4551
  28   2.0000      -1.236518       -33.6474
  29   2.0000      -1.158647       -31.5284
  30   2.0000      -1.117504       -30.4088
  31   2.0000      -1.043656       -28.3993
  32   2.0000      -1.036568       -28.2064
  33   2.0000      -1.017979       -27.7006
  34   2.0000      -0.996029       -27.1033
  35   2.0000      -0.982222       -26.7276
  36   2.0000      -0.918865       -25.0036
  37   2.0000      -0.886790       -24.1308
  38   2.0000      -0.847121       -23.0513
  39   2.0000      -0.838925       -22.8283
  40   2.0000      -0.832275       -22.6473
  41   2.0000      -0.816944       -22.2302
  42   2.0000      -0.764074       -20.7915
  43   2.0000      -0.733426       -19.9575
  44   2.0000      -0.711104       -19.3501
  45   2.0000      -0.697550       -18.9813
  46   2.0000      -0.689075       -18.7507
  47   2.0000      -0.678986       -18.4762
  48   2.0000      -0.673785       -18.3346
  49   2.0000      -0.663212       -18.0469
  50   2.0000      -0.656907       -17.8753
  51   2.0000      -0.647968       -17.6321
  52   2.0000      -0.631579       -17.1861
  53   2.0000      -0.608760       -16.5652
  54   2.0000      -0.603975       -16.4350
  55   2.0000      -0.595386       -16.2013
  56   2.0000      -0.581089       -15.8122
  57   2.0000      -0.576626       -15.6908
  58   2.0000      -0.571908       -15.5624
  59   2.0000      -0.570303       -15.5187
  60   2.0000      -0.560972       -15.2648
  61   2.0000      -0.549214       -14.9449
  62   2.0000      -0.541229       -14.7276
  63   2.0000      -0.522044       -14.2055
  64   2.0000      -0.515999       -14.0410
  65   2.0000      -0.511103       -13.9078
  66   2.0000      -0.508837       -13.8462
  67   2.0000      -0.501305       -13.6412
  68   2.0000      -0.478372       -13.0172
  69   2.0000      -0.460464       -12.5299
  70   2.0000      -0.455852       -12.4044
  71   2.0000      -0.438251       -11.9254
  72   2.0000      -0.359870        -9.7926
  73   2.0000      -0.347613        -9.4590
  74   2.0000      -0.330085        -8.9821
  75   2.0000      -0.323646        -8.8069
  76   2.0000      -0.317152        -8.6301
  77   0.0000       0.077006         2.0954
  78   0.0000       0.105588         2.8732
  79   0.0000       0.121301         3.3008
  80   0.0000       0.127235         3.4623
  81   0.0000       0.131657         3.5826

MULLIKEN ATOMIC CHARGES
-----------------------
   0 C :   -0.278592
   1 C :    0.042431
   2 O :   -0.327168
   3 C :    0.455775
   4 O :   -0.436292
   5 C :   -0.150071
   6 C :    0.121111
   7 C :   -0.267777
   8 N :   -0.147420
   9 C :    0.213475
  10 S :   -0.433395
  11 N :   -0.203903
  12 C :    0.015007
  13 C :    0.062372
  14 C :   -0.209924
  15 C :   -0.134890
  16 C :   -0.275027
  17 C :    0.295079
  18 O :   -0.363659
  19 C :   -0.213699
  20 H :    0.103413
  21 H :    0.102156
  22 H :    0.095407
  23 H :    0.096198
  24 H :    0.092922
  25 H :    0.126871
  26 H :    0.092310
  27 H :    0.137526
  28 H :    0.197813
  29 H :    0.203961
  30 H :    0.129241
  31 H :    0.147343
  32 H :    0.163931
  33 H :    0.133057
  34 H :    0.241816
  35 H :    0.172602
Sum of atomic charges:   -0.0000000

LOEWDIN ATOMIC CHARGES
----------------------
   0 C :    0.108209
   1 C :   -0.019136
   2 O :    0.317858
   3 C :   -0.423813
   4 O :    0.094434
   5 C :   -0.090472
   6 C :   -0.054325
   7 C :    0.126440
   8 N :    0.406506
   9 C :   -0.446947
  10 S :   -0.032914
  11 N :    0.387672
  12 C :   -0.058765
  13 C :   -0.030133
  14 C :    0.020039
  15 C :    0.044408
  16 C :    0.000620
  17 C :   -0.192701
  18 O :    0.395535
  19 C :    0.028818
  20 H :   -0.025746
  21 H :   -0.027751
  22 H :   -0.027768
  23 H :   -0.029278
  24 H :   -0.028724
  25 H :   -0.007256
  26 H :   -0.023930
  27 H :   -0.002610
  28 H :   -0.058930
  29 H :   -0.069487
  30 H :   -0.016290
  31 H :   -0.029259
  32 H :   -0.020393
  33 H :   -0.035540
  34 H :   -0.153851
  35 H :   -0.024519

  Mayer bond orders larger than 0.100000
B(  0-C ,  1-C ) :   0.9716 B(  0-C , 20-H ) :   0.9809 B(  0-C , 21-H ) :   0.9756
B(  0-C , 22-H ) :   0.9752 B(  1-C ,  2-O ) :   0.9065 B(  1-C , 23-H ) :   0.9799
B(  1-C , 24-H ) :   0.9771 B(  2-O ,  3-C ) :   1.1877 B(  3-C ,  4-O ) :   1.9569
B(  3-C ,  5-C ) :   1.0253 B(  5-C ,  6-C ) :   1.6901 B(  5-C , 12-C ) :   0.9284
B(  6-C ,  7-C ) :   0.9748 B(  6-C ,  8-N ) :   1.1275 B(  7-C , 25-H ) :   0.9677
B(  7-C , 26-H ) :   0.9851 B(  7-C , 27-H ) :   0.9540 B(  8-N ,  9-C ) :   1.1901
B(  8-N , 28-H ) :   0.9510 B(  9-C , 10-S ) :   1.6139 B(  9-C , 11-N ) :   1.3048
B( 11-N , 12-C ) :   0.9429 B( 11-N , 29-H ) :   0.9377 B( 12-C , 13-C ) :   1.0279
B( 12-C , 30-H ) :   0.9934 B( 13-C , 14-C ) :   1.3735 B( 13-C , 19-C ) :   1.3320
B( 14-C , 15-C ) :   1.3982 B( 14-C , 31-H ) :   0.9753 B( 15-C , 16-C ) :   1.3547
B( 15-C , 32-H ) :   0.9706 B( 16-C , 17-C ) :   1.3360 B( 16-C , 33-H ) :   0.9848
B( 17-C , 18-O ) :   1.0924 B( 17-C , 19-C ) :   1.3686 B( 18-O , 34-H ) :   0.9791
B( 19-C , 35-H ) :   0.9561

MP2 TOTAL ENERGY:    -1274.339995417 Eh
FINAL SINGLE POINT ENERGY     -1274.339995416540

DIPOLE MOMENT
-------------
                                X             Y             Z
Electronic contribution:      8.00210      12.29000       5.71112
Nuclear contribution   :     -8.41427     -14.47223      -6.14109
                        -----------------------------------------
Total Dipole Moment    :     -0.41217      -2.18223      -0.42997
                        -----------------------------------------
Magnitude (a.u.)       :      2.26206
Magnitude (Debye)      :      5.74969

Rotational constants in cm-1:     0.014235     0.007693     0.005654
Rotational constants in MHz :   426.749746   230.622225   169.508355

                             ****ORCA TERMINATED NORMALLY****
TOTAL RUN TIME: 0 days 1 hours 33 minutes 25 seconds 511 msec
