                         Program Version 5.0.0 -  RELEASE  -
|  1> ! RI-MP2 cc-pVTZ cc-pVTZ/c TightSCF KeepDens NoKeepInts
|  2>
|  3> %pointcharges "srfp_output"
|  4>
|  5> *xyz  0  1
|  6>     C    -5.5980962   -1.7859321  -11.9375571
|  7>     C    -5.1368102   -1.2274933  -10.5981311
|  8>     O    -6.2906910   -0.9464258   -9.7879522
|  9>     C    -6.1145263   -0.3658910   -8.5799109
| 10>     O    -5.0271407    0.0453634   -8.2267119
| 11>     C    -7.3765953   -0.1785613   -7.7627473
| 12>     C    -7.3799850    0.2913011   -6.5060199
| 13>     C    -6.1287714    0.8429082   -5.6966159
| 14>     N    -8.6168984    0.2632033   -5.7525475
| 15>     C    -9.8029507   -0.2973183   -6.1858924
| 16>     S   -11.1344519   -0.4506110   -5.2499152
| 17>     N    -9.8001080   -0.5566082   -7.5369441
| 18>     C    -8.6964040   -0.3679948   -8.5125648
| 19>     C    -9.0953071    0.8850563   -9.3170554
| 20>     C    -9.2056975    0.8411816  -10.7416803
| 21>     C    -9.6488512    1.9680383  -11.4964829
| 22>     C   -10.0102291    3.1042845  -10.8124394
| 23>     C    -9.8543371    3.1851721   -9.4106811
| 24>     O   -10.1401495    4.3156235   -8.7371812
| 25>     C    -9.3501316    2.0819505   -8.6680797
| 26>     H    -6.2564646   -1.0706482  -12.4456016
| 27>     H    -6.3074753   -2.6104540  -11.7956609
| 28>     H    -4.8266469   -2.1844268  -12.6078205
| 29>     H    -4.5231372   -1.9598409  -10.0593713
| 30>     H    -4.5090948   -0.3370617  -10.7257883
| 31>     H    -5.7364799    1.6877947   -6.2758073
| 32>     H    -5.4385381   -0.0021104   -5.5838730
| 33>     H    -6.4546729    1.1211718   -4.6868896
| 34>     H    -8.5964478    0.6244972   -4.8064952
| 35>     H   -10.6717186   -0.9154928   -7.9077045
| 36>     H    -8.6822313   -1.2123924   -9.2125516
| 37>     H    -8.8989902   -0.0605802  -11.2633625
| 38>     H    -9.6229448    1.9870152  -12.5820080
| 39>     H   -10.3544156    3.9875098  -11.3423871
| 40>     H   -10.3615503    4.0822423   -7.8188980
| 41>     H    -9.1141019    2.2348332   -7.6191218
| 42> *
| 43>
| 44>                          ****END OF INPUT****

CARTESIAN COORDINATES (ANGSTROEM)
---------------------------------
  C     -5.598096   -1.785932  -11.937557
  C     -5.136810   -1.227493  -10.598131
  O     -6.290691   -0.946426   -9.787952
  C     -6.114526   -0.365891   -8.579911
  O     -5.027141    0.045363   -8.226712
  C     -7.376595   -0.178561   -7.762747
  C     -7.379985    0.291301   -6.506020
  C     -6.128771    0.842908   -5.696616
  N     -8.616898    0.263203   -5.752548
  C     -9.802951   -0.297318   -6.185892
  S    -11.134452   -0.450611   -5.249915
  N     -9.800108   -0.556608   -7.536944
  C     -8.696404   -0.367995   -8.512565
  C     -9.095307    0.885056   -9.317055
  C     -9.205697    0.841182  -10.741680
  C     -9.648851    1.968038  -11.496483
  C    -10.010229    3.104284  -10.812439
  C     -9.854337    3.185172   -9.410681
  O    -10.140149    4.315624   -8.737181
  C     -9.350132    2.081951   -8.668080
  H     -6.256465   -1.070648  -12.445602
  H     -6.307475   -2.610454  -11.795661
  H     -4.826647   -2.184427  -12.607821
  H     -4.523137   -1.959841  -10.059371
  H     -4.509095   -0.337062  -10.725788
  H     -5.736480    1.687795   -6.275807
  H     -5.438538   -0.002110   -5.583873
  H     -6.454673    1.121172   -4.686890
  H     -8.596448    0.624497   -4.806495
  H    -10.671719   -0.915493   -7.907705
  H     -8.682231   -1.212392   -9.212552
  H     -8.898990   -0.060580  -11.263362
  H     -9.622945    1.987015  -12.582008
  H    -10.354416    3.987510  -11.342387
  H    -10.361550    4.082242   -7.818898
  H     -9.114102    2.234833   -7.619122

 Total Charge           Charge          ....    0
 Multiplicity           Mult            ....    1
 Number of Electrons    NEL             ....  154
 Basis Dimension        Dim             ....  828

ORBITAL ENERGIES
----------------

  NO   OCC          E(Eh)            E(eV)
   0   2.0000     -95.431634     -2596.8268
   1   2.0000     -24.139954      -656.8815
   2   2.0000     -24.118908      -656.3088
   3   2.0000     -24.085140      -655.3900
   4   2.0000     -19.146550      -521.0041
   5   2.0000     -19.128864      -520.5229
   6   2.0000     -14.936659      -406.4472
   7   2.0000     -14.919516      -405.9807
   8   2.0000     -14.863422      -404.4543
   9   2.0000     -14.842488      -403.8846
  10   2.0000     -14.835133      -403.6845
  11   2.0000     -14.817612      -403.2077
  12   2.0000     -14.787461      -402.3873
  13   2.0000     -14.785502      -402.3340
  14   2.0000     -14.778270      -402.1372
  15   2.0000     -14.776304      -402.0837
  16   2.0000     -14.768136      -401.8614
  17   2.0000     -14.766093      -401.8058
  18   2.0000     -14.765243      -401.7827
  19   2.0000     -14.743904      -401.2020
  20   2.0000     -12.438480      -338.4682
  21   2.0000     -10.120455      -275.3916
  22   2.0000     -10.118319      -275.3335
  23   2.0000     -10.117834      -275.3203
  24   2.0000      -4.998385      -136.0130
  25   2.0000      -4.943484      -134.5190
  26   2.0000      -4.899761      -133.3293
  27   2.0000      -4.851896      -132.0268
  28   2.0000      -4.745212      -129.1238
  29   2.0000      -4.682405      -127.4147
  30   2.0000      -4.646991      -126.4511
  31   2.0000      -4.569373      -124.3390
  32   2.0000      -4.563739      -124.1857
  33   2.0000      -4.531704      -123.3139
  34   2.0000      -4.521446      -123.0348
  35   2.0000      -4.509236      -122.7025
  36   2.0000      -4.446107      -120.9847
  37   2.0000      -4.416033      -120.1664
  38   2.0000      -4.374637      -119.0399
  39   2.0000      -4.365374      -118.7879
  40   2.0000      -4.345137      -118.2372
  41   2.0000      -4.336017      -117.9890
  42   2.0000      -4.292976      -116.8178
  43   2.0000      -4.264751      -116.0498
  44   2.0000      -4.243677      -115.4763
  45   2.0000      -4.226385      -115.0058
  46   2.0000      -4.218480      -114.7907
  47   2.0000      -4.211828      -114.6097
  48   2.0000      -4.199958      -114.2867
  49   2.0000      -4.186088      -113.9093
  50   2.0000      -4.169614      -113.4610
  51   2.0000      -4.157477      -113.1307
  52   2.0000      -4.149110      -112.9030
  53   2.0000      -4.147198      -112.8510
  54   2.0000      -4.127981      -112.3281
  55   2.0000      -4.123215      -112.1984
  56   2.0000      -4.111191      -111.8712
  57   2.0000      -4.102849      -111.6442
  58   2.0000      -4.092922      -111.3741
  59   2.0000      -4.090078      -111.2967
  60   2.0000      -4.081934      -111.0751
  61   2.0000      -4.077734      -110.9608
  62   2.0000      -4.061816      -110.5276
  63   2.0000      -4.052466      -110.2732
  64   2.0000      -4.047018      -110.1250
  65   2.0000      -4.038142      -109.8834
  66   2.0000      -4.033756      -109.7641
  67   2.0000      -4.030322      -109.6706
  68   2.0000      -4.008468      -109.0760
  69   2.0000      -3.994732      -108.7022
  70   2.0000      -3.987807      -108.5138
  71   2.0000      -3.977560      -108.2349
  72   2.0000      -3.888408      -105.8090
  73   2.0000      -3.883566      -105.6772
  74   2.0000      -3.874118      -105.4201
  75   2.0000      -3.858484      -104.9947
  76   2.0000      -3.843948      -104.5991
  77   0.0000      -3.454864       -94.0116
  78   0.0000      -3.415036       -92.9278
  79   0.0000      -3.395781       -92.4039
  80   0.0000      -3.381746       -92.0220
  81   0.0000      -3.374435       -91.8230

MULLIKEN ATOMIC CHARGES
-----------------------
   0 C :   -0.288505
   1 C :    0.040681
   2 O :   -0.324130
   3 C :    0.483860
   4 O :   -0.539640
   5 C :   -0.147794
   6 C :    0.079770
   7 C :   -0.220802
   8 N :   -0.182572
   9 C :    0.304043
  10 S :   -0.599142
  11 N :   -0.227343
  12 C :    0.052642
  13 C :    0.027851
  14 C :   -0.210483
  15 C :   -0.143893
  16 C :   -0.256503
  17 C :    0.235636
  18 O :   -0.437125
  19 C :   -0.312241
  20 H :    0.100918
  21 H :    0.096896
  22 H :    0.125646
  23 H :    0.101342
  24 H :    0.102903
  25 H :    0.125113
  26 H :    0.126728
  27 H :    0.124311
  28 H :    0.258577
  29 H :    0.237561
  30 H :    0.186493
  31 H :    0.189699
  32 H :    0.201290
  33 H :    0.170454
  34 H :    0.332800
  35 H :    0.184961
Sum of atomic charges:   -0.0000000

LOEWDIN ATOMIC CHARGES
----------------------
   0 C :    0.107590
   1 C :   -0.016727
   2 O :    0.323612
   3 C :   -0.411499
   4 O :    0.031753
   5 C :   -0.108621
   6 C :   -0.010210
   7 C :    0.160150
   8 N :    0.395483
   9 C :   -0.456468
  10 S :   -0.123181
  11 N :    0.406877
  12 C :   -0.032861
  13 C :   -0.053079
  14 C :    0.019615
  15 C :    0.031832
  16 C :   -0.009098
  17 C :   -0.207388
  18 O :    0.363339
  19 C :    0.011878
  20 H :   -0.024393
  21 H :   -0.022431
  22 H :   -0.015825
  23 H :   -0.024974
  24 H :   -0.026646
  25 H :   -0.014845
  26 H :   -0.012646
  27 H :   -0.015249
  28 H :   -0.036010
  29 H :   -0.044835
  30 H :   -0.002671
  31 H :   -0.026131
  32 H :   -0.010217
  33 H :   -0.021457
  34 H :   -0.105329
  35 H :   -0.019337

  Mayer bond orders larger than 0.100000
B(  0-C ,  1-C ) :   0.9759 B(  0-C , 20-H ) :   0.9775 B(  0-C , 21-H ) :   0.9745
B(  0-C , 22-H ) :   0.9742 B(  1-C ,  2-O ) :   0.8842 B(  1-C , 23-H ) :   0.9764
B(  1-C , 24-H ) :   0.9725 B(  2-O ,  3-C ) :   1.2251 B(  3-C ,  4-O ) :   1.9023
B(  3-C ,  5-C ) :   1.0636 B(  5-C ,  6-C ) :   1.6499 B(  5-C , 12-C ) :   0.9646
B(  6-C ,  7-C ) :   0.9518 B(  6-C ,  8-N ) :   1.1444 B(  7-C , 25-H ) :   0.9653
B(  7-C , 26-H ) :   0.9604 B(  7-C , 27-H ) :   0.9819 B(  8-N ,  9-C ) :   1.2258
B(  8-N , 28-H ) :   0.9231 B(  9-C , 10-S ) :   1.4431 B(  9-C , 11-N ) :   1.3589
B( 11-N , 12-C ) :   0.9722 B( 11-N , 29-H ) :   0.9338 B( 12-C , 13-C ) :   0.9321
B( 12-C , 30-H ) :   0.9918 B( 13-C , 14-C ) :   1.3548 B( 13-C , 19-C ) :   1.3070
B( 14-C , 15-C ) :   1.3767 B( 14-C , 31-H ) :   0.9579 B( 15-C , 16-C ) :   1.3732
B( 15-C , 32-H ) :   0.9568 B( 16-C , 17-C ) :   1.3435 B( 16-C , 33-H ) :   0.9612
B( 17-C , 18-O ) :   1.1163 B( 17-C , 19-C ) :   1.3921 B( 18-O , 34-H ) :   0.9088
B( 19-C , 35-H ) :   0.9551

MP2 TOTAL ENERGY:    -1274.424971276 Eh
FINAL SINGLE POINT ENERGY     -1274.424971276007

DIPOLE MOMENT
-------------
                                X             Y             Z
Electronic contribution:    -11.26567       2.08479      11.15344
Nuclear contribution   :     12.57343      -2.57780     -12.14392
                        -----------------------------------------
Total Dipole Moment    :      1.30776      -0.49301      -0.99048
                        -----------------------------------------
Magnitude (a.u.)       :      1.71299
Magnitude (Debye)      :      4.35408

Rotational constants in cm-1:     0.010826     0.008521     0.006062
Rotational constants in MHz :   324.553374   255.443458   181.743587

                             ****ORCA TERMINATED NORMALLY****
TOTAL RUN TIME: 0 days 2 hours 10 minutes 53 seconds 347 msec
