                         Program Version 5.0.0 -  RELEASE  -
|  1> ! RI-MP2 cc-pVTZ cc-pVTZ/c TightSCF KeepDens NoKeepInts
|  2>
|  3> *xyz  0  1
|  4>     C    -5.5980962   -1.7859321  -11.9375571
|  5>     C    -5.1368102   -1.2274933  -10.5981311
|  6>     O    -6.2906910   -0.9464258   -9.7879522
|  7>     C    -6.1145263   -0.3658910   -8.5799109
|  8>     O    -5.0271407    0.0453634   -8.2267119
|  9>     C    -7.3765953   -0.1785613   -7.7627473
| 10>     C    -7.3799850    0.2913011   -6.5060199
| 11>     C    -6.1287714    0.8429082   -5.6966159
| 12>     N    -8.6168984    0.2632033   -5.7525475
| 13>     C    -9.8029507   -0.2973183   -6.1858924
| 14>     S   -11.1344519   -0.4506110   -5.2499152
| 15>     N    -9.8001080   -0.5566082   -7.5369441
| 16>     C    -8.6964040   -0.3679948   -8.5125648
| 17>     C    -9.0953071    0.8850563   -9.3170554
| 18>     C    -9.2056975    0.8411816  -10.7416803
| 19>     C    -9.6488512    1.9680383  -11.4964829
| 20>     C   -10.0102291    3.1042845  -10.8124394
| 21>     C    -9.8543371    3.1851721   -9.4106811
| 22>     O   -10.1401495    4.3156235   -8.7371812
| 23>     C    -9.3501316    2.0819505   -8.6680797
| 24>     H    -6.2564646   -1.0706482  -12.4456016
| 25>     H    -6.3074753   -2.6104540  -11.7956609
| 26>     H    -4.8266469   -2.1844268  -12.6078205
| 27>     H    -4.5231372   -1.9598409  -10.0593713
| 28>     H    -4.5090948   -0.3370617  -10.7257883
| 29>     H    -5.7364799    1.6877947   -6.2758073
| 30>     H    -5.4385381   -0.0021104   -5.5838730
| 31>     H    -6.4546729    1.1211718   -4.6868896
| 32>     H    -8.5964478    0.6244972   -4.8064952
| 33>     H   -10.6717186   -0.9154928   -7.9077045
| 34>     H    -8.6822313   -1.2123924   -9.2125516
| 35>     H    -8.8989902   -0.0605802  -11.2633625
| 36>     H    -9.6229448    1.9870152  -12.5820080
| 37>     H   -10.3544156    3.9875098  -11.3423871
| 38>     H   -10.3615503    4.0822423   -7.8188980
| 39>     H    -9.1141019    2.2348332   -7.6191218
| 40> *
| 41>
| 42>                          ****END OF INPUT****

CARTESIAN COORDINATES (ANGSTROEM)
---------------------------------
  C     -5.598096   -1.785932  -11.937557
  C     -5.136810   -1.227493  -10.598131
  O     -6.290691   -0.946426   -9.787952
  C     -6.114526   -0.365891   -8.579911
  O     -5.027141    0.045363   -8.226712
  C     -7.376595   -0.178561   -7.762747
  C     -7.379985    0.291301   -6.506020
  C     -6.128771    0.842908   -5.696616
  N     -8.616898    0.263203   -5.752548
  C     -9.802951   -0.297318   -6.185892
  S    -11.134452   -0.450611   -5.249915
  N     -9.800108   -0.556608   -7.536944
  C     -8.696404   -0.367995   -8.512565
  C     -9.095307    0.885056   -9.317055
  C     -9.205697    0.841182  -10.741680
  C     -9.648851    1.968038  -11.496483
  C    -10.010229    3.104284  -10.812439
  C     -9.854337    3.185172   -9.410681
  O    -10.140149    4.315624   -8.737181
  C     -9.350132    2.081951   -8.668080
  H     -6.256465   -1.070648  -12.445602
  H     -6.307475   -2.610454  -11.795661
  H     -4.826647   -2.184427  -12.607821
  H     -4.523137   -1.959841  -10.059371
  H     -4.509095   -0.337062  -10.725788
  H     -5.736480    1.687795   -6.275807
  H     -5.438538   -0.002110   -5.583873
  H     -6.454673    1.121172   -4.686890
  H     -8.596448    0.624497   -4.806495
  H    -10.671719   -0.915493   -7.907705
  H     -8.682231   -1.212392   -9.212552
  H     -8.898990   -0.060580  -11.263362
  H     -9.622945    1.987015  -12.582008
  H    -10.354416    3.987510  -11.342387
  H    -10.361550    4.082242   -7.818898
  H     -9.114102    2.234833   -7.619122

 Total Charge           Charge          ....    0
 Multiplicity           Mult            ....    1
 Number of Electrons    NEL             ....  154
 Basis Dimension        Dim             ....  828

ORBITAL ENERGIES
----------------

  NO   OCC          E(Eh)            E(eV)
   0   2.0000     -91.893092     -2500.5382
   1   2.0000     -20.611281      -560.8615
   2   2.0000     -20.593007      -560.3642
   3   2.0000     -20.543630      -559.0206
   4   2.0000     -15.628267      -425.2668
   5   2.0000     -15.604476      -424.6194
   6   2.0000     -11.396961      -310.1271
   7   2.0000     -11.386247      -309.8355
   8   2.0000     -11.340207      -308.5827
   9   2.0000     -11.313239      -307.8489
  10   2.0000     -11.312849      -307.8383
  11   2.0000     -11.301679      -307.5343
  12   2.0000     -11.264097      -306.5117
  13   2.0000     -11.262869      -306.4782
  14   2.0000     -11.259873      -306.3967
  15   2.0000     -11.250875      -306.1519
  16   2.0000     -11.240985      -305.8828
  17   2.0000     -11.238429      -305.8132
  18   2.0000     -11.235624      -305.7369
  19   2.0000     -11.234768      -305.7136
  20   2.0000      -8.898709      -242.1462
  21   2.0000      -6.580358      -179.0606
  22   2.0000      -6.578252      -179.0033
  23   2.0000      -6.577654      -178.9871
  24   2.0000      -1.464846       -39.8605
  25   2.0000      -1.415867       -38.5277
  26   2.0000      -1.360927       -37.0327
  27   2.0000      -1.329430       -36.1756
  28   2.0000      -1.224836       -33.3295
  29   2.0000      -1.153259       -31.3818
  30   2.0000      -1.120587       -30.4927
  31   2.0000      -1.048257       -28.5245
  32   2.0000      -1.041085       -28.3294
  33   2.0000      -1.004706       -27.3394
  34   2.0000      -0.991005       -26.9666
  35   2.0000      -0.988460       -26.8974
  36   2.0000      -0.921831       -25.0843
  37   2.0000      -0.896621       -24.3983
  38   2.0000      -0.848273       -23.0827
  39   2.0000      -0.842614       -22.9287
  40   2.0000      -0.823325       -22.4038
  41   2.0000      -0.809421       -22.0255
  42   2.0000      -0.767203       -20.8766
  43   2.0000      -0.738799       -20.1037
  44   2.0000      -0.717523       -19.5248
  45   2.0000      -0.696791       -18.9606
  46   2.0000      -0.687783       -18.7155
  47   2.0000      -0.681419       -18.5424
  48   2.0000      -0.677235       -18.4285
  49   2.0000      -0.660434       -17.9713
  50   2.0000      -0.644152       -17.5283
  51   2.0000      -0.633717       -17.2443
  52   2.0000      -0.627745       -17.0818
  53   2.0000      -0.620666       -16.8892
  54   2.0000      -0.605290       -16.4708
  55   2.0000      -0.597608       -16.2617
  56   2.0000      -0.588529       -16.0147
  57   2.0000      -0.578745       -15.7484
  58   2.0000      -0.572830       -15.5875
  59   2.0000      -0.568320       -15.4648
  60   2.0000      -0.564951       -15.3731
  61   2.0000      -0.556822       -15.1519
  62   2.0000      -0.535491       -14.5714
  63   2.0000      -0.524554       -14.2738
  64   2.0000      -0.520006       -14.1501
  65   2.0000      -0.515671       -14.0321
  66   2.0000      -0.508873       -13.8471
  67   2.0000      -0.503711       -13.7067
  68   2.0000      -0.477012       -12.9802
  69   2.0000      -0.464936       -12.6515
  70   2.0000      -0.462294       -12.5796
  71   2.0000      -0.446296       -12.1443
  72   2.0000      -0.359672        -9.7872
  73   2.0000      -0.352939        -9.6040
  74   2.0000      -0.332332        -9.0432
  75   2.0000      -0.320964        -8.7339
  76   2.0000      -0.311892        -8.4870
  77   0.0000       0.074266         2.0209
  78   0.0000       0.111368         3.0305
  79   0.0000       0.119228         3.2444
  80   0.0000       0.127403         3.4668
  81   0.0000       0.133436         3.6310

MULLIKEN ATOMIC CHARGES
-----------------------
   0 C :   -0.286920
   1 C :    0.051051
   2 O :   -0.332112
   3 C :    0.441616
   4 O :   -0.427818
   5 C :   -0.123010
   6 C :    0.060836
   7 C :   -0.235585
   8 N :   -0.169300
   9 C :    0.211024
  10 S :   -0.422219
  11 N :   -0.207295
  12 C :    0.023412
  13 C :    0.068972
  14 C :   -0.189696
  15 C :   -0.117513
  16 C :   -0.222541
  17 C :    0.276287
  18 O :   -0.359802
  19 C :   -0.308750
  20 H :    0.096400
  21 H :    0.091898
  22 H :    0.113478
  23 H :    0.087545
  24 H :    0.102186
  25 H :    0.137488
  26 H :    0.136033
  27 H :    0.094811
  28 H :    0.195832
  29 H :    0.185231
  30 H :    0.163108
  31 H :    0.148762
  32 H :    0.164776
  33 H :    0.157086
  34 H :    0.250070
  35 H :    0.144659
Sum of atomic charges:   -0.0000000

LOEWDIN ATOMIC CHARGES
----------------------
   0 C :    0.102526
   1 C :   -0.017733
   2 O :    0.316517
   3 C :   -0.425869
   4 O :    0.104303
   5 C :   -0.103251
   6 C :   -0.026294
   7 C :    0.152250
   8 N :    0.378554
   9 C :   -0.482884
  10 S :   -0.009875
  11 N :    0.392488
  12 C :   -0.040347
  13 C :   -0.043898
  14 C :    0.019795
  15 C :    0.037712
  16 C :    0.009429
  17 C :   -0.183075
  18 O :    0.395319
  19 C :    0.009305
  20 H :   -0.026211
  21 H :   -0.024989
  22 H :   -0.021046
  23 H :   -0.028523
  24 H :   -0.026087
  25 H :   -0.011776
  26 H :   -0.010667
  27 H :   -0.029678
  28 H :   -0.066460
  29 H :   -0.068593
  30 H :   -0.011172
  31 H :   -0.037952
  32 H :   -0.020130
  33 H :   -0.024231
  34 H :   -0.144650
  35 H :   -0.032805

  Mayer bond orders larger than 0.100000
B(  0-C ,  1-C ) :   0.9712 B(  0-C , 20-H ) :   0.9785 B(  0-C , 21-H ) :   0.9756
B(  0-C , 22-H ) :   0.9770 B(  1-C ,  2-O ) :   0.9014 B(  1-C , 23-H ) :   0.9794
B(  1-C , 24-H ) :   0.9738 B(  2-O ,  3-C ) :   1.1902 B(  3-C ,  4-O ) :   1.9702
B(  3-C ,  5-C ) :   1.0383 B(  5-C ,  6-C ) :   1.6848 B(  5-C , 12-C ) :   0.9683
B(  6-C ,  7-C ) :   0.9609 B(  6-C ,  8-N ) :   1.1253 B(  7-C , 25-H ) :   0.9629
B(  7-C , 26-H ) :   0.9606 B(  7-C , 27-H ) :   0.9844 B(  8-N ,  9-C ) :   1.1665
B(  8-N , 28-H ) :   0.9529 B(  9-C , 10-S ) :   1.6420 B(  9-C , 11-N ) :   1.2914
B( 11-N , 12-C ) :   0.9773 B( 11-N , 29-H ) :   0.9587 B( 12-C , 13-C ) :   0.9427
B( 12-C , 30-H ) :   0.9980 B( 13-C , 14-C ) :   1.3723 B( 13-C , 19-C ) :   1.3427
B( 14-C , 15-C ) :   1.3720 B( 14-C , 31-H ) :   0.9695 B( 15-C , 16-C ) :   1.3919
B( 15-C , 32-H ) :   0.9697 B( 16-C , 17-C ) :   1.3499 B( 16-C , 33-H ) :   0.9670
B( 17-C , 18-O ) :   1.0932 B( 17-C , 19-C ) :   1.3853 B( 18-O , 34-H ) :   0.9700
B( 19-C , 35-H ) :   0.9625

MP2 TOTAL ENERGY:    -1274.326279263 Eh
FINAL SINGLE POINT ENERGY     -1274.326279262771

DIPOLE MOMENT
-------------
                                X             Y             Z
Electronic contribution:    -11.43271       2.38471      11.23996
Nuclear contribution   :     12.57343      -2.57780     -12.14392
                        -----------------------------------------
Total Dipole Moment    :      1.14072      -0.19309      -0.90396
                        -----------------------------------------
Magnitude (a.u.)       :      1.46822
Magnitude (Debye)      :      3.73192

Rotational constants in cm-1:     0.010826     0.008521     0.006062
Rotational constants in MHz :   324.553374   255.443458   181.743587

                             ****ORCA TERMINATED NORMALLY****
TOTAL RUN TIME: 0 days 2 hours 2 minutes 8 seconds 851 msec
