                         Program Version 5.0.0 -  RELEASE  -
|  1> ! RI-MP2 cc-pVTZ cc-pVTZ/c TightSCF KeepDens NoKeepInts
|  2>
|  3> %pointcharges "srfp_output"
|  4>
|  5> *xyz  0  1
|  6>     C    -6.1190477    0.3105761  -11.3065524
|  7>     C    -5.5669524   -0.6717097  -10.2811537
|  8>     O    -5.6252623   -2.0099326  -10.8965608
|  9>     C    -5.5611705   -3.1062095  -10.0907694
| 10>     O    -5.6837787   -2.9875384   -8.9013707
| 11>     C    -5.0473079   -4.3710776  -10.7067757
| 12>     C    -4.8829405   -5.5389631  -10.0332675
| 13>     C    -5.1402180   -5.7892370   -8.5259208
| 14>     N    -4.2915369   -6.6022305  -10.6810703
| 15>     C    -3.5663856   -6.5561578  -11.8480958
| 16>     S    -2.5836666   -7.8416663  -12.3743648
| 17>     N    -3.6299479   -5.3340183  -12.5095713
| 18>     C    -4.4859600   -4.2051437  -12.1159525
| 19>     C    -5.4679435   -3.9521897  -13.2396945
| 20>     C    -5.5515906   -2.7297069  -13.9175994
| 21>     C    -6.4900257   -2.5074553  -14.9128548
| 22>     C    -7.3178058   -3.6188123  -15.2760786
| 23>     C    -7.3071339   -4.8452495  -14.5566938
| 24>     O    -8.3452877   -5.7910659  -14.7412727
| 25>     C    -6.3705365   -4.9687708  -13.5169964
| 26>     H    -5.8061087    0.1091560  -12.3383878
| 27>     H    -5.7221573    1.3254712  -11.1814307
| 28>     H    -7.2127534    0.2278927  -11.2937768
| 29>     H    -4.5061614   -0.5166848  -10.0490317
| 30>     H    -6.1657048   -0.6734285   -9.3620878
| 31>     H    -6.1494804   -5.5509381   -8.1684344
| 32>     H    -4.5224634   -5.1455318   -7.8877884
| 33>     H    -4.8668142   -6.8242946   -8.2869738
| 34>     H    -4.1884128   -7.4553809  -10.1449116
| 35>     H    -3.0967025   -5.2476037  -13.3663957
| 36>     H    -3.7590367   -3.3846765  -12.0758152
| 37>     H    -4.9634510   -1.9162272  -13.5031837
| 38>     H    -6.4610444   -1.5459643  -15.4169293
| 39>     H    -7.9740383   -3.5303078  -16.1368467
| 40>     H    -8.4948773   -6.2787590  -13.9127151
| 41>     H    -6.3437379   -5.9130414  -12.9812438
| 42> *
| 43>
| 44>                          ****END OF INPUT****

CARTESIAN COORDINATES (ANGSTROEM)
---------------------------------
  C     -6.119048    0.310576  -11.306552
  C     -5.566952   -0.671710  -10.281154
  O     -5.625262   -2.009933  -10.896561
  C     -5.561170   -3.106209  -10.090769
  O     -5.683779   -2.987538   -8.901371
  C     -5.047308   -4.371078  -10.706776
  C     -4.882941   -5.538963  -10.033267
  C     -5.140218   -5.789237   -8.525921
  N     -4.291537   -6.602230  -10.681070
  C     -3.566386   -6.556158  -11.848096
  S     -2.583667   -7.841666  -12.374365
  N     -3.629948   -5.334018  -12.509571
  C     -4.485960   -4.205144  -12.115952
  C     -5.467943   -3.952190  -13.239695
  C     -5.551591   -2.729707  -13.917599
  C     -6.490026   -2.507455  -14.912855
  C     -7.317806   -3.618812  -15.276079
  C     -7.307134   -4.845250  -14.556694
  O     -8.345288   -5.791066  -14.741273
  C     -6.370537   -4.968771  -13.516996
  H     -5.806109    0.109156  -12.338388
  H     -5.722157    1.325471  -11.181431
  H     -7.212753    0.227893  -11.293777
  H     -4.506161   -0.516685  -10.049032
  H     -6.165705   -0.673428   -9.362088
  H     -6.149480   -5.550938   -8.168434
  H     -4.522463   -5.145532   -7.887788
  H     -4.866814   -6.824295   -8.286974
  H     -4.188413   -7.455381  -10.144912
  H     -3.096702   -5.247604  -13.366396
  H     -3.759037   -3.384676  -12.075815
  H     -4.963451   -1.916227  -13.503184
  H     -6.461044   -1.545964  -15.416929
  H     -7.974038   -3.530308  -16.136847
  H     -8.494877   -6.278759  -13.912715
  H     -6.343738   -5.913041  -12.981244

 Total Charge           Charge          ....    0
 Multiplicity           Mult            ....    1
 Number of Electrons    NEL             ....  154
 Basis Dimension        Dim             ....  828

ORBITAL ENERGIES
----------------

  NO   OCC          E(Eh)            E(eV)
   0   2.0000     -94.635409     -2575.1604
   1   2.0000     -23.330468      -634.8543
   2   2.0000     -23.315002      -634.4335
   3   2.0000     -23.284470      -633.6026
   4   2.0000     -18.353085      -499.4128
   5   2.0000     -18.335829      -498.9433
   6   2.0000     -14.132053      -384.5527
   7   2.0000     -14.130174      -384.5016
   8   2.0000     -14.063755      -382.6942
   9   2.0000     -14.045317      -382.1925
  10   2.0000     -14.028023      -381.7219
  11   2.0000     -14.020907      -381.5283
  12   2.0000     -13.983781      -380.5180
  13   2.0000     -13.980750      -380.4355
  14   2.0000     -13.980700      -380.4342
  15   2.0000     -13.977451      -380.3458
  16   2.0000     -13.970359      -380.1528
  17   2.0000     -13.969893      -380.1401
  18   2.0000     -13.963333      -379.9616
  19   2.0000     -13.945719      -379.4823
  20   2.0000     -11.639702      -316.7324
  21   2.0000      -9.321408      -253.6484
  22   2.0000      -9.319547      -253.5978
  23   2.0000      -9.319090      -253.5853
  24   2.0000      -4.195051      -114.1531
  25   2.0000      -4.110263      -111.8459
  26   2.0000      -4.095924      -111.4558
  27   2.0000      -4.065876      -110.6381
  28   2.0000      -3.962628      -107.8286
  29   2.0000      -3.887070      -105.7726
  30   2.0000      -3.844057      -104.6021
  31   2.0000      -3.763600      -102.4128
  32   2.0000      -3.763072      -102.3984
  33   2.0000      -3.745389      -101.9172
  34   2.0000      -3.716759      -101.1382
  35   2.0000      -3.708850      -100.9229
  36   2.0000      -3.645439       -99.1974
  37   2.0000      -3.611264       -98.2675
  38   2.0000      -3.578488       -97.3756
  39   2.0000      -3.567368       -97.0730
  40   2.0000      -3.549174       -96.5779
  41   2.0000      -3.540125       -96.3317
  42   2.0000      -3.492569       -95.0376
  43   2.0000      -3.457618       -94.0866
  44   2.0000      -3.451565       -93.9219
  45   2.0000      -3.428022       -93.2812
  46   2.0000      -3.419301       -93.0439
  47   2.0000      -3.407602       -92.7256
  48   2.0000      -3.393267       -92.3355
  49   2.0000      -3.385029       -92.1113
  50   2.0000      -3.369329       -91.6841
  51   2.0000      -3.368242       -91.6545
  52   2.0000      -3.354646       -91.2846
  53   2.0000      -3.337811       -90.8265
  54   2.0000      -3.333219       -90.7015
  55   2.0000      -3.323332       -90.4324
  56   2.0000      -3.309529       -90.0569
  57   2.0000      -3.298787       -89.7646
  58   2.0000      -3.293313       -89.6156
  59   2.0000      -3.286429       -89.4283
  60   2.0000      -3.275495       -89.1308
  61   2.0000      -3.266134       -88.8760
  62   2.0000      -3.259802       -88.7037
  63   2.0000      -3.253839       -88.5415
  64   2.0000      -3.250940       -88.4626
  65   2.0000      -3.245492       -88.3143
  66   2.0000      -3.230970       -87.9192
  67   2.0000      -3.224766       -87.7503
  68   2.0000      -3.216166       -87.5163
  69   2.0000      -3.197224       -87.0009
  70   2.0000      -3.187277       -86.7302
  71   2.0000      -3.184034       -86.6420
  72   2.0000      -3.083459       -83.9052
  73   2.0000      -3.077887       -83.7536
  74   2.0000      -3.071656       -83.5840
  75   2.0000      -3.059205       -83.2452
  76   2.0000      -3.053426       -83.0880
  77   0.0000      -2.658568       -72.3433
  78   0.0000      -2.622357       -71.3580
  79   0.0000      -2.598024       -70.6958
  80   0.0000      -2.580771       -70.2264
  81   0.0000      -2.573831       -70.0375

MULLIKEN ATOMIC CHARGES
-----------------------
   0 C :   -0.290764
   1 C :    0.036503
   2 O :   -0.361763
   3 C :    0.472889
   4 O :   -0.539304
   5 C :   -0.207964
   6 C :    0.156530
   7 C :   -0.253424
   8 N :   -0.130074
   9 C :    0.294569
  10 S :   -0.615813
  11 N :   -0.222411
  12 C :    0.041899
  13 C :   -0.003840
  14 C :   -0.140608
  15 C :   -0.172141
  16 C :   -0.237820
  17 C :    0.214634
  18 O :   -0.457697
  19 C :   -0.277934
  20 H :    0.105102
  21 H :    0.117875
  22 H :    0.108506
  23 H :    0.115106
  24 H :    0.124864
  25 H :    0.129338
  26 H :    0.128987
  27 H :    0.118620
  28 H :    0.251347
  29 H :    0.242790
  30 H :    0.177169
  31 H :    0.180119
  32 H :    0.200081
  33 H :    0.180103
  34 H :    0.330470
  35 H :    0.184055
Sum of atomic charges:    0.0000000

LOEWDIN ATOMIC CHARGES
----------------------
   0 C :    0.108390
   1 C :    0.020705
   2 O :    0.289155
   3 C :   -0.434672
   4 O :    0.046413
   5 C :   -0.100739
   6 C :   -0.043109
   7 C :    0.147435
   8 N :    0.416424
   9 C :   -0.373059
  10 S :   -0.196990
  11 N :    0.410660
  12 C :   -0.057801
  13 C :   -0.060449
  14 C :    0.016290
  15 C :    0.038829
  16 C :    0.012680
  17 C :   -0.160986
  18 O :    0.304188
  19 C :    0.016861
  20 H :   -0.022124
  21 H :   -0.016011
  22 H :   -0.021831
  23 H :   -0.025022
  24 H :   -0.027411
  25 H :   -0.010314
  26 H :   -0.005891
  27 H :   -0.012006
  28 H :   -0.023363
  29 H :   -0.040280
  30 H :   -0.001723
  31 H :   -0.019330
  32 H :   -0.011720
  33 H :   -0.028012
  34 H :   -0.119989
  35 H :   -0.015199

  Mayer bond orders larger than 0.100000
B(  0-C ,  1-C ) :   0.9668 B(  0-C , 20-H ) :   0.9728 B(  0-C , 21-H ) :   0.9751
B(  0-C , 22-H ) :   0.9800 B(  1-C ,  2-O ) :   0.8418 B(  1-C , 23-H ) :   0.9755
B(  1-C , 24-H ) :   0.9759 B(  2-O ,  3-C ) :   1.2283 B(  3-C ,  4-O ) :   1.9271
B(  3-C ,  5-C ) :   1.0845 B(  5-C ,  6-C ) :   1.6255 B(  5-C , 12-C ) :   0.9614
B(  6-C ,  7-C ) :   0.9612 B(  6-C ,  8-N ) :   1.1718 B(  7-C , 25-H ) :   0.9647
B(  7-C , 26-H ) :   0.9551 B(  7-C , 27-H ) :   0.9858 B(  8-N ,  9-C ) :   1.2329
B(  8-N , 28-H ) :   0.9253 B(  9-C , 10-S ) :   1.3871 B(  9-C , 11-N ) :   1.3723
B( 11-N , 12-C ) :   0.9694 B( 11-N , 29-H ) :   0.9296 B( 12-C , 13-C ) :   0.9401
B( 12-C , 30-H ) :   0.9991 B( 13-C , 14-C ) :   1.3407 B( 13-C , 19-C ) :   1.3131
B( 14-C , 15-C ) :   1.3997 B( 14-C , 31-H ) :   0.9607 B( 15-C , 16-C ) :   1.3495
B( 15-C , 32-H ) :   0.9569 B( 16-C , 17-C ) :   1.3697 B( 16-C , 33-H ) :   0.9596
B( 17-C , 18-O ) :   1.0910 B( 17-C , 19-C ) :   1.3787 B( 18-O , 34-H ) :   0.9100
B( 19-C , 35-H ) :   0.9591

MP2 TOTAL ENERGY:    -1274.418114620 Eh
FINAL SINGLE POINT ENERGY     -1274.418114620174

DIPOLE MOMENT
-------------
                                X             Y             Z
Electronic contribution:      4.73087     -14.58453      -4.33887
Nuclear contribution   :     -5.36615      16.50212       5.53155
                        -----------------------------------------
Total Dipole Moment    :     -0.63528       1.91759       1.19269
                        -----------------------------------------
Magnitude (a.u.)       :      2.34589
Magnitude (Debye)      :      5.96279

Rotational constants in cm-1:     0.010851     0.008729     0.005843
Rotational constants in MHz :   325.311249   261.680433   175.173211

                             ****ORCA TERMINATED NORMALLY****
TOTAL RUN TIME: 0 days 2 hours 0 minutes 21 seconds 707 msec
