                         Program Version 5.0.0 -  RELEASE  -
|  1> ! RI-MP2 cc-pVTZ cc-pVTZ/c TightSCF KeepDens NoKeepInts
|  2>
|  3> *xyz  0  1
|  4>     C    -6.1190477    0.3105761  -11.3065524
|  5>     C    -5.5669524   -0.6717097  -10.2811537
|  6>     O    -5.6252623   -2.0099326  -10.8965608
|  7>     C    -5.5611705   -3.1062095  -10.0907694
|  8>     O    -5.6837787   -2.9875384   -8.9013707
|  9>     C    -5.0473079   -4.3710776  -10.7067757
| 10>     C    -4.8829405   -5.5389631  -10.0332675
| 11>     C    -5.1402180   -5.7892370   -8.5259208
| 12>     N    -4.2915369   -6.6022305  -10.6810703
| 13>     C    -3.5663856   -6.5561578  -11.8480958
| 14>     S    -2.5836666   -7.8416663  -12.3743648
| 15>     N    -3.6299479   -5.3340183  -12.5095713
| 16>     C    -4.4859600   -4.2051437  -12.1159525
| 17>     C    -5.4679435   -3.9521897  -13.2396945
| 18>     C    -5.5515906   -2.7297069  -13.9175994
| 19>     C    -6.4900257   -2.5074553  -14.9128548
| 20>     C    -7.3178058   -3.6188123  -15.2760786
| 21>     C    -7.3071339   -4.8452495  -14.5566938
| 22>     O    -8.3452877   -5.7910659  -14.7412727
| 23>     C    -6.3705365   -4.9687708  -13.5169964
| 24>     H    -5.8061087    0.1091560  -12.3383878
| 25>     H    -5.7221573    1.3254712  -11.1814307
| 26>     H    -7.2127534    0.2278927  -11.2937768
| 27>     H    -4.5061614   -0.5166848  -10.0490317
| 28>     H    -6.1657048   -0.6734285   -9.3620878
| 29>     H    -6.1494804   -5.5509381   -8.1684344
| 30>     H    -4.5224634   -5.1455318   -7.8877884
| 31>     H    -4.8668142   -6.8242946   -8.2869738
| 32>     H    -4.1884128   -7.4553809  -10.1449116
| 33>     H    -3.0967025   -5.2476037  -13.3663957
| 34>     H    -3.7590367   -3.3846765  -12.0758152
| 35>     H    -4.9634510   -1.9162272  -13.5031837
| 36>     H    -6.4610444   -1.5459643  -15.4169293
| 37>     H    -7.9740383   -3.5303078  -16.1368467
| 38>     H    -8.4948773   -6.2787590  -13.9127151
| 39>     H    -6.3437379   -5.9130414  -12.9812438
| 40> *
| 41>
| 42>                          ****END OF INPUT****

CARTESIAN COORDINATES (ANGSTROEM)
---------------------------------
  C     -6.119048    0.310576  -11.306552
  C     -5.566952   -0.671710  -10.281154
  O     -5.625262   -2.009933  -10.896561
  C     -5.561170   -3.106209  -10.090769
  O     -5.683779   -2.987538   -8.901371
  C     -5.047308   -4.371078  -10.706776
  C     -4.882941   -5.538963  -10.033267
  C     -5.140218   -5.789237   -8.525921
  N     -4.291537   -6.602230  -10.681070
  C     -3.566386   -6.556158  -11.848096
  S     -2.583667   -7.841666  -12.374365
  N     -3.629948   -5.334018  -12.509571
  C     -4.485960   -4.205144  -12.115952
  C     -5.467943   -3.952190  -13.239695
  C     -5.551591   -2.729707  -13.917599
  C     -6.490026   -2.507455  -14.912855
  C     -7.317806   -3.618812  -15.276079
  C     -7.307134   -4.845250  -14.556694
  O     -8.345288   -5.791066  -14.741273
  C     -6.370537   -4.968771  -13.516996
  H     -5.806109    0.109156  -12.338388
  H     -5.722157    1.325471  -11.181431
  H     -7.212753    0.227893  -11.293777
  H     -4.506161   -0.516685  -10.049032
  H     -6.165705   -0.673428   -9.362088
  H     -6.149480   -5.550938   -8.168434
  H     -4.522463   -5.145532   -7.887788
  H     -4.866814   -6.824295   -8.286974
  H     -4.188413   -7.455381  -10.144912
  H     -3.096702   -5.247604  -13.366396
  H     -3.759037   -3.384676  -12.075815
  H     -4.963451   -1.916227  -13.503184
  H     -6.461044   -1.545964  -15.416929
  H     -7.974038   -3.530308  -16.136847
  H     -8.494877   -6.278759  -13.912715
  H     -6.343738   -5.913041  -12.981244

 Total Charge           Charge          ....    0
 Multiplicity           Mult            ....    1
 Number of Electrons    NEL             ....  154
 Basis Dimension        Dim             ....  828

ORBITAL ENERGIES
----------------

  NO   OCC          E(Eh)            E(eV)
   0   2.0000     -91.896533     -2500.6318
   1   2.0000     -20.599711      -560.5466
   2   2.0000     -20.589929      -560.2804
   3   2.0000     -20.541069      -558.9509
   4   2.0000     -15.634672      -425.4411
   5   2.0000     -15.611193      -424.8022
   6   2.0000     -11.396393      -310.1116
   7   2.0000     -11.390979      -309.9643
   8   2.0000     -11.340907      -308.6018
   9   2.0000     -11.315949      -307.9226
  10   2.0000     -11.306708      -307.6712
  11   2.0000     -11.304571      -307.6130
  12   2.0000     -11.262132      -306.4582
  13   2.0000     -11.261078      -306.4295
  14   2.0000     -11.253402      -306.2206
  15   2.0000     -11.252893      -306.2068
  16   2.0000     -11.247723      -306.0661
  17   2.0000     -11.242652      -305.9281
  18   2.0000     -11.236608      -305.7637
  19   2.0000     -11.236525      -305.7614
  20   2.0000      -8.899567      -242.1695
  21   2.0000      -6.580939      -179.0764
  22   2.0000      -6.579083      -179.0259
  23   2.0000      -6.578515      -179.0105
  24   2.0000      -1.457290       -39.6549
  25   2.0000      -1.383498       -37.6469
  26   2.0000      -1.357460       -36.9384
  27   2.0000      -1.344368       -36.5821
  28   2.0000      -1.241755       -33.7899
  29   2.0000      -1.158031       -31.5116
  30   2.0000      -1.118899       -30.4468
  31   2.0000      -1.046578       -28.4788
  32   2.0000      -1.037328       -28.2271
  33   2.0000      -1.017491       -27.6873
  34   2.0000      -0.998077       -27.1591
  35   2.0000      -0.978529       -26.6271
  36   2.0000      -0.922161       -25.0933
  37   2.0000      -0.889895       -24.2153
  38   2.0000      -0.854828       -23.2610
  39   2.0000      -0.840769       -22.8785
  40   2.0000      -0.827116       -22.5070
  41   2.0000      -0.813719       -22.1424
  42   2.0000      -0.765652       -20.8345
  43   2.0000      -0.732087       -19.9211
  44   2.0000      -0.725022       -19.7288
  45   2.0000      -0.697155       -18.9705
  46   2.0000      -0.685726       -18.6596
  47   2.0000      -0.682152       -18.5623
  48   2.0000      -0.671180       -18.2637
  49   2.0000      -0.659529       -17.9467
  50   2.0000      -0.647125       -17.6092
  51   2.0000      -0.644591       -17.5402
  52   2.0000      -0.628251       -17.0956
  53   2.0000      -0.613172       -16.6853
  54   2.0000      -0.605938       -16.4884
  55   2.0000      -0.599297       -16.3077
  56   2.0000      -0.587235       -15.9795
  57   2.0000      -0.583575       -15.8799
  58   2.0000      -0.569198       -15.4887
  59   2.0000      -0.559469       -15.2239
  60   2.0000      -0.556457       -15.1420
  61   2.0000      -0.550572       -14.9818
  62   2.0000      -0.540898       -14.7186
  63   2.0000      -0.530004       -14.4222
  64   2.0000      -0.523026       -14.2323
  65   2.0000      -0.513788       -13.9809
  66   2.0000      -0.507929       -13.8214
  67   2.0000      -0.497342       -13.5334
  68   2.0000      -0.485789       -13.2190
  69   2.0000      -0.465153       -12.6575
  70   2.0000      -0.461308       -12.5528
  71   2.0000      -0.449745       -12.2382
  72   2.0000      -0.353742        -9.6258
  73   2.0000      -0.347188        -9.4475
  74   2.0000      -0.330470        -8.9925
  75   2.0000      -0.324707        -8.8357
  76   2.0000      -0.316003        -8.5989
  77   0.0000       0.070667         1.9230
  78   0.0000       0.103641         2.8202
  79   0.0000       0.122841         3.3427
  80   0.0000       0.127124         3.4592
  81   0.0000       0.131719         3.5843

MULLIKEN ATOMIC CHARGES
-----------------------
   0 C :   -0.275395
   1 C :    0.034899
   2 O :   -0.360739
   3 C :    0.442418
   4 O :   -0.426151
   5 C :   -0.191249
   6 C :    0.134405
   7 C :   -0.268686
   8 N :   -0.117569
   9 C :    0.200720
  10 S :   -0.437591
  11 N :   -0.213513
  12 C :    0.018624
  13 C :    0.040446
  14 C :   -0.124935
  15 C :   -0.153206
  16 C :   -0.195775
  17 C :    0.253387
  18 O :   -0.378060
  19 C :   -0.277692
  20 H :    0.094344
  21 H :    0.102607
  22 H :    0.104637
  23 H :    0.095175
  24 H :    0.127963
  25 H :    0.135614
  26 H :    0.138213
  27 H :    0.090386
  28 H :    0.192651
  29 H :    0.197825
  30 H :    0.149677
  31 H :    0.142989
  32 H :    0.168205
  33 H :    0.160148
  34 H :    0.245037
  35 H :    0.150192
Sum of atomic charges:    0.0000000

LOEWDIN ATOMIC CHARGES
----------------------
   0 C :    0.104660
   1 C :    0.017015
   2 O :    0.286323
   3 C :   -0.446519
   4 O :    0.122224
   5 C :   -0.096263
   6 C :   -0.062456
   7 C :    0.138524
   8 N :    0.399998
   9 C :   -0.401866
  10 S :   -0.081787
  11 N :    0.394479
  12 C :   -0.064982
  13 C :   -0.052494
  14 C :    0.016794
  15 C :    0.042058
  16 C :    0.034961
  17 C :   -0.136888
  18 O :    0.336061
  19 C :    0.015472
  20 H :   -0.024804
  21 H :   -0.023153
  22 H :   -0.021909
  23 H :   -0.032366
  24 H :   -0.025287
  25 H :   -0.008790
  26 H :   -0.004452
  27 H :   -0.026608
  28 H :   -0.052394
  29 H :   -0.062592
  30 H :   -0.011749
  31 H :   -0.030538
  32 H :   -0.022419
  33 H :   -0.030565
  34 H :   -0.160977
  35 H :   -0.026711

  Mayer bond orders larger than 0.100000
B(  0-C ,  1-C ) :   0.9651 B(  0-C , 20-H ) :   0.9744 B(  0-C , 21-H ) :   0.9772
B(  0-C , 22-H ) :   0.9817 B(  1-C ,  2-O ) :   0.8669 B(  1-C , 23-H ) :   0.9802
B(  1-C , 24-H ) :   0.9775 B(  2-O ,  3-C ) :   1.1933 B(  3-C ,  4-O ) :   1.9825
B(  3-C ,  5-C ) :   1.0563 B(  5-C ,  6-C ) :   1.6596 B(  5-C , 12-C ) :   0.9649
B(  6-C ,  7-C ) :   0.9702 B(  6-C ,  8-N ) :   1.1515 B(  7-C , 25-H ) :   0.9644
B(  7-C , 26-H ) :   0.9548 B(  7-C , 27-H ) :   0.9883 B(  8-N ,  9-C ) :   1.1789
B(  8-N , 28-H ) :   0.9526 B(  9-C , 10-S ) :   1.5720 B(  9-C , 11-N ) :   1.3072
B( 11-N , 12-C ) :   0.9740 B( 11-N , 29-H ) :   0.9525 B( 12-C , 13-C ) :   0.9506
B( 12-C , 30-H ) :   1.0054 B( 13-C , 14-C ) :   1.3585 B( 13-C , 19-C ) :   1.3514
B( 14-C , 15-C ) :   1.3985 B( 14-C , 31-H ) :   0.9687 B( 15-C , 16-C ) :   1.3671
B( 15-C , 32-H ) :   0.9677 B( 16-C , 17-C ) :   1.3793 B( 16-C , 33-H ) :   0.9671
B( 17-C , 18-O ) :   1.0714 B( 17-C , 19-C ) :   1.3743 B( 18-O , 34-H ) :   0.9758
B( 19-C , 35-H ) :   0.9627

MP2 TOTAL ENERGY:    -1274.315511057 Eh
FINAL SINGLE POINT ENERGY     -1274.315511056602

DIPOLE MOMENT
-------------
                                X             Y             Z
Electronic contribution:      4.71260     -14.90574      -4.59978
Nuclear contribution   :     -5.36615      16.50212       5.53155
                        -----------------------------------------
Total Dipole Moment    :     -0.65355       1.59638       0.93177
                        -----------------------------------------
Magnitude (a.u.)       :      1.96055
Magnitude (Debye)      :      4.98333

Rotational constants in cm-1:     0.010851     0.008729     0.005843
Rotational constants in MHz :   325.311249   261.680433   175.173211

                             ****ORCA TERMINATED NORMALLY****
TOTAL RUN TIME: 0 days 2 hours 4 minutes 45 seconds 996 msec
