                         Program Version 5.0.0 -  RELEASE  -
|  1> ! RI-MP2 cc-pVTZ cc-pVTZ/c TightSCF KeepDens NoKeepInts
|  2>
|  3> *xyz  0  1
|  4>     C    -6.8818067    1.8166553    2.9756631
|  5>     C    -7.0735817    3.2354372    2.4707209
|  6>     O    -6.7899152    3.2709077    1.0774351
|  7>     C    -6.4123215    4.4862342    0.5608086
|  8>     O    -6.6969578    5.5850895    1.1131205
|  9>     C    -5.8733003    4.4532466   -0.8727088
| 10>     C    -5.2745172    5.5050585   -1.4073619
| 11>     C    -4.8862461    6.8116606   -0.8988065
| 12>     N    -4.7936132    5.3705742   -2.7528544
| 13>     C    -4.8106328    4.2248323   -3.4554428
| 14>     S    -4.2753549    4.1851910   -5.0291058
| 15>     N    -5.2421856    3.1198673   -2.8204690
| 16>     C    -5.9739543    3.0684755   -1.5539342
| 17>     C    -5.2787938    1.9609974   -0.7379917
| 18>     C    -5.7848755    0.6400349   -0.7181281
| 19>     C    -5.1074529   -0.3618166   -0.0828425
| 20>     C    -4.0027877   -0.0426036    0.7221745
| 21>     C    -3.5117521    1.2884412    0.7214507
| 22>     O    -2.5757419    1.6838333    1.6317316
| 23>     C    -4.1496039    2.3047136    0.0671121
| 24>     H    -5.8952926    1.3796060    2.7782550
| 25>     H    -7.7168892    1.2061944    2.6107462
| 26>     H    -7.0119902    1.8345879    4.0646668
| 27>     H    -8.0698179    3.6312574    2.7031553
| 28>     H    -6.2953505    3.8726697    2.9083058
| 29>     H    -4.0859475    7.2489691   -1.5082960
| 30>     H    -4.5820568    6.9199211    0.1494961
| 31>     H    -5.8007722    7.4144969   -0.9572879
| 32>     H    -4.3680913    6.1341926   -3.2645032
| 33>     H    -5.3315439    2.2684661   -3.3618540
| 34>     H    -7.0380379    2.8704904   -1.7320283
| 35>     H    -6.6633550    0.4043346   -1.3115233
| 36>     H    -5.4678073   -1.3861614   -0.0989718
| 37>     H    -3.5632526   -0.7645005    1.4041353
| 38>     H    -2.6388693    1.1260594    2.4264851
| 39>     H    -3.7695268    3.3175377   -0.0284134
| 40> *
| 41>
| 42>                          ****END OF INPUT****

CARTESIAN COORDINATES (ANGSTROEM)
---------------------------------
  C     -6.881807    1.816655    2.975663
  C     -7.073582    3.235437    2.470721
  O     -6.789915    3.270908    1.077435
  C     -6.412322    4.486234    0.560809
  O     -6.696958    5.585089    1.113120
  C     -5.873300    4.453247   -0.872709
  C     -5.274517    5.505058   -1.407362
  C     -4.886246    6.811661   -0.898806
  N     -4.793613    5.370574   -2.752854
  C     -4.810633    4.224832   -3.455443
  S     -4.275355    4.185191   -5.029106
  N     -5.242186    3.119867   -2.820469
  C     -5.973954    3.068475   -1.553934
  C     -5.278794    1.960997   -0.737992
  C     -5.784876    0.640035   -0.718128
  C     -5.107453   -0.361817   -0.082842
  C     -4.002788   -0.042604    0.722175
  C     -3.511752    1.288441    0.721451
  O     -2.575742    1.683833    1.631732
  C     -4.149604    2.304714    0.067112
  H     -5.895293    1.379606    2.778255
  H     -7.716889    1.206194    2.610746
  H     -7.011990    1.834588    4.064667
  H     -8.069818    3.631257    2.703155
  H     -6.295350    3.872670    2.908306
  H     -4.085947    7.248969   -1.508296
  H     -4.582057    6.919921    0.149496
  H     -5.800772    7.414497   -0.957288
  H     -4.368091    6.134193   -3.264503
  H     -5.331544    2.268466   -3.361854
  H     -7.038038    2.870490   -1.732028
  H     -6.663355    0.404335   -1.311523
  H     -5.467807   -1.386161   -0.098972
  H     -3.563253   -0.764501    1.404135
  H     -2.638869    1.126059    2.426485
  H     -3.769527    3.317538   -0.028413

 Total Charge           Charge          ....    0
 Multiplicity           Mult            ....    1
 Number of Electrons    NEL             ....  154
 Basis Dimension        Dim             ....  828

ORBITAL ENERGIES
----------------

  NO   OCC          E(Eh)            E(eV)
   0   2.0000     -91.881550     -2500.2241
   1   2.0000     -20.610099      -560.8293
   2   2.0000     -20.590038      -560.2834
   3   2.0000     -20.547688      -559.1310
   4   2.0000     -15.621506      -425.0828
   5   2.0000     -15.607016      -424.6885
   6   2.0000     -11.405937      -310.3713
   7   2.0000     -11.375506      -309.5433
   8   2.0000     -11.332609      -308.3760
   9   2.0000     -11.315669      -307.9150
  10   2.0000     -11.311040      -307.7890
  11   2.0000     -11.295782      -307.3738
  12   2.0000     -11.268737      -306.6379
  13   2.0000     -11.265741      -306.5564
  14   2.0000     -11.253751      -306.2301
  15   2.0000     -11.251367      -306.1653
  16   2.0000     -11.245798      -306.0137
  17   2.0000     -11.238800      -305.8233
  18   2.0000     -11.237544      -305.7891
  19   2.0000     -11.231327      -305.6200
  20   2.0000      -8.886618      -241.8172
  21   2.0000      -6.568223      -178.7304
  22   2.0000      -6.566166      -178.6745
  23   2.0000      -6.565639      -178.6601
  24   2.0000      -1.451765       -39.5045
  25   2.0000      -1.408693       -38.3325
  26   2.0000      -1.346989       -36.6534
  27   2.0000      -1.341573       -36.5061
  28   2.0000      -1.242794       -33.8181
  29   2.0000      -1.163099       -31.6495
  30   2.0000      -1.130568       -30.7643
  31   2.0000      -1.052632       -28.6436
  32   2.0000      -1.042099       -28.3570
  33   2.0000      -1.024895       -27.8888
  34   2.0000      -1.005874       -27.3712
  35   2.0000      -0.978686       -26.6314
  36   2.0000      -0.928040       -25.2533
  37   2.0000      -0.890755       -24.2387
  38   2.0000      -0.845509       -23.0075
  39   2.0000      -0.839904       -22.8549
  40   2.0000      -0.832770       -22.6608
  41   2.0000      -0.815297       -22.1854
  42   2.0000      -0.768065       -20.9001
  43   2.0000      -0.732641       -19.9362
  44   2.0000      -0.731025       -19.8922
  45   2.0000      -0.700236       -19.0544
  46   2.0000      -0.689743       -18.7689
  47   2.0000      -0.686004       -18.6671
  48   2.0000      -0.674928       -18.3657
  49   2.0000      -0.665054       -18.0971
  50   2.0000      -0.652745       -17.7621
  51   2.0000      -0.646541       -17.5933
  52   2.0000      -0.636493       -17.3199
  53   2.0000      -0.625645       -17.0247
  54   2.0000      -0.605829       -16.4855
  55   2.0000      -0.601183       -16.3590
  56   2.0000      -0.589903       -16.0521
  57   2.0000      -0.582606       -15.8535
  58   2.0000      -0.572301       -15.5731
  59   2.0000      -0.569640       -15.5007
  60   2.0000      -0.562268       -15.3001
  61   2.0000      -0.547552       -14.8996
  62   2.0000      -0.537060       -14.6141
  63   2.0000      -0.529403       -14.4058
  64   2.0000      -0.524719       -14.2783
  65   2.0000      -0.506068       -13.7708
  66   2.0000      -0.501785       -13.6543
  67   2.0000      -0.496794       -13.5185
  68   2.0000      -0.482844       -13.1388
  69   2.0000      -0.464033       -12.6270
  70   2.0000      -0.457414       -12.4469
  71   2.0000      -0.448525       -12.2050
  72   2.0000      -0.362407        -9.8616
  73   2.0000      -0.346915        -9.4400
  74   2.0000      -0.330801        -9.0016
  75   2.0000      -0.321129        -8.7384
  76   2.0000      -0.313648        -8.5348
  77   0.0000       0.079454         2.1621
  78   0.0000       0.098946         2.6925
  79   0.0000       0.114390         3.1127
  80   0.0000       0.125437         3.4133
  81   0.0000       0.133359         3.6289

MULLIKEN ATOMIC CHARGES
-----------------------
   0 C :   -0.274140
   1 C :    0.042641
   2 O :   -0.333201
   3 C :    0.475715
   4 O :   -0.451885
   5 C :   -0.212128
   6 C :    0.183433
   7 C :   -0.310077
   8 N :   -0.138386
   9 C :    0.204076
  10 S :   -0.469774
  11 N :   -0.184012
  12 C :    0.074909
  13 C :    0.076778
  14 C :   -0.211019
  15 C :   -0.094580
  16 C :   -0.297062
  17 C :    0.280024
  18 O :   -0.376632
  19 C :   -0.248649
  20 H :    0.105232
  21 H :    0.094791
  22 H :    0.098651
  23 H :    0.109429
  24 H :    0.080229
  25 H :    0.100371
  26 H :    0.134292
  27 H :    0.133375
  28 H :    0.197171
  29 H :    0.186983
  30 H :    0.150270
  31 H :    0.146991
  32 H :    0.160382
  33 H :    0.147137
  34 H :    0.242541
  35 H :    0.176121
Sum of atomic charges:   -0.0000000

LOEWDIN ATOMIC CHARGES
----------------------
   0 C :    0.107394
   1 C :   -0.036035
   2 O :    0.323081
   3 C :   -0.344025
   4 O :    0.038766
   5 C :   -0.085451
   6 C :   -0.070351
   7 C :    0.121075
   8 N :    0.409179
   9 C :   -0.480783
  10 S :   -0.060819
  11 N :    0.401816
  12 C :   -0.038707
  13 C :   -0.009241
  14 C :    0.001390
  15 C :    0.031288
  16 C :    0.011759
  17 C :   -0.199010
  18 O :    0.380804
  19 C :    0.027715
  20 H :   -0.025417
  21 H :   -0.026729
  22 H :   -0.021251
  23 H :   -0.024030
  24 H :   -0.029370
  25 H :   -0.012886
  26 H :   -0.001494
  27 H :    0.003385
  28 H :   -0.056719
  29 H :   -0.058334
  30 H :   -0.016276
  31 H :   -0.028476
  32 H :   -0.017638
  33 H :   -0.034237
  34 H :   -0.155380
  35 H :   -0.024991

  Mayer bond orders larger than 0.100000
B(  0-C ,  1-C ) :   0.9706 B(  0-C , 20-H ) :   0.9722 B(  0-C , 21-H ) :   0.9799
B(  0-C , 22-H ) :   0.9794 B(  1-C ,  2-O ) :   0.8999 B(  1-C , 23-H ) :   0.9813
B(  1-C , 24-H ) :   0.9790 B(  2-O ,  3-C ) :   1.1775 B(  3-C ,  4-O ) :   1.9204
B(  3-C ,  5-C ) :   1.0430 B(  5-C ,  6-C ) :   1.6930 B(  5-C , 12-C ) :   0.9859
B(  6-C ,  7-C ) :   0.9685 B(  6-C ,  8-N ) :   1.1018 B(  7-C , 25-H ) :   0.9953
B(  7-C , 26-H ) :   0.9609 B(  7-C , 27-H ) :   0.9519 B(  8-N ,  9-C ) :   1.2325
B(  8-N , 28-H ) :   0.9437 B(  9-C , 10-S ) :   1.5554 B(  9-C , 11-N ) :   1.3209
B( 11-N , 12-C ) :   0.9600 B( 11-N , 29-H ) :   0.9539 B( 12-C , 13-C ) :   0.9723
B( 12-C , 30-H ) :   0.9986 B( 13-C , 14-C ) :   1.3617 B( 13-C , 19-C ) :   1.2876
B( 14-C , 15-C ) :   1.3873 B( 14-C , 31-H ) :   0.9731 B( 15-C , 16-C ) :   1.3667
B( 15-C , 32-H ) :   0.9722 B( 16-C , 17-C ) :   1.3455 B( 16-C , 33-H ) :   0.9787
B( 17-C , 18-O ) :   1.0681 B( 17-C , 19-C ) :   1.3867 B( 18-O , 34-H ) :   0.9772
B( 19-C , 35-H ) :   0.9579

MP2 TOTAL ENERGY:    -1274.312300445 Eh
FINAL SINGLE POINT ENERGY     -1274.312300445232

DIPOLE MOMENT
-------------
                                X             Y             Z
Electronic contribution:      3.95874       2.99742     -14.55855
Nuclear contribution   :     -4.58460      -3.86459      16.71070
                        -----------------------------------------
Total Dipole Moment    :     -0.62586      -0.86717       2.15215
                        -----------------------------------------
Magnitude (a.u.)       :      2.40321
Magnitude (Debye)      :      6.10848

Rotational constants in cm-1:     0.014025     0.008135     0.006252
Rotational constants in MHz :   420.447779   243.896117   187.433249

                             ****ORCA TERMINATED NORMALLY****
TOTAL RUN TIME: 0 days 2 hours 13 minutes 18 seconds 442 msec
