                         Program Version 5.0.0 -  RELEASE  -
|  1> ! RI-MP2 cc-pVTZ cc-pVTZ/c TightSCF KeepDens NoKeepInts
|  2>
|  3> %pointcharges "srfp_output"
|  4>
|  5> *xyz  0  1
|  6>     C    -6.8818067    1.8166553    2.9756631
|  7>     C    -7.0735817    3.2354372    2.4707209
|  8>     O    -6.7899152    3.2709077    1.0774351
|  9>     C    -6.4123215    4.4862342    0.5608086
| 10>     O    -6.6969578    5.5850895    1.1131205
| 11>     C    -5.8733003    4.4532466   -0.8727088
| 12>     C    -5.2745172    5.5050585   -1.4073619
| 13>     C    -4.8862461    6.8116606   -0.8988065
| 14>     N    -4.7936132    5.3705742   -2.7528544
| 15>     C    -4.8106328    4.2248323   -3.4554428
| 16>     S    -4.2753549    4.1851910   -5.0291058
| 17>     N    -5.2421856    3.1198673   -2.8204690
| 18>     C    -5.9739543    3.0684755   -1.5539342
| 19>     C    -5.2787938    1.9609974   -0.7379917
| 20>     C    -5.7848755    0.6400349   -0.7181281
| 21>     C    -5.1074529   -0.3618166   -0.0828425
| 22>     C    -4.0027877   -0.0426036    0.7221745
| 23>     C    -3.5117521    1.2884412    0.7214507
| 24>     O    -2.5757419    1.6838333    1.6317316
| 25>     C    -4.1496039    2.3047136    0.0671121
| 26>     H    -5.8952926    1.3796060    2.7782550
| 27>     H    -7.7168892    1.2061944    2.6107462
| 28>     H    -7.0119902    1.8345879    4.0646668
| 29>     H    -8.0698179    3.6312574    2.7031553
| 30>     H    -6.2953505    3.8726697    2.9083058
| 31>     H    -4.0859475    7.2489691   -1.5082960
| 32>     H    -4.5820568    6.9199211    0.1494961
| 33>     H    -5.8007722    7.4144969   -0.9572879
| 34>     H    -4.3680913    6.1341926   -3.2645032
| 35>     H    -5.3315439    2.2684661   -3.3618540
| 36>     H    -7.0380379    2.8704904   -1.7320283
| 37>     H    -6.6633550    0.4043346   -1.3115233
| 38>     H    -5.4678073   -1.3861614   -0.0989718
| 39>     H    -3.5632526   -0.7645005    1.4041353
| 40>     H    -2.6388693    1.1260594    2.4264851
| 41>     H    -3.7695268    3.3175377   -0.0284134
| 42> *
| 43>
| 44>                          ****END OF INPUT****

CARTESIAN COORDINATES (ANGSTROEM)
---------------------------------
  C     -6.881807    1.816655    2.975663
  C     -7.073582    3.235437    2.470721
  O     -6.789915    3.270908    1.077435
  C     -6.412322    4.486234    0.560809
  O     -6.696958    5.585089    1.113120
  C     -5.873300    4.453247   -0.872709
  C     -5.274517    5.505058   -1.407362
  C     -4.886246    6.811661   -0.898806
  N     -4.793613    5.370574   -2.752854
  C     -4.810633    4.224832   -3.455443
  S     -4.275355    4.185191   -5.029106
  N     -5.242186    3.119867   -2.820469
  C     -5.973954    3.068475   -1.553934
  C     -5.278794    1.960997   -0.737992
  C     -5.784876    0.640035   -0.718128
  C     -5.107453   -0.361817   -0.082842
  C     -4.002788   -0.042604    0.722175
  C     -3.511752    1.288441    0.721451
  O     -2.575742    1.683833    1.631732
  C     -4.149604    2.304714    0.067112
  H     -5.895293    1.379606    2.778255
  H     -7.716889    1.206194    2.610746
  H     -7.011990    1.834588    4.064667
  H     -8.069818    3.631257    2.703155
  H     -6.295350    3.872670    2.908306
  H     -4.085947    7.248969   -1.508296
  H     -4.582057    6.919921    0.149496
  H     -5.800772    7.414497   -0.957288
  H     -4.368091    6.134193   -3.264503
  H     -5.331544    2.268466   -3.361854
  H     -7.038038    2.870490   -1.732028
  H     -6.663355    0.404335   -1.311523
  H     -5.467807   -1.386161   -0.098972
  H     -3.563253   -0.764501    1.404135
  H     -2.638869    1.126059    2.426485
  H     -3.769527    3.317538   -0.028413

 Total Charge           Charge          ....    0
 Multiplicity           Mult            ....    1
 Number of Electrons    NEL             ....  154
 Basis Dimension        Dim             ....  828

ORBITAL ENERGIES
----------------

  NO   OCC          E(Eh)            E(eV)
   0   2.0000     -94.662417     -2575.8953
   1   2.0000     -23.392518      -636.5428
   2   2.0000     -23.352459      -635.4527
   3   2.0000     -23.336791      -635.0264
   4   2.0000     -18.383962      -500.2530
   5   2.0000     -18.371620      -499.9172
   6   2.0000     -14.195036      -386.2666
   7   2.0000     -14.150916      -385.0660
   8   2.0000     -14.100261      -383.6876
   9   2.0000     -14.079488      -383.1224
  10   2.0000     -14.076020      -383.0280
  11   2.0000     -14.063165      -382.6782
  12   2.0000     -14.033234      -381.8637
  13   2.0000     -14.032680      -381.8486
  14   2.0000     -14.015103      -381.3703
  15   2.0000     -14.009064      -381.2060
  16   2.0000     -14.005361      -381.1053
  17   2.0000     -14.005080      -381.0976
  18   2.0000     -14.001437      -380.9985
  19   2.0000     -13.991300      -380.7226
  20   2.0000     -11.668673      -317.5207
  21   2.0000      -9.350583      -254.4423
  22   2.0000      -9.348533      -254.3865
  23   2.0000      -9.348099      -254.3747
  24   2.0000      -4.235517      -115.2543
  25   2.0000      -4.172793      -113.5475
  26   2.0000      -4.133621      -112.4816
  27   2.0000      -4.110807      -111.8607
  28   2.0000      -4.005499      -108.9952
  29   2.0000      -3.929283      -106.9212
  30   2.0000      -3.897609      -106.0593
  31   2.0000      -3.817969      -103.8922
  32   2.0000      -3.807877      -103.6176
  33   2.0000      -3.789924      -103.1291
  34   2.0000      -3.768252      -102.5394
  35   2.0000      -3.751975      -102.0964
  36   2.0000      -3.693358      -100.5014
  37   2.0000      -3.661261       -99.6280
  38   2.0000      -3.609894       -98.2302
  39   2.0000      -3.603917       -98.0676
  40   2.0000      -3.596446       -97.8643
  41   2.0000      -3.586373       -97.5902
  42   2.0000      -3.541076       -96.3576
  43   2.0000      -3.500041       -95.2410
  44   2.0000      -3.495773       -95.1248
  45   2.0000      -3.469662       -94.4143
  46   2.0000      -3.463314       -94.2416
  47   2.0000      -3.457526       -94.0841
  48   2.0000      -3.449991       -93.8790
  49   2.0000      -3.430637       -93.3524
  50   2.0000      -3.416695       -92.9730
  51   2.0000      -3.412174       -92.8500
  52   2.0000      -3.399926       -92.5167
  53   2.0000      -3.389874       -92.2432
  54   2.0000      -3.372142       -91.7606
  55   2.0000      -3.365693       -91.5852
  56   2.0000      -3.357997       -91.3757
  57   2.0000      -3.353292       -91.2477
  58   2.0000      -3.340892       -90.9103
  59   2.0000      -3.331793       -90.6627
  60   2.0000      -3.325872       -90.5016
  61   2.0000      -3.310892       -90.0940
  62   2.0000      -3.300925       -89.8227
  63   2.0000      -3.299800       -89.7921
  64   2.0000      -3.294676       -89.6527
  65   2.0000      -3.280822       -89.2757
  66   2.0000      -3.270703       -89.0003
  67   2.0000      -3.266031       -88.8732
  68   2.0000      -3.253576       -88.5343
  69   2.0000      -3.240647       -88.1825
  70   2.0000      -3.234824       -88.0240
  71   2.0000      -3.224014       -87.7299
  72   2.0000      -3.130052       -85.1731
  73   2.0000      -3.116265       -84.7979
  74   2.0000      -3.106899       -84.5430
  75   2.0000      -3.101281       -84.3902
  76   2.0000      -3.090958       -84.1092
  77   0.0000      -2.694831       -73.3301
  78   0.0000      -2.666272       -72.5529
  79   0.0000      -2.636736       -71.7492
  80   0.0000      -2.631119       -71.5964
  81   0.0000      -2.613589       -71.1194

MULLIKEN ATOMIC CHARGES
-----------------------
   0 C :   -0.272343
   1 C :    0.008891
   2 O :   -0.351606
   3 C :    0.536998
   4 O :   -0.575424
   5 C :   -0.218575
   6 C :    0.201994
   7 C :   -0.301534
   8 N :   -0.148063
   9 C :    0.294500
  10 S :   -0.639449
  11 N :   -0.214511
  12 C :    0.079883
  13 C :    0.004243
  14 C :   -0.191479
  15 C :   -0.133625
  16 C :   -0.289427
  17 C :    0.250728
  18 O :   -0.470724
  19 C :   -0.253748
  20 H :    0.116559
  21 H :    0.092940
  22 H :    0.118475
  23 H :    0.130512
  24 H :    0.088162
  25 H :    0.128149
  26 H :    0.131272
  27 H :    0.130242
  28 H :    0.256339
  29 H :    0.245324
  30 H :    0.174610
  31 H :    0.181919
  32 H :    0.188165
  33 H :    0.175681
  34 H :    0.333280
  35 H :    0.191642
Sum of atomic charges:   -0.0000000

LOEWDIN ATOMIC CHARGES
----------------------
   0 C :    0.111741
   1 C :   -0.039288
   2 O :    0.316150
   3 C :   -0.320871
   4 O :   -0.040442
   5 C :   -0.088982
   6 C :   -0.055127
   7 C :    0.129352
   8 N :    0.425772
   9 C :   -0.455780
  10 S :   -0.169487
  11 N :    0.413846
  12 C :   -0.033796
  13 C :   -0.022817
  14 C :    0.008267
  15 C :    0.032201
  16 C :    0.016766
  17 C :   -0.220413
  18 O :    0.345859
  19 C :    0.011015
  20 H :   -0.022030
  21 H :   -0.027613
  22 H :   -0.011901
  23 H :   -0.020535
  24 H :   -0.026726
  25 H :    0.001008
  26 H :   -0.002126
  27 H :    0.003795
  28 H :   -0.028217
  29 H :   -0.032407
  30 H :   -0.008788
  31 H :   -0.016709
  32 H :   -0.009447
  33 H :   -0.023103
  34 H :   -0.114357
  35 H :   -0.024810

  Mayer bond orders larger than 0.100000
B(  0-C ,  1-C ) :   0.9767 B(  0-C , 20-H ) :   0.9710 B(  0-C , 21-H ) :   0.9771
B(  0-C , 22-H ) :   0.9756 B(  1-C ,  2-O ) :   0.8802 B(  1-C , 23-H ) :   0.9732
B(  1-C , 24-H ) :   0.9752 B(  2-O ,  3-C ) :   1.2015 B(  3-C ,  4-O ) :   1.8390
B(  3-C ,  5-C ) :   1.0861 B(  5-C ,  6-C ) :   1.6582 B(  5-C , 12-C ) :   0.9798
B(  6-C ,  7-C ) :   0.9652 B(  6-C ,  8-N ) :   1.1123 B(  7-C , 25-H ) :   0.9878
B(  7-C , 26-H ) :   0.9629 B(  7-C , 27-H ) :   0.9506 B(  8-N ,  9-C ) :   1.2851
B(  8-N , 28-H ) :   0.9204 B(  9-C , 10-S ) :   1.3737 B(  9-C , 11-N ) :   1.3856
B( 11-N , 12-C ) :   0.9501 B( 11-N , 29-H ) :   0.9264 B( 12-C , 13-C ) :   0.9746
B( 12-C , 30-H ) :   0.9958 B( 13-C , 14-C ) :   1.3650 B( 13-C , 19-C ) :   1.2966
B( 14-C , 15-C ) :   1.3807 B( 14-C , 31-H ) :   0.9606 B( 15-C , 16-C ) :   1.3496
B( 15-C , 32-H ) :   0.9627 B( 16-C , 17-C ) :   1.3498 B( 16-C , 33-H ) :   0.9702
B( 17-C , 18-O ) :   1.0634 B( 17-C , 19-C ) :   1.3852 B( 18-O , 34-H ) :   0.9110
B( 19-C , 35-H ) :   0.9469

MP2 TOTAL ENERGY:    -1274.415799982 Eh
FINAL SINGLE POINT ENERGY     -1274.415799982326

DIPOLE MOMENT
-------------
                                X             Y             Z
Electronic contribution:      3.81176       2.55850     -13.99610
Nuclear contribution   :     -4.58460      -3.86459      16.71070
                        -----------------------------------------
Total Dipole Moment    :     -0.77284      -1.30609       2.71459
                        -----------------------------------------
Magnitude (a.u.)       :      3.11001
Magnitude (Debye)      :      7.90501

Rotational constants in cm-1:     0.014025     0.008135     0.006252
Rotational constants in MHz :   420.447779   243.896117   187.433249

                             ****ORCA TERMINATED NORMALLY****
TOTAL RUN TIME: 0 days 2 hours 15 minutes 31 seconds 130 msec
