                         Program Version 5.0.0 -  RELEASE  -
|  1> ! RI-MP2 cc-pVTZ cc-pVTZ/c TightSCF KeepDens NoKeepInts
|  2>
|  3> %pointcharges "srfp_output"
|  4>
|  5> *xyz  0  1
|  6>     C    -3.0914357    3.5416788   -7.4659196
|  7>     C    -4.2249209    2.5397378   -7.6946770
|  8>     O    -5.1834136    2.8842914   -6.7782157
|  9>     C    -6.1806543    2.0270320   -6.5523224
| 10>     O    -6.4961114    1.0575291   -7.2410459
| 11>     C    -7.0919142    2.3964928   -5.4110727
| 12>     C    -6.6144972    2.9569461   -4.2899303
| 13>     C    -5.2465834    3.4990001   -4.0036148
| 14>     N    -7.4233855    3.1473407   -3.1577195
| 15>     C    -8.6738559    2.6421119   -3.1217674
| 16>     S    -9.5383843    2.6795524   -1.6702639
| 17>     N    -9.1715157    2.1053468   -4.2961806
| 18>     C    -8.4427994    1.7550399   -5.4497617
| 19>     C    -9.1739063    2.4426618   -6.5908048
| 20>     C    -9.7639565    1.7646167   -7.6338749
| 21>     C   -10.4383791    2.4053685   -8.6540335
| 22>     C   -10.4752466    3.8005709   -8.7054556
| 23>     C    -9.9758316    4.5482096   -7.5639360
| 24>     O   -10.2326070    5.9261113   -7.4803625
| 25>     C    -9.3627787    3.8575020   -6.5180399
| 26>     H    -2.7640977    3.5257480   -6.4191185
| 27>     H    -3.2908882    4.5943327   -7.7011405
| 28>     H    -2.2386590    3.2800118   -8.1042704
| 29>     H    -4.5394058    2.4259081   -8.7393502
| 30>     H    -3.9044597    1.5190630   -7.4523607
| 31>     H    -5.1156931    3.7909436   -2.9544100
| 32>     H    -5.0566320    4.3922333   -4.6112681
| 33>     H    -4.5239176    2.7290442   -4.3004633
| 34>     H    -7.0036654    3.5635079   -2.3351586
| 35>     H   -10.1446958    1.8289412   -4.2463115
| 36>     H    -8.4412200    0.6746659   -5.6394438
| 37>     H    -9.7054510    0.6813729   -7.5833184
| 38>     H   -10.7649027    1.8083863   -9.5004321
| 39>     H   -10.8270388    4.2242456   -9.6414798
| 40>     H   -10.6804713    6.0573724   -8.3341290
| 41>     H    -8.8483711    4.3507921   -5.6986219
| 42> *
| 43>
| 44>                          ****END OF INPUT****

CARTESIAN COORDINATES (ANGSTROEM)
---------------------------------
  C     -3.091436    3.541679   -7.465920
  C     -4.224921    2.539738   -7.694677
  O     -5.183414    2.884291   -6.778216
  C     -6.180654    2.027032   -6.552322
  O     -6.496111    1.057529   -7.241046
  C     -7.091914    2.396493   -5.411073
  C     -6.614497    2.956946   -4.289930
  C     -5.246583    3.499000   -4.003615
  N     -7.423386    3.147341   -3.157719
  C     -8.673856    2.642112   -3.121767
  S     -9.538384    2.679552   -1.670264
  N     -9.171516    2.105347   -4.296181
  C     -8.442799    1.755040   -5.449762
  C     -9.173906    2.442662   -6.590805
  C     -9.763956    1.764617   -7.633875
  C    -10.438379    2.405368   -8.654034
  C    -10.475247    3.800571   -8.705456
  C     -9.975832    4.548210   -7.563936
  O    -10.232607    5.926111   -7.480362
  C     -9.362779    3.857502   -6.518040
  H     -2.764098    3.525748   -6.419118
  H     -3.290888    4.594333   -7.701140
  H     -2.238659    3.280012   -8.104270
  H     -4.539406    2.425908   -8.739350
  H     -3.904460    1.519063   -7.452361
  H     -5.115693    3.790944   -2.954410
  H     -5.056632    4.392233   -4.611268
  H     -4.523918    2.729044   -4.300463
  H     -7.003665    3.563508   -2.335159
  H    -10.144696    1.828941   -4.246312
  H     -8.441220    0.674666   -5.639444
  H     -9.705451    0.681373   -7.583318
  H    -10.764903    1.808386   -9.500432
  H    -10.827039    4.224246   -9.641480
  H    -10.680471    6.057372   -8.334129
  H     -8.848371    4.350792   -5.698622

 Total Charge           Charge          ....    0
 Multiplicity           Mult            ....    1
 Number of Electrons    NEL             ....  154
 Basis Dimension        Dim             ....  828

ORBITAL ENERGIES
----------------

  NO   OCC          E(Eh)            E(eV)
   0   2.0000     -91.942803     -2501.8909
   1   2.0000     -20.637092      -561.5638
   2   2.0000     -20.605954      -560.7165
   3   2.0000     -20.583173      -560.0966
   4   2.0000     -15.647446      -425.7886
   5   2.0000     -15.632621      -425.3852
   6   2.0000     -11.429508      -311.0127
   7   2.0000     -11.427029      -310.9453
   8   2.0000     -11.341654      -308.6221
   9   2.0000     -11.334689      -308.4326
  10   2.0000     -11.314793      -307.8912
  11   2.0000     -11.297877      -307.4309
  12   2.0000     -11.268748      -306.6382
  13   2.0000     -11.265016      -306.5367
  14   2.0000     -11.258490      -306.3591
  15   2.0000     -11.256055      -306.2928
  16   2.0000     -11.252581      -306.1983
  17   2.0000     -11.251459      -306.1678
  18   2.0000     -11.239981      -305.8554
  19   2.0000     -11.226483      -305.4881
  20   2.0000      -8.948379      -243.4978
  21   2.0000      -6.630311      -180.4199
  22   2.0000      -6.628446      -180.3692
  23   2.0000      -6.628070      -180.3589
  24   2.0000      -1.505341       -40.9624
  25   2.0000      -1.408325       -38.3225
  26   2.0000      -1.402928       -38.1756
  27   2.0000      -1.370958       -37.3057
  28   2.0000      -1.270925       -34.5836
  29   2.0000      -1.174452       -31.9585
  30   2.0000      -1.144102       -31.1326
  31   2.0000      -1.062403       -28.9095
  32   2.0000      -1.051533       -28.6137
  33   2.0000      -1.026755       -27.9394
  34   2.0000      -1.015027       -27.6203
  35   2.0000      -1.007050       -27.4032
  36   2.0000      -0.942976       -25.6597
  37   2.0000      -0.907931       -24.7061
  38   2.0000      -0.868192       -23.6247
  39   2.0000      -0.844735       -22.9864
  40   2.0000      -0.839441       -22.8424
  41   2.0000      -0.835223       -22.7276
  42   2.0000      -0.798997       -21.7418
  43   2.0000      -0.765759       -20.8374
  44   2.0000      -0.734636       -19.9905
  45   2.0000      -0.723029       -19.6746
  46   2.0000      -0.715438       -19.4681
  47   2.0000      -0.707877       -19.2623
  48   2.0000      -0.698397       -19.0044
  49   2.0000      -0.687714       -18.7136
  50   2.0000      -0.677700       -18.4411
  51   2.0000      -0.656407       -17.8617
  52   2.0000      -0.643353       -17.5065
  53   2.0000      -0.619203       -16.8494
  54   2.0000      -0.612421       -16.6648
  55   2.0000      -0.603818       -16.4307
  56   2.0000      -0.601524       -16.3683
  57   2.0000      -0.596285       -16.2257
  58   2.0000      -0.589750       -16.0479
  59   2.0000      -0.581551       -15.8248
  60   2.0000      -0.571978       -15.5643
  61   2.0000      -0.563750       -15.3404
  62   2.0000      -0.549052       -14.9405
  63   2.0000      -0.543543       -14.7905
  64   2.0000      -0.533396       -14.5144
  65   2.0000      -0.524686       -14.2774
  66   2.0000      -0.523331       -14.2406
  67   2.0000      -0.513225       -13.9656
  68   2.0000      -0.500233       -13.6120
  69   2.0000      -0.493809       -13.4372
  70   2.0000      -0.473370       -12.8810
  71   2.0000      -0.471146       -12.8205
  72   2.0000      -0.391784       -10.6610
  73   2.0000      -0.385849       -10.4995
  74   2.0000      -0.366372        -9.9695
  75   2.0000      -0.346852        -9.4383
  76   2.0000      -0.337092        -9.1727
  77   0.0000       0.052646         1.4326
  78   0.0000       0.094891         2.5821
  79   0.0000       0.126021         3.4292
  80   0.0000       0.128800         3.5048
  81   0.0000       0.135984         3.7003

MULLIKEN ATOMIC CHARGES
-----------------------
   0 C :   -0.284582
   1 C :    0.020317
   2 O :   -0.257651
   3 C :    0.449290
   4 O :   -0.571215
   5 C :   -0.264073
   6 C :    0.231375
   7 C :   -0.290523
   8 N :   -0.121264
   9 C :    0.369864
  10 S :   -0.760969
  11 N :   -0.209699
  12 C :    0.152410
  13 C :   -0.046609
  14 C :   -0.176907
  15 C :   -0.168024
  16 C :   -0.284451
  17 C :    0.308316
  18 O :   -0.471174
  19 C :   -0.289058
  20 H :    0.104697
  21 H :    0.104963
  22 H :    0.109083
  23 H :    0.115152
  24 H :    0.085982
  25 H :    0.127027
  26 H :    0.136833
  27 H :    0.126567
  28 H :    0.263857
  29 H :    0.244590
  30 H :    0.171718
  31 H :    0.177989
  32 H :    0.193800
  33 H :    0.189463
  34 H :    0.332555
  35 H :    0.180350
Sum of atomic charges:   -0.0000000

LOEWDIN ATOMIC CHARGES
----------------------
   0 C :    0.107190
   1 C :   -0.072427
   2 O :    0.400404
   3 C :   -0.384087
   4 O :    0.003409
   5 C :   -0.091874
   6 C :   -0.048990
   7 C :    0.137155
   8 N :    0.430951
   9 C :   -0.377614
  10 S :   -0.272061
  11 N :    0.435247
  12 C :   -0.075126
  13 C :   -0.044878
  14 C :   -0.006049
  15 C :    0.025467
  16 C :    0.022755
  17 C :   -0.151645
  18 O :    0.305921
  19 C :    0.014880
  20 H :   -0.022646
  21 H :   -0.025137
  22 H :   -0.017208
  23 H :   -0.021935
  24 H :   -0.023606
  25 H :   -0.006092
  26 H :   -0.003339
  27 H :   -0.006170
  28 H :   -0.017930
  29 H :   -0.026207
  30 H :    0.001426
  31 H :   -0.016595
  32 H :   -0.008170
  33 H :   -0.018971
  34 H :   -0.121005
  35 H :   -0.025044

  Mayer bond orders larger than 0.100000
B(  0-C ,  1-C ) :   0.9776 B(  0-C , 20-H ) :   0.9758 B(  0-C , 21-H ) :   0.9743
B(  0-C , 22-H ) :   0.9796 B(  1-C ,  2-O ) :   0.9004 B(  1-C , 23-H ) :   0.9744
B(  1-C , 24-H ) :   0.9745 B(  2-O ,  3-C ) :   1.2678 B(  3-C ,  4-O ) :   1.8908
B(  3-C ,  5-C ) :   1.0665 B(  5-C ,  6-C ) :   1.6584 B(  5-C , 12-C ) :   0.9363
B(  6-C ,  7-C ) :   0.9476 B(  6-C ,  8-N ) :   1.1191 B(  7-C , 25-H ) :   0.9888
B(  7-C , 26-H ) :   0.9562 B(  7-C , 27-H ) :   0.9682 B(  8-N ,  9-C ) :   1.3191
B(  8-N , 28-H ) :   0.9152 B(  9-C , 10-S ) :   1.2113 B(  9-C , 11-N ) :   1.3900
B( 11-N , 12-C ) :   1.0155 B( 11-N , 29-H ) :   0.9271 B( 12-C , 13-C ) :   0.9317
B( 12-C , 30-H ) :   0.9950 B( 13-C , 14-C ) :   1.3939 B( 13-C , 19-C ) :   1.3197
B( 14-C , 15-C ) :   1.3162 B( 14-C , 31-H ) :   0.9647 B( 15-C , 16-C ) :   1.4053
B( 15-C , 32-H ) :   0.9629 B( 16-C , 17-C ) :   1.2972 B( 16-C , 33-H ) :   0.9662
B( 17-C , 18-O ) :   1.0648 B( 17-C , 19-C ) :   1.4185 B( 18-O , 34-H ) :   0.9199
B( 19-C , 35-H ) :   0.9534

MP2 TOTAL ENERGY:    -1274.449090538 Eh
FINAL SINGLE POINT ENERGY     -1274.449090537585

DIPOLE MOMENT
-------------
                                X             Y             Z
Electronic contribution:    -14.45810      -2.06577       8.08819
Nuclear contribution   :     17.17571       2.77898     -10.62939
                        -----------------------------------------
Total Dipole Moment    :      2.71761       0.71321      -2.54120
                        -----------------------------------------
Magnitude (a.u.)       :      3.78837
Magnitude (Debye)      :      9.62928

Rotational constants in cm-1:     0.010069     0.009271     0.005967
Rotational constants in MHz :   301.847497   277.943616   178.893763

                             ****ORCA TERMINATED NORMALLY****
TOTAL RUN TIME: 0 days 1 hours 57 minutes 34 seconds 652 msec
