                         Program Version 5.0.0 -  RELEASE  -
|  1> ! RI-MP2 cc-pVTZ cc-pVTZ/c TightSCF KeepDens NoKeepInts
|  2>
|  3> *xyz  0  1
|  4>     C    -3.0914357    3.5416788   -7.4659196
|  5>     C    -4.2249209    2.5397378   -7.6946770
|  6>     O    -5.1834136    2.8842914   -6.7782157
|  7>     C    -6.1806543    2.0270320   -6.5523224
|  8>     O    -6.4961114    1.0575291   -7.2410459
|  9>     C    -7.0919142    2.3964928   -5.4110727
| 10>     C    -6.6144972    2.9569461   -4.2899303
| 11>     C    -5.2465834    3.4990001   -4.0036148
| 12>     N    -7.4233855    3.1473407   -3.1577195
| 13>     C    -8.6738559    2.6421119   -3.1217674
| 14>     S    -9.5383843    2.6795524   -1.6702639
| 15>     N    -9.1715157    2.1053468   -4.2961806
| 16>     C    -8.4427994    1.7550399   -5.4497617
| 17>     C    -9.1739063    2.4426618   -6.5908048
| 18>     C    -9.7639565    1.7646167   -7.6338749
| 19>     C   -10.4383791    2.4053685   -8.6540335
| 20>     C   -10.4752466    3.8005709   -8.7054556
| 21>     C    -9.9758316    4.5482096   -7.5639360
| 22>     O   -10.2326070    5.9261113   -7.4803625
| 23>     C    -9.3627787    3.8575020   -6.5180399
| 24>     H    -2.7640977    3.5257480   -6.4191185
| 25>     H    -3.2908882    4.5943327   -7.7011405
| 26>     H    -2.2386590    3.2800118   -8.1042704
| 27>     H    -4.5394058    2.4259081   -8.7393502
| 28>     H    -3.9044597    1.5190630   -7.4523607
| 29>     H    -5.1156931    3.7909436   -2.9544100
| 30>     H    -5.0566320    4.3922333   -4.6112681
| 31>     H    -4.5239176    2.7290442   -4.3004633
| 32>     H    -7.0036654    3.5635079   -2.3351586
| 33>     H   -10.1446958    1.8289412   -4.2463115
| 34>     H    -8.4412200    0.6746659   -5.6394438
| 35>     H    -9.7054510    0.6813729   -7.5833184
| 36>     H   -10.7649027    1.8083863   -9.5004321
| 37>     H   -10.8270388    4.2242456   -9.6414798
| 38>     H   -10.6804713    6.0573724   -8.3341290
| 39>     H    -8.8483711    4.3507921   -5.6986219
| 40> *
| 41>
| 42>                          ****END OF INPUT****

CARTESIAN COORDINATES (ANGSTROEM)
---------------------------------
  C     -3.091436    3.541679   -7.465920
  C     -4.224921    2.539738   -7.694677
  O     -5.183414    2.884291   -6.778216
  C     -6.180654    2.027032   -6.552322
  O     -6.496111    1.057529   -7.241046
  C     -7.091914    2.396493   -5.411073
  C     -6.614497    2.956946   -4.289930
  C     -5.246583    3.499000   -4.003615
  N     -7.423386    3.147341   -3.157719
  C     -8.673856    2.642112   -3.121767
  S     -9.538384    2.679552   -1.670264
  N     -9.171516    2.105347   -4.296181
  C     -8.442799    1.755040   -5.449762
  C     -9.173906    2.442662   -6.590805
  C     -9.763956    1.764617   -7.633875
  C    -10.438379    2.405368   -8.654034
  C    -10.475247    3.800571   -8.705456
  C     -9.975832    4.548210   -7.563936
  O    -10.232607    5.926111   -7.480362
  C     -9.362779    3.857502   -6.518040
  H     -2.764098    3.525748   -6.419118
  H     -3.290888    4.594333   -7.701140
  H     -2.238659    3.280012   -8.104270
  H     -4.539406    2.425908   -8.739350
  H     -3.904460    1.519063   -7.452361
  H     -5.115693    3.790944   -2.954410
  H     -5.056632    4.392233   -4.611268
  H     -4.523918    2.729044   -4.300463
  H     -7.003665    3.563508   -2.335159
  H    -10.144696    1.828941   -4.246312
  H     -8.441220    0.674666   -5.639444
  H     -9.705451    0.681373   -7.583318
  H    -10.764903    1.808386   -9.500432
  H    -10.827039    4.224246   -9.641480
  H    -10.680471    6.057372   -8.334129
  H     -8.848371    4.350792   -5.698622

 Total Charge           Charge          ....    0
 Multiplicity           Mult            ....    1
 Number of Electrons    NEL             ....  154
 Basis Dimension        Dim             ....  828

ORBITAL ENERGIES
----------------

  NO   OCC          E(Eh)            E(eV)
   0   2.0000     -91.887739     -2500.3925
   1   2.0000     -20.622711      -561.1725
   2   2.0000     -20.592533      -560.3513
   3   2.0000     -20.550416      -559.2052
   4   2.0000     -15.630100      -425.3166
   5   2.0000     -15.606978      -424.6875
   6   2.0000     -11.399161      -310.1869
   7   2.0000     -11.386282      -309.8365
   8   2.0000     -11.329452      -308.2901
   9   2.0000     -11.318566      -307.9938
  10   2.0000     -11.300362      -307.4985
  11   2.0000     -11.299106      -307.4643
  12   2.0000     -11.262015      -306.4550
  13   2.0000     -11.256499      -306.3049
  14   2.0000     -11.248575      -306.0893
  15   2.0000     -11.246820      -306.0415
  16   2.0000     -11.244046      -305.9661
  17   2.0000     -11.237304      -305.7826
  18   2.0000     -11.235647      -305.7375
  19   2.0000     -11.224852      -305.4438
  20   2.0000      -8.891523      -241.9506
  21   2.0000      -6.572958      -178.8593
  22   2.0000      -6.571087      -178.8084
  23   2.0000      -6.570511      -178.7927
  24   2.0000      -1.488683       -40.5091
  25   2.0000      -1.393807       -37.9274
  26   2.0000      -1.371266       -37.3140
  27   2.0000      -1.350146       -36.7393
  28   2.0000      -1.253020       -34.0964
  29   2.0000      -1.156514       -31.4704
  30   2.0000      -1.128099       -30.6971
  31   2.0000      -1.056117       -28.7384
  32   2.0000      -1.042486       -28.3675
  33   2.0000      -1.011102       -27.5135
  34   2.0000      -1.003919       -27.3180
  35   2.0000      -0.980042       -26.6683
  36   2.0000      -0.924355       -25.1530
  37   2.0000      -0.904090       -24.6015
  38   2.0000      -0.847283       -23.0558
  39   2.0000      -0.831606       -22.6291
  40   2.0000      -0.826582       -22.4924
  41   2.0000      -0.822005       -22.3679
  42   2.0000      -0.783863       -21.3300
  43   2.0000      -0.745969       -20.2989
  44   2.0000      -0.719779       -19.5862
  45   2.0000      -0.705933       -19.2094
  46   2.0000      -0.696637       -18.9565
  47   2.0000      -0.688911       -18.7462
  48   2.0000      -0.684086       -18.6149
  49   2.0000      -0.672930       -18.3113
  50   2.0000      -0.660254       -17.9664
  51   2.0000      -0.646349       -17.5880
  52   2.0000      -0.632659       -17.2155
  53   2.0000      -0.607400       -16.5282
  54   2.0000      -0.604155       -16.4399
  55   2.0000      -0.592698       -16.1281
  56   2.0000      -0.588761       -16.0210
  57   2.0000      -0.583076       -15.8663
  58   2.0000      -0.576363       -15.6836
  59   2.0000      -0.573476       -15.6051
  60   2.0000      -0.562920       -15.3178
  61   2.0000      -0.557096       -15.1594
  62   2.0000      -0.545880       -14.8542
  63   2.0000      -0.528266       -14.3749
  64   2.0000      -0.518142       -14.0994
  65   2.0000      -0.512348       -13.9417
  66   2.0000      -0.502903       -13.6847
  67   2.0000      -0.495690       -13.4884
  68   2.0000      -0.483766       -13.1639
  69   2.0000      -0.468677       -12.7533
  70   2.0000      -0.462680       -12.5902
  71   2.0000      -0.450058       -12.2467
  72   2.0000      -0.358399        -9.7525
  73   2.0000      -0.342726        -9.3261
  74   2.0000      -0.323537        -8.8039
  75   2.0000      -0.319021        -8.6810
  76   2.0000      -0.311351        -8.4723
  77   0.0000       0.077850         2.1184
  78   0.0000       0.109750         2.9865
  79   0.0000       0.115638         3.1467
  80   0.0000       0.134748         3.6667
  81   0.0000       0.138379         3.7655

MULLIKEN ATOMIC CHARGES
-----------------------
   0 C :   -0.280375
   1 C :    0.027389
   2 O :   -0.268737
   3 C :    0.386696
   4 O :   -0.426754
   5 C :   -0.252831
   6 C :    0.196488
   7 C :   -0.296751
   8 N :   -0.105887
   9 C :    0.197896
  10 S :   -0.454037
  11 N :   -0.190465
  12 C :    0.138929
  13 C :   -0.052256
  14 C :   -0.100784
  15 C :   -0.135419
  16 C :   -0.275439
  17 C :    0.287663
  18 O :   -0.366985
  19 C :   -0.241399
  20 H :    0.093390
  21 H :    0.103606
  22 H :    0.096699
  23 H :    0.108096
  24 H :    0.075614
  25 H :    0.106040
  26 H :    0.133832
  27 H :    0.114680
  28 H :    0.201917
  29 H :    0.189048
  30 H :    0.152991
  31 H :    0.138111
  32 H :    0.154675
  33 H :    0.140935
  34 H :    0.243104
  35 H :    0.160322
Sum of atomic charges:   -0.0000000

LOEWDIN ATOMIC CHARGES
----------------------
   0 C :    0.102177
   1 C :   -0.075159
   2 O :    0.389900
   3 C :   -0.409829
   4 O :    0.094864
   5 C :   -0.091837
   6 C :   -0.074853
   7 C :    0.124422
   8 N :    0.407366
   9 C :   -0.420523
  10 S :   -0.079469
  11 N :    0.413859
  12 C :   -0.082898
  13 C :   -0.034658
  14 C :    0.007683
  15 C :    0.030323
  16 C :    0.010788
  17 C :   -0.144438
  18 O :    0.345149
  19 C :    0.028674
  20 H :   -0.027231
  21 H :   -0.025851
  22 H :   -0.023037
  23 H :   -0.023754
  24 H :   -0.027830
  25 H :   -0.018464
  26 H :   -0.007595
  27 H :   -0.012363
  28 H :   -0.049774
  29 H :   -0.053529
  30 H :   -0.005134
  31 H :   -0.023496
  32 H :   -0.018622
  33 H :   -0.036516
  34 H :   -0.161467
  35 H :   -0.026876

  Mayer bond orders larger than 0.100000
B(  0-C ,  1-C ) :   0.9732 B(  0-C , 20-H ) :   0.9778 B(  0-C , 21-H ) :   0.9747
B(  0-C , 22-H ) :   0.9821 B(  1-C ,  2-O ) :   0.9219 B(  1-C , 23-H ) :   0.9762
B(  1-C , 24-H ) :   0.9773 B(  2-O ,  3-C ) :   1.2198 B(  3-C ,  4-O ) :   1.9716
B(  3-C ,  5-C ) :   1.0389 B(  5-C ,  6-C ) :   1.6709 B(  5-C , 12-C ) :   0.9352
B(  6-C ,  7-C ) :   0.9452 B(  6-C ,  8-N ) :   1.1235 B(  7-C , 25-H ) :   0.9948
B(  7-C , 26-H ) :   0.9599 B(  7-C , 27-H ) :   0.9740 B(  8-N ,  9-C ) :   1.2199
B(  8-N , 28-H ) :   0.9424 B(  9-C , 10-S ) :   1.5689 B(  9-C , 11-N ) :   1.2871
B( 11-N , 12-C ) :   1.0257 B( 11-N , 29-H ) :   0.9532 B( 12-C , 13-C ) :   0.9469
B( 12-C , 30-H ) :   0.9950 B( 13-C , 14-C ) :   1.4273 B( 13-C , 19-C ) :   1.3167
B( 14-C , 15-C ) :   1.3246 B( 14-C , 31-H ) :   0.9707 B( 15-C , 16-C ) :   1.4272
B( 15-C , 32-H ) :   0.9742 B( 16-C , 17-C ) :   1.2790 B( 16-C , 33-H ) :   0.9816
B( 17-C , 18-O ) :   1.0754 B( 17-C , 19-C ) :   1.4292 B( 18-O , 34-H ) :   0.9813
B( 19-C , 35-H ) :   0.9636

MP2 TOTAL ENERGY:    -1274.314318003 Eh
FINAL SINGLE POINT ENERGY     -1274.314318002903

DIPOLE MOMENT
-------------
                                X             Y             Z
Electronic contribution:    -15.34479      -2.42303       9.03288
Nuclear contribution   :     17.17571       2.77898     -10.62939
                        -----------------------------------------
Total Dipole Moment    :      1.83092       0.35595      -1.59651
                        -----------------------------------------
Magnitude (a.u.)       :      2.45516
Magnitude (Debye)      :      6.24051

Rotational constants in cm-1:     0.010069     0.009271     0.005967
Rotational constants in MHz :   301.847497   277.943616   178.893763

                             ****ORCA TERMINATED NORMALLY****
TOTAL RUN TIME: 0 days 1 hours 29 minutes 1 seconds 397 msec
