                         Program Version 5.0.0 -  RELEASE  -
|  1> ! RI-MP2 cc-pVTZ cc-pVTZ/c TightSCF KeepDens NoKeepInts
|  2>
|  3> *xyz  0  1
|  4>     C    12.4952991  -13.3006974    2.3827951
|  5>     C    13.5598085  -12.1978181    2.5971825
|  6>     O    13.0487401  -11.1789098    3.4083834
|  7>     C    13.7449667  -10.4975176    4.3655506
|  8>     O    14.8198881  -10.9204797    4.7357480
|  9>     C    13.0301824   -9.4292615    5.0864549
| 10>     C    11.9844698   -8.7548956    4.6420404
| 11>     C    11.3410518   -8.9262140    3.2773593
| 12>     N    11.4715020   -7.7251432    5.3418485
| 13>     C    12.2089896   -7.0055035    6.2957297
| 14>     S    11.7418192   -5.5700943    6.9722650
| 15>     N    13.3521656   -7.6417078    6.6722662
| 16>     C    13.6286523   -9.0568112    6.4570923
| 17>     C    13.0546618   -9.9294318    7.5197430
| 18>     C    13.7933502  -10.1766354    8.6846720
| 19>     C    13.2901162  -10.9155490    9.7504518
| 20>     C    11.9927883  -11.4064061    9.7041774
| 21>     C    11.2218041  -11.1165838    8.5711555
| 22>     O     9.9791579  -11.7180669    8.4948203
| 23>     C    11.7286202  -10.3862982    7.4741014
| 24>     H    11.5474253  -12.9113079    1.9915130
| 25>     H    12.3878844  -13.9053823    3.2916448
| 26>     H    12.8740871  -13.9302447    1.5683129
| 27>     H    14.4538736  -12.6615308    3.0317040
| 28>     H    13.9233622  -11.7472528    1.6655124
| 29>     H    12.0862377   -9.1502251    2.5042404
| 30>     H    10.8082214   -8.0502933    2.8874296
| 31>     H    10.6396640   -9.7695670    3.2766866
| 32>     H    10.5597751   -7.3361338    5.1335404
| 33>     H    13.8958482   -7.3042461    7.4574426
| 34>     H    14.7158742   -9.1772799    6.5385451
| 35>     H    14.8222995   -9.8299033    8.6637842
| 36>     H    13.8931793  -10.9850316   10.6509423
| 37>     H    11.5438076  -11.9622923   10.5219818
| 38>     H     9.8855626  -12.2063550    9.3312079
| 39>     H    11.1226158  -10.2045241    6.5914277
| 40> *
| 41>
| 42>                          ****END OF INPUT****

CARTESIAN COORDINATES (ANGSTROEM)
---------------------------------
  C     12.495299  -13.300697    2.382795
  C     13.559809  -12.197818    2.597183
  O     13.048740  -11.178910    3.408383
  C     13.744967  -10.497518    4.365551
  O     14.819888  -10.920480    4.735748
  C     13.030182   -9.429262    5.086455
  C     11.984470   -8.754896    4.642040
  C     11.341052   -8.926214    3.277359
  N     11.471502   -7.725143    5.341849
  C     12.208990   -7.005503    6.295730
  S     11.741819   -5.570094    6.972265
  N     13.352166   -7.641708    6.672266
  C     13.628652   -9.056811    6.457092
  C     13.054662   -9.929432    7.519743
  C     13.793350  -10.176635    8.684672
  C     13.290116  -10.915549    9.750452
  C     11.992788  -11.406406    9.704177
  C     11.221804  -11.116584    8.571155
  O      9.979158  -11.718067    8.494820
  C     11.728620  -10.386298    7.474101
  H     11.547425  -12.911308    1.991513
  H     12.387884  -13.905382    3.291645
  H     12.874087  -13.930245    1.568313
  H     14.453874  -12.661531    3.031704
  H     13.923362  -11.747253    1.665512
  H     12.086238   -9.150225    2.504240
  H     10.808221   -8.050293    2.887430
  H     10.639664   -9.769567    3.276687
  H     10.559775   -7.336134    5.133540
  H     13.895848   -7.304246    7.457443
  H     14.715874   -9.177280    6.538545
  H     14.822299   -9.829903    8.663784
  H     13.893179  -10.985032   10.650942
  H     11.543808  -11.962292   10.521982
  H      9.885563  -12.206355    9.331208
  H     11.122616  -10.204524    6.591428

 Total Charge           Charge          ....    0
 Multiplicity           Mult            ....    1
 Number of Electrons    NEL             ....  154
 Basis Dimension        Dim             ....  828

ORBITAL ENERGIES
----------------

  NO   OCC          E(Eh)            E(eV)
   0   2.0000     -91.894651     -2500.5806
   1   2.0000     -20.594502      -560.4049
   2   2.0000     -20.591471      -560.3224
   3   2.0000     -20.538179      -558.8723
   4   2.0000     -15.628507      -425.2733
   5   2.0000     -15.606717      -424.6804
   6   2.0000     -11.389478      -309.9234
   7   2.0000     -11.389335      -309.9196
   8   2.0000     -11.323898      -308.1389
   9   2.0000     -11.314104      -307.8724
  10   2.0000     -11.299462      -307.4740
  11   2.0000     -11.292534      -307.2855
  12   2.0000     -11.253867      -306.2333
  13   2.0000     -11.252954      -306.2084
  14   2.0000     -11.251038      -306.1563
  15   2.0000     -11.249860      -306.1243
  16   2.0000     -11.241978      -305.9098
  17   2.0000     -11.239602      -305.8451
  18   2.0000     -11.233541      -305.6802
  19   2.0000     -11.232391      -305.6489
  20   2.0000      -8.899300      -242.1623
  21   2.0000      -6.580813      -179.0730
  22   2.0000      -6.578873      -179.0202
  23   2.0000      -6.578228      -179.0027
  24   2.0000      -1.456744       -39.6400
  25   2.0000      -1.402347       -38.1598
  26   2.0000      -1.356852       -36.9218
  27   2.0000      -1.349304       -36.7164
  28   2.0000      -1.247583       -33.9485
  29   2.0000      -1.162320       -31.6283
  30   2.0000      -1.125448       -30.6250
  31   2.0000      -1.050951       -28.5978
  32   2.0000      -1.035661       -28.1818
  33   2.0000      -1.012215       -27.5438
  34   2.0000      -0.997926       -27.1549
  35   2.0000      -0.991275       -26.9740
  36   2.0000      -0.926451       -25.2100
  37   2.0000      -0.898047       -24.4371
  38   2.0000      -0.853526       -23.2256
  39   2.0000      -0.841541       -22.8995
  40   2.0000      -0.832958       -22.6659
  41   2.0000      -0.814709       -22.1694
  42   2.0000      -0.763969       -20.7887
  43   2.0000      -0.743386       -20.2286
  44   2.0000      -0.725440       -19.7402
  45   2.0000      -0.700695       -19.0669
  46   2.0000      -0.692625       -18.8473
  47   2.0000      -0.679239       -18.4830
  48   2.0000      -0.670392       -18.2423
  49   2.0000      -0.662093       -18.0165
  50   2.0000      -0.651158       -17.7189
  51   2.0000      -0.641963       -17.4687
  52   2.0000      -0.641341       -17.4518
  53   2.0000      -0.610888       -16.6231
  54   2.0000      -0.601649       -16.3717
  55   2.0000      -0.597763       -16.2660
  56   2.0000      -0.589349       -16.0370
  57   2.0000      -0.581239       -15.8163
  58   2.0000      -0.575494       -15.6600
  59   2.0000      -0.561633       -15.2828
  60   2.0000      -0.554423       -15.0866
  61   2.0000      -0.546645       -14.8750
  62   2.0000      -0.537543       -14.6273
  63   2.0000      -0.531037       -14.4503
  64   2.0000      -0.523887       -14.2557
  65   2.0000      -0.512669       -13.9504
  66   2.0000      -0.498916       -13.5762
  67   2.0000      -0.491376       -13.3710
  68   2.0000      -0.482750       -13.1363
  69   2.0000      -0.460992       -12.5442
  70   2.0000      -0.454038       -12.3550
  71   2.0000      -0.446692       -12.1551
  72   2.0000      -0.365076        -9.9342
  73   2.0000      -0.352219        -9.5844
  74   2.0000      -0.331386        -9.0175
  75   2.0000      -0.320399        -8.7185
  76   2.0000      -0.318143        -8.6571
  77   0.0000       0.080083         2.1792
  78   0.0000       0.109318         2.9747
  79   0.0000       0.118622         3.2279
  80   0.0000       0.130946         3.5632
  81   0.0000       0.133092         3.6216

MULLIKEN ATOMIC CHARGES
-----------------------
   0 C :   -0.261800
   1 C :    0.013091
   2 O :   -0.326862
   3 C :    0.462962
   4 O :   -0.432963
   5 C :   -0.167419
   6 C :    0.089312
   7 C :   -0.303043
   8 N :   -0.117927
   9 C :    0.211937
  10 S :   -0.417064
  11 N :   -0.166427
  12 C :   -0.012344
  13 C :    0.134276
  14 C :   -0.205257
  15 C :   -0.115185
  16 C :   -0.268441
  17 C :    0.302952
  18 O :   -0.372402
  19 C :   -0.261137
  20 H :    0.093270
  21 H :    0.105795
  22 H :    0.086177
  23 H :    0.114651
  24 H :    0.082878
  25 H :    0.122475
  26 H :    0.112720
  27 H :    0.125207
  28 H :    0.197518
  29 H :    0.180828
  30 H :    0.158733
  31 H :    0.138642
  32 H :    0.156410
  33 H :    0.129108
  34 H :    0.241500
  35 H :    0.167829
Sum of atomic charges:   -0.0000000

LOEWDIN ATOMIC CHARGES
----------------------
   0 C :    0.113828
   1 C :   -0.053392
   2 O :    0.332778
   3 C :   -0.424481
   4 O :    0.108614
   5 C :   -0.088931
   6 C :   -0.120665
   7 C :    0.128209
   8 N :    0.415624
   9 C :   -0.434249
  10 S :   -0.021125
  11 N :    0.398947
  12 C :   -0.051246
  13 C :   -0.039558
  14 C :    0.015522
  15 C :    0.038235
  16 C :   -0.000174
  17 C :   -0.158360
  18 O :    0.362222
  19 C :    0.037051
  20 H :   -0.030894
  21 H :   -0.025331
  22 H :   -0.023436
  23 H :   -0.028013
  24 H :   -0.035821
  25 H :   -0.010516
  26 H :   -0.019655
  27 H :   -0.013198
  28 H :   -0.048680
  29 H :   -0.060050
  30 H :    0.001408
  31 H :   -0.029162
  32 H :   -0.018692
  33 H :   -0.031413
  34 H :   -0.156453
  35 H :   -0.028941

  Mayer bond orders larger than 0.100000
B(  0-C ,  1-C ) :   0.9708 B(  0-C , 20-H ) :   0.9786 B(  0-C , 21-H ) :   0.9791
B(  0-C , 22-H ) :   0.9757 B(  1-C ,  2-O ) :   0.9077 B(  1-C , 23-H ) :   0.9761
B(  1-C , 24-H ) :   0.9824 B(  2-O ,  3-C ) :   1.1636 B(  3-C ,  4-O ) :   1.9764
B(  3-C ,  5-C ) :   1.0287 B(  5-C ,  6-C ) :   1.6342 B(  5-C , 12-C ) :   0.9699
B(  6-C ,  7-C ) :   0.9583 B(  6-C ,  8-N ) :   1.1757 B(  7-C , 25-H ) :   0.9715
B(  7-C , 26-H ) :   0.9859 B(  7-C , 27-H ) :   0.9646 B(  8-N ,  9-C ) :   1.1385
B(  8-N , 28-H ) :   0.9533 B(  9-C , 10-S ) :   1.6414 B(  9-C , 11-N ) :   1.3040
B( 11-N , 12-C ) :   0.9514 B( 11-N , 29-H ) :   0.9605 B( 12-C , 13-C ) :   0.9692
B( 12-C , 30-H ) :   0.9999 B( 13-C , 14-C ) :   1.3434 B( 13-C , 19-C ) :   1.3699
B( 14-C , 15-C ) :   1.3999 B( 14-C , 31-H ) :   0.9764 B( 15-C , 16-C ) :   1.3611
B( 15-C , 32-H ) :   0.9694 B( 16-C , 17-C ) :   1.3400 B( 16-C , 33-H ) :   0.9873
B( 17-C , 18-O ) :   1.0876 B( 17-C , 19-C ) :   1.3758 B( 18-O , 34-H ) :   0.9804
B( 19-C , 35-H ) :   0.9534

MP2 TOTAL ENERGY:    -1274.325304344 Eh
FINAL SINGLE POINT ENERGY     -1274.325304344071

DIPOLE MOMENT
-------------
                                X             Y             Z
Electronic contribution:      0.54621      14.07785      11.33908
Nuclear contribution   :     -0.90932     -15.61203     -11.93244
                        -----------------------------------------
Total Dipole Moment    :     -0.36310      -1.53418      -0.59336
                        -----------------------------------------
Magnitude (a.u.)       :      1.68452
Magnitude (Debye)      :      4.28171

Rotational constants in cm-1:     0.011006     0.008436     0.006042
Rotational constants in MHz :   329.941519   252.901521   181.131403

                             ****ORCA TERMINATED NORMALLY****
TOTAL RUN TIME: 0 days 1 hours 47 minutes 45 seconds 526 msec
