                         Program Version 5.0.0 -  RELEASE  -
|  1> ! RI-MP2 cc-pVTZ cc-pVTZ/c TightSCF KeepDens NoKeepInts
|  2>
|  3> %pointcharges "srfp_output"
|  4>
|  5> *xyz  0  1
|  6>     C    12.4952991  -13.3006974    2.3827951
|  7>     C    13.5598085  -12.1978181    2.5971825
|  8>     O    13.0487401  -11.1789098    3.4083834
|  9>     C    13.7449667  -10.4975176    4.3655506
| 10>     O    14.8198881  -10.9204797    4.7357480
| 11>     C    13.0301824   -9.4292615    5.0864549
| 12>     C    11.9844698   -8.7548956    4.6420404
| 13>     C    11.3410518   -8.9262140    3.2773593
| 14>     N    11.4715020   -7.7251432    5.3418485
| 15>     C    12.2089896   -7.0055035    6.2957297
| 16>     S    11.7418192   -5.5700943    6.9722650
| 17>     N    13.3521656   -7.6417078    6.6722662
| 18>     C    13.6286523   -9.0568112    6.4570923
| 19>     C    13.0546618   -9.9294318    7.5197430
| 20>     C    13.7933502  -10.1766354    8.6846720
| 21>     C    13.2901162  -10.9155490    9.7504518
| 22>     C    11.9927883  -11.4064061    9.7041774
| 23>     C    11.2218041  -11.1165838    8.5711555
| 24>     O     9.9791579  -11.7180669    8.4948203
| 25>     C    11.7286202  -10.3862982    7.4741014
| 26>     H    11.5474253  -12.9113079    1.9915130
| 27>     H    12.3878844  -13.9053823    3.2916448
| 28>     H    12.8740871  -13.9302447    1.5683129
| 29>     H    14.4538736  -12.6615308    3.0317040
| 30>     H    13.9233622  -11.7472528    1.6655124
| 31>     H    12.0862377   -9.1502251    2.5042404
| 32>     H    10.8082214   -8.0502933    2.8874296
| 33>     H    10.6396640   -9.7695670    3.2766866
| 34>     H    10.5597751   -7.3361338    5.1335404
| 35>     H    13.8958482   -7.3042461    7.4574426
| 36>     H    14.7158742   -9.1772799    6.5385451
| 37>     H    14.8222995   -9.8299033    8.6637842
| 38>     H    13.8931793  -10.9850316   10.6509423
| 39>     H    11.5438076  -11.9622923   10.5219818
| 40>     H     9.8855626  -12.2063550    9.3312079
| 41>     H    11.1226158  -10.2045241    6.5914277
| 42> *
| 43>
| 44>                          ****END OF INPUT****

CARTESIAN COORDINATES (ANGSTROEM)
---------------------------------
  C     12.495299  -13.300697    2.382795
  C     13.559809  -12.197818    2.597183
  O     13.048740  -11.178910    3.408383
  C     13.744967  -10.497518    4.365551
  O     14.819888  -10.920480    4.735748
  C     13.030182   -9.429262    5.086455
  C     11.984470   -8.754896    4.642040
  C     11.341052   -8.926214    3.277359
  N     11.471502   -7.725143    5.341849
  C     12.208990   -7.005503    6.295730
  S     11.741819   -5.570094    6.972265
  N     13.352166   -7.641708    6.672266
  C     13.628652   -9.056811    6.457092
  C     13.054662   -9.929432    7.519743
  C     13.793350  -10.176635    8.684672
  C     13.290116  -10.915549    9.750452
  C     11.992788  -11.406406    9.704177
  C     11.221804  -11.116584    8.571155
  O      9.979158  -11.718067    8.494820
  C     11.728620  -10.386298    7.474101
  H     11.547425  -12.911308    1.991513
  H     12.387884  -13.905382    3.291645
  H     12.874087  -13.930245    1.568313
  H     14.453874  -12.661531    3.031704
  H     13.923362  -11.747253    1.665512
  H     12.086238   -9.150225    2.504240
  H     10.808221   -8.050293    2.887430
  H     10.639664   -9.769567    3.276687
  H     10.559775   -7.336134    5.133540
  H     13.895848   -7.304246    7.457443
  H     14.715874   -9.177280    6.538545
  H     14.822299   -9.829903    8.663784
  H     13.893179  -10.985032   10.650942
  H     11.543808  -11.962292   10.521982
  H      9.885563  -12.206355    9.331208
  H     11.122616  -10.204524    6.591428

 Total Charge           Charge          ....    0
 Multiplicity           Mult            ....    1
 Number of Electrons    NEL             ....  154
 Basis Dimension        Dim             ....  828

ORBITAL ENERGIES
----------------

  NO   OCC          E(Eh)            E(eV)
   0   2.0000     -91.815395     -2498.4239
   1   2.0000     -20.482153      -557.3477
   2   2.0000     -20.473169      -557.1033
   3   2.0000     -20.445299      -556.3449
   4   2.0000     -15.516363      -422.2217
   5   2.0000     -15.503027      -421.8588
   6   2.0000     -11.299294      -307.4694
   7   2.0000     -11.293884      -307.3222
   8   2.0000     -11.209091      -305.0149
   9   2.0000     -11.198466      -304.7258
  10   2.0000     -11.187583      -304.4296
  11   2.0000     -11.165040      -303.8162
  12   2.0000     -11.138928      -303.1056
  13   2.0000     -11.135420      -303.0102
  14   2.0000     -11.131712      -302.9093
  15   2.0000     -11.127153      -302.7852
  16   2.0000     -11.123857      -302.6956
  17   2.0000     -11.117919      -302.5340
  18   2.0000     -11.117495      -302.5224
  19   2.0000     -11.098569      -302.0074
  20   2.0000      -8.821805      -240.0535
  21   2.0000      -6.503794      -176.9772
  22   2.0000      -6.501787      -176.9226
  23   2.0000      -6.501338      -176.9104
  24   2.0000      -1.352313       -36.7983
  25   2.0000      -1.285269       -34.9739
  26   2.0000      -1.257570       -34.2202
  27   2.0000      -1.240906       -33.7668
  28   2.0000      -1.136851       -30.9353
  29   2.0000      -1.050603       -28.5884
  30   2.0000      -1.014248       -27.5991
  31   2.0000      -0.934782       -25.4367
  32   2.0000      -0.917564       -24.9682
  33   2.0000      -0.897855       -24.4319
  34   2.0000      -0.890048       -24.2194
  35   2.0000      -0.873916       -23.7805
  36   2.0000      -0.814579       -22.1658
  37   2.0000      -0.779271       -21.2050
  38   2.0000      -0.744830       -20.2678
  39   2.0000      -0.725203       -19.7338
  40   2.0000      -0.716593       -19.4995
  41   2.0000      -0.698261       -19.0007
  42   2.0000      -0.651684       -17.7332
  43   2.0000      -0.634884       -17.2761
  44   2.0000      -0.611647       -16.6438
  45   2.0000      -0.584949       -15.9173
  46   2.0000      -0.579124       -15.7588
  47   2.0000      -0.573616       -15.6089
  48   2.0000      -0.558853       -15.2072
  49   2.0000      -0.548551       -14.9268
  50   2.0000      -0.540432       -14.7059
  51   2.0000      -0.527338       -14.3496
  52   2.0000      -0.523900       -14.2560
  53   2.0000      -0.493748       -13.4356
  54   2.0000      -0.485311       -13.2060
  55   2.0000      -0.477198       -12.9852
  56   2.0000      -0.474457       -12.9106
  57   2.0000      -0.462688       -12.5904
  58   2.0000      -0.457179       -12.4405
  59   2.0000      -0.450968       -12.2715
  60   2.0000      -0.441172       -12.0049
  61   2.0000      -0.426693       -11.6109
  62   2.0000      -0.417357       -11.3569
  63   2.0000      -0.413586       -11.2542
  64   2.0000      -0.408401       -11.1132
  65   2.0000      -0.402430       -10.9507
  66   2.0000      -0.382313       -10.4033
  67   2.0000      -0.372517       -10.1367
  68   2.0000      -0.371427       -10.1070
  69   2.0000      -0.355407        -9.6711
  70   2.0000      -0.348131        -9.4731
  71   2.0000      -0.334654        -9.1064
  72   2.0000      -0.264861        -7.2072
  73   2.0000      -0.259581        -7.0636
  74   2.0000      -0.245341        -6.6761
  75   2.0000      -0.225935        -6.1480
  76   2.0000      -0.206757        -5.6261
  77   0.0000       0.181396         4.9360
  78   0.0000       0.223668         6.0863
  79   0.0000       0.245661         6.6848
  80   0.0000       0.250739         6.8230
  81   0.0000       0.263206         7.1622

MULLIKEN ATOMIC CHARGES
-----------------------
   0 C :   -0.267982
   1 C :    0.005761
   2 O :   -0.310121
   3 C :    0.523159
   4 O :   -0.579943
   5 C :   -0.170762
   6 C :    0.103300
   7 C :   -0.291789
   8 N :   -0.130968
   9 C :    0.349617
  10 S :   -0.689286
  11 N :   -0.187932
  12 C :    0.024571
  13 C :    0.051491
  14 C :   -0.205091
  15 C :   -0.147368
  16 C :   -0.281874
  17 C :    0.288139
  18 O :   -0.456159
  19 C :   -0.283704
  20 H :    0.103169
  21 H :    0.106818
  22 H :    0.098504
  23 H :    0.105857
  24 H :    0.109627
  25 H :    0.130260
  26 H :    0.129488
  27 H :    0.135282
  28 H :    0.262312
  29 H :    0.247360
  30 H :    0.168696
  31 H :    0.175961
  32 H :    0.194260
  33 H :    0.178343
  34 H :    0.323511
  35 H :    0.187493
Sum of atomic charges:   -0.0000000

LOEWDIN ATOMIC CHARGES
----------------------
   0 C :    0.117365
   1 C :   -0.049621
   2 O :    0.346197
   3 C :   -0.399771
   4 O :    0.012979
   5 C :   -0.089992
   6 C :   -0.099509
   7 C :    0.140536
   8 N :    0.434944
   9 C :   -0.397701
  10 S :   -0.198266
  11 N :    0.421349
  12 C :   -0.046665
  13 C :   -0.059093
  14 C :    0.016295
  15 C :    0.032308
  16 C :    0.009726
  17 C :   -0.174730
  18 O :    0.329351
  19 C :    0.023804
  20 H :   -0.027599
  21 H :   -0.025328
  22 H :   -0.017541
  23 H :   -0.031914
  24 H :   -0.025955
  25 H :   -0.005739
  26 H :   -0.009341
  27 H :   -0.006806
  28 H :   -0.015851
  29 H :   -0.028043
  30 H :    0.006049
  31 H :   -0.016121
  32 H :   -0.008010
  33 H :   -0.012834
  34 H :   -0.118549
  35 H :   -0.025924

  Mayer bond orders larger than 0.100000
B(  0-C ,  1-C ) :   0.9691 B(  0-C , 20-H ) :   0.9772 B(  0-C , 21-H ) :   0.9777
B(  0-C , 22-H ) :   0.9747 B(  1-C ,  2-O ) :   0.8892 B(  1-C , 23-H ) :   0.9774
B(  1-C , 24-H ) :   0.9783 B(  2-O ,  3-C ) :   1.2162 B(  3-C ,  4-O ) :   1.8922
B(  3-C ,  5-C ) :   1.0578 B(  5-C ,  6-C ) :   1.6100 B(  5-C , 12-C ) :   0.9628
B(  6-C ,  7-C ) :   0.9646 B(  6-C ,  8-N ) :   1.1761 B(  7-C , 25-H ) :   0.9669
B(  7-C , 26-H ) :   0.9799 B(  7-C , 27-H ) :   0.9595 B(  8-N ,  9-C ) :   1.2274
B(  8-N , 28-H ) :   0.9200 B(  9-C , 10-S ) :   1.3138 B(  9-C , 11-N ) :   1.4079
B( 11-N , 12-C ) :   0.9420 B( 11-N , 29-H ) :   0.9268 B( 12-C , 13-C ) :   0.9679
B( 12-C , 30-H ) :   0.9985 B( 13-C , 14-C ) :   1.3464 B( 13-C , 19-C ) :   1.3602
B( 14-C , 15-C ) :   1.3675 B( 14-C , 31-H ) :   0.9674 B( 15-C , 16-C ) :   1.3374
B( 15-C , 32-H ) :   0.9591 B( 16-C , 17-C ) :   1.3490 B( 16-C , 33-H ) :   0.9712
B( 17-C , 18-O ) :   1.0973 B( 17-C , 19-C ) :   1.3733 B( 18-O , 34-H ) :   0.9184
B( 19-C , 35-H ) :   0.9443

MP2 TOTAL ENERGY:    -1274.453151043 Eh
FINAL SINGLE POINT ENERGY     -1274.453151042636

DIPOLE MOMENT
-------------
                                X             Y             Z
Electronic contribution:      0.33883      13.19547      10.91572
Nuclear contribution   :     -0.90932     -15.61203     -11.93244
                        -----------------------------------------
Total Dipole Moment    :     -0.57049      -2.41656      -1.01672
                        -----------------------------------------
Magnitude (a.u.)       :      2.68308
Magnitude (Debye)      :      6.81985

Rotational constants in cm-1:     0.011006     0.008436     0.006042
Rotational constants in MHz :   329.941519   252.901521   181.131403

                             ****ORCA TERMINATED NORMALLY****
TOTAL RUN TIME: 0 days 1 hours 54 minutes 1 seconds 14 msec
