                         Program Version 5.0.0 -  RELEASE  -
|  1> ! RI-MP2 cc-pVTZ cc-pVTZ/c TightSCF KeepDens NoKeepInts
|  2>
|  3> %pointcharges "srfp_output"
|  4>
|  5> *xyz  0  1
|  6>     C    15.4780147   -0.7178760   -1.9264236
|  7>     C    14.8175826   -0.9571280   -3.2548860
|  8>     O    15.5140097   -2.0288841   -3.9383624
|  9>     C    14.7752201   -2.7884138   -4.7965231
| 10>     O    13.6806692   -2.4553634   -5.2426555
| 11>     C    15.1387833   -4.1837656   -4.6939789
| 12>     C    16.3601994   -4.5994613   -4.4560495
| 13>     C    17.5713852   -3.7723916   -4.4146994
| 14>     N    16.6058448   -5.9490888   -4.5615657
| 15>     C    15.7514907   -6.8813003   -4.9147512
| 16>     S    16.1885950   -8.4500311   -5.1621537
| 17>     N    14.4803984   -6.4506883   -5.2005861
| 18>     C    13.9767183   -5.1185719   -4.8421518
| 19>     C    13.0984769   -5.0766608   -3.6144666
| 20>     C    13.7048581   -5.4935961   -2.4044290
| 21>     C    12.9447430   -5.5150744   -1.2190997
| 22>     C    11.5773396   -5.1762091   -1.3239202
| 23>     C    11.0223241   -4.8341490   -2.5068818
| 24>     O     9.8165507   -4.3034929   -2.6427536
| 25>     C    11.7633428   -4.8578977   -3.6537282
| 26>     H    14.8370048   -0.1088502   -1.2772830
| 27>     H    16.4739902   -0.2645893   -2.0023121
| 28>     H    15.5596769   -1.6249579   -1.3150943
| 29>     H    13.7768736   -1.2910250   -3.1620042
| 30>     H    14.9825264   -0.1089314   -3.9305694
| 31>     H    17.4453078   -2.9128929   -5.0844467
| 32>     H    18.3971508   -4.3809301   -4.8032639
| 33>     H    17.6785390   -3.4651849   -3.3671634
| 34>     H    17.4509332   -6.2855989   -4.1159714
| 35>     H    13.9789006   -7.2452348   -5.5789540
| 36>     H    13.2954026   -4.7987918   -5.6401156
| 37>     H    14.7807238   -5.6411805   -2.4162393
| 38>     H    13.4584300   -5.8479539   -0.3220418
| 39>     H    11.0410080   -5.1624123   -0.3796988
| 40>     H     9.5145230   -4.1355870   -1.7331845
| 41>     H    11.3220220   -4.5906486   -4.6093502
| 42> *
| 43>
| 44>                          ****END OF INPUT****

CARTESIAN COORDINATES (ANGSTROEM)
---------------------------------
  C     15.478015   -0.717876   -1.926424
  C     14.817583   -0.957128   -3.254886
  O     15.514010   -2.028884   -3.938362
  C     14.775220   -2.788414   -4.796523
  O     13.680669   -2.455363   -5.242655
  C     15.138783   -4.183766   -4.693979
  C     16.360199   -4.599461   -4.456049
  C     17.571385   -3.772392   -4.414699
  N     16.605845   -5.949089   -4.561566
  C     15.751491   -6.881300   -4.914751
  S     16.188595   -8.450031   -5.162154
  N     14.480398   -6.450688   -5.200586
  C     13.976718   -5.118572   -4.842152
  C     13.098477   -5.076661   -3.614467
  C     13.704858   -5.493596   -2.404429
  C     12.944743   -5.515074   -1.219100
  C     11.577340   -5.176209   -1.323920
  C     11.022324   -4.834149   -2.506882
  O      9.816551   -4.303493   -2.642754
  C     11.763343   -4.857898   -3.653728
  H     14.837005   -0.108850   -1.277283
  H     16.473990   -0.264589   -2.002312
  H     15.559677   -1.624958   -1.315094
  H     13.776874   -1.291025   -3.162004
  H     14.982526   -0.108931   -3.930569
  H     17.445308   -2.912893   -5.084447
  H     18.397151   -4.380930   -4.803264
  H     17.678539   -3.465185   -3.367163
  H     17.450933   -6.285599   -4.115971
  H     13.978901   -7.245235   -5.578954
  H     13.295403   -4.798792   -5.640116
  H     14.780724   -5.641180   -2.416239
  H     13.458430   -5.847954   -0.322042
  H     11.041008   -5.162412   -0.379699
  H      9.514523   -4.135587   -1.733184
  H     11.322022   -4.590649   -4.609350

 Total Charge           Charge          ....    0
 Multiplicity           Mult            ....    1
 Number of Electrons    NEL             ....  154
 Basis Dimension        Dim             ....  828

ORBITAL ENERGIES
----------------

  NO   OCC          E(Eh)            E(eV)
   0   2.0000     -93.050604     -2532.0357
   1   2.0000     -21.726157      -591.1988
   2   2.0000     -21.720563      -591.0466
   3   2.0000     -21.696931      -590.4035
   4   2.0000     -16.753007      -455.8725
   5   2.0000     -16.739211      -455.4971
   6   2.0000     -12.534368      -341.0775
   7   2.0000     -12.523464      -340.7808
   8   2.0000     -12.440778      -338.5308
   9   2.0000     -12.429888      -338.2344
  10   2.0000     -12.427511      -338.1698
  11   2.0000     -12.415568      -337.8448
  12   2.0000     -12.378254      -336.8294
  13   2.0000     -12.374101      -336.7164
  14   2.0000     -12.371181      -336.6370
  15   2.0000     -12.360293      -336.3407
  16   2.0000     -12.359778      -336.3267
  17   2.0000     -12.359665      -336.3236
  18   2.0000     -12.354477      -336.1824
  19   2.0000     -12.341420      -335.8271
  20   2.0000     -10.058017      -273.6926
  21   2.0000      -7.740161      -210.6205
  22   2.0000      -7.738052      -210.5631
  23   2.0000      -7.737701      -210.5535
  24   2.0000      -2.590702       -70.4966
  25   2.0000      -2.558176       -69.6115
  26   2.0000      -2.499568       -68.0167
  27   2.0000      -2.494372       -67.8753
  28   2.0000      -2.372727       -64.5652
  29   2.0000      -2.300743       -62.6064
  30   2.0000      -2.270558       -61.7850
  31   2.0000      -2.182641       -59.3927
  32   2.0000      -2.168112       -58.9973
  33   2.0000      -2.149403       -58.4882
  34   2.0000      -2.134023       -58.0697
  35   2.0000      -2.128606       -57.9223
  36   2.0000      -2.058585       -56.0169
  37   2.0000      -2.019004       -54.9399
  38   2.0000      -1.986883       -54.0658
  39   2.0000      -1.974263       -53.7224
  40   2.0000      -1.963749       -53.4363
  41   2.0000      -1.949573       -53.0506
  42   2.0000      -1.891366       -51.4667
  43   2.0000      -1.875050       -51.0227
  44   2.0000      -1.863125       -50.6982
  45   2.0000      -1.828923       -49.7675
  46   2.0000      -1.826742       -49.7082
  47   2.0000      -1.813393       -49.3449
  48   2.0000      -1.806332       -49.1528
  49   2.0000      -1.793452       -48.8023
  50   2.0000      -1.784580       -48.5609
  51   2.0000      -1.771589       -48.2074
  52   2.0000      -1.764327       -48.0098
  53   2.0000      -1.745502       -47.4975
  54   2.0000      -1.742167       -47.4068
  55   2.0000      -1.728267       -47.0285
  56   2.0000      -1.721827       -46.8533
  57   2.0000      -1.709344       -46.5136
  58   2.0000      -1.705274       -46.4029
  59   2.0000      -1.692945       -46.0674
  60   2.0000      -1.689302       -45.9682
  61   2.0000      -1.675869       -45.6027
  62   2.0000      -1.664126       -45.2832
  63   2.0000      -1.660940       -45.1965
  64   2.0000      -1.647091       -44.8196
  65   2.0000      -1.636701       -44.5369
  66   2.0000      -1.628681       -44.3187
  67   2.0000      -1.627445       -44.2850
  68   2.0000      -1.617075       -44.0028
  69   2.0000      -1.604109       -43.6500
  70   2.0000      -1.594676       -43.3933
  71   2.0000      -1.582104       -43.0512
  72   2.0000      -1.504305       -40.9342
  73   2.0000      -1.498486       -40.7759
  74   2.0000      -1.482316       -40.3359
  75   2.0000      -1.474196       -40.1149
  76   2.0000      -1.447312       -39.3834
  77   0.0000      -1.061196       -28.8766
  78   0.0000      -1.007067       -27.4037
  79   0.0000      -0.999941       -27.2098
  80   0.0000      -0.988601       -26.9012
  81   0.0000      -0.979696       -26.6589

MULLIKEN ATOMIC CHARGES
-----------------------
   0 C :   -0.274094
   1 C :    0.037721
   2 O :   -0.334521
   3 C :    0.471342
   4 O :   -0.575006
   5 C :   -0.073313
   6 C :    0.128678
   7 C :   -0.297232
   8 N :   -0.078997
   9 C :    0.354320
  10 S :   -0.772448
  11 N :   -0.229422
  12 C :    0.040345
  13 C :    0.078107
  14 C :   -0.303867
  15 C :   -0.180028
  16 C :   -0.320897
  17 C :    0.348110
  18 O :   -0.440734
  19 C :   -0.223861
  20 H :    0.109378
  21 H :    0.107914
  22 H :    0.099628
  23 H :    0.101576
  24 H :    0.111733
  25 H :    0.127143
  26 H :    0.121819
  27 H :    0.133501
  28 H :    0.250392
  29 H :    0.252585
  30 H :    0.169031
  31 H :    0.187835
  32 H :    0.206291
  33 H :    0.178061
  34 H :    0.327301
  35 H :    0.161613
Sum of atomic charges:    0.0000000

LOEWDIN ATOMIC CHARGES
----------------------
   0 C :    0.105026
   1 C :   -0.006645
   2 O :    0.322456
   3 C :   -0.383634
   4 O :    0.013019
   5 C :   -0.096579
   6 C :   -0.078668
   7 C :    0.140648
   8 N :    0.452479
   9 C :   -0.453661
  10 S :   -0.228226
  11 N :    0.428967
  12 C :   -0.045366
  13 C :   -0.054768
  14 C :    0.016376
  15 C :    0.046241
  16 C :   -0.003123
  17 C :   -0.251738
  18 O :    0.391100
  19 C :    0.018575
  20 H :   -0.012944
  21 H :   -0.020738
  22 H :   -0.020500
  23 H :   -0.027638
  24 H :   -0.023826
  25 H :   -0.001819
  26 H :   -0.004614
  27 H :   -0.002674
  28 H :   -0.005936
  29 H :   -0.049345
  30 H :    0.001224
  31 H :   -0.024998
  32 H :   -0.012448
  33 H :   -0.014914
  34 H :   -0.100506
  35 H :   -0.010805

  Mayer bond orders larger than 0.100000
B(  0-C ,  1-C ) :   0.9753 B(  0-C , 20-H ) :   0.9748 B(  0-C , 21-H ) :   0.9784
B(  0-C , 22-H ) :   0.9729 B(  1-C ,  2-O ) :   0.8684 B(  1-C , 23-H ) :   0.9733
B(  1-C , 24-H ) :   0.9826 B(  2-O ,  3-C ) :   1.2071 B(  3-C ,  4-O ) :   1.9098
B(  3-C ,  5-C ) :   1.0526 B(  5-C ,  6-C ) :   1.6498 B(  5-C , 12-C ) :   0.9590
B(  6-C ,  7-C ) :   0.9446 B(  6-C ,  8-N ) :   1.1225 B(  7-C , 25-H ) :   0.9697
B(  7-C , 26-H ) :   0.9815 B(  7-C , 27-H ) :   0.9638 B(  8-N ,  9-C ) :   1.3462
B(  8-N , 28-H ) :   0.9252 B(  9-C , 10-S ) :   1.2150 B(  9-C , 11-N ) :   1.3844
B( 11-N , 12-C ) :   0.9799 B( 11-N , 29-H ) :   0.9233 B( 12-C , 13-C ) :   0.9361
B( 12-C , 30-H ) :   0.9952 B( 13-C , 14-C ) :   1.2644 B( 13-C , 19-C ) :   1.4332
B( 14-C , 15-C ) :   1.4582 B( 14-C , 31-H ) :   0.9691 B( 15-C , 16-C ) :   1.2789
B( 15-C , 32-H ) :   0.9566 B( 16-C , 17-C ) :   1.3823 B( 16-C , 33-H ) :   0.9731
B( 17-C , 18-O ) :   1.1335 B( 17-C , 19-C ) :   1.2702 B( 18-O , 34-H ) :   0.9142
B( 19-C , 35-H ) :   0.9603

MP2 TOTAL ENERGY:    -1274.438534214 Eh
FINAL SINGLE POINT ENERGY     -1274.438534214182

DIPOLE MOMENT
-------------
                                X             Y             Z
Electronic contribution:     -3.47480     -12.84892      -8.03713
Nuclear contribution   :      4.17000      15.90870      10.77986
                        -----------------------------------------
Total Dipole Moment    :      0.69519       3.05977       2.74273
                        -----------------------------------------
Magnitude (a.u.)       :      4.16750
Magnitude (Debye)      :     10.59294

Rotational constants in cm-1:     0.011557     0.009113     0.006104
Rotational constants in MHz :   346.475356   273.187909   182.993458

                             ****ORCA TERMINATED NORMALLY****
TOTAL RUN TIME: 0 days 1 hours 46 minutes 35 seconds 291 msec
