                         Program Version 5.0.0 -  RELEASE  -
|  1> ! RI-MP2 cc-pVTZ cc-pVTZ/c TightSCF KeepDens NoKeepInts
|  2>
|  3> *xyz  0  1
|  4>     C    15.4780147   -0.7178760   -1.9264236
|  5>     C    14.8175826   -0.9571280   -3.2548860
|  6>     O    15.5140097   -2.0288841   -3.9383624
|  7>     C    14.7752201   -2.7884138   -4.7965231
|  8>     O    13.6806692   -2.4553634   -5.2426555
|  9>     C    15.1387833   -4.1837656   -4.6939789
| 10>     C    16.3601994   -4.5994613   -4.4560495
| 11>     C    17.5713852   -3.7723916   -4.4146994
| 12>     N    16.6058448   -5.9490888   -4.5615657
| 13>     C    15.7514907   -6.8813003   -4.9147512
| 14>     S    16.1885950   -8.4500311   -5.1621537
| 15>     N    14.4803984   -6.4506883   -5.2005861
| 16>     C    13.9767183   -5.1185719   -4.8421518
| 17>     C    13.0984769   -5.0766608   -3.6144666
| 18>     C    13.7048581   -5.4935961   -2.4044290
| 19>     C    12.9447430   -5.5150744   -1.2190997
| 20>     C    11.5773396   -5.1762091   -1.3239202
| 21>     C    11.0223241   -4.8341490   -2.5068818
| 22>     O     9.8165507   -4.3034929   -2.6427536
| 23>     C    11.7633428   -4.8578977   -3.6537282
| 24>     H    14.8370048   -0.1088502   -1.2772830
| 25>     H    16.4739902   -0.2645893   -2.0023121
| 26>     H    15.5596769   -1.6249579   -1.3150943
| 27>     H    13.7768736   -1.2910250   -3.1620042
| 28>     H    14.9825264   -0.1089314   -3.9305694
| 29>     H    17.4453078   -2.9128929   -5.0844467
| 30>     H    18.3971508   -4.3809301   -4.8032639
| 31>     H    17.6785390   -3.4651849   -3.3671634
| 32>     H    17.4509332   -6.2855989   -4.1159714
| 33>     H    13.9789006   -7.2452348   -5.5789540
| 34>     H    13.2954026   -4.7987918   -5.6401156
| 35>     H    14.7807238   -5.6411805   -2.4162393
| 36>     H    13.4584300   -5.8479539   -0.3220418
| 37>     H    11.0410080   -5.1624123   -0.3796988
| 38>     H     9.5145230   -4.1355870   -1.7331845
| 39>     H    11.3220220   -4.5906486   -4.6093502
| 40> *
| 41>
| 42>                          ****END OF INPUT****

CARTESIAN COORDINATES (ANGSTROEM)
---------------------------------
  C     15.478015   -0.717876   -1.926424
  C     14.817583   -0.957128   -3.254886
  O     15.514010   -2.028884   -3.938362
  C     14.775220   -2.788414   -4.796523
  O     13.680669   -2.455363   -5.242655
  C     15.138783   -4.183766   -4.693979
  C     16.360199   -4.599461   -4.456049
  C     17.571385   -3.772392   -4.414699
  N     16.605845   -5.949089   -4.561566
  C     15.751491   -6.881300   -4.914751
  S     16.188595   -8.450031   -5.162154
  N     14.480398   -6.450688   -5.200586
  C     13.976718   -5.118572   -4.842152
  C     13.098477   -5.076661   -3.614467
  C     13.704858   -5.493596   -2.404429
  C     12.944743   -5.515074   -1.219100
  C     11.577340   -5.176209   -1.323920
  C     11.022324   -4.834149   -2.506882
  O      9.816551   -4.303493   -2.642754
  C     11.763343   -4.857898   -3.653728
  H     14.837005   -0.108850   -1.277283
  H     16.473990   -0.264589   -2.002312
  H     15.559677   -1.624958   -1.315094
  H     13.776874   -1.291025   -3.162004
  H     14.982526   -0.108931   -3.930569
  H     17.445308   -2.912893   -5.084447
  H     18.397151   -4.380930   -4.803264
  H     17.678539   -3.465185   -3.367163
  H     17.450933   -6.285599   -4.115971
  H     13.978901   -7.245235   -5.578954
  H     13.295403   -4.798792   -5.640116
  H     14.780724   -5.641180   -2.416239
  H     13.458430   -5.847954   -0.322042
  H     11.041008   -5.162412   -0.379699
  H      9.514523   -4.135587   -1.733184
  H     11.322022   -4.590649   -4.609350

 Total Charge           Charge          ....    0
 Multiplicity           Mult            ....    1
 Number of Electrons    NEL             ....  154
 Basis Dimension        Dim             ....  828

ORBITAL ENERGIES
----------------

  NO   OCC          E(Eh)            E(eV)
   0   2.0000     -91.881925     -2500.2343
   1   2.0000     -20.598126      -560.5035
   2   2.0000     -20.595853      -560.4416
   3   2.0000     -20.549571      -559.1822
   4   2.0000     -15.622806      -425.1182
   5   2.0000     -15.597979      -424.4426
   6   2.0000     -11.389016      -309.9109
   7   2.0000     -11.369759      -309.3869
   8   2.0000     -11.313344      -307.8517
   9   2.0000     -11.299169      -307.4660
  10   2.0000     -11.298805      -307.4561
  11   2.0000     -11.298057      -307.4358
  12   2.0000     -11.253398      -306.2205
  13   2.0000     -11.252412      -306.1937
  14   2.0000     -11.243594      -305.9538
  15   2.0000     -11.243487      -305.9508
  16   2.0000     -11.235300      -305.7281
  17   2.0000     -11.234415      -305.7040
  18   2.0000     -11.232420      -305.6497
  19   2.0000     -11.223722      -305.4130
  20   2.0000      -8.887580      -241.8434
  21   2.0000      -6.569245      -178.7582
  22   2.0000      -6.567136      -178.7009
  23   2.0000      -6.566597      -178.6862
  24   2.0000      -1.454879       -39.5893
  25   2.0000      -1.431765       -38.9603
  26   2.0000      -1.360643       -37.0250
  27   2.0000      -1.357279       -36.9334
  28   2.0000      -1.238707       -33.7069
  29   2.0000      -1.168974       -31.8094
  30   2.0000      -1.140252       -31.0278
  31   2.0000      -1.056166       -28.7397
  32   2.0000      -1.048726       -28.5373
  33   2.0000      -1.021928       -27.8081
  34   2.0000      -1.006019       -27.3752
  35   2.0000      -0.986794       -26.8520
  36   2.0000      -0.928425       -25.2637
  37   2.0000      -0.893652       -24.3175
  38   2.0000      -0.854971       -23.2649
  39   2.0000      -0.846582       -23.0367
  40   2.0000      -0.835780       -22.7427
  41   2.0000      -0.823141       -22.3988
  42   2.0000      -0.759422       -20.6649
  43   2.0000      -0.741543       -20.1784
  44   2.0000      -0.733795       -19.9676
  45   2.0000      -0.700284       -19.0557
  46   2.0000      -0.695315       -18.9205
  47   2.0000      -0.685978       -18.6664
  48   2.0000      -0.670124       -18.2350
  49   2.0000      -0.661253       -17.9936
  50   2.0000      -0.654284       -17.8040
  51   2.0000      -0.646602       -17.5949
  52   2.0000      -0.635416       -17.2905
  53   2.0000      -0.621958       -16.9243
  54   2.0000      -0.614711       -16.7271
  55   2.0000      -0.606533       -16.5046
  56   2.0000      -0.599428       -16.3113
  57   2.0000      -0.580876       -15.8064
  58   2.0000      -0.580200       -15.7880
  59   2.0000      -0.570022       -15.5111
  60   2.0000      -0.560343       -15.2477
  61   2.0000      -0.554536       -15.0897
  62   2.0000      -0.537522       -14.6267
  63   2.0000      -0.524979       -14.2854
  64   2.0000      -0.517630       -14.0854
  65   2.0000      -0.512204       -13.9378
  66   2.0000      -0.505177       -13.7466
  67   2.0000      -0.500201       -13.6112
  68   2.0000      -0.483379       -13.1534
  69   2.0000      -0.463439       -12.6108
  70   2.0000      -0.458626       -12.4798
  71   2.0000      -0.451754       -12.2928
  72   2.0000      -0.359003        -9.7690
  73   2.0000      -0.351515        -9.5652
  74   2.0000      -0.326215        -8.8768
  75   2.0000      -0.321645        -8.7524
  76   2.0000      -0.309258        -8.4153
  77   0.0000       0.076726         2.0878
  78   0.0000       0.112283         3.0554
  79   0.0000       0.122979         3.3464
  80   0.0000       0.129454         3.5226
  81   0.0000       0.136793         3.7223

MULLIKEN ATOMIC CHARGES
-----------------------
   0 C :   -0.280882
   1 C :    0.046724
   2 O :   -0.354223
   3 C :    0.400771
   4 O :   -0.423892
   5 C :   -0.072209
   6 C :    0.097269
   7 C :   -0.302692
   8 N :   -0.060492
   9 C :    0.180851
  10 S :   -0.465068
  11 N :   -0.208494
  12 C :    0.025914
  13 C :    0.073129
  14 C :   -0.234193
  15 C :   -0.160853
  16 C :   -0.282775
  17 C :    0.323129
  18 O :   -0.343625
  19 C :   -0.178526
  20 H :    0.100265
  21 H :    0.100977
  22 H :    0.095988
  23 H :    0.111472
  24 H :    0.098853
  25 H :    0.121855
  26 H :    0.106564
  27 H :    0.121004
  28 H :    0.181680
  29 H :    0.196716
  30 H :    0.156356
  31 H :    0.145598
  32 H :    0.166012
  33 H :    0.126895
  34 H :    0.238139
  35 H :    0.151763
Sum of atomic charges:    0.0000000

LOEWDIN ATOMIC CHARGES
----------------------
   0 C :    0.098363
   1 C :   -0.008305
   2 O :    0.307732
   3 C :   -0.411987
   4 O :    0.107979
   5 C :   -0.098747
   6 C :   -0.104075
   7 C :    0.128084
   8 N :    0.429045
   9 C :   -0.495718
  10 S :   -0.037177
  11 N :    0.406605
  12 C :   -0.050932
  13 C :   -0.044431
  14 C :    0.024930
  15 C :    0.050196
  16 C :   -0.008405
  17 C :   -0.242919
  18 O :    0.428491
  19 C :    0.031011
  20 H :   -0.018175
  21 H :   -0.024481
  22 H :   -0.023236
  23 H :   -0.023707
  24 H :   -0.027771
  25 H :   -0.005345
  26 H :   -0.014020
  27 H :   -0.010172
  28 H :   -0.042375
  29 H :   -0.074255
  30 H :   -0.002518
  31 H :   -0.033927
  32 H :   -0.024168
  33 H :   -0.031880
  34 H :   -0.142125
  35 H :   -0.011587

  Mayer bond orders larger than 0.100000
B(  0-C ,  1-C ) :   0.9681 B(  0-C , 20-H ) :   0.9778 B(  0-C , 21-H ) :   0.9799
B(  0-C , 22-H ) :   0.9742 B(  1-C ,  2-O ) :   0.8848 B(  1-C , 23-H ) :   0.9715
B(  1-C , 24-H ) :   0.9868 B(  2-O ,  3-C ) :   1.1596 B(  3-C ,  4-O ) :   1.9941
B(  3-C ,  5-C ) :   1.0158 B(  5-C ,  6-C ) :   1.6667 B(  5-C , 12-C ) :   0.9616
B(  6-C ,  7-C ) :   0.9381 B(  6-C ,  8-N ) :   1.1249 B(  7-C , 25-H ) :   0.9736
B(  7-C , 26-H ) :   0.9871 B(  7-C , 27-H ) :   0.9692 B(  8-N ,  9-C ) :   1.2315
B(  8-N , 28-H ) :   0.9586 B(  9-C , 10-S ) :   1.5906 B(  9-C , 11-N ) :   1.2825
B( 11-N , 12-C ) :   1.0013 B( 11-N , 29-H ) :   0.9418 B( 12-C , 13-C ) :   0.9441
B( 12-C , 30-H ) :   0.9943 B( 13-C , 14-C ) :   1.2904 B( 13-C , 19-C ) :   1.4526
B( 14-C , 15-C ) :   1.4771 B( 14-C , 31-H ) :   0.9788 B( 15-C , 16-C ) :   1.2969
B( 15-C , 32-H ) :   0.9685 B( 16-C , 17-C ) :   1.3879 B( 16-C , 33-H ) :   0.9882
B( 17-C , 18-O ) :   1.1339 B( 17-C , 19-C ) :   1.2760 B( 18-O , 34-H ) :   0.9810
B( 19-C , 35-H ) :   0.9604

MP2 TOTAL ENERGY:    -1274.304699349 Eh
FINAL SINGLE POINT ENERGY     -1274.304699348757

DIPOLE MOMENT
-------------
                                X             Y             Z
Electronic contribution:     -3.85683     -13.95106      -9.01981
Nuclear contribution   :      4.17000      15.90870      10.77986
                        -----------------------------------------
Total Dipole Moment    :      0.31317       1.95764       1.76005
                        -----------------------------------------
Magnitude (a.u.)       :      2.65108
Magnitude (Debye)      :      6.73851

Rotational constants in cm-1:     0.011557     0.009113     0.006104
Rotational constants in MHz :   346.475356   273.187909   182.993458

                             ****ORCA TERMINATED NORMALLY****
TOTAL RUN TIME: 0 days 1 hours 59 minutes 5 seconds 293 msec
