                         Program Version 5.0.0 -  RELEASE  -
|  1> ! RI-MP2 cc-pVTZ cc-pVTZ/c TightSCF KeepDens NoKeepInts
|  2>
|  3> *xyz  0  1
|  4>     C    -5.1976046   -3.2251609  -12.3499839
|  5>     C    -4.7018251   -4.6070738  -13.0032391
|  6>     O    -3.3359557   -4.7257579  -12.6668263
|  7>     C    -2.6810528   -5.8669007  -13.0509444
|  8>     O    -3.2153999   -6.7475612  -13.7081425
|  9>     C    -1.2323004   -5.8746004  -12.8124890
| 10>     C    -0.6053552   -4.9577553  -12.0275574
| 11>     C    -1.1031139   -3.7337480  -11.2859769
| 12>     N     0.7598671   -4.9529265  -11.9035278
| 13>     C     1.4987229   -5.8400027  -12.6651364
| 14>     S     3.1003199   -5.9418163  -12.4731562
| 15>     N     0.9025571   -6.7539598  -13.4530273
| 16>     C    -0.4815302   -7.0583143  -13.3571559
| 17>     C    -0.6779748   -8.3289102  -12.5598116
| 18>     C    -0.2369060   -8.4695677  -11.2359135
| 19>     C    -0.5088146   -9.6468864  -10.4764365
| 20>     C    -1.1752693  -10.6755909  -11.0763802
| 21>     C    -1.6184399  -10.5616540  -12.4228920
| 22>     O    -2.2171975  -11.6528251  -13.0348688
| 23>     C    -1.3737505   -9.4146348  -13.1469921
| 24>     H    -4.4133628   -2.4786378  -12.1743206
| 25>     H    -5.5321915   -3.5376499  -11.3531918
| 26>     H    -5.9561323   -2.6760143  -12.9211784
| 27>     H    -5.3493065   -5.4022857  -12.6138864
| 28>     H    -4.9026920   -4.5600344  -14.0805662
| 29>     H    -2.0332029   -3.8723968  -10.7212603
| 30>     H    -1.2840120   -2.9236057  -12.0030089
| 31>     H    -0.3390126   -3.3496118  -10.5991093
| 32>     H     1.3318645   -4.4410417  -11.2426446
| 33>     H     1.2937811   -7.4692944  -14.0540319
| 34>     H    -0.9137340   -7.3207644  -14.3305569
| 35>     H     0.3388364   -7.7463297  -10.6659631
| 36>     H    -0.0305112   -9.7102583   -9.5034998
| 37>     H    -1.3826333  -11.6083016  -10.5601890
| 38>     H    -1.7559102  -12.4524649  -12.7274290
| 39>     H    -1.6723045   -9.3315101  -14.1878340
| 40> *
| 41>
| 42>                          ****END OF INPUT****

CARTESIAN COORDINATES (ANGSTROEM)
---------------------------------
  C     -5.197605   -3.225161  -12.349984
  C     -4.701825   -4.607074  -13.003239
  O     -3.335956   -4.725758  -12.666826
  C     -2.681053   -5.866901  -13.050944
  O     -3.215400   -6.747561  -13.708142
  C     -1.232300   -5.874600  -12.812489
  C     -0.605355   -4.957755  -12.027557
  C     -1.103114   -3.733748  -11.285977
  N      0.759867   -4.952927  -11.903528
  C      1.498723   -5.840003  -12.665136
  S      3.100320   -5.941816  -12.473156
  N      0.902557   -6.753960  -13.453027
  C     -0.481530   -7.058314  -13.357156
  C     -0.677975   -8.328910  -12.559812
  C     -0.236906   -8.469568  -11.235913
  C     -0.508815   -9.646886  -10.476436
  C     -1.175269  -10.675591  -11.076380
  C     -1.618440  -10.561654  -12.422892
  O     -2.217197  -11.652825  -13.034869
  C     -1.373751   -9.414635  -13.146992
  H     -4.413363   -2.478638  -12.174321
  H     -5.532191   -3.537650  -11.353192
  H     -5.956132   -2.676014  -12.921178
  H     -5.349306   -5.402286  -12.613886
  H     -4.902692   -4.560034  -14.080566
  H     -2.033203   -3.872397  -10.721260
  H     -1.284012   -2.923606  -12.003009
  H     -0.339013   -3.349612  -10.599109
  H      1.331865   -4.441042  -11.242645
  H      1.293781   -7.469294  -14.054032
  H     -0.913734   -7.320764  -14.330557
  H      0.338836   -7.746330  -10.665963
  H     -0.030511   -9.710258   -9.503500
  H     -1.382633  -11.608302  -10.560189
  H     -1.755910  -12.452465  -12.727429
  H     -1.672305   -9.331510  -14.187834

 Total Charge           Charge          ....    0
 Multiplicity           Mult            ....    1
 Number of Electrons    NEL             ....  154
 Basis Dimension        Dim             ....  828

ORBITAL ENERGIES
----------------

  NO   OCC          E(Eh)            E(eV)
   0   2.0000     -91.884994     -2500.3178
   1   2.0000     -20.608400      -560.7831
   2   2.0000     -20.582445      -560.0768
   3   2.0000     -20.541031      -558.9499
   4   2.0000     -15.633484      -425.4087
   5   2.0000     -15.608199      -424.7207
   6   2.0000     -11.388750      -309.9036
   7   2.0000     -11.381044      -309.6940
   8   2.0000     -11.337316      -308.5041
   9   2.0000     -11.302521      -307.5572
  10   2.0000     -11.299263      -307.4686
  11   2.0000     -11.291973      -307.2702
  12   2.0000     -11.258717      -306.3653
  13   2.0000     -11.252131      -306.1860
  14   2.0000     -11.250452      -306.1404
  15   2.0000     -11.243401      -305.9485
  16   2.0000     -11.236760      -305.7678
  17   2.0000     -11.235269      -305.7272
  18   2.0000     -11.233688      -305.6842
  19   2.0000     -11.232482      -305.6514
  20   2.0000      -8.892095      -241.9662
  21   2.0000      -6.573816      -178.8826
  22   2.0000      -6.571678      -178.8244
  23   2.0000      -6.571019      -178.8065
  24   2.0000      -1.457507       -39.6608
  25   2.0000      -1.390217       -37.8297
  26   2.0000      -1.358773       -36.9741
  27   2.0000      -1.354484       -36.8574
  28   2.0000      -1.261406       -34.3246
  29   2.0000      -1.154321       -31.4107
  30   2.0000      -1.124536       -30.6002
  31   2.0000      -1.044483       -28.4218
  32   2.0000      -1.032103       -28.0850
  33   2.0000      -1.010998       -27.5107
  34   2.0000      -0.999250       -27.1910
  35   2.0000      -0.992566       -27.0091
  36   2.0000      -0.926935       -25.2232
  37   2.0000      -0.891434       -24.2571
  38   2.0000      -0.848890       -23.0995
  39   2.0000      -0.838648       -22.8208
  40   2.0000      -0.826578       -22.4923
  41   2.0000      -0.815739       -22.1974
  42   2.0000      -0.766365       -20.8538
  43   2.0000      -0.754075       -20.5194
  44   2.0000      -0.721522       -19.6336
  45   2.0000      -0.710228       -19.3263
  46   2.0000      -0.691491       -18.8164
  47   2.0000      -0.682630       -18.5753
  48   2.0000      -0.674979       -18.3671
  49   2.0000      -0.659131       -17.9359
  50   2.0000      -0.650104       -17.6902
  51   2.0000      -0.643698       -17.5159
  52   2.0000      -0.627364       -17.0714
  53   2.0000      -0.619303       -16.8521
  54   2.0000      -0.596354       -16.2276
  55   2.0000      -0.593545       -16.1512
  56   2.0000      -0.589580       -16.0433
  57   2.0000      -0.587400       -15.9840
  58   2.0000      -0.563616       -15.3368
  59   2.0000      -0.559310       -15.2196
  60   2.0000      -0.553618       -15.0647
  61   2.0000      -0.541767       -14.7422
  62   2.0000      -0.532319       -14.4851
  63   2.0000      -0.522904       -14.2289
  64   2.0000      -0.514970       -14.0130
  65   2.0000      -0.504991       -13.7415
  66   2.0000      -0.498737       -13.5713
  67   2.0000      -0.493826       -13.4377
  68   2.0000      -0.481698       -13.1077
  69   2.0000      -0.463397       -12.6097
  70   2.0000      -0.455640       -12.3986
  71   2.0000      -0.452347       -12.3090
  72   2.0000      -0.356023        -9.6879
  73   2.0000      -0.346577        -9.4308
  74   2.0000      -0.328350        -8.9348
  75   2.0000      -0.323788        -8.8107
  76   2.0000      -0.310136        -8.4392
  77   0.0000       0.073517         2.0005
  78   0.0000       0.117054         3.1852
  79   0.0000       0.121198         3.2980
  80   0.0000       0.129913         3.5351
  81   0.0000       0.135215         3.6794

MULLIKEN ATOMIC CHARGES
-----------------------
   0 C :   -0.299371
   1 C :    0.044418
   2 O :   -0.319950
   3 C :    0.434428
   4 O :   -0.437196
   5 C :   -0.121523
   6 C :    0.114315
   7 C :   -0.288902
   8 N :   -0.118883
   9 C :    0.177425
  10 S :   -0.433628
  11 N :   -0.139513
  12 C :   -0.016671
  13 C :    0.052640
  14 C :   -0.226723
  15 C :   -0.143682
  16 C :   -0.237768
  17 C :    0.271542
  18 O :   -0.379781
  19 C :   -0.171487
  20 H :    0.097941
  21 H :    0.093730
  22 H :    0.108101
  23 H :    0.091675
  24 H :    0.087932
  25 H :    0.125894
  26 H :    0.128236
  27 H :    0.098505
  28 H :    0.208281
  29 H :    0.199997
  30 H :    0.149724
  31 H :    0.152321
  32 H :    0.156987
  33 H :    0.143686
  34 H :    0.239989
  35 H :    0.157311
Sum of atomic charges:    0.0000000

LOEWDIN ATOMIC CHARGES
----------------------
   0 C :    0.116730
   1 C :   -0.025427
   2 O :    0.319371
   3 C :   -0.413927
   4 O :    0.102422
   5 C :   -0.099763
   6 C :   -0.071166
   7 C :    0.122091
   8 N :    0.414560
   9 C :   -0.485452
  10 S :    0.002040
  11 N :    0.422224
  12 C :   -0.095336
  13 C :   -0.036511
  14 C :    0.031469
  15 C :    0.031649
  16 C :    0.004065
  17 C :   -0.168203
  18 O :    0.359027
  19 C :    0.035860
  20 H :   -0.033283
  21 H :   -0.034059
  22 H :   -0.031510
  23 H :   -0.030630
  24 H :   -0.036436
  25 H :   -0.015145
  26 H :   -0.006849
  27 H :   -0.020086
  28 H :   -0.050726
  29 H :   -0.044414
  30 H :   -0.002296
  31 H :   -0.031949
  32 H :   -0.020455
  33 H :   -0.029642
  34 H :   -0.158598
  35 H :   -0.019645

  Mayer bond orders larger than 0.100000
B(  0-C ,  1-C ) :   0.9441 B(  0-C , 20-H ) :   0.9762 B(  0-C , 21-H ) :   0.9864
B(  0-C , 22-H ) :   0.9816 B(  1-C ,  2-O ) :   0.9324 B(  1-C , 23-H ) :   0.9797
B(  1-C , 24-H ) :   0.9815 B(  2-O ,  3-C ) :   1.1549 B(  3-C ,  4-O ) :   1.9618
B(  3-C ,  5-C ) :   1.0762 B(  5-C ,  6-C ) :   1.6248 B(  5-C , 12-C ) :   0.9665
B(  6-C ,  7-C ) :   0.9601 B(  6-C ,  8-N ) :   1.1541 B(  7-C , 25-H ) :   0.9716
B(  7-C , 26-H ) :   0.9574 B(  7-C , 27-H ) :   0.9927 B(  8-N ,  9-C ) :   1.1573
B(  8-N , 28-H ) :   0.9334 B(  9-C , 10-S ) :   1.6346 B(  9-C , 11-N ) :   1.3223
B( 11-N , 12-C ) :   0.9917 B( 11-N , 29-H ) :   0.9556 B( 12-C , 13-C ) :   0.9460
B( 12-C , 30-H ) :   1.0105 B( 13-C , 14-C ) :   1.4229 B( 13-C , 19-C ) :   1.2955
B( 14-C , 15-C ) :   1.3583 B( 14-C , 31-H ) :   0.9703 B( 15-C , 16-C ) :   1.4163
B( 15-C , 32-H ) :   0.9734 B( 16-C , 17-C ) :   1.3032 B( 16-C , 33-H ) :   0.9756
B( 17-C , 18-O ) :   1.0377 B( 17-C , 19-C ) :   1.4312 B( 18-O , 34-H ) :   0.9792
B( 19-C , 35-H ) :   0.9552

MP2 TOTAL ENERGY:    -1274.306063510 Eh
FINAL SINGLE POINT ENERGY     -1274.306063510117

DIPOLE MOMENT
-------------
                                X             Y             Z
Electronic contribution:     14.78257      -9.44924      -4.21926
Nuclear contribution   :    -15.78491      10.09272       5.12263
                        -----------------------------------------
Total Dipole Moment    :     -1.00234       0.64348       0.90336
                        -----------------------------------------
Magnitude (a.u.)       :      1.49493
Magnitude (Debye)      :      3.79981

Rotational constants in cm-1:     0.010628     0.008626     0.005402
Rotational constants in MHz :   318.620279   258.614072   161.946858

                             ****ORCA TERMINATED NORMALLY****
TOTAL RUN TIME: 0 days 1 hours 58 minutes 58 seconds 648 msec
