                         Program Version 5.0.0 -  RELEASE  -
|  1> ! RI-MP2 cc-pVTZ cc-pVTZ/c TightSCF KeepDens NoKeepInts
|  2>
|  3> %pointcharges "srfp_output"
|  4>
|  5> *xyz  0  1
|  6>     C    -5.1976046   -3.2251609  -12.3499839
|  7>     C    -4.7018251   -4.6070738  -13.0032391
|  8>     O    -3.3359557   -4.7257579  -12.6668263
|  9>     C    -2.6810528   -5.8669007  -13.0509444
| 10>     O    -3.2153999   -6.7475612  -13.7081425
| 11>     C    -1.2323004   -5.8746004  -12.8124890
| 12>     C    -0.6053552   -4.9577553  -12.0275574
| 13>     C    -1.1031139   -3.7337480  -11.2859769
| 14>     N     0.7598671   -4.9529265  -11.9035278
| 15>     C     1.4987229   -5.8400027  -12.6651364
| 16>     S     3.1003199   -5.9418163  -12.4731562
| 17>     N     0.9025571   -6.7539598  -13.4530273
| 18>     C    -0.4815302   -7.0583143  -13.3571559
| 19>     C    -0.6779748   -8.3289102  -12.5598116
| 20>     C    -0.2369060   -8.4695677  -11.2359135
| 21>     C    -0.5088146   -9.6468864  -10.4764365
| 22>     C    -1.1752693  -10.6755909  -11.0763802
| 23>     C    -1.6184399  -10.5616540  -12.4228920
| 24>     O    -2.2171975  -11.6528251  -13.0348688
| 25>     C    -1.3737505   -9.4146348  -13.1469921
| 26>     H    -4.4133628   -2.4786378  -12.1743206
| 27>     H    -5.5321915   -3.5376499  -11.3531918
| 28>     H    -5.9561323   -2.6760143  -12.9211784
| 29>     H    -5.3493065   -5.4022857  -12.6138864
| 30>     H    -4.9026920   -4.5600344  -14.0805662
| 31>     H    -2.0332029   -3.8723968  -10.7212603
| 32>     H    -1.2840120   -2.9236057  -12.0030089
| 33>     H    -0.3390126   -3.3496118  -10.5991093
| 34>     H     1.3318645   -4.4410417  -11.2426446
| 35>     H     1.2937811   -7.4692944  -14.0540319
| 36>     H    -0.9137340   -7.3207644  -14.3305569
| 37>     H     0.3388364   -7.7463297  -10.6659631
| 38>     H    -0.0305112   -9.7102583   -9.5034998
| 39>     H    -1.3826333  -11.6083016  -10.5601890
| 40>     H    -1.7559102  -12.4524649  -12.7274290
| 41>     H    -1.6723045   -9.3315101  -14.1878340
| 42> *
| 43>
| 44>                          ****END OF INPUT****

CARTESIAN COORDINATES (ANGSTROEM)
---------------------------------
  C     -5.197605   -3.225161  -12.349984
  C     -4.701825   -4.607074  -13.003239
  O     -3.335956   -4.725758  -12.666826
  C     -2.681053   -5.866901  -13.050944
  O     -3.215400   -6.747561  -13.708142
  C     -1.232300   -5.874600  -12.812489
  C     -0.605355   -4.957755  -12.027557
  C     -1.103114   -3.733748  -11.285977
  N      0.759867   -4.952927  -11.903528
  C      1.498723   -5.840003  -12.665136
  S      3.100320   -5.941816  -12.473156
  N      0.902557   -6.753960  -13.453027
  C     -0.481530   -7.058314  -13.357156
  C     -0.677975   -8.328910  -12.559812
  C     -0.236906   -8.469568  -11.235913
  C     -0.508815   -9.646886  -10.476436
  C     -1.175269  -10.675591  -11.076380
  C     -1.618440  -10.561654  -12.422892
  O     -2.217197  -11.652825  -13.034869
  C     -1.373751   -9.414635  -13.146992
  H     -4.413363   -2.478638  -12.174321
  H     -5.532191   -3.537650  -11.353192
  H     -5.956132   -2.676014  -12.921178
  H     -5.349306   -5.402286  -12.613886
  H     -4.902692   -4.560034  -14.080566
  H     -2.033203   -3.872397  -10.721260
  H     -1.284012   -2.923606  -12.003009
  H     -0.339013   -3.349612  -10.599109
  H      1.331865   -4.441042  -11.242645
  H      1.293781   -7.469294  -14.054032
  H     -0.913734   -7.320764  -14.330557
  H      0.338836   -7.746330  -10.665963
  H     -0.030511   -9.710258   -9.503500
  H     -1.382633  -11.608302  -10.560189
  H     -1.755910  -12.452465  -12.727429
  H     -1.672305   -9.331510  -14.187834

 Total Charge           Charge          ....    0
 Multiplicity           Mult            ....    1
 Number of Electrons    NEL             ....  154
 Basis Dimension        Dim             ....  828

ORBITAL ENERGIES
----------------

  NO   OCC          E(Eh)            E(eV)
   0   2.0000     -90.233182     -2455.3697
   1   2.0000     -18.913639      -514.6663
   2   2.0000     -18.884478      -513.8728
   3   2.0000     -18.868272      -513.4318
   4   2.0000     -13.945120      -379.4660
   5   2.0000     -13.930334      -379.0637
   6   2.0000      -9.716464      -264.3984
   7   2.0000      -9.712873      -264.3007
   8   2.0000      -9.644237      -262.4330
   9   2.0000      -9.612037      -261.5568
  10   2.0000      -9.602874      -261.3075
  11   2.0000      -9.589607      -260.9465
  12   2.0000      -9.562118      -260.1985
  13   2.0000      -9.559157      -260.1179
  14   2.0000      -9.550319      -259.8774
  15   2.0000      -9.544792      -259.7270
  16   2.0000      -9.543239      -259.6847
  17   2.0000      -9.542841      -259.6739
  18   2.0000      -9.542493      -259.6644
  19   2.0000      -9.516815      -258.9657
  20   2.0000      -7.242127      -197.0683
  21   2.0000      -4.924352      -133.9984
  22   2.0000      -4.922106      -133.9373
  23   2.0000      -4.921692      -133.9260
  24   2.0000       0.229587         6.2474
  25   2.0000       0.306108         8.3296
  26   2.0000       0.320405         8.7187
  27   2.0000       0.328653         8.9431
  28   2.0000       0.425538        11.5795
  29   2.0000       0.532690        14.4952
  30   2.0000       0.562455        15.3052
  31   2.0000       0.647854        17.6290
  32   2.0000       0.657849        17.9010
  33   2.0000       0.682098        18.5608
  34   2.0000       0.693799        18.8792
  35   2.0000       0.701631        19.0923
  36   2.0000       0.761037        20.7089
  37   2.0000       0.808516        22.0008
  38   2.0000       0.836461        22.7613
  39   2.0000       0.856669        23.3111
  40   2.0000       0.866428        23.5767
  41   2.0000       0.878393        23.9023
  42   2.0000       0.923977        25.1427
  43   2.0000       0.933675        25.4066
  44   2.0000       0.970186        26.4001
  45   2.0000       0.980164        26.6716
  46   2.0000       0.994762        27.0689
  47   2.0000       1.007323        27.4107
  48   2.0000       1.019103        27.7312
  49   2.0000       1.026637        27.9362
  50   2.0000       1.042117        28.3574
  51   2.0000       1.049208        28.5504
  52   2.0000       1.062357        28.9082
  53   2.0000       1.074673        29.2433
  54   2.0000       1.097895        29.8752
  55   2.0000       1.105758        30.0892
  56   2.0000       1.105965        30.0948
  57   2.0000       1.109954        30.2034
  58   2.0000       1.127286        30.6750
  59   2.0000       1.134947        30.8835
  60   2.0000       1.142155        31.0796
  61   2.0000       1.160734        31.5852
  62   2.0000       1.163923        31.6719
  63   2.0000       1.166258        31.7355
  64   2.0000       1.178273        32.0624
  65   2.0000       1.183247        32.1978
  66   2.0000       1.192775        32.4571
  67   2.0000       1.201437        32.6928
  68   2.0000       1.210630        32.9429
  69   2.0000       1.225326        33.3428
  70   2.0000       1.227807        33.4103
  71   2.0000       1.241528        33.7837
  72   2.0000       1.311616        35.6909
  73   2.0000       1.320697        35.9380
  74   2.0000       1.340282        36.4709
  75   2.0000       1.349197        36.7135
  76   2.0000       1.373367        37.3712
  77   0.0000       1.753067        47.7034
  78   0.0000       1.815216        49.3945
  79   0.0000       1.820802        49.5465
  80   0.0000       1.831961        49.8502
  81   0.0000       1.845712        50.2244

MULLIKEN ATOMIC CHARGES
-----------------------
   0 C :   -0.307109
   1 C :    0.044906
   2 O :   -0.301150
   3 C :    0.500937
   4 O :   -0.591847
   5 C :   -0.131271
   6 C :    0.140362
   7 C :   -0.284535
   8 N :   -0.132717
   9 C :    0.360932
  10 S :   -0.765402
  11 N :   -0.160805
  12 C :    0.018022
  13 C :    0.050849
  14 C :   -0.293696
  15 C :   -0.191829
  16 C :   -0.241905
  17 C :    0.311789
  18 O :   -0.475128
  19 C :   -0.229191
  20 H :    0.104730
  21 H :    0.102570
  22 H :    0.117638
  23 H :    0.096338
  24 H :    0.094895
  25 H :    0.135207
  26 H :    0.139298
  27 H :    0.117886
  28 H :    0.275387
  29 H :    0.261907
  30 H :    0.160821
  31 H :    0.188833
  32 H :    0.195995
  33 H :    0.182238
  34 H :    0.331988
  35 H :    0.173054
Sum of atomic charges:    0.0000000

LOEWDIN ATOMIC CHARGES
----------------------
   0 C :    0.122583
   1 C :   -0.023112
   2 O :    0.334768
   3 C :   -0.387356
   4 O :    0.004401
   5 C :   -0.098317
   6 C :   -0.044976
   7 C :    0.134656
   8 N :    0.438821
   9 C :   -0.441831
  10 S :   -0.205027
  11 N :    0.448788
  12 C :   -0.085325
  13 C :   -0.044711
  14 C :    0.014068
  15 C :    0.022706
  16 C :    0.009575
  17 C :   -0.172611
  18 O :    0.325135
  19 C :    0.024895
  20 H :   -0.030513
  21 H :   -0.030446
  22 H :   -0.027377
  23 H :   -0.028868
  24 H :   -0.034236
  25 H :   -0.009414
  26 H :   -0.000282
  27 H :   -0.008789
  28 H :   -0.017382
  29 H :   -0.012906
  30 H :    0.003819
  31 H :   -0.025125
  32 H :   -0.008545
  33 H :   -0.014705
  34 H :   -0.114776
  35 H :   -0.017585

  Mayer bond orders larger than 0.100000
B(  0-C ,  1-C ) :   0.9477 B(  0-C , 20-H ) :   0.9756 B(  0-C , 21-H ) :   0.9847
B(  0-C , 22-H ) :   0.9796 B(  1-C ,  2-O ) :   0.9146 B(  1-C , 23-H ) :   0.9786
B(  1-C , 24-H ) :   0.9810 B(  2-O ,  3-C ) :   1.2050 B(  3-C ,  4-O ) :   1.8766
B(  3-C ,  5-C ) :   1.1091 B(  5-C ,  6-C ) :   1.5893 B(  5-C , 12-C ) :   0.9640
B(  6-C ,  7-C ) :   0.9625 B(  6-C ,  8-N ) :   1.1534 B(  7-C , 25-H ) :   0.9676
B(  7-C , 26-H ) :   0.9515 B(  7-C , 27-H ) :   0.9877 B(  8-N ,  9-C ) :   1.2582
B(  8-N , 28-H ) :   0.9107 B(  9-C , 10-S ) :   1.2114 B(  9-C , 11-N ) :   1.4373
B( 11-N , 12-C ) :   0.9805 B( 11-N , 29-H ) :   0.9206 B( 12-C , 13-C ) :   0.9359
B( 12-C , 30-H ) :   1.0055 B( 13-C , 14-C ) :   1.3973 B( 13-C , 19-C ) :   1.2871
B( 14-C , 15-C ) :   1.3484 B( 14-C , 31-H ) :   0.9628 B( 15-C , 16-C ) :   1.3984
B( 15-C , 32-H ) :   0.9620 B( 16-C , 17-C ) :   1.2922 B( 16-C , 33-H ) :   0.9645
B( 17-C , 18-O ) :   1.0416 B( 17-C , 19-C ) :   1.4258 B( 18-O , 34-H ) :   0.9137
B( 19-C , 35-H ) :   0.9528

MP2 TOTAL ENERGY:    -1274.447673662 Eh
FINAL SINGLE POINT ENERGY     -1274.447673661570

DIPOLE MOMENT
-------------
                                X             Y             Z
Electronic contribution:     13.92543      -9.05711      -3.72964
Nuclear contribution   :    -15.78491      10.09272       5.12263
                        -----------------------------------------
Total Dipole Moment    :     -1.85947       1.03562       1.39299
                        -----------------------------------------
Magnitude (a.u.)       :      2.54373
Magnitude (Debye)      :      6.46565

Rotational constants in cm-1:     0.010628     0.008626     0.005402
Rotational constants in MHz :   318.620279   258.614072   161.946858

                             ****ORCA TERMINATED NORMALLY****
TOTAL RUN TIME: 0 days 2 hours 0 minutes 20 seconds 282 msec
