                         Program Version 5.0.0 -  RELEASE  -
|  1> ! RI-MP2 cc-pVTZ cc-pVTZ/c TightSCF KeepDens NoKeepInts
|  2>
|  3> *xyz  0  1
|  4>     C    -8.5361644    0.8930995    0.3475965
|  5>     C    -8.9864118    1.2754924    1.8087314
|  6>     O    -8.1979022    2.4306804    2.2476156
|  7>     C    -6.9405243    2.4579492    2.7317064
|  8>     O    -6.2289274    1.4419750    2.6608879
|  9>     C    -6.3952483    3.6990728    3.4323901
| 10>     C    -7.0354342    4.8192171    3.7385175
| 11>     C    -8.4764018    5.0121147    3.4595509
| 12>     N    -6.4231652    5.9725681    4.2942838
| 13>     C    -5.0739236    6.0326750    4.3913689
| 14>     S    -4.2804772    7.3593674    4.8809080
| 15>     N    -4.3061049    4.8491671    4.2182982
| 16>     C    -4.9452741    3.5649179    3.8943042
| 17>     C    -4.7854245    2.6335244    5.1465653
| 18>     C    -4.2638138    1.3378860    4.9929215
| 19>     C    -4.0589337    0.4262015    6.0949232
| 20>     C    -4.3403238    0.9695085    7.4146790
| 21>     C    -4.9648804    2.2728294    7.5588563
| 22>     O    -5.2899720    2.7907897    8.7619623
| 23>     C    -5.1895725    3.0405058    6.4170473
| 24>     H    -7.4421324    0.9138371    0.2710381
| 25>     H    -8.9427219    1.6765243   -0.3036697
| 26>     H    -8.8898447   -0.1029249    0.0542791
| 27>     H   -10.0689446    1.4482252    1.7703167
| 28>     H    -8.8370815    0.4578395    2.5245077
| 29>     H    -8.7908974    6.0629614    3.4601843
| 30>     H    -9.1371459    4.4282561    4.1120201
| 31>     H    -8.7246208    4.7017925    2.4371630
| 32>     H    -6.9403655    6.8317699    4.4365599
| 33>     H    -3.2937239    4.8534908    4.2504709
| 34>     H    -4.3387666    3.0707317    3.1254620
| 35>     H    -4.0508111    0.9084059    4.0184613
| 36>     H    -3.6912465   -0.5789100    5.9106598
| 37>     H    -4.0698396    0.5621932    8.3843844
| 38>     H    -5.2289707    3.7499380    8.6101653
| 39>     H    -5.5878716    4.0477694    6.4956214
| 40> *
| 41>
| 42>                          ****END OF INPUT****

CARTESIAN COORDINATES (ANGSTROEM)
---------------------------------
  C     -8.536164    0.893099    0.347596
  C     -8.986412    1.275492    1.808731
  O     -8.197902    2.430680    2.247616
  C     -6.940524    2.457949    2.731706
  O     -6.228927    1.441975    2.660888
  C     -6.395248    3.699073    3.432390
  C     -7.035434    4.819217    3.738517
  C     -8.476402    5.012115    3.459551
  N     -6.423165    5.972568    4.294284
  C     -5.073924    6.032675    4.391369
  S     -4.280477    7.359367    4.880908
  N     -4.306105    4.849167    4.218298
  C     -4.945274    3.564918    3.894304
  C     -4.785425    2.633524    5.146565
  C     -4.263814    1.337886    4.992921
  C     -4.058934    0.426201    6.094923
  C     -4.340324    0.969508    7.414679
  C     -4.964880    2.272829    7.558856
  O     -5.289972    2.790790    8.761962
  C     -5.189572    3.040506    6.417047
  H     -7.442132    0.913837    0.271038
  H     -8.942722    1.676524   -0.303670
  H     -8.889845   -0.102925    0.054279
  H    -10.068945    1.448225    1.770317
  H     -8.837082    0.457839    2.524508
  H     -8.790897    6.062961    3.460184
  H     -9.137146    4.428256    4.112020
  H     -8.724621    4.701792    2.437163
  H     -6.940366    6.831770    4.436560
  H     -3.293724    4.853491    4.250471
  H     -4.338767    3.070732    3.125462
  H     -4.050811    0.908406    4.018461
  H     -3.691247   -0.578910    5.910660
  H     -4.069840    0.562193    8.384384
  H     -5.228971    3.749938    8.610165
  H     -5.587872    4.047769    6.495621

 Total Charge           Charge          ....    0
 Multiplicity           Mult            ....    1
 Number of Electrons    NEL             ....  154
 Basis Dimension        Dim             ....  828

ORBITAL ENERGIES
----------------

  NO   OCC          E(Eh)            E(eV)
   0   2.0000     -91.890674     -2500.4724
   1   2.0000     -20.607514      -560.7590
   2   2.0000     -20.588831      -560.2506
   3   2.0000     -20.542412      -558.9874
   4   2.0000     -15.641184      -425.6183
   5   2.0000     -15.604697      -424.6254
   6   2.0000     -11.409115      -310.4578
   7   2.0000     -11.387813      -309.8781
   8   2.0000     -11.333777      -308.4077
   9   2.0000     -11.317683      -307.9698
  10   2.0000     -11.303401      -307.5812
  11   2.0000     -11.301739      -307.5359
  12   2.0000     -11.268610      -306.6345
  13   2.0000     -11.253700      -306.2287
  14   2.0000     -11.253228      -306.2159
  15   2.0000     -11.246773      -306.0402
  16   2.0000     -11.241313      -305.8917
  17   2.0000     -11.235512      -305.7338
  18   2.0000     -11.227948      -305.5280
  19   2.0000     -11.227845      -305.5252
  20   2.0000      -8.897216      -242.1056
  21   2.0000      -6.578882      -179.0205
  22   2.0000      -6.576815      -178.9642
  23   2.0000      -6.576146      -178.9460
  24   2.0000      -1.452073       -39.5129
  25   2.0000      -1.411640       -38.4127
  26   2.0000      -1.345836       -36.6221
  27   2.0000      -1.339988       -36.4629
  28   2.0000      -1.231000       -33.4972
  29   2.0000      -1.143878       -31.1265
  30   2.0000      -1.120462       -30.4893
  31   2.0000      -1.040589       -28.3159
  32   2.0000      -1.029356       -28.0102
  33   2.0000      -1.000488       -27.2247
  34   2.0000      -0.996921       -27.1276
  35   2.0000      -0.987575       -26.8733
  36   2.0000      -0.912261       -24.8239
  37   2.0000      -0.901552       -24.5325
  38   2.0000      -0.846506       -23.0346
  39   2.0000      -0.834920       -22.7193
  40   2.0000      -0.826233       -22.4829
  41   2.0000      -0.802096       -21.8261
  42   2.0000      -0.759169       -20.6580
  43   2.0000      -0.739640       -20.1266
  44   2.0000      -0.727366       -19.7926
  45   2.0000      -0.699871       -19.0445
  46   2.0000      -0.686100       -18.6697
  47   2.0000      -0.676631       -18.4121
  48   2.0000      -0.661241       -17.9933
  49   2.0000      -0.658833       -17.9278
  50   2.0000      -0.652659       -17.7598
  51   2.0000      -0.639603       -17.4045
  52   2.0000      -0.625931       -17.0324
  53   2.0000      -0.614930       -16.7331
  54   2.0000      -0.608388       -16.5551
  55   2.0000      -0.595314       -16.1993
  56   2.0000      -0.592596       -16.1254
  57   2.0000      -0.584630       -15.9086
  58   2.0000      -0.567119       -15.4321
  59   2.0000      -0.566395       -15.4124
  60   2.0000      -0.550956       -14.9923
  61   2.0000      -0.540960       -14.7203
  62   2.0000      -0.530177       -14.4268
  63   2.0000      -0.524357       -14.2685
  64   2.0000      -0.513162       -13.9639
  65   2.0000      -0.504632       -13.7317
  66   2.0000      -0.501091       -13.6354
  67   2.0000      -0.491261       -13.3679
  68   2.0000      -0.466552       -12.6955
  69   2.0000      -0.460714       -12.5367
  70   2.0000      -0.451734       -12.2923
  71   2.0000      -0.450935       -12.2706
  72   2.0000      -0.362268        -9.8578
  73   2.0000      -0.338030        -9.1983
  74   2.0000      -0.330102        -8.9825
  75   2.0000      -0.319369        -8.6905
  76   2.0000      -0.303231        -8.2513
  77   0.0000       0.072641         1.9767
  78   0.0000       0.111957         3.0465
  79   0.0000       0.117500         3.1973
  80   0.0000       0.133254         3.6260
  81   0.0000       0.139586         3.7983

MULLIKEN ATOMIC CHARGES
-----------------------
   0 C :   -0.276434
   1 C :    0.037752
   2 O :   -0.352672
   3 C :    0.464811
   4 O :   -0.448603
   5 C :   -0.132452
   6 C :    0.146488
   7 C :   -0.314397
   8 N :   -0.124844
   9 C :    0.193321
  10 S :   -0.422116
  11 N :   -0.222761
  12 C :    0.012768
  13 C :    0.028449
  14 C :   -0.143647
  15 C :   -0.163321
  16 C :   -0.231963
  17 C :    0.258992
  18 O :   -0.355487
  19 C :   -0.280626
  20 H :    0.118036
  21 H :    0.089601
  22 H :    0.100149
  23 H :    0.113992
  24 H :    0.108342
  25 H :    0.096344
  26 H :    0.126953
  27 H :    0.128028
  28 H :    0.208948
  29 H :    0.205048
  30 H :    0.152059
  31 H :    0.160374
  32 H :    0.176512
  33 H :    0.159712
  34 H :    0.248781
  35 H :    0.133858
Sum of atomic charges:    0.0000000

LOEWDIN ATOMIC CHARGES
----------------------
   0 C :    0.116711
   1 C :    0.023878
   2 O :    0.300810
   3 C :   -0.393017
   4 O :    0.071597
   5 C :   -0.081514
   6 C :   -0.083919
   7 C :    0.115735
   8 N :    0.408462
   9 C :   -0.474509
  10 S :    0.001291
  11 N :    0.378556
  12 C :   -0.048538
  13 C :   -0.041769
  14 C :    0.021196
  15 C :    0.056573
  16 C :    0.029955
  17 C :   -0.198183
  18 O :    0.388684
  19 C :   -0.009010
  20 H :   -0.024557
  21 H :   -0.032253
  22 H :   -0.028171
  23 H :   -0.024937
  24 H :   -0.030736
  25 H :   -0.021428
  26 H :   -0.008164
  27 H :   -0.007911
  28 H :   -0.047483
  29 H :   -0.066426
  30 H :   -0.010920
  31 H :   -0.031280
  32 H :   -0.029690
  33 H :   -0.039566
  34 H :   -0.145879
  35 H :   -0.033588

  Mayer bond orders larger than 0.100000
B(  0-C ,  1-C ) :   0.9582 B(  0-C , 20-H ) :   0.9747 B(  0-C , 21-H ) :   0.9795
B(  0-C , 22-H ) :   0.9747 B(  1-C ,  2-O ) :   0.8644 B(  1-C , 23-H ) :   0.9828
B(  1-C , 24-H ) :   0.9764 B(  2-O ,  3-C ) :   1.1862 B(  3-C ,  4-O ) :   1.9157
B(  3-C ,  5-C ) :   1.0602 B(  5-C ,  6-C ) :   1.6673 B(  5-C , 12-C ) :   0.9696
B(  6-C ,  7-C ) :   0.9478 B(  6-C ,  8-N ) :   1.1331 B(  7-C , 25-H ) :   0.9946
B(  7-C , 26-H ) :   0.9675 B(  7-C , 27-H ) :   0.9632 B(  8-N ,  9-C ) :   1.1971
B(  8-N , 28-H ) :   0.9383 B(  9-C , 10-S ) :   1.6612 B(  9-C , 11-N ) :   1.2416
B( 11-N , 12-C ) :   0.9926 B( 11-N , 29-H ) :   0.9493 B( 12-C , 13-C ) :   0.9483
B( 12-C , 30-H ) :   1.0035 B( 13-C , 14-C ) :   1.3978 B( 13-C , 19-C ) :   1.3148
B( 14-C , 15-C ) :   1.3917 B( 14-C , 31-H ) :   0.9585 B( 15-C , 16-C ) :   1.4007
B( 15-C , 32-H ) :   0.9646 B( 16-C , 17-C ) :   1.3617 B( 16-C , 33-H ) :   0.9629
B( 17-C , 18-O ) :   1.0902 B( 17-C , 19-C ) :   1.3772 B( 18-O , 34-H ) :   0.9699
B( 19-C , 35-H ) :   0.9709

MP2 TOTAL ENERGY:    -1274.293261570 Eh
FINAL SINGLE POINT ENERGY     -1274.293261569728

DIPOLE MOMENT
-------------
                                X             Y             Z
Electronic contribution:     11.17165      10.62623       9.36053
Nuclear contribution   :    -13.07812     -11.07487     -10.48603
                        -----------------------------------------
Total Dipole Moment    :     -1.90646      -0.44865      -1.12550
                        -----------------------------------------
Magnitude (a.u.)       :      2.25890
Magnitude (Debye)      :      5.74167

Rotational constants in cm-1:     0.010976     0.008215     0.005529
Rotational constants in MHz :   329.051339   246.277411   165.747562

                             ****ORCA TERMINATED NORMALLY****
TOTAL RUN TIME: 0 days 2 hours 5 minutes 35 seconds 350 msec
