                         Program Version 5.0.0 -  RELEASE  -
|  1> ! RI-MP2 cc-pVTZ cc-pVTZ/c TightSCF KeepDens NoKeepInts
|  2>
|  3> %pointcharges "srfp_output"
|  4>
|  5> *xyz  0  1
|  6>     C    -8.5361644    0.8930995    0.3475965
|  7>     C    -8.9864118    1.2754924    1.8087314
|  8>     O    -8.1979022    2.4306804    2.2476156
|  9>     C    -6.9405243    2.4579492    2.7317064
| 10>     O    -6.2289274    1.4419750    2.6608879
| 11>     C    -6.3952483    3.6990728    3.4323901
| 12>     C    -7.0354342    4.8192171    3.7385175
| 13>     C    -8.4764018    5.0121147    3.4595509
| 14>     N    -6.4231652    5.9725681    4.2942838
| 15>     C    -5.0739236    6.0326750    4.3913689
| 16>     S    -4.2804772    7.3593674    4.8809080
| 17>     N    -4.3061049    4.8491671    4.2182982
| 18>     C    -4.9452741    3.5649179    3.8943042
| 19>     C    -4.7854245    2.6335244    5.1465653
| 20>     C    -4.2638138    1.3378860    4.9929215
| 21>     C    -4.0589337    0.4262015    6.0949232
| 22>     C    -4.3403238    0.9695085    7.4146790
| 23>     C    -4.9648804    2.2728294    7.5588563
| 24>     O    -5.2899720    2.7907897    8.7619623
| 25>     C    -5.1895725    3.0405058    6.4170473
| 26>     H    -7.4421324    0.9138371    0.2710381
| 27>     H    -8.9427219    1.6765243   -0.3036697
| 28>     H    -8.8898447   -0.1029249    0.0542791
| 29>     H   -10.0689446    1.4482252    1.7703167
| 30>     H    -8.8370815    0.4578395    2.5245077
| 31>     H    -8.7908974    6.0629614    3.4601843
| 32>     H    -9.1371459    4.4282561    4.1120201
| 33>     H    -8.7246208    4.7017925    2.4371630
| 34>     H    -6.9403655    6.8317699    4.4365599
| 35>     H    -3.2937239    4.8534908    4.2504709
| 36>     H    -4.3387666    3.0707317    3.1254620
| 37>     H    -4.0508111    0.9084059    4.0184613
| 38>     H    -3.6912465   -0.5789100    5.9106598
| 39>     H    -4.0698396    0.5621932    8.3843844
| 40>     H    -5.2289707    3.7499380    8.6101653
| 41>     H    -5.5878716    4.0477694    6.4956214
| 42> *
| 43>
| 44>                          ****END OF INPUT****

CARTESIAN COORDINATES (ANGSTROEM)
---------------------------------
  C     -8.536164    0.893099    0.347596
  C     -8.986412    1.275492    1.808731
  O     -8.197902    2.430680    2.247616
  C     -6.940524    2.457949    2.731706
  O     -6.228927    1.441975    2.660888
  C     -6.395248    3.699073    3.432390
  C     -7.035434    4.819217    3.738517
  C     -8.476402    5.012115    3.459551
  N     -6.423165    5.972568    4.294284
  C     -5.073924    6.032675    4.391369
  S     -4.280477    7.359367    4.880908
  N     -4.306105    4.849167    4.218298
  C     -4.945274    3.564918    3.894304
  C     -4.785425    2.633524    5.146565
  C     -4.263814    1.337886    4.992921
  C     -4.058934    0.426201    6.094923
  C     -4.340324    0.969508    7.414679
  C     -4.964880    2.272829    7.558856
  O     -5.289972    2.790790    8.761962
  C     -5.189572    3.040506    6.417047
  H     -7.442132    0.913837    0.271038
  H     -8.942722    1.676524   -0.303670
  H     -8.889845   -0.102925    0.054279
  H    -10.068945    1.448225    1.770317
  H     -8.837082    0.457839    2.524508
  H     -8.790897    6.062961    3.460184
  H     -9.137146    4.428256    4.112020
  H     -8.724621    4.701792    2.437163
  H     -6.940366    6.831770    4.436560
  H     -3.293724    4.853491    4.250471
  H     -4.338767    3.070732    3.125462
  H     -4.050811    0.908406    4.018461
  H     -3.691247   -0.578910    5.910660
  H     -4.069840    0.562193    8.384384
  H     -5.228971    3.749938    8.610165
  H     -5.587872    4.047769    6.495621

 Total Charge           Charge          ....    0
 Multiplicity           Mult            ....    1
 Number of Electrons    NEL             ....  154
 Basis Dimension        Dim             ....  828

ORBITAL ENERGIES
----------------

  NO   OCC          E(Eh)            E(eV)
   0   2.0000     -88.555131     -2409.7076
   1   2.0000     -17.260581      -469.6843
   2   2.0000     -17.245374      -469.2705
   3   2.0000     -17.210242      -468.3145
   4   2.0000     -12.286875      -334.3429
   5   2.0000     -12.256743      -333.5229
   6   2.0000      -8.074987      -219.7316
   7   2.0000      -8.048910      -219.0220
   8   2.0000      -7.982713      -217.2207
   9   2.0000      -7.964357      -216.7212
  10   2.0000      -7.959155      -216.5796
  11   2.0000      -7.953333      -216.4212
  12   2.0000      -7.916445      -215.4174
  13   2.0000      -7.913782      -215.3450
  14   2.0000      -7.906243      -215.1398
  15   2.0000      -7.901721      -215.0168
  16   2.0000      -7.887537      -214.6308
  17   2.0000      -7.885133      -214.5654
  18   2.0000      -7.885060      -214.5634
  19   2.0000      -7.876303      -214.3251
  20   2.0000      -5.562954      -151.3757
  21   2.0000      -3.244963       -88.2999
  22   2.0000      -3.242837       -88.2421
  23   2.0000      -3.242299       -88.2274
  24   2.0000       1.889516        51.4164
  25   2.0000       1.930215        52.5238
  26   2.0000       1.989169        54.1280
  27   2.0000       2.011160        54.7265
  28   2.0000       2.120071        57.6901
  29   2.0000       2.201183        59.8972
  30   2.0000       2.223955        60.5169
  31   2.0000       2.311980        62.9122
  32   2.0000       2.320329        63.1394
  33   2.0000       2.343478        63.7693
  34   2.0000       2.347054        63.8666
  35   2.0000       2.358829        64.1870
  36   2.0000       2.435859        66.2831
  37   2.0000       2.452106        66.7252
  38   2.0000       2.504125        68.1407
  39   2.0000       2.511072        68.3297
  40   2.0000       2.520824        68.5951
  41   2.0000       2.540730        69.1368
  42   2.0000       2.589317        70.4589
  43   2.0000       2.608613        70.9840
  44   2.0000       2.616463        71.1976
  45   2.0000       2.651155        72.1416
  46   2.0000       2.655571        72.2618
  47   2.0000       2.667017        72.5732
  48   2.0000       2.682035        72.9819
  49   2.0000       2.691629        73.2430
  50   2.0000       2.695697        73.3536
  51   2.0000       2.711393        73.7808
  52   2.0000       2.722232        74.0757
  53   2.0000       2.730370        74.2971
  54   2.0000       2.734061        74.3976
  55   2.0000       2.748778        74.7980
  56   2.0000       2.759576        75.0919
  57   2.0000       2.767451        75.3062
  58   2.0000       2.783190        75.7344
  59   2.0000       2.789689        75.9113
  60   2.0000       2.800582        76.2077
  61   2.0000       2.810911        76.4888
  62   2.0000       2.818136        76.6854
  63   2.0000       2.819969        76.7353
  64   2.0000       2.829947        77.0068
  65   2.0000       2.836961        77.1976
  66   2.0000       2.845190        77.4216
  67   2.0000       2.854565        77.6767
  68   2.0000       2.873742        78.1985
  69   2.0000       2.880900        78.3933
  70   2.0000       2.889292        78.6216
  71   2.0000       2.893333        78.7316
  72   2.0000       2.986704        81.2723
  73   2.0000       2.997051        81.5539
  74   2.0000       3.002135        81.6922
  75   2.0000       3.017180        82.1017
  76   2.0000       3.032663        82.5230
  77   0.0000       3.416335        92.9632
  78   0.0000       3.455239        94.0218
  79   0.0000       3.483469        94.7900
  80   0.0000       3.488051        94.9147
  81   0.0000       3.497456        95.1706

MULLIKEN ATOMIC CHARGES
-----------------------
   0 C :   -0.274114
   1 C :    0.023301
   2 O :   -0.338431
   3 C :    0.507815
   4 O :   -0.572280
   5 C :   -0.149842
   6 C :    0.174081
   7 C :   -0.310125
   8 N :   -0.131353
   9 C :    0.288984
  10 S :   -0.601698
  11 N :   -0.241159
  12 C :    0.041626
  13 C :    0.015537
  14 C :   -0.213529
  15 C :   -0.143671
  16 C :   -0.279773
  17 C :    0.228920
  18 O :   -0.428208
  19 C :   -0.291301
  20 H :    0.098277
  21 H :    0.099966
  22 H :    0.114028
  23 H :    0.135793
  24 H :    0.113053
  25 H :    0.118971
  26 H :    0.135303
  27 H :    0.124069
  28 H :    0.264090
  29 H :    0.253544
  30 H :    0.167880
  31 H :    0.178448
  32 H :    0.209676
  33 H :    0.174386
  34 H :    0.330651
  35 H :    0.177084
Sum of atomic charges:   -0.0000000

LOEWDIN ATOMIC CHARGES
----------------------
   0 C :    0.118076
   1 C :    0.028375
   2 O :    0.311063
   3 C :   -0.375125
   4 O :   -0.008315
   5 C :   -0.086036
   6 C :   -0.061907
   7 C :    0.125763
   8 N :    0.427930
   9 C :   -0.446458
  10 S :   -0.115562
  11 N :    0.393251
  12 C :   -0.043021
  13 C :   -0.046892
  14 C :    0.006021
  15 C :    0.056823
  16 C :    0.010224
  17 C :   -0.215393
  18 O :    0.358945
  19 C :   -0.005562
  20 H :   -0.031872
  21 H :   -0.028920
  22 H :   -0.022407
  23 H :   -0.016429
  24 H :   -0.030578
  25 H :   -0.010131
  26 H :   -0.003731
  27 H :   -0.006766
  28 H :   -0.018409
  29 H :   -0.043696
  30 H :   -0.005783
  31 H :   -0.029242
  32 H :   -0.019351
  33 H :   -0.037896
  34 H :   -0.106759
  35 H :   -0.020230

  Mayer bond orders larger than 0.100000
B(  0-C ,  1-C ) :   0.9542 B(  0-C , 20-H ) :   0.9773 B(  0-C , 21-H ) :   0.9778
B(  0-C , 22-H ) :   0.9733 B(  1-C ,  2-O ) :   0.8438 B(  1-C , 23-H ) :   0.9801
B(  1-C , 24-H ) :   0.9764 B(  2-O ,  3-C ) :   1.2294 B(  3-C ,  4-O ) :   1.8309
B(  3-C ,  5-C ) :   1.0938 B(  5-C ,  6-C ) :   1.6357 B(  5-C , 12-C ) :   0.9663
B(  6-C ,  7-C ) :   0.9508 B(  6-C ,  8-N ) :   1.1442 B(  7-C , 25-H ) :   0.9895
B(  7-C , 26-H ) :   0.9646 B(  7-C , 27-H ) :   0.9614 B(  8-N ,  9-C ) :   1.2656
B(  8-N , 28-H ) :   0.9113 B(  9-C , 10-S ) :   1.4525 B(  9-C , 11-N ) :   1.3016
B( 11-N , 12-C ) :   0.9945 B( 11-N , 29-H ) :   0.9228 B( 12-C , 13-C ) :   0.9333
B( 12-C , 30-H ) :   1.0010 B( 13-C , 14-C ) :   1.3581 B( 13-C , 19-C ) :   1.2924
B( 14-C , 15-C ) :   1.3969 B( 14-C , 31-H ) :   0.9588 B( 15-C , 16-C ) :   1.3954
B( 15-C , 32-H ) :   0.9496 B( 16-C , 17-C ) :   1.3527 B( 16-C , 33-H ) :   0.9571
B( 17-C , 18-O ) :   1.1172 B( 17-C , 19-C ) :   1.3772 B( 18-O , 34-H ) :   0.9110
B( 19-C , 35-H ) :   0.9625

MP2 TOTAL ENERGY:    -1274.393180800 Eh
FINAL SINGLE POINT ENERGY     -1274.393180800301

DIPOLE MOMENT
-------------
                                X             Y             Z
Electronic contribution:     10.45401      10.94206       9.03665
Nuclear contribution   :    -13.07812     -11.07487     -10.48603
                        -----------------------------------------
Total Dipole Moment    :     -2.62411      -0.13281      -1.44938
                        -----------------------------------------
Magnitude (a.u.)       :      3.00071
Magnitude (Debye)      :      7.62720

Rotational constants in cm-1:     0.010976     0.008215     0.005529
Rotational constants in MHz :   329.051339   246.277411   165.747562

                             ****ORCA TERMINATED NORMALLY****
TOTAL RUN TIME: 0 days 1 hours 43 minutes 0 seconds 676 msec
