                         Program Version 4.2.0 -  RELEASE  -
|  1> ! ri-mp2 cc-pvtz cc-pvtz/c TightSCF NoKeepInts
|  2>
|  3> %scf
|  4>   MaxCore 4096
|  5> end
|  6> *xyz  0  1
|  7>     C       15.2707887   14.9242912   13.5507795
|  8>     C       14.5291521   15.7361306   14.6342127
|  9>     O       15.3687521   16.7982761   15.1298646
| 10>     C       16.4317954   16.5386562   15.9502017
| 11>     O       16.8934156   15.4204253   16.1050992
| 12>     C       16.8812655   17.7117644   16.7757732
| 13>     C       16.7962313   18.9955035   16.3354363
| 14>     C       16.0650850   19.5169880   15.1136578
| 15>     N       17.4695740   20.0237221   17.0002454
| 16>     C       18.4199563   19.8305317   17.9659344
| 17>     S       19.2589889   21.0918896   18.6297308
| 18>     N       18.6563555   18.5313975   18.3367685
| 19>     C       17.8709185   17.3625743   17.8954505
| 20>     C       17.2401068   16.5938010   19.0491005
| 21>     C       17.4861351   15.2188961   19.2147143
| 22>     C       16.9058381   14.5123545   20.2815173
| 23>     C       16.0736177   15.1870081   21.1912616
| 24>     C       15.8253150   16.5568102   21.0273655
| 25>     O       15.0191070   17.2097614   21.9020497
| 26>     C       16.4039704   17.2571482   19.9640589
| 27>     H       15.6792081   15.5891372   12.7798828
| 28>     H       14.5822769   14.2223084   13.0652267
| 29>     H       16.0946908   14.3385547   13.9753789
| 30>     H       13.6250648   16.1734397   14.1916136
| 31>     H       14.2196463   15.0758235   15.4558445
| 32>     H       14.9833901   19.3635352   15.2146928
| 33>     H       16.3985738   18.9962254   14.2073014
| 34>     H       16.2273955   20.5885011   14.9447172
| 35>     H       17.3226709   20.9810528   16.7232213
| 36>     H       19.3464504   18.4171233   19.0683709
| 37>     H       18.6621877   16.7651870   17.4195258
| 38>     H       18.1174972   14.6936900   18.5018592
| 39>     H       17.0980661   13.4470681   20.3955199
| 40>     H       15.6222671   14.6448884   22.0154417
| 41>     H       14.7382251   16.5679108   22.5712644
| 42>     H       16.2030201   18.3176245   19.8549167
| 43> *
| 44>
| 45>                          ****END OF INPUT****

CARTESIAN COORDINATES (ANGSTROEM)
---------------------------------
  C     15.270789   14.924291   13.550779
  C     14.529152   15.736131   14.634213
  O     15.368752   16.798276   15.129865
  C     16.431795   16.538656   15.950202
  O     16.893416   15.420425   16.105099
  C     16.881266   17.711764   16.775773
  C     16.796231   18.995504   16.335436
  C     16.065085   19.516988   15.113658
  N     17.469574   20.023722   17.000245
  C     18.419956   19.830532   17.965934
  S     19.258989   21.091890   18.629731
  N     18.656356   18.531398   18.336769
  C     17.870918   17.362574   17.895450
  C     17.240107   16.593801   19.049101
  C     17.486135   15.218896   19.214714
  C     16.905838   14.512355   20.281517
  C     16.073618   15.187008   21.191262
  C     15.825315   16.556810   21.027365
  O     15.019107   17.209761   21.902050
  C     16.403970   17.257148   19.964059
  H     15.679208   15.589137   12.779883
  H     14.582277   14.222308   13.065227
  H     16.094691   14.338555   13.975379
  H     13.625065   16.173440   14.191614
  H     14.219646   15.075824   15.455844
  H     14.983390   19.363535   15.214693
  H     16.398574   18.996225   14.207301
  H     16.227396   20.588501   14.944717
  H     17.322671   20.981053   16.723221
  H     19.346450   18.417123   19.068371
  H     18.662188   16.765187   17.419526
  H     18.117497   14.693690   18.501859
  H     17.098066   13.447068   20.395520
  H     15.622267   14.644888   22.015442
  H     14.738225   16.567911   22.571264
  H     16.203020   18.317625   19.854917

 Total Charge           Charge          ....    0
 Multiplicity           Mult            ....    1
 Number of Electrons    NEL             ....  154
 Basis Dimension        Dim             ....  828

ORBITAL ENERGIES
----------------

  NO   OCC          E(Eh)            E(eV)
   0   2.0000     -91.887610     -2500.3890
   1   2.0000     -20.602397      -560.6197
   2   2.0000     -20.591324      -560.3184
   3   2.0000     -20.546605      -559.1016
   4   2.0000     -15.627926      -425.2575
   5   2.0000     -15.605346      -424.6431
   6   2.0000     -11.397309      -310.1366
   7   2.0000     -11.382141      -309.7238
   8   2.0000     -11.337276      -308.5030
   9   2.0000     -11.307342      -307.6884
  10   2.0000     -11.303996      -307.5974
  11   2.0000     -11.303106      -307.5731
  12   2.0000     -11.260495      -306.4137
  13   2.0000     -11.258638      -306.3631
  14   2.0000     -11.254637      -306.2542
  15   2.0000     -11.247488      -306.0597
  16   2.0000     -11.237648      -305.7919
  17   2.0000     -11.233702      -305.6846
  18   2.0000     -11.230570      -305.5994
  19   2.0000     -11.224094      -305.4231
  20   2.0000      -8.892698      -241.9826
  21   2.0000      -6.574276      -178.8952
  22   2.0000      -6.572272      -178.8406
  23   2.0000      -6.571686      -178.8247
  24   2.0000      -1.452563       -39.5263
  25   2.0000      -1.411067       -38.3971
  26   2.0000      -1.358359       -36.9628
  27   2.0000      -1.339395       -36.4468
  28   2.0000      -1.236600       -33.6496
  29   2.0000      -1.151967       -31.3466
  30   2.0000      -1.120358       -30.4865
  31   2.0000      -1.042209       -28.3600
  32   2.0000      -1.033839       -28.1322
  33   2.0000      -1.009454       -27.4687
  34   2.0000      -0.997802       -27.1516
  35   2.0000      -0.982826       -26.7440
  36   2.0000      -0.920516       -25.0485
  37   2.0000      -0.893076       -24.3018
  38   2.0000      -0.847434       -23.0599
  39   2.0000      -0.834880       -22.7182
  40   2.0000      -0.827669       -22.5220
  41   2.0000      -0.818630       -22.2760
  42   2.0000      -0.752312       -20.4715
  43   2.0000      -0.733522       -19.9602
  44   2.0000      -0.725751       -19.7487
  45   2.0000      -0.690496       -18.7894
  46   2.0000      -0.685329       -18.6488
  47   2.0000      -0.679925       -18.5017
  48   2.0000      -0.669635       -18.2217
  49   2.0000      -0.661428       -17.9984
  50   2.0000      -0.645448       -17.5635
  51   2.0000      -0.640283       -17.4230
  52   2.0000      -0.631503       -17.1841
  53   2.0000      -0.607896       -16.5417
  54   2.0000      -0.601255       -16.3610
  55   2.0000      -0.597749       -16.2656
  56   2.0000      -0.594408       -16.1747
  57   2.0000      -0.586730       -15.9657
  58   2.0000      -0.572451       -15.5772
  59   2.0000      -0.566932       -15.4270
  60   2.0000      -0.560113       -15.2415
  61   2.0000      -0.546624       -14.8744
  62   2.0000      -0.536975       -14.6118
  63   2.0000      -0.522655       -14.2222
  64   2.0000      -0.515137       -14.0176
  65   2.0000      -0.510379       -13.8881
  66   2.0000      -0.501390       -13.6435
  67   2.0000      -0.493805       -13.4371
  68   2.0000      -0.479967       -13.0606
  69   2.0000      -0.462982       -12.5984
  70   2.0000      -0.456783       -12.4297
  71   2.0000      -0.451445       -12.2844
  72   2.0000      -0.352624        -9.5954
  73   2.0000      -0.344093        -9.3632
  74   2.0000      -0.326711        -8.8903
  75   2.0000      -0.316794        -8.6204
  76   2.0000      -0.314022        -8.5450
  77   0.0000       0.077931         2.1206
  78   0.0000       0.112047         3.0490
  79   0.0000       0.121296         3.3006
  80   0.0000       0.136189         3.7059
  81   0.0000       0.140755         3.8301

MULLIKEN ATOMIC CHARGES
-----------------------
   0 C :   -0.299064
   1 C :    0.038874
   2 O :   -0.347273
   3 C :    0.416867
   4 O :   -0.427066
   5 C :   -0.157856
   6 C :    0.162023
   7 C :   -0.281531
   8 N :   -0.129195
   9 C :    0.207693
  10 S :   -0.443132
  11 N :   -0.210860
  12 C :    0.040194
  13 C :    0.031893
  14 C :   -0.167440
  15 C :   -0.134451
  16 C :   -0.277065
  17 C :    0.314244
  18 O :   -0.358972
  19 C :   -0.250100
  20 H :    0.089053
  21 H :    0.094904
  22 H :    0.126372
  23 H :    0.105431
  24 H :    0.096968
  25 H :    0.130409
  26 H :    0.123825
  27 H :    0.101610
  28 H :    0.198773
  29 H :    0.199872
  30 H :    0.155318
  31 H :    0.158680
  32 H :    0.159723
  33 H :    0.128081
  34 H :    0.239817
  35 H :    0.163380
Sum of atomic charges:   -0.0000000

LOEWDIN ATOMIC CHARGES
----------------------
   0 C :    0.104454
   1 C :   -0.014436
   2 O :    0.301246
   3 C :   -0.412801
   4 O :    0.108697
   5 C :   -0.090437
   6 C :   -0.064834
   7 C :    0.124903
   8 N :    0.405253
   9 C :   -0.458685
  10 S :   -0.038205
  11 N :    0.396422
  12 C :   -0.048125
  13 C :   -0.040462
  14 C :    0.024513
  15 C :    0.040771
  16 C :   -0.001174
  17 C :   -0.192352
  18 O :    0.393142
  19 C :    0.030000
  20 H :   -0.030808
  21 H :   -0.028166
  22 H :   -0.025670
  23 H :   -0.024937
  24 H :   -0.027117
  25 H :   -0.009071
  26 H :   -0.010102
  27 H :   -0.021247
  28 H :   -0.058838
  29 H :   -0.063147
  30 H :   -0.008464
  31 H :   -0.024203
  32 H :   -0.021170
  33 H :   -0.036220
  34 H :   -0.154942
  35 H :   -0.023785

  Mayer bond orders larger than 0.100000
B(  0-C ,  1-C ) :   0.9671 B(  0-C , 20-H ) :   0.9763 B(  0-C , 21-H ) :   0.9768
B(  0-C , 22-H ) :   0.9713 B(  1-C ,  2-O ) :   0.9069 B(  1-C , 23-H ) :   0.9850
B(  1-C , 24-H ) :   0.9777 B(  2-O ,  3-C ) :   1.1351 B(  3-C ,  4-O ) :   1.9654
B(  3-C ,  5-C ) :   1.0538 B(  5-C ,  6-C ) :   1.6544 B(  5-C , 12-C ) :   0.9471
B(  6-C ,  7-C ) :   0.9536 B(  6-C ,  8-N ) :   1.1335 B(  7-C , 25-H ) :   0.9628
B(  7-C , 26-H ) :   0.9660 B(  7-C , 27-H ) :   0.9913 B(  8-N ,  9-C ) :   1.1863
B(  8-N , 28-H ) :   0.9470 B(  9-C , 10-S ) :   1.6074 B(  9-C , 11-N ) :   1.3059
B( 11-N , 12-C ) :   0.9762 B( 11-N , 29-H ) :   0.9484 B( 12-C , 13-C ) :   0.9743
B( 12-C , 30-H ) :   0.9970 B( 13-C , 14-C ) :   1.3757 B( 13-C , 19-C ) :   1.3671
B( 14-C , 15-C ) :   1.3972 B( 14-C , 31-H ) :   0.9640 B( 15-C , 16-C ) :   1.3588
B( 15-C , 32-H ) :   0.9713 B( 16-C , 17-C ) :   1.3332 B( 16-C , 33-H ) :   0.9860
B( 17-C , 18-O ) :   1.1033 B( 17-C , 19-C ) :   1.3674 B( 18-O , 34-H ) :   0.9807
B( 19-C , 35-H ) :   0.9600

MP2 TOTAL ENERGY:    -1274.338330286 Eh
FINAL SINGLE POINT ENERGY     -1274.338330285611

DIPOLE MOMENT
-------------
                                X             Y             Z
Electronic contribution:      8.70991       9.78592      12.63390
Nuclear contribution   :    -10.31481     -10.96553     -13.61357
                        -----------------------------------------
Total Dipole Moment    :     -1.60489      -1.17962      -0.97968
                        -----------------------------------------
Magnitude (a.u.)       :      2.21967
Magnitude (Debye)      :      5.64196

Rotational constants in cm-1:     0.009937     0.008912     0.005475
Rotational constants in MHz :   297.899292   267.165616   164.137902

                             ****ORCA TERMINATED NORMALLY****
TOTAL RUN TIME: 0 days 1 hours 34 minutes 25 seconds 538 msec
