                         Program Version 4.2.0 -  RELEASE  -
|  1> ! ri-mp2 cc-pvtz cc-pvtz/c TightSCF NoKeepInts
|  2>
|  3> %scf
|  4>   MaxCore 4096
|  5> end
|  6> *xyz  0  1
|  7>     C       13.6917441   16.1409297   14.6909403
|  8>     C       15.0913194   15.5456114   14.9189195
|  9>     O       16.0434366   16.6115565   14.7842993
| 10>     C       17.1029724   16.5971914   15.6375064
| 11>     O       17.8442097   15.6328309   15.7162621
| 12>     C       17.1325574   17.7335135   16.6169119
| 13>     C       16.7370492   18.9895238   16.2827740
| 14>     C       16.0196528   19.4309632   15.0224165
| 15>     N       17.0296067   20.0735178   17.1141554
| 16>     C       17.8963218   20.0247648   18.1727757
| 17>     S       18.2802313   21.3739773   19.0488300
| 18>     N       18.4473967   18.8001880   18.4546815
| 19>     C       18.0671353   17.5260238   17.8140488
| 20>     C       17.5607318   16.4809929   18.7991874
| 21>     C       18.1480218   15.2042616   18.8549593
| 22>     C       17.6773668   14.2401612   19.7621060
| 23>     C       16.6106596   14.5559386   20.6210688
| 24>     C       16.0217791   15.8267259   20.5654904
| 25>     O       14.9880079   16.1324848   21.3895072
| 26>     C       16.4918844   16.7839029   19.6606306
| 27>     H       13.4695356   16.9082333   15.4427792
| 28>     H       12.9260152   15.3589335   14.7636462
| 29>     H       13.6227684   16.5970815   13.6954841
| 30>     H       15.1336636   15.1077070   15.9265115
| 31>     H       15.3030584   14.7539121   14.1881259
| 32>     H       16.5519663   19.0842626   14.1275892
| 33>     H       15.9360450   20.5215502   14.9406031
| 34>     H       15.0030063   19.0208584   14.9899941
| 35>     H       16.6520050   20.9837998   16.9047888
| 36>     H       19.0684715   18.7875310   19.2539284
| 37>     H       19.0352965   17.2218345   17.3899024
| 38>     H       18.9629982   14.9546075   18.1793476
| 39>     H       18.1362270   13.2534818   19.7922470
| 40>     H       16.2433705   13.8138317   21.3220750
| 41>     H       14.8349997   15.3642367   21.9598859
| 42>     H       16.0254881   17.7630785   19.6336202
| 43> *
| 44>
| 45>                          ****END OF INPUT****

CARTESIAN COORDINATES (ANGSTROEM)
---------------------------------
  C     13.691744   16.140930   14.690940
  C     15.091319   15.545611   14.918919
  O     16.043437   16.611556   14.784299
  C     17.102972   16.597191   15.637506
  O     17.844210   15.632831   15.716262
  C     17.132557   17.733514   16.616912
  C     16.737049   18.989524   16.282774
  C     16.019653   19.430963   15.022416
  N     17.029607   20.073518   17.114155
  C     17.896322   20.024765   18.172776
  S     18.280231   21.373977   19.048830
  N     18.447397   18.800188   18.454681
  C     18.067135   17.526024   17.814049
  C     17.560732   16.480993   18.799187
  C     18.148022   15.204262   18.854959
  C     17.677367   14.240161   19.762106
  C     16.610660   14.555939   20.621069
  C     16.021779   15.826726   20.565490
  O     14.988008   16.132485   21.389507
  C     16.491884   16.783903   19.660631
  H     13.469536   16.908233   15.442779
  H     12.926015   15.358933   14.763646
  H     13.622768   16.597082   13.695484
  H     15.133664   15.107707   15.926511
  H     15.303058   14.753912   14.188126
  H     16.551966   19.084263   14.127589
  H     15.936045   20.521550   14.940603
  H     15.003006   19.020858   14.989994
  H     16.652005   20.983800   16.904789
  H     19.068472   18.787531   19.253928
  H     19.035297   17.221834   17.389902
  H     18.962998   14.954607   18.179348
  H     18.136227   13.253482   19.792247
  H     16.243371   13.813832   21.322075
  H     14.835000   15.364237   21.959886
  H     16.025488   17.763078   19.633620

 Total Charge           Charge          ....    0
 Multiplicity           Mult            ....    1
 Number of Electrons    NEL             ....  154
 Basis Dimension        Dim             ....  828

ORBITAL ENERGIES
----------------

  NO   OCC          E(Eh)            E(eV)
   0   2.0000     -91.889252     -2500.4337
   1   2.0000     -20.593900      -560.3885
   2   2.0000     -20.590632      -560.2996
   3   2.0000     -20.550038      -559.1950
   4   2.0000     -15.630053      -425.3154
   5   2.0000     -15.606880      -424.6848
   6   2.0000     -11.393511      -310.0332
   7   2.0000     -11.383970      -309.7736
   8   2.0000     -11.339200      -308.5553
   9   2.0000     -11.310027      -307.7615
  10   2.0000     -11.305243      -307.6313
  11   2.0000     -11.302879      -307.5670
  12   2.0000     -11.260328      -306.4091
  13   2.0000     -11.260286      -306.4080
  14   2.0000     -11.257160      -306.3229
  15   2.0000     -11.249957      -306.1269
  16   2.0000     -11.240150      -305.8600
  17   2.0000     -11.236354      -305.7567
  18   2.0000     -11.235953      -305.7458
  19   2.0000     -11.232885      -305.6623
  20   2.0000      -8.894328      -242.0270
  21   2.0000      -6.575901      -178.9394
  22   2.0000      -6.573901      -178.8849
  23   2.0000      -6.573310      -178.8689
  24   2.0000      -1.453998       -39.5653
  25   2.0000      -1.413653       -38.4675
  26   2.0000      -1.357921       -36.9509
  27   2.0000      -1.341066       -36.4922
  28   2.0000      -1.238149       -33.6917
  29   2.0000      -1.154490       -31.4153
  30   2.0000      -1.122165       -30.5357
  31   2.0000      -1.044906       -28.4333
  32   2.0000      -1.037847       -28.2413
  33   2.0000      -1.012026       -27.5386
  34   2.0000      -1.000459       -27.2239
  35   2.0000      -0.985866       -26.8268
  36   2.0000      -0.922125       -25.0923
  37   2.0000      -0.886544       -24.1241
  38   2.0000      -0.848485       -23.0885
  39   2.0000      -0.837324       -22.7847
  40   2.0000      -0.830163       -22.5899
  41   2.0000      -0.824826       -22.4446
  42   2.0000      -0.761311       -20.7163
  43   2.0000      -0.736616       -20.0443
  44   2.0000      -0.727811       -19.8047
  45   2.0000      -0.691897       -18.8275
  46   2.0000      -0.684450       -18.6248
  47   2.0000      -0.683034       -18.5863
  48   2.0000      -0.675969       -18.3941
  49   2.0000      -0.657529       -17.8923
  50   2.0000      -0.652386       -17.7523
  51   2.0000      -0.642117       -17.4729
  52   2.0000      -0.634436       -17.2639
  53   2.0000      -0.606820       -16.5124
  54   2.0000      -0.604533       -16.4502
  55   2.0000      -0.600597       -16.3431
  56   2.0000      -0.597275       -16.2527
  57   2.0000      -0.576315       -15.6823
  58   2.0000      -0.574461       -15.6319
  59   2.0000      -0.568997       -15.4832
  60   2.0000      -0.559874       -15.2350
  61   2.0000      -0.554801       -15.0969
  62   2.0000      -0.546543       -14.8722
  63   2.0000      -0.518203       -14.1010
  64   2.0000      -0.515076       -14.0159
  65   2.0000      -0.512675       -13.9506
  66   2.0000      -0.507249       -13.8030
  67   2.0000      -0.495883       -13.4937
  68   2.0000      -0.481401       -13.0996
  69   2.0000      -0.463185       -12.6039
  70   2.0000      -0.460150       -12.5213
  71   2.0000      -0.453574       -12.3424
  72   2.0000      -0.354288        -9.6407
  73   2.0000      -0.346591        -9.4312
  74   2.0000      -0.328287        -8.9332
  75   2.0000      -0.318446        -8.6654
  76   2.0000      -0.316733        -8.6187
  77   0.0000       0.073146         1.9904
  78   0.0000       0.108476         2.9518
  79   0.0000       0.120146         3.2693
  80   0.0000       0.134329         3.6553
  81   0.0000       0.138405         3.7662

MULLIKEN ATOMIC CHARGES
-----------------------
   0 C :   -0.290609
   1 C :    0.048756
   2 O :   -0.363353
   3 C :    0.437253
   4 O :   -0.396943
   5 C :   -0.195337
   6 C :    0.152003
   7 C :   -0.285091
   8 N :   -0.127855
   9 C :    0.206585
  10 S :   -0.440590
  11 N :   -0.211092
  12 C :    0.045872
  13 C :    0.031512
  14 C :   -0.174037
  15 C :   -0.133560
  16 C :   -0.277936
  17 C :    0.313975
  18 O :   -0.358789
  19 C :   -0.254312
  20 H :    0.094572
  21 H :    0.109078
  22 H :    0.100057
  23 H :    0.090730
  24 H :    0.106680
  25 H :    0.129289
  26 H :    0.105959
  27 H :    0.124737
  28 H :    0.198836
  29 H :    0.199931
  30 H :    0.156556
  31 H :    0.161828
  32 H :    0.161203
  33 H :    0.129196
  34 H :    0.240324
  35 H :    0.164575
Sum of atomic charges:   -0.0000000

LOEWDIN ATOMIC CHARGES
----------------------
   0 C :    0.105675
   1 C :   -0.016578
   2 O :    0.299038
   3 C :   -0.423508
   4 O :    0.118809
   5 C :   -0.096439
   6 C :   -0.065193
   7 C :    0.126358
   8 N :    0.405787
   9 C :   -0.458175
  10 S :   -0.036354
  11 N :    0.396151
  12 C :   -0.048461
  13 C :   -0.041507
  14 C :    0.024551
  15 C :    0.041357
  16 C :   -0.001230
  17 C :   -0.193085
  18 O :    0.393114
  19 C :    0.028303
  20 H :   -0.029127
  21 H :   -0.022801
  22 H :   -0.027060
  23 H :   -0.026255
  24 H :   -0.027173
  25 H :   -0.007592
  26 H :   -0.020460
  27 H :   -0.010941
  28 H :   -0.058340
  29 H :   -0.063288
  30 H :   -0.007459
  31 H :   -0.023310
  32 H :   -0.020520
  33 H :   -0.035884
  34 H :   -0.154507
  35 H :   -0.023897

  Mayer bond orders larger than 0.100000
B(  0-C ,  1-C ) :   0.9708 B(  0-C , 20-H ) :   0.9772 B(  0-C , 21-H ) :   0.9783
B(  0-C , 22-H ) :   0.9758 B(  1-C ,  2-O ) :   0.9018 B(  1-C , 23-H ) :   0.9706
B(  1-C , 24-H ) :   0.9836 B(  2-O ,  3-C ) :   1.0829 B(  3-C ,  4-O ) :   2.0357
B(  3-C ,  5-C ) :   1.0248 B(  5-C ,  6-C ) :   1.6609 B(  5-C , 12-C ) :   0.9485
B(  6-C ,  7-C ) :   0.9540 B(  6-C ,  8-N ) :   1.1374 B(  7-C , 25-H ) :   0.9653
B(  7-C , 26-H ) :   0.9903 B(  7-C , 27-H ) :   0.9651 B(  8-N ,  9-C ) :   1.1846
B(  8-N , 28-H ) :   0.9470 B(  9-C , 10-S ) :   1.6108 B(  9-C , 11-N ) :   1.3046
B( 11-N , 12-C ) :   0.9778 B( 11-N , 29-H ) :   0.9485 B( 12-C , 13-C ) :   0.9714
B( 12-C , 30-H ) :   0.9954 B( 13-C , 14-C ) :   1.3788 B( 13-C , 19-C ) :   1.3626
B( 14-C , 15-C ) :   1.3969 B( 14-C , 31-H ) :   0.9626 B( 15-C , 16-C ) :   1.3592
B( 15-C , 32-H ) :   0.9708 B( 16-C , 17-C ) :   1.3328 B( 16-C , 33-H ) :   0.9857
B( 17-C , 18-O ) :   1.1044 B( 17-C , 19-C ) :   1.3672 B( 18-O , 34-H ) :   0.9803
B( 19-C , 35-H ) :   0.9601

MP2 TOTAL ENERGY:    -1274.329239854 Eh
FINAL SINGLE POINT ENERGY     -1274.329239854336

DIPOLE MOMENT
-------------
                                X             Y             Z
Electronic contribution:     11.14311       7.81473       9.85764
Nuclear contribution   :    -12.54944      -9.12068     -10.64570
                        -----------------------------------------
Total Dipole Moment    :     -1.40633      -1.30595      -0.78806
                        -----------------------------------------
Magnitude (a.u.)       :      2.07468
Magnitude (Debye)      :      5.27342

Rotational constants in cm-1:     0.009867     0.009364     0.005970
Rotational constants in MHz :   295.798243   280.712044   178.963541

                             ****ORCA TERMINATED NORMALLY****
TOTAL RUN TIME: 0 days 1 hours 44 minutes 17 seconds 980 msec
