                         Program Version 4.2.0 -  RELEASE  -
|  1> ! ri-mp2 cc-pvtz cc-pvtz/c TightSCF NoKeepInts
|  2>
|  3> %scf
|  4>   MaxCore 4096
|  5> end
|  6> *xyz  0  1
|  7>     C       14.2297894   15.0699147   15.3897912
|  8>     C       14.9163375   16.4416232   15.2868486
|  9>     O       16.2611953   16.2066350   14.8221704
| 10>     C       17.3545743   16.4729374   15.6031088
| 11>     O       18.3247260   15.7378702   15.5958484
| 12>     C       17.2642418   17.6637252   16.5059335
| 13>     C       16.9642454   18.8921270   16.0155835
| 14>     C       16.4929444   19.2332482   14.6158760
| 15>     N       17.1604337   20.0366379   16.7910666
| 16>     C       17.8718421   20.0602894   17.9615227
| 17>     S       18.1625696   21.4699552   18.7754303
| 18>     N       18.3502848   18.8542936   18.4112383
| 19>     C       18.0254807   17.5380946   17.8260721
| 20>     C       17.3648493   16.5633503   18.7897333
| 21>     C       17.8089403   15.2312273   18.8661167
| 22>     C       17.1880401   14.3202626   19.7368367
| 23>     C       16.1120207   14.7446849   20.5352257
| 24>     C       15.6632481   16.0701800   20.4557910
| 25>     O       14.6180400   16.4801280   21.2175241
| 26>     C       16.2825044   16.9747528   19.5871675
| 27>     H       14.7462011   14.4345779   16.1208686
| 28>     H       14.2403773   14.5574118   14.4195493
| 29>     H       13.1865285   15.1820428   15.7090137
| 30>     H       14.3743683   17.0621581   14.5619667
| 31>     H       14.8831621   16.9355927   16.2664702
| 32>     H       16.8705188   18.5218924   13.8706874
| 33>     H       16.8498828   20.2216266   14.2991870
| 34>     H       15.3985219   19.2419850   14.5574445
| 35>     H       16.8454752   20.9334789   16.4558777
| 36>     H       18.8660370   18.8977748   19.2814076
| 37>     H       19.0336761   17.1868281   17.5597295
| 38>     H       18.6320535   14.8984867   18.2367807
| 39>     H       17.5389088   13.2907518   19.7857707
| 40>     H       15.6287561   14.0435669   21.2076499
| 41>     H       14.3570123   15.7338911   21.7781768
| 42>     H       15.9192121   17.9959969   19.5385342
| 43> *
| 44>
| 45>                          ****END OF INPUT****

CARTESIAN COORDINATES (ANGSTROEM)
---------------------------------
  C     14.229789   15.069915   15.389791
  C     14.916337   16.441623   15.286849
  O     16.261195   16.206635   14.822170
  C     17.354574   16.472937   15.603109
  O     18.324726   15.737870   15.595848
  C     17.264242   17.663725   16.505934
  C     16.964245   18.892127   16.015584
  C     16.492944   19.233248   14.615876
  N     17.160434   20.036638   16.791067
  C     17.871842   20.060289   17.961523
  S     18.162570   21.469955   18.775430
  N     18.350285   18.854294   18.411238
  C     18.025481   17.538095   17.826072
  C     17.364849   16.563350   18.789733
  C     17.808940   15.231227   18.866117
  C     17.188040   14.320263   19.736837
  C     16.112021   14.744685   20.535226
  C     15.663248   16.070180   20.455791
  O     14.618040   16.480128   21.217524
  C     16.282504   16.974753   19.587167
  H     14.746201   14.434578   16.120869
  H     14.240377   14.557412   14.419549
  H     13.186528   15.182043   15.709014
  H     14.374368   17.062158   14.561967
  H     14.883162   16.935593   16.266470
  H     16.870519   18.521892   13.870687
  H     16.849883   20.221627   14.299187
  H     15.398522   19.241985   14.557444
  H     16.845475   20.933479   16.455878
  H     18.866037   18.897775   19.281408
  H     19.033676   17.186828   17.559729
  H     18.632053   14.898487   18.236781
  H     17.538909   13.290752   19.785771
  H     15.628756   14.043567   21.207650
  H     14.357012   15.733891   21.778177
  H     15.919212   17.995997   19.538534

 Total Charge           Charge          ....    0
 Multiplicity           Mult            ....    1
 Number of Electrons    NEL             ....  154
 Basis Dimension        Dim             ....  828

ORBITAL ENERGIES
----------------

  NO   OCC          E(Eh)            E(eV)
   0   2.0000     -91.890252     -2500.4609
   1   2.0000     -20.602086      -560.6113
   2   2.0000     -20.598411      -560.5112
   3   2.0000     -20.549749      -559.1871
   4   2.0000     -15.629356      -425.2964
   5   2.0000     -15.609288      -424.7503
   6   2.0000     -11.398029      -310.1561
   7   2.0000     -11.385859      -309.8250
   8   2.0000     -11.336583      -308.4841
   9   2.0000     -11.315429      -307.9085
  10   2.0000     -11.308701      -307.7254
  11   2.0000     -11.306980      -307.6786
  12   2.0000     -11.266353      -306.5731
  13   2.0000     -11.263585      -306.4977
  14   2.0000     -11.262915      -306.4795
  15   2.0000     -11.255453      -306.2765
  16   2.0000     -11.244725      -305.9845
  17   2.0000     -11.241108      -305.8861
  18   2.0000     -11.237663      -305.7924
  19   2.0000     -11.231396      -305.6218
  20   2.0000      -8.895351      -242.0548
  21   2.0000      -6.576930      -178.9674
  22   2.0000      -6.574920      -178.9127
  23   2.0000      -6.574335      -178.8967
  24   2.0000      -1.450106       -39.4594
  25   2.0000      -1.418140       -38.5896
  26   2.0000      -1.361968       -37.0610
  27   2.0000      -1.341734       -36.5104
  28   2.0000      -1.239588       -33.7309
  29   2.0000      -1.159798       -31.5597
  30   2.0000      -1.125607       -30.6293
  31   2.0000      -1.047470       -28.5031
  32   2.0000      -1.039756       -28.2932
  33   2.0000      -1.017588       -27.6900
  34   2.0000      -1.005304       -27.3557
  35   2.0000      -0.989252       -26.9189
  36   2.0000      -0.925943       -25.1962
  37   2.0000      -0.884638       -24.0722
  38   2.0000      -0.855676       -23.2841
  39   2.0000      -0.842327       -22.9209
  40   2.0000      -0.836309       -22.7571
  41   2.0000      -0.834679       -22.7128
  42   2.0000      -0.754709       -20.5367
  43   2.0000      -0.739828       -20.1317
  44   2.0000      -0.731238       -19.8980
  45   2.0000      -0.696289       -18.9470
  46   2.0000      -0.688370       -18.7315
  47   2.0000      -0.682041       -18.5593
  48   2.0000      -0.675991       -18.3947
  49   2.0000      -0.661592       -18.0028
  50   2.0000      -0.657942       -17.9035
  51   2.0000      -0.646522       -17.5927
  52   2.0000      -0.639127       -17.3915
  53   2.0000      -0.611616       -16.6429
  54   2.0000      -0.605907       -16.4876
  55   2.0000      -0.601896       -16.3784
  56   2.0000      -0.600222       -16.3329
  57   2.0000      -0.581276       -15.8173
  58   2.0000      -0.577261       -15.7081
  59   2.0000      -0.571460       -15.5502
  60   2.0000      -0.562035       -15.2937
  61   2.0000      -0.559581       -15.2270
  62   2.0000      -0.549393       -14.9497
  63   2.0000      -0.527050       -14.3418
  64   2.0000      -0.518199       -14.1009
  65   2.0000      -0.514604       -14.0031
  66   2.0000      -0.503352       -13.6969
  67   2.0000      -0.500597       -13.6219
  68   2.0000      -0.488579       -13.2949
  69   2.0000      -0.471429       -12.8282
  70   2.0000      -0.456585       -12.4243
  71   2.0000      -0.450375       -12.2553
  72   2.0000      -0.356331        -9.6963
  73   2.0000      -0.350859        -9.5474
  74   2.0000      -0.329600        -8.9689
  75   2.0000      -0.322824        -8.7845
  76   2.0000      -0.319842        -8.7033
  77   0.0000       0.079483         2.1628
  78   0.0000       0.103648         2.8204
  79   0.0000       0.117663         3.2018
  80   0.0000       0.130766         3.5583
  81   0.0000       0.133020         3.6197

MULLIKEN ATOMIC CHARGES
-----------------------
   0 C :   -0.252316
   1 C :    0.009250
   2 O :   -0.326281
   3 C :    0.427312
   4 O :   -0.382435
   5 C :   -0.252111
   6 C :    0.179946
   7 C :   -0.324277
   8 N :   -0.136338
   9 C :    0.206289
  10 S :   -0.441475
  11 N :   -0.219101
  12 C :    0.064353
  13 C :    0.024875
  14 C :   -0.210446
  15 C :   -0.128958
  16 C :   -0.277192
  17 C :    0.314296
  18 O :   -0.356817
  19 C :   -0.256152
  20 H :    0.103633
  21 H :    0.101519
  22 H :    0.088571
  23 H :    0.097755
  24 H :    0.111273
  25 H :    0.142319
  26 H :    0.123334
  27 H :    0.121930
  28 H :    0.198380
  29 H :    0.201578
  30 H :    0.164729
  31 H :    0.174409
  32 H :    0.164333
  33 H :    0.131072
  34 H :    0.241220
  35 H :    0.171525
Sum of atomic charges:   -0.0000000

LOEWDIN ATOMIC CHARGES
----------------------
   0 C :    0.109065
   1 C :   -0.022998
   2 O :    0.307277
   3 C :   -0.417944
   4 O :    0.120407
   5 C :   -0.090795
   6 C :   -0.081982
   7 C :    0.128008
   8 N :    0.403481
   9 C :   -0.457448
  10 S :   -0.037086
  11 N :    0.396085
  12 C :   -0.049582
  13 C :   -0.043931
  14 C :    0.021653
  15 C :    0.043762
  16 C :   -0.000271
  17 C :   -0.192034
  18 O :    0.394313
  19 C :    0.026362
  20 H :   -0.022892
  21 H :   -0.024309
  22 H :   -0.026680
  23 H :   -0.032935
  24 H :   -0.034587
  25 H :   -0.006503
  26 H :   -0.013397
  27 H :   -0.016699
  28 H :   -0.057544
  29 H :   -0.063401
  30 H :   -0.004896
  31 H :   -0.021325
  32 H :   -0.018959
  33 H :   -0.035032
  34 H :   -0.153403
  35 H :   -0.023777

  Mayer bond orders larger than 0.100000
B(  0-C ,  1-C ) :   0.9872 B(  0-C , 20-H ) :   0.9765 B(  0-C , 21-H ) :   0.9785
B(  0-C , 22-H ) :   0.9765 B(  1-C ,  2-O ) :   0.8941 B(  1-C , 23-H ) :   0.9769
B(  1-C , 24-H ) :   0.9567 B(  2-O ,  3-C ) :   1.1679 B(  3-C ,  4-O ) :   2.0838
B(  3-C ,  5-C ) :   0.9418 B(  5-C ,  6-C ) :   1.7039 B(  5-C , 12-C ) :   0.9419
B(  6-C ,  7-C ) :   0.9323 B(  6-C ,  8-N ) :   1.1185 B(  7-C , 25-H ) :   0.9705
B(  7-C , 26-H ) :   0.9826 B(  7-C , 27-H ) :   0.9665 B(  8-N ,  9-C ) :   1.1927
B(  8-N , 28-H ) :   0.9497 B(  9-C , 10-S ) :   1.6112 B(  9-C , 11-N ) :   1.2945
B( 11-N , 12-C ) :   0.9854 B( 11-N , 29-H ) :   0.9481 B( 12-C , 13-C ) :   0.9684
B( 12-C , 30-H ) :   0.9911 B( 13-C , 14-C ) :   1.3843 B( 13-C , 19-C ) :   1.3550
B( 14-C , 15-C ) :   1.3936 B( 14-C , 31-H ) :   0.9594 B( 15-C , 16-C ) :   1.3610
B( 15-C , 32-H ) :   0.9699 B( 16-C , 17-C ) :   1.3312 B( 16-C , 33-H ) :   0.9852
B( 17-C , 18-O ) :   1.1078 B( 17-C , 19-C ) :   1.3662 B( 18-O , 34-H ) :   0.9795
B( 19-C , 35-H ) :   0.9571

MP2 TOTAL ENERGY:    -1274.331596242 Eh
FINAL SINGLE POINT ENERGY     -1274.331596242476

DIPOLE MOMENT
-------------
                                X             Y             Z
Electronic contribution:     10.13988       8.74644       8.11882
Nuclear contribution   :    -11.78988      -9.76999      -8.55922
                        -----------------------------------------
Total Dipole Moment    :     -1.65000      -1.02355      -0.44040
                        -----------------------------------------
Magnitude (a.u.)       :      1.99100
Magnitude (Debye)      :      5.06073

Rotational constants in cm-1:     0.010897     0.009137     0.006213
Rotational constants in MHz :   326.688735   273.911630   186.267164

                             ****ORCA TERMINATED NORMALLY****
TOTAL RUN TIME: 0 days 1 hours 39 minutes 30 seconds 913 msec
