                         Program Version 4.2.0 -  RELEASE  -
|  1> ! ri-mp2 cc-pvtz cc-pvtz/c TightSCF NoKeepInts
|  2>
|  3> %scf
|  4>   MaxCore 4096
|  5> end
|  6> *xyz  0  1
|  7>     C       14.5596498   15.9561461   16.4605843
|  8>     C       15.1932555   16.0363282   15.0569373
|  9>     O       16.5953136   15.7032751   15.1143113
| 10>     C       17.6027163   16.5592230   15.4810776
| 11>     O       18.7634791   16.3341853   15.1956735
| 12>     C       17.2336909   17.6547133   16.4176433
| 13>     C       16.8957229   18.8650343   15.9153582
| 14>     C       16.5686269   19.1897230   14.4720587
| 15>     N       16.8955621   20.0025180   16.7243035
| 16>     C       17.4772082   20.0594567   17.9638621
| 17>     S       17.5567852   21.4685142   18.8255988
| 18>     N       18.0168116   18.8896230   18.4410340
| 19>     C       17.8623770   17.5638415   17.8083878
| 20>     C       17.2421887   16.4882079   18.6881599
| 21>     C       17.7088911   15.1636282   18.6098270
| 22>     C       17.1302515   14.1545444   19.3973200
| 23>     C       16.0748113   14.4725504   20.2690688
| 24>     C       15.6057153   15.7910231   20.3469192
| 25>     O       14.5802189   16.0987035   21.1800791
| 26>     C       16.1834695   16.7940977   19.5619688
| 27>     H       14.9191834   15.0711783   17.0015637
| 28>     H       13.4683076   15.8830605   16.3806848
| 29>     H       14.7842958   16.8458231   17.0583562
| 30>     H       14.6969721   15.2909846   14.4217532
| 31>     H       15.0206415   17.0178341   14.6026229
| 32>     H       16.8665090   18.3915536   13.7810733
| 33>     H       17.1000552   20.0927589   14.1445878
| 34>     H       15.4941531   19.3671197   14.3420547
| 35>     H       16.5434037   20.8767368   16.3670703
| 36>     H       18.4437297   18.9582023   19.3564823
| 37>     H       18.9202985   17.3197054   17.6280996
| 38>     H       18.5186435   14.9143752   17.9268703
| 39>     H       17.4982370   13.1322399   19.3268793
| 40>     H       15.6238320   13.6955977   20.8775758
| 41>     H       14.3428267   15.2910101   21.6601880
| 42>     H       15.7991659   17.8064832   19.6319647
| 43> *
| 44>
| 45>                          ****END OF INPUT****

CARTESIAN COORDINATES (ANGSTROEM)
---------------------------------
  C     14.559650   15.956146   16.460584
  C     15.193255   16.036328   15.056937
  O     16.595314   15.703275   15.114311
  C     17.602716   16.559223   15.481078
  O     18.763479   16.334185   15.195673
  C     17.233691   17.654713   16.417643
  C     16.895723   18.865034   15.915358
  C     16.568627   19.189723   14.472059
  N     16.895562   20.002518   16.724304
  C     17.477208   20.059457   17.963862
  S     17.556785   21.468514   18.825599
  N     18.016812   18.889623   18.441034
  C     17.862377   17.563841   17.808388
  C     17.242189   16.488208   18.688160
  C     17.708891   15.163628   18.609827
  C     17.130251   14.154544   19.397320
  C     16.074811   14.472550   20.269069
  C     15.605715   15.791023   20.346919
  O     14.580219   16.098703   21.180079
  C     16.183470   16.794098   19.561969
  H     14.919183   15.071178   17.001564
  H     13.468308   15.883060   16.380685
  H     14.784296   16.845823   17.058356
  H     14.696972   15.290985   14.421753
  H     15.020641   17.017834   14.602623
  H     16.866509   18.391554   13.781073
  H     17.100055   20.092759   14.144588
  H     15.494153   19.367120   14.342055
  H     16.543404   20.876737   16.367070
  H     18.443730   18.958202   19.356482
  H     18.920299   17.319705   17.628100
  H     18.518643   14.914375   17.926870
  H     17.498237   13.132240   19.326879
  H     15.623832   13.695598   20.877576
  H     14.342827   15.291010   21.660188
  H     15.799166   17.806483   19.631965

 Total Charge           Charge          ....    0
 Multiplicity           Mult            ....    1
 Number of Electrons    NEL             ....  154
 Basis Dimension        Dim             ....  828

ORBITAL ENERGIES
----------------

  NO   OCC          E(Eh)            E(eV)
   0   2.0000     -91.888945     -2500.4253
   1   2.0000     -20.601684      -560.6003
   2   2.0000     -20.600221      -560.5605
   3   2.0000     -20.555055      -559.3315
   4   2.0000     -15.625171      -425.1825
   5   2.0000     -15.610007      -424.7699
   6   2.0000     -11.400858      -310.2331
   7   2.0000     -11.385168      -309.8062
   8   2.0000     -11.328029      -308.2513
   9   2.0000     -11.317902      -307.9758
  10   2.0000     -11.313620      -307.8593
  11   2.0000     -11.308925      -307.7315
  12   2.0000     -11.268453      -306.6302
  13   2.0000     -11.266341      -306.5727
  14   2.0000     -11.262892      -306.4789
  15   2.0000     -11.258920      -306.3708
  16   2.0000     -11.246917      -306.0442
  17   2.0000     -11.242337      -305.9196
  18   2.0000     -11.241291      -305.8911
  19   2.0000     -11.228203      -305.5349
  20   2.0000      -8.894059      -242.0196
  21   2.0000      -6.575645      -178.9324
  22   2.0000      -6.573627      -178.8775
  23   2.0000      -6.573050      -178.8618
  24   2.0000      -1.449300       -39.4374
  25   2.0000      -1.419939       -38.6385
  26   2.0000      -1.364147       -37.1203
  27   2.0000      -1.339432       -36.4478
  28   2.0000      -1.238767       -33.7086
  29   2.0000      -1.162354       -31.6293
  30   2.0000      -1.126921       -30.6651
  31   2.0000      -1.049396       -28.5555
  32   2.0000      -1.037997       -28.2453
  33   2.0000      -1.020470       -27.7684
  34   2.0000      -1.006904       -27.3993
  35   2.0000      -0.990208       -26.9449
  36   2.0000      -0.927214       -25.2308
  37   2.0000      -0.894815       -24.3492
  38   2.0000      -0.853377       -23.2216
  39   2.0000      -0.842029       -22.9128
  40   2.0000      -0.837691       -22.7947
  41   2.0000      -0.832300       -22.6480
  42   2.0000      -0.752851       -20.4861
  43   2.0000      -0.739601       -20.1256
  44   2.0000      -0.732725       -19.9385
  45   2.0000      -0.697990       -18.9933
  46   2.0000      -0.691267       -18.8103
  47   2.0000      -0.681757       -18.5515
  48   2.0000      -0.674684       -18.3591
  49   2.0000      -0.665706       -18.1148
  50   2.0000      -0.652132       -17.7454
  51   2.0000      -0.642545       -17.4845
  52   2.0000      -0.638242       -17.3674
  53   2.0000      -0.616082       -16.7644
  54   2.0000      -0.611934       -16.6516
  55   2.0000      -0.608598       -16.5608
  56   2.0000      -0.603737       -16.4285
  57   2.0000      -0.588827       -16.0228
  58   2.0000      -0.579706       -15.7746
  59   2.0000      -0.575526       -15.6609
  60   2.0000      -0.563800       -15.3418
  61   2.0000      -0.559310       -15.2196
  62   2.0000      -0.539838       -14.6897
  63   2.0000      -0.530636       -14.4393
  64   2.0000      -0.520142       -14.1538
  65   2.0000      -0.512935       -13.9577
  66   2.0000      -0.506278       -13.7765
  67   2.0000      -0.502560       -13.6754
  68   2.0000      -0.488764       -13.3000
  69   2.0000      -0.463723       -12.6186
  70   2.0000      -0.455416       -12.3925
  71   2.0000      -0.454227       -12.3601
  72   2.0000      -0.356518        -9.7014
  73   2.0000      -0.350174        -9.5287
  74   2.0000      -0.328644        -8.9429
  75   2.0000      -0.325906        -8.8684
  76   2.0000      -0.319090        -8.6829
  77   0.0000       0.092895         2.5278
  78   0.0000       0.105077         2.8593
  79   0.0000       0.113558         3.0901
  80   0.0000       0.126709         3.4479
  81   0.0000       0.129165         3.5148

MULLIKEN ATOMIC CHARGES
-----------------------
   0 C :   -0.310968
   1 C :    0.022514
   2 O :   -0.316749
   3 C :    0.418564
   4 O :   -0.377474
   5 C :   -0.209921
   6 C :    0.149515
   7 C :   -0.336831
   8 N :   -0.141207
   9 C :    0.213669
  10 S :   -0.444702
  11 N :   -0.235992
  12 C :    0.076976
  13 C :    0.023213
  14 C :   -0.222629
  15 C :   -0.133328
  16 C :   -0.277717
  17 C :    0.321436
  18 O :   -0.355426
  19 C :   -0.256063
  20 H :    0.120480
  21 H :    0.110152
  22 H :    0.105441
  23 H :    0.128144
  24 H :    0.085502
  25 H :    0.124643
  26 H :    0.134315
  27 H :    0.124260
  28 H :    0.196457
  29 H :    0.205546
  30 H :    0.170895
  31 H :    0.168614
  32 H :    0.164880
  33 H :    0.132655
  34 H :    0.241349
  35 H :    0.179789
Sum of atomic charges:   -0.0000000

LOEWDIN ATOMIC CHARGES
----------------------
   0 C :    0.103644
   1 C :   -0.020467
   2 O :    0.305311
   3 C :   -0.418022
   4 O :    0.125864
   5 C :   -0.077252
   6 C :   -0.100576
   7 C :    0.122552
   8 N :    0.401683
   9 C :   -0.455579
  10 S :   -0.039754
  11 N :    0.396746
  12 C :   -0.048957
  13 C :   -0.041874
  14 C :    0.018683
  15 C :    0.045078
  16 C :   -0.000576
  17 C :   -0.190249
  18 O :    0.396441
  19 C :    0.029796
  20 H :   -0.019940
  21 H :   -0.026757
  22 H :   -0.035463
  23 H :   -0.019694
  24 H :   -0.037204
  25 H :   -0.009078
  26 H :   -0.009514
  27 H :   -0.018015
  28 H :   -0.057950
  29 H :   -0.064000
  30 H :   -0.002751
  31 H :   -0.022363
  32 H :   -0.018253
  33 H :   -0.034619
  34 H :   -0.153041
  35 H :   -0.023854

  Mayer bond orders larger than 0.100000
B(  0-C ,  1-C ) :   0.9566 B(  0-C , 20-H ) :   0.9697 B(  0-C , 21-H ) :   0.9771
B(  0-C , 22-H ) :   0.9714 B(  1-C ,  2-O ) :   0.9055 B(  1-C , 23-H ) :   0.9854
B(  1-C , 24-H ) :   0.9745 B(  2-O ,  3-C ) :   1.1632 B(  3-C ,  4-O ) :   2.1096
B(  3-C ,  5-C ) :   0.9050 B(  5-C ,  6-C ) :   1.7286 B(  5-C , 12-C ) :   0.9312
B(  6-C ,  7-C ) :   0.9325 B(  6-C ,  8-N ) :   1.1021 B(  7-C , 25-H ) :   0.9791
B(  7-C , 26-H ) :   0.9731 B(  7-C , 27-H ) :   0.9678 B(  8-N ,  9-C ) :   1.2039
B(  8-N , 28-H ) :   0.9523 B(  9-C , 10-S ) :   1.6062 B(  9-C , 11-N ) :   1.2868
B( 11-N , 12-C ) :   0.9736 B( 11-N , 29-H ) :   0.9458 B( 12-C , 13-C ) :   0.9686
B( 12-C , 30-H ) :   0.9892 B( 13-C , 14-C ) :   1.3822 B( 13-C , 19-C ) :   1.3429
B( 14-C , 15-C ) :   1.4019 B( 14-C , 31-H ) :   0.9640 B( 15-C , 16-C ) :   1.3585
B( 15-C , 32-H ) :   0.9693 B( 16-C , 17-C ) :   1.3317 B( 16-C , 33-H ) :   0.9846
B( 17-C , 18-O ) :   1.1104 B( 17-C , 19-C ) :   1.3622 B( 18-O , 34-H ) :   0.9792
B( 19-C , 35-H ) :   0.9552

MP2 TOTAL ENERGY:    -1274.323526856 Eh
FINAL SINGLE POINT ENERGY     -1274.323526855784

DIPOLE MOMENT
-------------
                                X             Y             Z
Electronic contribution:      8.59533       7.11029       6.73572
Nuclear contribution   :    -10.22231      -8.48541      -7.28952
                        -----------------------------------------
Total Dipole Moment    :     -1.62699      -1.37512      -0.55380
                        -----------------------------------------
Magnitude (a.u.)       :      2.20108
Magnitude (Debye)      :      5.59469

Rotational constants in cm-1:     0.011873     0.009214     0.006454
Rotational constants in MHz :   355.953490   276.238108   193.488311

                             ****ORCA TERMINATED NORMALLY****
TOTAL RUN TIME: 0 days 1 hours 47 minutes 15 seconds 541 msec
