                         Program Version 4.2.0 -  RELEASE  -
|  1> ! ri-mp2 cc-pvtz cc-pvtz/c TightSCF NoKeepInts
|  2>
|  3> %scf
|  4>   MaxCore 4096
|  5> end
|  6> *xyz  0  1
|  7>     C       14.7491796   15.5146730   16.2019846
|  8>     C       14.9659870   16.2400334   14.8552555
|  9>     O       16.3672688   16.3999659   14.5287830
| 10>     C       17.3383386   16.5157983   15.4845868
| 11>     O       18.2278580   15.6897755   15.5787116
| 12>     C       17.1992667   17.6706746   16.4318324
| 13>     C       16.8955725   18.9175836   15.9877186
| 14>     C       16.4765015   19.3293181   14.5893925
| 15>     N       17.0506619   20.0282465   16.8205458
| 16>     C       17.7403577   20.0154153   18.0032125
| 17>     S       17.9937346   21.3943754   18.8799650
| 18>     N       18.2331939   18.8005733   18.4083667
| 19>     C       17.9295245   17.5045493   17.7700829
| 20>     C       17.2719596   16.4944540   18.7008015
| 21>     C       17.7198168   15.1616826   18.7360128
| 22>     C       17.1032582   14.2221200   19.5788775
| 23>     C       16.0295137   14.6186281   20.3942260
| 24>     C       15.5802564   15.9457635   20.3608512
| 25>     O       14.5381720   16.3295720   21.1402068
| 26>     C       16.1953750   16.8788765   19.5200347
| 27>     H       15.3708821   14.6122141   16.2700763
| 28>     H       13.7009419   15.2077968   16.3011006
| 29>     H       14.9787239   16.1661188   17.0517037
| 30>     H       14.4818769   15.6683815   14.0527067
| 31>     H       14.4729616   17.2178766   14.9044416
| 32>     H       17.0009034   18.7458166   13.8223207
| 33>     H       16.7129969   20.3807973   14.3828250
| 34>     H       15.3988511   19.2012735   14.4416521
| 35>     H       16.7238672   20.9326838   16.5193998
| 36>     H       18.7330054   18.8154429   19.2886697
| 37>     H       18.9477201   17.1758316   17.5137586
| 38>     H       18.5428915   14.8504001   18.0960602
| 39>     H       17.4565282   13.1924278   19.5937533
| 40>     H       15.5495172   13.8954149   21.0451967
| 41>     H       14.2794156   15.5649077   21.6764412
| 42>     H       15.8301199   17.9005368   19.5064453
| 43> *
| 44>
| 45>                          ****END OF INPUT****

CARTESIAN COORDINATES (ANGSTROEM)
---------------------------------
  C     14.749180   15.514673   16.201985
  C     14.965987   16.240033   14.855256
  O     16.367269   16.399966   14.528783
  C     17.338339   16.515798   15.484587
  O     18.227858   15.689775   15.578712
  C     17.199267   17.670675   16.431832
  C     16.895573   18.917584   15.987719
  C     16.476502   19.329318   14.589393
  N     17.050662   20.028246   16.820546
  C     17.740358   20.015415   18.003213
  S     17.993735   21.394375   18.879965
  N     18.233194   18.800573   18.408367
  C     17.929524   17.504549   17.770083
  C     17.271960   16.494454   18.700801
  C     17.719817   15.161683   18.736013
  C     17.103258   14.222120   19.578878
  C     16.029514   14.618628   20.394226
  C     15.580256   15.945763   20.360851
  O     14.538172   16.329572   21.140207
  C     16.195375   16.878877   19.520035
  H     15.370882   14.612214   16.270076
  H     13.700942   15.207797   16.301101
  H     14.978724   16.166119   17.051704
  H     14.481877   15.668381   14.052707
  H     14.472962   17.217877   14.904442
  H     17.000903   18.745817   13.822321
  H     16.712997   20.380797   14.382825
  H     15.398851   19.201273   14.441652
  H     16.723867   20.932684   16.519400
  H     18.733005   18.815443   19.288670
  H     18.947720   17.175832   17.513759
  H     18.542891   14.850400   18.096060
  H     17.456528   13.192428   19.593753
  H     15.549517   13.895415   21.045197
  H     14.279416   15.564908   21.676441
  H     15.830120   17.900537   19.506445

 Total Charge           Charge          ....    0
 Multiplicity           Mult            ....    1
 Number of Electrons    NEL             ....  154
 Basis Dimension        Dim             ....  828

ORBITAL ENERGIES
----------------

  NO   OCC          E(Eh)            E(eV)
   0   2.0000     -91.890254     -2500.4609
   1   2.0000     -20.597319      -560.4816
   2   2.0000     -20.591074      -560.3116
   3   2.0000     -20.552553      -559.2634
   4   2.0000     -15.629809      -425.3087
   5   2.0000     -15.608495      -424.7287
   6   2.0000     -11.397010      -310.1284
   7   2.0000     -11.385302      -309.8098
   8   2.0000     -11.338899      -308.5471
   9   2.0000     -11.314112      -307.8726
  10   2.0000     -11.309596      -307.7498
  11   2.0000     -11.307765      -307.6999
  12   2.0000     -11.263829      -306.5044
  13   2.0000     -11.263201      -306.4873
  14   2.0000     -11.261244      -306.4340
  15   2.0000     -11.254078      -306.2390
  16   2.0000     -11.243665      -305.9557
  17   2.0000     -11.239467      -305.8414
  18   2.0000     -11.235657      -305.7378
  19   2.0000     -11.230883      -305.6079
  20   2.0000      -8.895342      -242.0546
  21   2.0000      -6.576919      -178.9671
  22   2.0000      -6.574913      -178.9125
  23   2.0000      -6.574324      -178.8965
  24   2.0000      -1.446930       -39.3730
  25   2.0000      -1.417100       -38.5613
  26   2.0000      -1.358930       -36.9784
  27   2.0000      -1.342103       -36.5205
  28   2.0000      -1.239546       -33.7298
  29   2.0000      -1.158117       -31.5140
  30   2.0000      -1.123973       -30.5849
  31   2.0000      -1.045972       -28.4624
  32   2.0000      -1.035043       -28.1649
  33   2.0000      -1.016249       -27.6535
  34   2.0000      -1.004531       -27.3347
  35   2.0000      -0.988818       -26.9071
  36   2.0000      -0.925423       -25.1820
  37   2.0000      -0.898094       -24.4384
  38   2.0000      -0.852563       -23.1994
  39   2.0000      -0.840403       -22.8685
  40   2.0000      -0.833776       -22.6882
  41   2.0000      -0.826786       -22.4980
  42   2.0000      -0.744362       -20.2551
  43   2.0000      -0.732103       -19.9215
  44   2.0000      -0.730793       -19.8859
  45   2.0000      -0.694352       -18.8943
  46   2.0000      -0.686122       -18.6703
  47   2.0000      -0.682165       -18.5627
  48   2.0000      -0.676105       -18.3977
  49   2.0000      -0.663244       -18.0478
  50   2.0000      -0.655153       -17.8276
  51   2.0000      -0.648245       -17.6396
  52   2.0000      -0.637549       -17.3486
  53   2.0000      -0.624457       -16.9923
  54   2.0000      -0.608704       -16.5637
  55   2.0000      -0.603859       -16.4318
  56   2.0000      -0.600854       -16.3501
  57   2.0000      -0.582416       -15.8484
  58   2.0000      -0.575018       -15.6470
  59   2.0000      -0.564543       -15.3620
  60   2.0000      -0.560068       -15.2402
  61   2.0000      -0.546947       -14.8832
  62   2.0000      -0.541604       -14.7378
  63   2.0000      -0.536226       -14.5914
  64   2.0000      -0.520670       -14.1681
  65   2.0000      -0.511681       -13.9235
  66   2.0000      -0.499720       -13.5981
  67   2.0000      -0.492795       -13.4096
  68   2.0000      -0.486872       -13.2485
  69   2.0000      -0.470330       -12.7983
  70   2.0000      -0.457606       -12.4521
  71   2.0000      -0.449052       -12.2193
  72   2.0000      -0.356906        -9.7119
  73   2.0000      -0.348775        -9.4907
  74   2.0000      -0.329525        -8.9668
  75   2.0000      -0.321748        -8.7552
  76   2.0000      -0.319872        -8.7042
  77   0.0000       0.076289         2.0759
  78   0.0000       0.104963         2.8562
  79   0.0000       0.118820         3.2333
  80   0.0000       0.131310         3.5731
  81   0.0000       0.133769         3.6400

MULLIKEN ATOMIC CHARGES
-----------------------
   0 C :   -0.326962
   1 C :    0.043841
   2 O :   -0.362751
   3 C :    0.474762
   4 O :   -0.383067
   5 C :   -0.255402
   6 C :    0.162823
   7 C :   -0.314590
   8 N :   -0.133837
   9 C :    0.204567
  10 S :   -0.440739
  11 N :   -0.220469
  12 C :    0.068037
  13 C :    0.006070
  14 C :   -0.199148
  15 C :   -0.135351
  16 C :   -0.273168
  17 C :    0.317708
  18 O :   -0.357789
  19 C :   -0.248252
  20 H :    0.119211
  21 H :    0.111260
  22 H :    0.115914
  23 H :    0.121324
  24 H :    0.076955
  25 H :    0.141447
  26 H :    0.115754
  27 H :    0.122499
  28 H :    0.198390
  29 H :    0.202195
  30 H :    0.162560
  31 H :    0.176302
  32 H :    0.163995
  33 H :    0.131428
  34 H :    0.240763
  35 H :    0.173715
Sum of atomic charges:    0.0000000

LOEWDIN ATOMIC CHARGES
----------------------
   0 C :    0.108004
   1 C :   -0.016179
   2 O :    0.290296
   3 C :   -0.421271
   4 O :    0.126256
   5 C :   -0.092200
   6 C :   -0.074557
   7 C :    0.127886
   8 N :    0.404436
   9 C :   -0.459069
  10 S :   -0.036507
  11 N :    0.396308
  12 C :   -0.048030
  13 C :   -0.043136
  14 C :    0.023468
  15 C :    0.043258
  16 C :   -0.000675
  17 C :   -0.192925
  18 O :    0.394651
  19 C :    0.027037
  20 H :   -0.020594
  21 H :   -0.023143
  22 H :   -0.031130
  23 H :   -0.021360
  24 H :   -0.039800
  25 H :   -0.006658
  26 H :   -0.016028
  27 H :   -0.017414
  28 H :   -0.057801
  29 H :   -0.063192
  30 H :   -0.005506
  31 H :   -0.022107
  32 H :   -0.019315
  33 H :   -0.035192
  34 H :   -0.153680
  35 H :   -0.024131

  Mayer bond orders larger than 0.100000
B(  0-C ,  1-C ) :   0.9610 B(  0-C , 20-H ) :   0.9702 B(  0-C , 21-H ) :   0.9763
B(  0-C , 22-H ) :   0.9679 B(  1-C ,  2-O ) :   0.9039 B(  1-C , 23-H ) :   0.9810
B(  1-C , 24-H ) :   0.9751 B(  2-O ,  3-C ) :   1.1144 B(  3-C ,  4-O ) :   2.0694
B(  3-C ,  5-C ) :   0.9637 B(  5-C ,  6-C ) :   1.6910 B(  5-C , 12-C ) :   0.9403
B(  6-C ,  7-C ) :   0.9398 B(  6-C ,  8-N ) :   1.1244 B(  7-C , 25-H ) :   0.9660
B(  7-C , 26-H ) :   0.9865 B(  7-C , 27-H ) :   0.9673 B(  8-N ,  9-C ) :   1.1906
B(  8-N , 28-H ) :   0.9489 B(  9-C , 10-S ) :   1.6113 B(  9-C , 11-N ) :   1.2973
B( 11-N , 12-C ) :   0.9792 B( 11-N , 29-H ) :   0.9480 B( 12-C , 13-C ) :   0.9714
B( 12-C , 30-H ) :   0.9923 B( 13-C , 14-C ) :   1.3882 B( 13-C , 19-C ) :   1.3471
B( 14-C , 15-C ) :   1.3968 B( 14-C , 31-H ) :   0.9573 B( 15-C , 16-C ) :   1.3596
B( 15-C , 32-H ) :   0.9701 B( 16-C , 17-C ) :   1.3321 B( 16-C , 33-H ) :   0.9847
B( 17-C , 18-O ) :   1.1077 B( 17-C , 19-C ) :   1.3608 B( 18-O , 34-H ) :   0.9799
B( 19-C , 35-H ) :   0.9589

MP2 TOTAL ENERGY:    -1274.326146942 Eh
FINAL SINGLE POINT ENERGY     -1274.326146942264

DIPOLE MOMENT
-------------
                                X             Y             Z
Electronic contribution:      8.78554       7.97331       6.79498
Nuclear contribution   :    -10.35629      -9.09642      -7.36929
                        -----------------------------------------
Total Dipole Moment    :     -1.57075      -1.12311      -0.57431
                        -----------------------------------------
Magnitude (a.u.)       :      2.01456
Magnitude (Debye)      :      5.12061

Rotational constants in cm-1:     0.011403     0.009369     0.006346
Rotational constants in MHz :   341.867028   280.874101   190.261100

                             ****ORCA TERMINATED NORMALLY****
TOTAL RUN TIME: 0 days 2 hours 2 minutes 18 seconds 464 msec
