                         Program Version 4.2.0 -  RELEASE  -
|  1> ! ri-mp2 cc-pvtz cc-pvtz/c TightSCF NoKeepInts
|  2>
|  3> %scf
|  4>   MaxCore 4096
|  5> end
|  6> *xyz  0  1
|  7>     C       14.8100094   14.4708275   16.4627432
|  8>     C       15.1162336   15.8423966   15.8386550
|  9>     O       16.4582564   15.8031322   15.3185297
| 10>     C       17.1692296   16.9552023   15.1322754
| 11>     O       17.7728289   17.1506020   14.0936887
| 12>     C       17.1494385   17.9421451   16.2593217
| 13>     C       17.1097100   19.2603365   15.9486868
| 14>     C       16.6740215   19.8498948   14.6239026
| 15>     N       17.4867927   20.2373992   16.8708765
| 16>     C       18.1563474   19.9712118   18.0347181
| 17>     S       18.6905722   21.1759681   19.0336994
| 18>     N       18.3853677   18.6473908   18.3171396
| 19>     C       17.8290034   17.5042245   17.5670881
| 20>     C       17.0689694   16.5365487   18.4600152
| 21>     C       17.5964574   15.2630409   18.7421791
| 22>     C       16.9254580   14.3911680   19.6166805
| 23>     C       15.7171289   14.7957202   20.2101006
| 24>     C       15.1952388   16.0676177   19.9369802
| 25>     O       14.0309294   16.4627179   20.5098120
| 26>     C       15.8708402   16.9375063   19.0752811
| 27>     H       15.5586049   14.2026388   17.2140872
| 28>     H       14.8095293   13.6910475   15.6911428
| 29>     H       13.8254283   14.4776775   16.9455914
| 30>     H       14.4051225   16.0591953   15.0307445
| 31>     H       14.9987412   16.6138279   16.6074457
| 32>     H       15.8877000   19.2437318   14.1574101
| 33>     H       17.5196958   19.8798519   13.9239405
| 34>     H       16.2818976   20.8687571   14.7267869
| 35>     H       17.3672083   21.2129814   16.6483411
| 36>     H       18.8686586   18.4811793   19.1911706
| 37>     H       18.7684534   17.0356410   17.2393296
| 38>     H       18.5309121   14.9478666   18.2845586
| 39>     H       17.3400898   13.4068462   19.8286833
| 40>     H       15.1933656   14.1236450   20.8821721
| 41>     H       13.7528464   15.7622129   21.1195481
| 42>     H       15.4659126   17.9278490   18.8946739
| 43> *
| 44>
| 45>                          ****END OF INPUT****

CARTESIAN COORDINATES (ANGSTROEM)
---------------------------------
  C     14.810009   14.470828   16.462743
  C     15.116234   15.842397   15.838655
  O     16.458256   15.803132   15.318530
  C     17.169230   16.955202   15.132275
  O     17.772829   17.150602   14.093689
  C     17.149438   17.942145   16.259322
  C     17.109710   19.260336   15.948687
  C     16.674021   19.849895   14.623903
  N     17.486793   20.237399   16.870877
  C     18.156347   19.971212   18.034718
  S     18.690572   21.175968   19.033699
  N     18.385368   18.647391   18.317140
  C     17.829003   17.504224   17.567088
  C     17.068969   16.536549   18.460015
  C     17.596457   15.263041   18.742179
  C     16.925458   14.391168   19.616681
  C     15.717129   14.795720   20.210101
  C     15.195239   16.067618   19.936980
  O     14.030929   16.462718   20.509812
  C     15.870840   16.937506   19.075281
  H     15.558605   14.202639   17.214087
  H     14.809529   13.691047   15.691143
  H     13.825428   14.477678   16.945591
  H     14.405122   16.059195   15.030745
  H     14.998741   16.613828   16.607446
  H     15.887700   19.243732   14.157410
  H     17.519696   19.879852   13.923940
  H     16.281898   20.868757   14.726787
  H     17.367208   21.212981   16.648341
  H     18.868659   18.481179   19.191171
  H     18.768453   17.035641   17.239330
  H     18.530912   14.947867   18.284559
  H     17.340090   13.406846   19.828683
  H     15.193366   14.123645   20.882172
  H     13.752846   15.762213   21.119548
  H     15.465913   17.927849   18.894674

 Total Charge           Charge          ....    0
 Multiplicity           Mult            ....    1
 Number of Electrons    NEL             ....  154
 Basis Dimension        Dim             ....  828

ORBITAL ENERGIES
----------------

  NO   OCC          E(Eh)            E(eV)
   0   2.0000     -91.890363     -2500.4639
   1   2.0000     -20.605601      -560.7069
   2   2.0000     -20.593248      -560.3708
   3   2.0000     -20.551188      -559.2262
   4   2.0000     -15.627945      -425.2580
   5   2.0000     -15.610547      -424.7846
   6   2.0000     -11.393609      -310.0359
   7   2.0000     -11.385436      -309.8135
   8   2.0000     -11.331595      -308.3484
   9   2.0000     -11.323638      -308.1319
  10   2.0000     -11.316538      -307.9386
  11   2.0000     -11.298092      -307.4367
  12   2.0000     -11.270262      -306.6794
  13   2.0000     -11.264026      -306.5097
  14   2.0000     -11.257323      -306.3273
  15   2.0000     -11.256002      -306.2914
  16   2.0000     -11.253398      -306.2205
  17   2.0000     -11.248779      -306.0949
  18   2.0000     -11.248638      -306.0910
  19   2.0000     -11.224477      -305.4335
  20   2.0000      -8.895431      -242.0570
  21   2.0000      -6.577002      -178.9693
  22   2.0000      -6.575003      -178.9149
  23   2.0000      -6.574412      -178.8989
  24   2.0000      -1.446960       -39.3738
  25   2.0000      -1.425349       -38.7857
  26   2.0000      -1.358879       -36.9770
  27   2.0000      -1.341107       -36.4934
  28   2.0000      -1.240641       -33.7596
  29   2.0000      -1.166700       -31.7475
  30   2.0000      -1.124783       -30.6069
  31   2.0000      -1.051025       -28.5998
  32   2.0000      -1.034089       -28.1390
  33   2.0000      -1.024997       -27.8916
  34   2.0000      -1.003035       -27.2940
  35   2.0000      -0.988832       -26.9075
  36   2.0000      -0.927258       -25.2320
  37   2.0000      -0.876948       -23.8630
  38   2.0000      -0.852346       -23.1935
  39   2.0000      -0.845213       -22.9994
  40   2.0000      -0.843330       -22.9482
  41   2.0000      -0.836613       -22.7654
  42   2.0000      -0.761182       -20.7128
  43   2.0000      -0.740147       -20.1404
  44   2.0000      -0.727843       -19.8056
  45   2.0000      -0.704494       -19.1703
  46   2.0000      -0.692798       -18.8520
  47   2.0000      -0.681350       -18.5405
  48   2.0000      -0.675829       -18.3903
  49   2.0000      -0.659596       -17.9485
  50   2.0000      -0.650256       -17.6944
  51   2.0000      -0.642412       -17.4809
  52   2.0000      -0.638956       -17.3869
  53   2.0000      -0.616268       -16.7695
  54   2.0000      -0.614515       -16.7218
  55   2.0000      -0.606176       -16.4949
  56   2.0000      -0.603093       -16.4110
  57   2.0000      -0.584217       -15.8973
  58   2.0000      -0.576264       -15.6809
  59   2.0000      -0.567182       -15.4338
  60   2.0000      -0.557398       -15.1676
  61   2.0000      -0.546481       -14.8705
  62   2.0000      -0.535893       -14.5824
  63   2.0000      -0.533133       -14.5073
  64   2.0000      -0.527505       -14.3541
  65   2.0000      -0.516698       -14.0601
  66   2.0000      -0.505650       -13.7594
  67   2.0000      -0.498967       -13.5776
  68   2.0000      -0.489874       -13.3301
  69   2.0000      -0.464991       -12.6530
  70   2.0000      -0.456685       -12.4270
  71   2.0000      -0.451456       -12.2848
  72   2.0000      -0.359175        -9.7736
  73   2.0000      -0.352569        -9.5939
  74   2.0000      -0.332747        -9.0545
  75   2.0000      -0.328619        -8.9422
  76   2.0000      -0.320342        -8.7170
  77   0.0000       0.080487         2.1902
  78   0.0000       0.094480         2.5709
  79   0.0000       0.119057         3.2397
  80   0.0000       0.126030         3.4294
  81   0.0000       0.128116         3.4862

MULLIKEN ATOMIC CHARGES
-----------------------
   0 C :   -0.284896
   1 C :    0.021532
   2 O :   -0.323128
   3 C :    0.406451
   4 O :   -0.368220
   5 C :   -0.253478
   6 C :    0.160536
   7 C :   -0.276620
   8 N :   -0.131770
   9 C :    0.211372
  10 S :   -0.440586
  11 N :   -0.210753
  12 C :    0.043379
  13 C :    0.006082
  14 C :   -0.183465
  15 C :   -0.136844
  16 C :   -0.268184
  17 C :    0.315882
  18 O :   -0.357506
  19 C :   -0.235422
  20 H :    0.110404
  21 H :    0.111074
  22 H :    0.090152
  23 H :    0.109976
  24 H :    0.097812
  25 H :    0.115827
  26 H :    0.142620
  27 H :    0.097569
  28 H :    0.198656
  29 H :    0.200796
  30 H :    0.156720
  31 H :    0.155492
  32 H :    0.167029
  33 H :    0.134933
  34 H :    0.242522
  35 H :    0.174058
Sum of atomic charges:    0.0000000

LOEWDIN ATOMIC CHARGES
----------------------
   0 C :    0.110831
   1 C :   -0.022722
   2 O :    0.304228
   3 C :   -0.422609
   4 O :    0.129170
   5 C :   -0.100897
   6 C :   -0.075475
   7 C :    0.129125
   8 N :    0.405686
   9 C :   -0.455159
  10 S :   -0.035354
  11 N :    0.395246
  12 C :   -0.054673
  13 C :   -0.042144
  14 C :    0.017937
  15 C :    0.044403
  16 C :    0.004277
  17 C :   -0.190387
  18 O :    0.396813
  19 C :    0.035786
  20 H :   -0.027308
  21 H :   -0.026926
  22 H :   -0.025859
  23 H :   -0.033028
  24 H :   -0.042591
  25 H :   -0.009424
  26 H :   -0.003790
  27 H :   -0.021170
  28 H :   -0.057020
  29 H :   -0.063753
  30 H :   -0.010397
  31 H :   -0.026769
  32 H :   -0.018966
  33 H :   -0.033347
  34 H :   -0.151836
  35 H :   -0.021898

  Mayer bond orders larger than 0.100000
B(  0-C ,  1-C ) :   0.9769 B(  0-C , 20-H ) :   0.9714 B(  0-C , 21-H ) :   0.9804
B(  0-C , 22-H ) :   0.9757 B(  1-C ,  2-O ) :   0.8998 B(  1-C , 23-H ) :   0.9796
B(  1-C , 24-H ) :   0.9588 B(  2-O ,  3-C ) :   1.1700 B(  3-C ,  4-O ) :   2.1247
B(  3-C ,  5-C ) :   0.9509 B(  5-C ,  6-C ) :   1.6756 B(  5-C , 12-C ) :   0.9667
B(  6-C ,  7-C ) :   0.9504 B(  6-C ,  8-N ) :   1.1378 B(  7-C , 25-H ) :   0.9759
B(  7-C , 26-H ) :   0.9557 B(  7-C , 27-H ) :   0.9847 B(  8-N ,  9-C ) :   1.1952
B(  8-N , 28-H ) :   0.9490 B(  9-C , 10-S ) :   1.6105 B(  9-C , 11-N ) :   1.2956
B( 11-N , 12-C ) :   0.9714 B( 11-N , 29-H ) :   0.9476 B( 12-C , 13-C ) :   0.9651
B( 12-C , 30-H ) :   1.0071 B( 13-C , 14-C ) :   1.3637 B( 13-C , 19-C ) :   1.3474
B( 14-C , 15-C ) :   1.3821 B( 14-C , 31-H ) :   0.9722 B( 15-C , 16-C ) :   1.3668
B( 15-C , 32-H ) :   0.9703 B( 16-C , 17-C ) :   1.3276 B( 16-C , 33-H ) :   0.9836
B( 17-C , 18-O ) :   1.1078 B( 17-C , 19-C ) :   1.3657 B( 18-O , 34-H ) :   0.9782
B( 19-C , 35-H ) :   0.9590

MP2 TOTAL ENERGY:    -1274.325542816 Eh
FINAL SINGLE POINT ENERGY     -1274.325542815766

DIPOLE MOMENT
-------------
                                X             Y             Z
Electronic contribution:      8.84521      10.03660       4.77541
Nuclear contribution   :    -10.39532     -11.45612      -4.38946
                        -----------------------------------------
Total Dipole Moment    :     -1.55011      -1.41951       0.38595
                        -----------------------------------------
Magnitude (a.u.)       :      2.13702
Magnitude (Debye)      :      5.43186

Rotational constants in cm-1:     0.012671     0.008710     0.006143
Rotational constants in MHz :   379.857821   261.116050   184.156635

                             ****ORCA TERMINATED NORMALLY****
TOTAL RUN TIME: 0 days 1 hours 46 minutes 33 seconds 72 msec
