                         Program Version 4.2.0 -  RELEASE  -
|  1> ! ri-mp2 cc-pvtz cc-pvtz/c TightSCF NoKeepInts
|  2>
|  3> %scf
|  4>   MaxCore 4096
|  5> end
|  6> *xyz  0  1
|  7>     C       14.5465525   15.1486470   15.9934285
|  8>     C       15.8897178   14.8248203   15.3025359
|  9>     O       16.8670942   15.8535158   15.5601764
| 10>     C       16.5662007   17.1663279   15.3329563
| 11>     O       15.9295939   17.5126723   14.3525743
| 12>     C       17.0165059   18.0742563   16.4458747
| 13>     C       17.0329362   19.4214476   16.2768572
| 14>     C       16.3984004   20.2108477   15.1504611
| 15>     N       17.6937729   20.2527536   17.1841028
| 16>     C       18.5231825   19.8087567   18.1780362
| 17>     S       19.3527060   20.8513979   19.1580460
| 18>     N       18.6485986   18.4486963   18.3064324
| 19>     C       17.8696899   17.4430831   17.5592622
| 20>     C       17.1001281   16.5005387   18.4750897
| 21>     C       17.4798310   15.1513425   18.5988412
| 22>     C       16.7641256   14.2832018   19.4404233
| 23>     C       15.6635406   14.7698377   20.1666897
| 24>     C       15.2879098   16.1153609   20.0499169
| 25>     O       14.2253472   16.5874696   20.7489651
| 26>     C       16.0013311   16.9765329   19.2103858
| 27>     H       14.6930657   15.3259051   17.0657214
| 28>     H       13.8519177   14.3074963   15.8823640
| 29>     H       14.0688775   16.0330719   15.5540919
| 30>     H       16.2696864   13.8635664   15.6713812
| 31>     H       15.7257798   14.7324867   14.2204309
| 32>     H       16.8834794   19.9782116   14.1938515
| 33>     H       16.4590285   21.2955862   15.2974954
| 34>     H       15.3360244   19.9539797   15.0499753
| 35>     H       17.6284876   21.2532945   17.0857267
| 36>     H       19.2437387   18.1510554   19.0691063
| 37>     H       18.6821118   16.9092713   17.0459539
| 38>     H       18.3272854   14.7735020   18.0329186
| 39>     H       17.0629824   13.2400670   19.5282990
| 40>     H       15.1079862   14.1034083   20.8183337
| 41>     H       13.8898361   15.8616385   21.2963004
| 42>     H       15.6995474   18.0159524   19.1349941
| 43> *
| 44>
| 45>                          ****END OF INPUT****

CARTESIAN COORDINATES (ANGSTROEM)
---------------------------------
  C     14.546553   15.148647   15.993429
  C     15.889718   14.824820   15.302536
  O     16.867094   15.853516   15.560176
  C     16.566201   17.166328   15.332956
  O     15.929594   17.512672   14.352574
  C     17.016506   18.074256   16.445875
  C     17.032936   19.421448   16.276857
  C     16.398400   20.210848   15.150461
  N     17.693773   20.252754   17.184103
  C     18.523183   19.808757   18.178036
  S     19.352706   20.851398   19.158046
  N     18.648599   18.448696   18.306432
  C     17.869690   17.443083   17.559262
  C     17.100128   16.500539   18.475090
  C     17.479831   15.151343   18.598841
  C     16.764126   14.283202   19.440423
  C     15.663541   14.769838   20.166690
  C     15.287910   16.115361   20.049917
  O     14.225347   16.587470   20.748965
  C     16.001331   16.976533   19.210386
  H     14.693066   15.325905   17.065721
  H     13.851918   14.307496   15.882364
  H     14.068877   16.033072   15.554092
  H     16.269686   13.863566   15.671381
  H     15.725780   14.732487   14.220431
  H     16.883479   19.978212   14.193851
  H     16.459028   21.295586   15.297495
  H     15.336024   19.953980   15.049975
  H     17.628488   21.253294   17.085727
  H     19.243739   18.151055   19.069106
  H     18.682112   16.909271   17.045954
  H     18.327285   14.773502   18.032919
  H     17.062982   13.240067   19.528299
  H     15.107986   14.103408   20.818334
  H     13.889836   15.861638   21.296300
  H     15.699547   18.015952   19.134994

 Total Charge           Charge          ....    0
 Multiplicity           Mult            ....    1
 Number of Electrons    NEL             ....  154
 Basis Dimension        Dim             ....  828

ORBITAL ENERGIES
----------------

  NO   OCC          E(Eh)            E(eV)
   0   2.0000     -91.889843     -2500.4498
   1   2.0000     -20.599067      -560.5291
   2   2.0000     -20.590861      -560.3058
   3   2.0000     -20.541844      -558.9720
   4   2.0000     -15.630309      -425.3223
   5   2.0000     -15.607920      -424.7131
   6   2.0000     -11.393624      -310.0363
   7   2.0000     -11.384456      -309.7868
   8   2.0000     -11.338439      -308.5346
   9   2.0000     -11.316623      -307.9410
  10   2.0000     -11.308560      -307.7216
  11   2.0000     -11.297784      -307.4283
  12   2.0000     -11.263162      -306.4862
  13   2.0000     -11.259017      -306.3734
  14   2.0000     -11.258141      -306.3496
  15   2.0000     -11.252370      -306.1926
  16   2.0000     -11.246617      -306.0360
  17   2.0000     -11.241534      -305.8977
  18   2.0000     -11.241271      -305.8905
  19   2.0000     -11.222333      -305.3752
  20   2.0000      -8.894902      -242.0426
  21   2.0000      -6.576471      -178.9549
  22   2.0000      -6.574476      -178.9006
  23   2.0000      -6.573883      -178.8844
  24   2.0000      -1.447334       -39.3840
  25   2.0000      -1.418810       -38.6078
  26   2.0000      -1.351654       -36.7804
  27   2.0000      -1.341372       -36.5006
  28   2.0000      -1.239285       -33.7227
  29   2.0000      -1.160217       -31.5711
  30   2.0000      -1.122045       -30.5324
  31   2.0000      -1.044745       -28.4290
  32   2.0000      -1.032618       -28.0990
  33   2.0000      -1.017827       -27.6965
  34   2.0000      -0.997407       -27.1408
  35   2.0000      -0.985963       -26.8294
  36   2.0000      -0.923260       -25.1232
  37   2.0000      -0.895687       -24.3729
  38   2.0000      -0.847663       -23.0661
  39   2.0000      -0.840390       -22.8682
  40   2.0000      -0.836859       -22.7721
  41   2.0000      -0.815879       -22.2012
  42   2.0000      -0.749563       -20.3966
  43   2.0000      -0.735503       -20.0141
  44   2.0000      -0.722733       -19.6666
  45   2.0000      -0.697739       -18.9865
  46   2.0000      -0.689963       -18.7748
  47   2.0000      -0.675885       -18.3918
  48   2.0000      -0.671947       -18.2846
  49   2.0000      -0.661805       -18.0086
  50   2.0000      -0.648062       -17.6347
  51   2.0000      -0.640293       -17.4233
  52   2.0000      -0.635691       -17.2980
  53   2.0000      -0.616148       -16.7663
  54   2.0000      -0.609285       -16.5795
  55   2.0000      -0.602322       -16.3900
  56   2.0000      -0.600911       -16.3516
  57   2.0000      -0.579315       -15.7640
  58   2.0000      -0.570471       -15.5233
  59   2.0000      -0.566343       -15.4110
  60   2.0000      -0.551413       -15.0047
  61   2.0000      -0.546076       -14.8595
  62   2.0000      -0.533412       -14.5149
  63   2.0000      -0.530180       -14.4269
  64   2.0000      -0.525859       -14.3094
  65   2.0000      -0.514095       -13.9892
  66   2.0000      -0.501354       -13.6425
  67   2.0000      -0.499303       -13.5867
  68   2.0000      -0.480704       -13.0806
  69   2.0000      -0.464810       -12.6481
  70   2.0000      -0.453513       -12.3407
  71   2.0000      -0.444263       -12.0890
  72   2.0000      -0.353974        -9.6321
  73   2.0000      -0.352337        -9.5876
  74   2.0000      -0.329128        -8.9560
  75   2.0000      -0.324290        -8.8244
  76   2.0000      -0.319157        -8.6847
  77   0.0000       0.073909         2.0112
  78   0.0000       0.102253         2.7825
  79   0.0000       0.124008         3.3744
  80   0.0000       0.130849         3.5606
  81   0.0000       0.135577         3.6892

MULLIKEN ATOMIC CHARGES
-----------------------
   0 C :   -0.324304
   1 C :    0.026268
   2 O :   -0.374891
   3 C :    0.462013
   4 O :   -0.431588
   5 C :   -0.241706
   6 C :    0.173797
   7 C :   -0.267263
   8 N :   -0.125728
   9 C :    0.209801
  10 S :   -0.440120
  11 N :   -0.215146
  12 C :    0.065961
  13 C :    0.007183
  14 C :   -0.170004
  15 C :   -0.137583
  16 C :   -0.270472
  17 C :    0.307322
  18 O :   -0.359020
  19 C :   -0.231265
  20 H :    0.112226
  21 H :    0.104093
  22 H :    0.116483
  23 H :    0.112287
  24 H :    0.120925
  25 H :    0.130578
  26 H :    0.094836
  27 H :    0.133358
  28 H :    0.199952
  29 H :    0.200334
  30 H :    0.154045
  31 H :    0.157886
  32 H :    0.162315
  33 H :    0.132250
  34 H :    0.240842
  35 H :    0.164334
Sum of atomic charges:   -0.0000000

LOEWDIN ATOMIC CHARGES
----------------------
   0 C :    0.105735
   1 C :   -0.016985
   2 O :    0.297438
   3 C :   -0.418034
   4 O :    0.101162
   5 C :   -0.097573
   6 C :   -0.054970
   7 C :    0.131722
   8 N :    0.407558
   9 C :   -0.456672
  10 S :   -0.035232
  11 N :    0.394797
  12 C :   -0.053996
  13 C :   -0.041267
  14 C :    0.018438
  15 C :    0.039050
  16 C :   -0.000964
  17 C :   -0.191409
  18 O :    0.396158
  19 C :    0.032899
  20 H :   -0.026688
  21 H :   -0.025719
  22 H :   -0.026458
  23 H :   -0.025126
  24 H :   -0.028268
  25 H :   -0.004403
  26 H :   -0.023540
  27 H :   -0.004462
  28 H :   -0.056955
  29 H :   -0.064288
  30 H :   -0.012478
  31 H :   -0.027905
  32 H :   -0.020761
  33 H :   -0.034888
  34 H :   -0.153443
  35 H :   -0.022474

  Mayer bond orders larger than 0.100000
B(  0-C ,  1-C ) :   0.9551 B(  0-C , 20-H ) :   0.9687 B(  0-C , 21-H ) :   0.9784
B(  0-C , 22-H ) :   0.9741 B(  1-C ,  2-O ) :   0.8917 B(  1-C , 23-H ) :   0.9822
B(  1-C , 24-H ) :   0.9852 B(  2-O ,  3-C ) :   1.1285 B(  3-C ,  4-O ) :   1.9788
B(  3-C ,  5-C ) :   1.0682 B(  5-C ,  6-C ) :   1.6327 B(  5-C , 12-C ) :   0.9540
B(  6-C ,  7-C ) :   0.9650 B(  6-C ,  8-N ) :   1.1561 B(  7-C , 25-H ) :   0.9583
B(  7-C , 26-H ) :   0.9902 B(  7-C , 27-H ) :   0.9615 B(  8-N ,  9-C ) :   1.1859
B(  8-N , 28-H ) :   0.9463 B(  9-C , 10-S ) :   1.6086 B(  9-C , 11-N ) :   1.3083
B( 11-N , 12-C ) :   0.9695 B( 11-N , 29-H ) :   0.9487 B( 12-C , 13-C ) :   0.9590
B( 12-C , 30-H ) :   1.0010 B( 13-C , 14-C ) :   1.3584 B( 13-C , 19-C ) :   1.3824
B( 14-C , 15-C ) :   1.3897 B( 14-C , 31-H ) :   0.9697 B( 15-C , 16-C ) :   1.3581
B( 15-C , 32-H ) :   0.9708 B( 16-C , 17-C ) :   1.3341 B( 16-C , 33-H ) :   0.9845
B( 17-C , 18-O ) :   1.1060 B( 17-C , 19-C ) :   1.3639 B( 18-O , 34-H ) :   0.9795
B( 19-C , 35-H ) :   0.9596

MP2 TOTAL ENERGY:    -1274.338557985 Eh
FINAL SINGLE POINT ENERGY     -1274.338557985481

DIPOLE MOMENT
-------------
                                X             Y             Z
Electronic contribution:      9.38918       9.68225       6.69304
Nuclear contribution   :    -10.37200     -11.40170      -6.85542
                        -----------------------------------------
Total Dipole Moment    :     -0.98282      -1.71945      -0.16238
                        -----------------------------------------
Magnitude (a.u.)       :      1.98716
Magnitude (Debye)      :      5.05096

Rotational constants in cm-1:     0.012335     0.008710     0.006163
Rotational constants in MHz :   369.779439   261.117939   184.761535

                             ****ORCA TERMINATED NORMALLY****
TOTAL RUN TIME: 0 days 1 hours 51 minutes 46 seconds 675 msec
