                         Program Version 4.2.0 -  RELEASE  -
|  1> ! ri-mp2 cc-pvtz cc-pvtz/c TightSCF NoKeepInts
|  2>
|  3> %scf
|  4>   MaxCore 4096
|  5> end
|  6> *xyz  0  1
|  7>     C       15.3687211   13.9614348   15.3531825
|  8>     C       14.9756333   15.4125165   15.6760765
|  9>     O       16.1586289   16.2170709   15.5554110
| 10>     C       15.9988467   17.5694662   15.4914577
| 11>     O       15.2007951   18.0802502   14.7251276
| 12>     C       16.7883281   18.3035511   16.5414363
| 13>     C       16.9395586   19.6514771   16.4814681
| 14>     C       16.1907530   20.6170427   15.5862952
| 15>     N       17.8745597   20.3071248   17.2856856
| 16>     C       18.8252941   19.6746548   18.0402430
| 17>     S       19.9633740   20.5135541   18.8985127
| 18>     N       18.7994417   18.3029816   18.0312828
| 19>     C       17.7657829   17.4705407   17.3877412
| 20>     C       17.0886410   16.5179937   18.3644947
| 21>     C       17.3969744   15.1453206   18.3530916
| 22>     C       16.7642180   14.2644003   19.2461677
| 23>     C       15.8195067   14.7616531   20.1602893
| 24>     C       15.5162679   16.1301634   20.1781166
| 25>     O       14.6050024   16.6130102   21.0596352
| 26>     C       16.1463429   17.0040738   19.2866272
| 27>     H       14.4941688   13.3029818   15.4187906
| 28>     H       16.1252491   13.5990168   16.0596499
| 29>     H       15.7780360   13.8893858   14.3377731
| 30>     H       14.2074806   15.7424388   14.9629653
| 31>     H       14.5661624   15.4840329   16.6927127
| 32>     H       15.1068113   20.4971604   15.7105008
| 33>     H       16.4224555   20.4252551   14.5307827
| 34>     H       16.4286813   21.6673847   15.7916436
| 35>     H       17.9189800   21.3136586   17.2832867
| 36>     H       19.4941792   17.8652254   18.6230201
| 37>     H       18.3804484   16.9122556   16.6671647
| 38>     H       18.1231332   14.7595589   17.6423137
| 39>     H       17.0069063   13.2032254   19.2287961
| 40>     H       15.3288796   14.0854963   20.8528200
| 41>     H       14.3154851   15.8736912   21.6152388
| 42>     H       15.9032728   18.0609518   19.3181989
| 43> *
| 44>
| 45>                          ****END OF INPUT****

CARTESIAN COORDINATES (ANGSTROEM)
---------------------------------
  C     15.368721   13.961435   15.353182
  C     14.975633   15.412517   15.676077
  O     16.158629   16.217071   15.555411
  C     15.998847   17.569466   15.491458
  O     15.200795   18.080250   14.725128
  C     16.788328   18.303551   16.541436
  C     16.939559   19.651477   16.481468
  C     16.190753   20.617043   15.586295
  N     17.874560   20.307125   17.285686
  C     18.825294   19.674655   18.040243
  S     19.963374   20.513554   18.898513
  N     18.799442   18.302982   18.031283
  C     17.765783   17.470541   17.387741
  C     17.088641   16.517994   18.364495
  C     17.396974   15.145321   18.353092
  C     16.764218   14.264400   19.246168
  C     15.819507   14.761653   20.160289
  C     15.516268   16.130163   20.178117
  O     14.605002   16.613010   21.059635
  C     16.146343   17.004074   19.286627
  H     14.494169   13.302982   15.418791
  H     16.125249   13.599017   16.059650
  H     15.778036   13.889386   14.337773
  H     14.207481   15.742439   14.962965
  H     14.566162   15.484033   16.692713
  H     15.106811   20.497160   15.710501
  H     16.422456   20.425255   14.530783
  H     16.428681   21.667385   15.791644
  H     17.918980   21.313659   17.283287
  H     19.494179   17.865225   18.623020
  H     18.380448   16.912256   16.667165
  H     18.123133   14.759559   17.642314
  H     17.006906   13.203225   19.228796
  H     15.328880   14.085496   20.852820
  H     14.315485   15.873691   21.615239
  H     15.903273   18.060952   19.318199

 Total Charge           Charge          ....    0
 Multiplicity           Mult            ....    1
 Number of Electrons    NEL             ....  154
 Basis Dimension        Dim             ....  828

ORBITAL ENERGIES
----------------

  NO   OCC          E(Eh)            E(eV)
   0   2.0000     -91.890075     -2500.4561
   1   2.0000     -20.599937      -560.5528
   2   2.0000     -20.590087      -560.2848
   3   2.0000     -20.543552      -559.0185
   4   2.0000     -15.630536      -425.3285
   5   2.0000     -15.608257      -424.7223
   6   2.0000     -11.392265      -309.9993
   7   2.0000     -11.384773      -309.7954
   8   2.0000     -11.338473      -308.5355
   9   2.0000     -11.317599      -307.9675
  10   2.0000     -11.309029      -307.7343
  11   2.0000     -11.294379      -307.3357
  12   2.0000     -11.264145      -306.5130
  13   2.0000     -11.258993      -306.3728
  14   2.0000     -11.258363      -306.3556
  15   2.0000     -11.252561      -306.1978
  16   2.0000     -11.247330      -306.0554
  17   2.0000     -11.242422      -305.9219
  18   2.0000     -11.242093      -305.9129
  19   2.0000     -11.227527      -305.5165
  20   2.0000      -8.895135      -242.0489
  21   2.0000      -6.576704      -178.9612
  22   2.0000      -6.574709      -178.9069
  23   2.0000      -6.574115      -178.8908
  24   2.0000      -1.450028       -39.4573
  25   2.0000      -1.419629       -38.6301
  26   2.0000      -1.353639       -36.8344
  27   2.0000      -1.341539       -36.5051
  28   2.0000      -1.239544       -33.7297
  29   2.0000      -1.161017       -31.5929
  30   2.0000      -1.122306       -30.5395
  31   2.0000      -1.045448       -28.4481
  32   2.0000      -1.037146       -28.2222
  33   2.0000      -1.018843       -27.7241
  34   2.0000      -0.997550       -27.1447
  35   2.0000      -0.986041       -26.8315
  36   2.0000      -0.923698       -25.1351
  37   2.0000      -0.882545       -24.0153
  38   2.0000      -0.847865       -23.0716
  39   2.0000      -0.840595       -22.8737
  40   2.0000      -0.837510       -22.7898
  41   2.0000      -0.823311       -22.4034
  42   2.0000      -0.763688       -20.7810
  43   2.0000      -0.736496       -20.0411
  44   2.0000      -0.723489       -19.6871
  45   2.0000      -0.698664       -19.0116
  46   2.0000      -0.688696       -18.7404
  47   2.0000      -0.678350       -18.4588
  48   2.0000      -0.675043       -18.3689
  49   2.0000      -0.657084       -17.8802
  50   2.0000      -0.649009       -17.6604
  51   2.0000      -0.640844       -17.4383
  52   2.0000      -0.631520       -17.1845
  53   2.0000      -0.615854       -16.7582
  54   2.0000      -0.610192       -16.6042
  55   2.0000      -0.603061       -16.4101
  56   2.0000      -0.601323       -16.3628
  57   2.0000      -0.580099       -15.7853
  58   2.0000      -0.571076       -15.5398
  59   2.0000      -0.565933       -15.3998
  60   2.0000      -0.556909       -15.1543
  61   2.0000      -0.542409       -14.7597
  62   2.0000      -0.535009       -14.5583
  63   2.0000      -0.527166       -14.3449
  64   2.0000      -0.521577       -14.1928
  65   2.0000      -0.514781       -14.0079
  66   2.0000      -0.504679       -13.7330
  67   2.0000      -0.499013       -13.5788
  68   2.0000      -0.487230       -13.2582
  69   2.0000      -0.465592       -12.6694
  70   2.0000      -0.456940       -12.4340
  71   2.0000      -0.445519       -12.1232
  72   2.0000      -0.354837        -9.6556
  73   2.0000      -0.352628        -9.5955
  74   2.0000      -0.329461        -8.9651
  75   2.0000      -0.324817        -8.8387
  76   2.0000      -0.319419        -8.6918
  77   0.0000       0.073095         1.9890
  78   0.0000       0.101040         2.7494
  79   0.0000       0.124072         3.3762
  80   0.0000       0.130649         3.5551
  81   0.0000       0.134063         3.6480

MULLIKEN ATOMIC CHARGES
-----------------------
   0 C :   -0.267668
   1 C :    0.013564
   2 O :   -0.365298
   3 C :    0.473749
   4 O :   -0.422415
   5 C :   -0.275081
   6 C :    0.180598
   7 C :   -0.266370
   8 N :   -0.126277
   9 C :    0.212162
  10 S :   -0.440324
  11 N :   -0.217340
  12 C :    0.073750
  13 C :    0.013847
  14 C :   -0.179181
  15 C :   -0.130169
  16 C :   -0.275747
  17 C :    0.312621
  18 O :   -0.355856
  19 C :   -0.240512
  20 H :    0.090212
  21 H :    0.089674
  22 H :    0.101719
  23 H :    0.124647
  24 H :    0.103043
  25 H :    0.133586
  26 H :    0.130003
  27 H :    0.094718
  28 H :    0.199525
  29 H :    0.200964
  30 H :    0.151584
  31 H :    0.159020
  32 H :    0.164347
  33 H :    0.132657
  34 H :    0.241214
  35 H :    0.165035
Sum of atomic charges:    0.0000000

LOEWDIN ATOMIC CHARGES
----------------------
   0 C :    0.108552
   1 C :   -0.020068
   2 O :    0.302746
   3 C :   -0.417857
   4 O :    0.105632
   5 C :   -0.099372
   6 C :   -0.055153
   7 C :    0.131879
   8 N :    0.407551
   9 C :   -0.455869
  10 S :   -0.035211
  11 N :    0.394245
  12 C :   -0.054641
  13 C :   -0.039384
  14 C :    0.017917
  15 C :    0.040260
  16 C :   -0.000828
  17 C :   -0.190423
  18 O :    0.395879
  19 C :    0.032377
  20 H :   -0.025291
  21 H :   -0.031763
  22 H :   -0.025508
  23 H :   -0.027647
  24 H :   -0.031656
  25 H :   -0.004145
  26 H :   -0.004385
  27 H :   -0.023489
  28 H :   -0.056927
  29 H :   -0.064578
  30 H :   -0.012641
  31 H :   -0.028985
  32 H :   -0.020652
  33 H :   -0.034705
  34 H :   -0.153277
  35 H :   -0.022585

  Mayer bond orders larger than 0.100000
B(  0-C ,  1-C ) :   0.9763 B(  0-C , 20-H ) :   0.9769 B(  0-C , 21-H ) :   0.9779
B(  0-C , 22-H ) :   0.9778 B(  1-C ,  2-O ) :   0.8845 B(  1-C , 23-H ) :   0.9790
B(  1-C , 24-H ) :   0.9681 B(  2-O ,  3-C ) :   1.1223 B(  3-C ,  4-O ) :   1.9993
B(  3-C ,  5-C ) :   1.0702 B(  5-C ,  6-C ) :   1.6301 B(  5-C , 12-C ) :   0.9530
B(  6-C ,  7-C ) :   0.9654 B(  6-C ,  8-N ) :   1.1585 B(  7-C , 25-H ) :   0.9607
B(  7-C , 26-H ) :   0.9586 B(  7-C , 27-H ) :   0.9904 B(  8-N ,  9-C ) :   1.1857
B(  8-N , 28-H ) :   0.9463 B(  9-C , 10-S ) :   1.6065 B(  9-C , 11-N ) :   1.3101
B( 11-N , 12-C ) :   0.9658 B( 11-N , 29-H ) :   0.9484 B( 12-C , 13-C ) :   0.9634
B( 12-C , 30-H ) :   1.0003 B( 13-C , 14-C ) :   1.3564 B( 13-C , 19-C ) :   1.3779
B( 14-C , 15-C ) :   1.3870 B( 14-C , 31-H ) :   0.9699 B( 15-C , 16-C ) :   1.3611
B( 15-C , 32-H ) :   0.9693 B( 16-C , 17-C ) :   1.3323 B( 16-C , 33-H ) :   0.9842
B( 17-C , 18-O ) :   1.1067 B( 17-C , 19-C ) :   1.3663 B( 18-O , 34-H ) :   0.9792
B( 19-C , 35-H ) :   0.9592

MP2 TOTAL ENERGY:    -1274.336966227 Eh
FINAL SINGLE POINT ENERGY     -1274.336966227029

DIPOLE MOMENT
-------------
                                X             Y             Z
Electronic contribution:      8.72048      11.32925       6.98741
Nuclear contribution   :     -9.84184     -12.89650      -7.01034
                        -----------------------------------------
Total Dipole Moment    :     -1.12136      -1.56725      -0.02293
                        -----------------------------------------
Magnitude (a.u.)       :      1.92724
Magnitude (Debye)      :      4.89864

Rotational constants in cm-1:     0.012273     0.008273     0.006042
Rotational constants in MHz :   367.935681   248.033184   181.136465

                             ****ORCA TERMINATED NORMALLY****
TOTAL RUN TIME: 0 days 1 hours 42 minutes 36 seconds 85 msec
