                         Program Version 4.2.0 -  RELEASE  -
|  1> ! ri-mp2 cc-pvtz cc-pvtz/c TightSCF NoKeepInts
|  2>
|  3> %scf
|  4>   MaxCore 4096
|  5> end
|  6> *xyz  0  1
|  7>     C       15.1157138   15.1591712   13.7725006
|  8>     C       15.2887359   14.8817540   15.2826471
|  9>     O       16.0066754   15.9228320   15.9871358
| 10>     C       15.8133319   17.2714532   15.8276977
| 11>     O       15.0023780   17.7476644   15.0535210
| 12>     C       16.6719725   18.0803412   16.7656287
| 13>     C       16.8265024   19.4184531   16.5878178
| 14>     C       16.0232944   20.3234508   15.6760230
| 15>     N       17.8182038   20.1265096   17.2707334
| 16>     C       18.8197166   19.5474041   18.0013796
| 17>     S       20.0217194   20.4408197   18.7034211
| 18>     N       18.7880976   18.1800174   18.1028064
| 19>     C       17.7043248   17.3101362   17.6082817
| 20>     C       17.0974861   16.4518043   18.7106791
| 21>     C       17.3385118   15.0661858   18.7552592
| 22>     C       16.7815427   14.2777186   19.7762954
| 23>     C       15.9805788   14.8807000   20.7614289
| 24>     C       15.7431779   16.2617581   20.7212351
| 25>     O       14.9721530   16.8466085   21.6723432
| 26>     C       16.2991088   17.0438039   19.7039916
| 27>     H       14.3077354   15.8764819   13.5841668
| 28>     H       14.8556225   14.2329794   13.2461873
| 29>     H       16.0433984   15.5490740   13.3357315
| 30>     H       14.2942349   14.7592237   15.7314670
| 31>     H       15.8278745   13.9351447   15.4155866
| 32>     H       14.9489905   20.2127627   15.8720864
| 33>     H       16.1931663   20.0622065   14.6237863
| 34>     H       16.2684064   21.3850725   15.7976957
| 35>     H       17.8650152   21.1292927   17.1862194
| 36>     H       19.5208950   17.7836405   18.6774794
| 37>     H       18.2653008   16.6881439   16.8965498
| 38>     H       17.9541622   14.5990059   17.9914229
| 39>     H       16.9707755   13.2060597   19.8021582
| 40>     H       15.5484285   14.2762035   21.5520300
| 41>     H       14.6990072   16.1539983   22.2923486
| 42>     H       16.1107613   18.1121240   19.6922576
| 43> *
| 44>
| 45>                          ****END OF INPUT****

CARTESIAN COORDINATES (ANGSTROEM)
---------------------------------
  C     15.115714   15.159171   13.772501
  C     15.288736   14.881754   15.282647
  O     16.006675   15.922832   15.987136
  C     15.813332   17.271453   15.827698
  O     15.002378   17.747664   15.053521
  C     16.671972   18.080341   16.765629
  C     16.826502   19.418453   16.587818
  C     16.023294   20.323451   15.676023
  N     17.818204   20.126510   17.270733
  C     18.819717   19.547404   18.001380
  S     20.021719   20.440820   18.703421
  N     18.788098   18.180017   18.102806
  C     17.704325   17.310136   17.608282
  C     17.097486   16.451804   18.710679
  C     17.338512   15.066186   18.755259
  C     16.781543   14.277719   19.776295
  C     15.980579   14.880700   20.761429
  C     15.743178   16.261758   20.721235
  O     14.972153   16.846608   21.672343
  C     16.299109   17.043804   19.703992
  H     14.307735   15.876482   13.584167
  H     14.855622   14.232979   13.246187
  H     16.043398   15.549074   13.335731
  H     14.294235   14.759224   15.731467
  H     15.827875   13.935145   15.415587
  H     14.948990   20.212763   15.872086
  H     16.193166   20.062206   14.623786
  H     16.268406   21.385072   15.797696
  H     17.865015   21.129293   17.186219
  H     19.520895   17.783640   18.677479
  H     18.265301   16.688144   16.896550
  H     17.954162   14.599006   17.991423
  H     16.970775   13.206060   19.802158
  H     15.548428   14.276203   21.552030
  H     14.699007   16.153998   22.292349
  H     16.110761   18.112124   19.692258

 Total Charge           Charge          ....    0
 Multiplicity           Mult            ....    1
 Number of Electrons    NEL             ....  154
 Basis Dimension        Dim             ....  828

ORBITAL ENERGIES
----------------

  NO   OCC          E(Eh)            E(eV)
   0   2.0000     -91.887980     -2500.3991
   1   2.0000     -20.599321      -560.5360
   2   2.0000     -20.595156      -560.4227
   3   2.0000     -20.540426      -558.9334
   4   2.0000     -15.628235      -425.2659
   5   2.0000     -15.605959      -424.6597
   6   2.0000     -11.397207      -310.1338
   7   2.0000     -11.382508      -309.7338
   8   2.0000     -11.336438      -308.4802
   9   2.0000     -11.312155      -307.8194
  10   2.0000     -11.306320      -307.6606
  11   2.0000     -11.302525      -307.5573
  12   2.0000     -11.259309      -306.3814
  13   2.0000     -11.258862      -306.3692
  14   2.0000     -11.253698      -306.2287
  15   2.0000     -11.250994      -306.1551
  16   2.0000     -11.241992      -305.9102
  17   2.0000     -11.237349      -305.7838
  18   2.0000     -11.237275      -305.7818
  19   2.0000     -11.223149      -305.3974
  20   2.0000      -8.893062      -241.9925
  21   2.0000      -6.574637      -178.9050
  22   2.0000      -6.572637      -178.8505
  23   2.0000      -6.572049      -178.8345
  24   2.0000      -1.445616       -39.3372
  25   2.0000      -1.414800       -38.4987
  26   2.0000      -1.354391       -36.8549
  27   2.0000      -1.339541       -36.4508
  28   2.0000      -1.237349       -33.6700
  29   2.0000      -1.156002       -31.4564
  30   2.0000      -1.119754       -30.4700
  31   2.0000      -1.041518       -28.3411
  32   2.0000      -1.036458       -28.2034
  33   2.0000      -1.013454       -27.5775
  34   2.0000      -0.995186       -27.0804
  35   2.0000      -0.983250       -26.7556
  36   2.0000      -0.920686       -25.0531
  37   2.0000      -0.897195       -24.4139
  38   2.0000      -0.846038       -23.0219
  39   2.0000      -0.836865       -22.7723
  40   2.0000      -0.832698       -22.6589
  41   2.0000      -0.817681       -22.2502
  42   2.0000      -0.748487       -20.3674
  43   2.0000      -0.731101       -19.8943
  44   2.0000      -0.719418       -19.5764
  45   2.0000      -0.694245       -18.8914
  46   2.0000      -0.687796       -18.7159
  47   2.0000      -0.678304       -18.4576
  48   2.0000      -0.668815       -18.1994
  49   2.0000      -0.654364       -17.8062
  50   2.0000      -0.648490       -17.6463
  51   2.0000      -0.644570       -17.5396
  52   2.0000      -0.633237       -17.2312
  53   2.0000      -0.607601       -16.5337
  54   2.0000      -0.604345       -16.4451
  55   2.0000      -0.598708       -16.2917
  56   2.0000      -0.597542       -16.2599
  57   2.0000      -0.579506       -15.7692
  58   2.0000      -0.572881       -15.5889
  59   2.0000      -0.569060       -15.4849
  60   2.0000      -0.561461       -15.2781
  61   2.0000      -0.539278       -14.6745
  62   2.0000      -0.536726       -14.6051
  63   2.0000      -0.523379       -14.2419
  64   2.0000      -0.521362       -14.1870
  65   2.0000      -0.511847       -13.9281
  66   2.0000      -0.503241       -13.6939
  67   2.0000      -0.496851       -13.5200
  68   2.0000      -0.482502       -13.1295
  69   2.0000      -0.462359       -12.5814
  70   2.0000      -0.454841       -12.3769
  71   2.0000      -0.440564       -11.9884
  72   2.0000      -0.352043        -9.5796
  73   2.0000      -0.348290        -9.4774
  74   2.0000      -0.327163        -8.9026
  75   2.0000      -0.319593        -8.6966
  76   2.0000      -0.317137        -8.6297
  77   0.0000       0.078711         2.1418
  78   0.0000       0.107230         2.9179
  79   0.0000       0.123644         3.3645
  80   0.0000       0.133702         3.6382
  81   0.0000       0.136595         3.7169

MULLIKEN ATOMIC CHARGES
-----------------------
   0 C :   -0.295991
   1 C :    0.050641
   2 O :   -0.350777
   3 C :    0.442187
   4 O :   -0.437782
   5 C :   -0.217531
   6 C :    0.171894
   7 C :   -0.268575
   8 N :   -0.125530
   9 C :    0.210938
  10 S :   -0.443585
  11 N :   -0.214808
  12 C :    0.054553
  13 C :    0.054204
  14 C :   -0.178954
  15 C :   -0.133508
  16 C :   -0.275932
  17 C :    0.317027
  18 O :   -0.357166
  19 C :   -0.249325
  20 H :    0.126498
  21 H :    0.095108
  22 H :    0.093463
  23 H :    0.088533
  24 H :    0.099603
  25 H :    0.133851
  26 H :    0.127496
  27 H :    0.094558
  28 H :    0.199477
  29 H :    0.200263
  30 H :    0.150007
  31 H :    0.148559
  32 H :    0.159185
  33 H :    0.129153
  34 H :    0.240356
  35 H :    0.161915
Sum of atomic charges:   -0.0000000

LOEWDIN ATOMIC CHARGES
----------------------
   0 C :    0.102982
   1 C :   -0.009298
   2 O :    0.300127
   3 C :   -0.413006
   4 O :    0.103027
   5 C :   -0.093210
   6 C :   -0.056958
   7 C :    0.130304
   8 N :    0.406928
   9 C :   -0.456961
  10 S :   -0.037791
  11 N :    0.394611
  12 C :   -0.055143
  13 C :   -0.038510
  14 C :    0.016438
  15 C :    0.039271
  16 C :   -0.000715
  17 C :   -0.189406
  18 O :    0.394872
  19 C :    0.033373
  20 H :   -0.025388
  21 H :   -0.028831
  22 H :   -0.028074
  23 H :   -0.028238
  24 H :   -0.025195
  25 H :   -0.004407
  26 H :   -0.005712
  27 H :   -0.023849
  28 H :   -0.057347
  29 H :   -0.064480
  30 H :   -0.014725
  31 H :   -0.030134
  32 H :   -0.021670
  33 H :   -0.035679
  34 H :   -0.154199
  35 H :   -0.023004

  Mayer bond orders larger than 0.100000
B(  0-C ,  1-C ) :   0.9694 B(  0-C , 20-H ) :   0.9716 B(  0-C , 21-H ) :   0.9771
B(  0-C , 22-H ) :   0.9759 B(  1-C ,  2-O ) :   0.9054 B(  1-C , 23-H ) :   0.9782
B(  1-C , 24-H ) :   0.9834 B(  2-O ,  3-C ) :   1.1639 B(  3-C ,  4-O ) :   1.9555
B(  3-C ,  5-C ) :   1.0774 B(  5-C ,  6-C ) :   1.6403 B(  5-C , 12-C ) :   0.9531
B(  6-C ,  7-C ) :   0.9659 B(  6-C ,  8-N ) :   1.1535 B(  7-C , 25-H ) :   0.9613
B(  7-C , 26-H ) :   0.9589 B(  7-C , 27-H ) :   0.9911 B(  8-N ,  9-C ) :   1.1881
B(  8-N , 28-H ) :   0.9465 B(  9-C , 10-S ) :   1.6042 B(  9-C , 11-N ) :   1.3101
B( 11-N , 12-C ) :   0.9670 B( 11-N , 29-H ) :   0.9484 B( 12-C , 13-C ) :   0.9675
B( 12-C , 30-H ) :   1.0008 B( 13-C , 14-C ) :   1.3527 B( 13-C , 19-C ) :   1.3817
B( 14-C , 15-C ) :   1.3962 B( 14-C , 31-H ) :   0.9725 B( 15-C , 16-C ) :   1.3605
B( 15-C , 32-H ) :   0.9711 B( 16-C , 17-C ) :   1.3342 B( 16-C , 33-H ) :   0.9854
B( 17-C , 18-O ) :   1.1038 B( 17-C , 19-C ) :   1.3650 B( 18-O , 34-H ) :   0.9801
B( 19-C , 35-H ) :   0.9598

MP2 TOTAL ENERGY:    -1274.336238913 Eh
FINAL SINGLE POINT ENERGY     -1274.336238912770

DIPOLE MOMENT
-------------
                                X             Y             Z
Electronic contribution:      8.70727       9.07673      11.21803
Nuclear contribution   :     -9.78984     -10.79023     -11.64054
                        -----------------------------------------
Total Dipole Moment    :     -1.08257      -1.71350      -0.42252
                        -----------------------------------------
Magnitude (a.u.)       :      2.07040
Magnitude (Debye)      :      5.26254

Rotational constants in cm-1:     0.010195     0.008985     0.005764
Rotational constants in MHz :   305.630388   269.357168   172.805734

                             ****ORCA TERMINATED NORMALLY****
TOTAL RUN TIME: 0 days 1 hours 36 minutes 10 seconds 959 msec
