                         Program Version 4.2.0 -  RELEASE  -
|  1> ! ri-mp2 cc-pvtz cc-pvtz/c TightSCF NoKeepInts
|  2>
|  3> %scf
|  4>   MaxCore 4096
|  5> end
|  6> *xyz  0  1
|  7>     C       14.7086301   15.7369400   16.2722752
|  8>     C       14.9908713   16.1789721   14.8180558
|  9>     O       16.3983709   16.3673597   14.5270661
| 10>     C       17.3617712   16.4984086   15.4893542
| 11>     O       18.2562657   15.6788250   15.5922441
| 12>     C       17.2126093   17.6555712   16.4323565
| 13>     C       16.8880727   18.8970327   15.9889458
| 14>     C       16.4491845   19.2993656   14.5945946
| 15>     N       17.0271428   20.0098470   16.8216653
| 16>     C       17.7125889   20.0058891   18.0069467
| 17>     S       17.9418226   21.3875620   18.8860998
| 18>     N       18.2206319   18.7978066   18.4138759
| 19>     C       17.9419445   17.4981818   17.7715092
| 20>     C       17.2920628   16.4773870   18.6960585
| 21>     C       17.7699756   15.1556048   18.7462324
| 22>     C       17.1602603   14.2060235   19.5828594
| 23>     C       16.0628551   14.5813119   20.3764819
| 24>     C       15.5836444   15.8974585   20.3279705
| 25>     O       14.5187455   16.2607126   21.0860682
| 26>     C       16.1925245   16.8406265   19.4939639
| 27>     H       15.3628441   14.9076670   16.5724817
| 28>     H       13.6719735   15.3909094   16.3643425
| 29>     H       14.8356401   16.5651910   16.9780247
| 30>     H       14.5979296   15.4157832   14.1335949
| 31>     H       14.4387268   17.1046854   14.6176963
| 32>     H       16.9800364   18.7273673   13.8233436
| 33>     H       16.6593352   20.3560555   14.3863223
| 34>     H       15.3733926   19.1459795   14.4579508
| 35>     H       16.6876207   20.9095205   16.5203888
| 36>     H       18.7154882   18.8191677   19.2968211
| 37>     H       18.9658232   17.1848865   17.5186403
| 38>     H       18.6107951   14.8603820   18.1219514
| 39>     H       17.5367520   13.1848296   19.6091960
| 40>     H       15.5878217   13.8502053   21.0222419
| 41>     H       14.2681688   15.4928226   21.6215783
| 42>     H       15.8046776   17.8536615   19.4688014
| 43> *
| 44>
| 45>                          ****END OF INPUT****

CARTESIAN COORDINATES (ANGSTROEM)
---------------------------------
  C     14.708630   15.736940   16.272275
  C     14.990871   16.178972   14.818056
  O     16.398371   16.367360   14.527066
  C     17.361771   16.498409   15.489354
  O     18.256266   15.678825   15.592244
  C     17.212609   17.655571   16.432357
  C     16.888073   18.897033   15.988946
  C     16.449185   19.299366   14.594595
  N     17.027143   20.009847   16.821665
  C     17.712589   20.005889   18.006947
  S     17.941823   21.387562   18.886100
  N     18.220632   18.797807   18.413876
  C     17.941945   17.498182   17.771509
  C     17.292063   16.477387   18.696058
  C     17.769976   15.155605   18.746232
  C     17.160260   14.206023   19.582859
  C     16.062855   14.581312   20.376482
  C     15.583644   15.897459   20.327970
  O     14.518745   16.260713   21.086068
  C     16.192525   16.840626   19.493964
  H     15.362844   14.907667   16.572482
  H     13.671974   15.390909   16.364342
  H     14.835640   16.565191   16.978025
  H     14.597930   15.415783   14.133595
  H     14.438727   17.104685   14.617696
  H     16.980036   18.727367   13.823344
  H     16.659335   20.356056   14.386322
  H     15.373393   19.145979   14.457951
  H     16.687621   20.909520   16.520389
  H     18.715488   18.819168   19.296821
  H     18.965823   17.184887   17.518640
  H     18.610795   14.860382   18.121951
  H     17.536752   13.184830   19.609196
  H     15.587822   13.850205   21.022242
  H     14.268169   15.492823   21.621578
  H     15.804678   17.853662   19.468801

 Total Charge           Charge          ....    0
 Multiplicity           Mult            ....    1
 Number of Electrons    NEL             ....  154
 Basis Dimension        Dim             ....  828

ORBITAL ENERGIES
----------------

  NO   OCC          E(Eh)            E(eV)
   0   2.0000     -91.890131     -2500.4576
   1   2.0000     -20.597239      -560.4794
   2   2.0000     -20.590396      -560.2932
   3   2.0000     -20.551741      -559.2413
   4   2.0000     -15.629689      -425.3055
   5   2.0000     -15.608400      -424.7262
   6   2.0000     -11.396907      -310.1256
   7   2.0000     -11.385209      -309.8073
   8   2.0000     -11.338158      -308.5270
   9   2.0000     -11.313853      -307.8656
  10   2.0000     -11.310242      -307.7673
  11   2.0000     -11.307572      -307.6947
  12   2.0000     -11.263831      -306.5044
  13   2.0000     -11.262821      -306.4769
  14   2.0000     -11.260907      -306.4248
  15   2.0000     -11.253826      -306.2322
  16   2.0000     -11.243522      -305.9518
  17   2.0000     -11.239272      -305.8361
  18   2.0000     -11.235565      -305.7353
  19   2.0000     -11.232769      -305.6592
  20   2.0000      -8.895221      -242.0513
  21   2.0000      -6.576798      -178.9638
  22   2.0000      -6.574792      -178.9092
  23   2.0000      -6.574204      -178.8932
  24   2.0000      -1.445781       -39.3417
  25   2.0000      -1.417017       -38.5590
  26   2.0000      -1.357784       -36.9472
  27   2.0000      -1.341911       -36.5153
  28   2.0000      -1.239385       -33.7254
  29   2.0000      -1.157952       -31.5095
  30   2.0000      -1.123836       -30.5811
  31   2.0000      -1.045871       -28.4596
  32   2.0000      -1.035645       -28.1813
  33   2.0000      -1.016046       -27.6480
  34   2.0000      -1.004651       -27.3379
  35   2.0000      -0.988850       -26.9080
  36   2.0000      -0.925452       -25.1828
  37   2.0000      -0.899469       -24.4758
  38   2.0000      -0.852208       -23.1898
  39   2.0000      -0.840141       -22.8614
  40   2.0000      -0.833692       -22.6859
  41   2.0000      -0.825423       -22.4609
  42   2.0000      -0.744210       -20.2510
  43   2.0000      -0.731832       -19.9142
  44   2.0000      -0.730397       -19.8751
  45   2.0000      -0.694148       -18.8887
  46   2.0000      -0.686440       -18.6790
  47   2.0000      -0.680871       -18.5274
  48   2.0000      -0.675426       -18.3793
  49   2.0000      -0.663675       -18.0595
  50   2.0000      -0.654848       -17.8193
  51   2.0000      -0.649276       -17.6677
  52   2.0000      -0.638033       -17.3618
  53   2.0000      -0.623584       -16.9686
  54   2.0000      -0.608496       -16.5580
  55   2.0000      -0.603934       -16.4339
  56   2.0000      -0.600808       -16.3488
  57   2.0000      -0.582718       -15.8566
  58   2.0000      -0.575427       -15.6582
  59   2.0000      -0.564305       -15.3555
  60   2.0000      -0.559926       -15.2364
  61   2.0000      -0.548187       -14.9169
  62   2.0000      -0.541696       -14.7403
  63   2.0000      -0.536053       -14.5867
  64   2.0000      -0.521096       -14.1797
  65   2.0000      -0.511764       -13.9258
  66   2.0000      -0.499539       -13.5931
  67   2.0000      -0.491107       -13.3637
  68   2.0000      -0.487395       -13.2627
  69   2.0000      -0.471295       -12.8246
  70   2.0000      -0.456810       -12.4304
  71   2.0000      -0.448564       -12.2061
  72   2.0000      -0.356283        -9.6949
  73   2.0000      -0.348340        -9.4788
  74   2.0000      -0.329398        -8.9634
  75   2.0000      -0.321564        -8.7502
  76   2.0000      -0.319633        -8.6977
  77   0.0000       0.076286         2.0758
  78   0.0000       0.104937         2.8555
  79   0.0000       0.117769         3.2047
  80   0.0000       0.131382         3.5751
  81   0.0000       0.134050         3.6477

MULLIKEN ATOMIC CHARGES
-----------------------
   0 C :   -0.334195
   1 C :    0.043024
   2 O :   -0.361960
   3 C :    0.464346
   4 O :   -0.382368
   5 C :   -0.268831
   6 C :    0.189157
   7 C :   -0.318077
   8 N :   -0.133944
   9 C :    0.204169
  10 S :   -0.440984
  11 N :   -0.219517
  12 C :    0.067390
  13 C :    0.024843
  14 C :   -0.208663
  15 C :   -0.131161
  16 C :   -0.277180
  17 C :    0.321563
  18 O :   -0.357828
  19 C :   -0.265715
  20 H :    0.123490
  21 H :    0.116481
  22 H :    0.111981
  23 H :    0.122348
  24 H :    0.082562
  25 H :    0.142878
  26 H :    0.116556
  27 H :    0.121065
  28 H :    0.198519
  29 H :    0.201668
  30 H :    0.162273
  31 H :    0.174960
  32 H :    0.163966
  33 H :    0.131169
  34 H :    0.240860
  35 H :    0.175154
Sum of atomic charges:   -0.0000000

LOEWDIN ATOMIC CHARGES
----------------------
   0 C :    0.106340
   1 C :   -0.013593
   2 O :    0.288468
   3 C :   -0.422018
   4 O :    0.125768
   5 C :   -0.090586
   6 C :   -0.075294
   7 C :    0.127970
   8 N :    0.404313
   9 C :   -0.458887
  10 S :   -0.036745
  11 N :    0.396327
  12 C :   -0.047950
  13 C :   -0.042162
  14 C :    0.022907
  15 C :    0.042430
  16 C :   -0.000950
  17 C :   -0.192932
  18 O :    0.394427
  19 C :    0.028565
  20 H :   -0.019815
  21 H :   -0.022281
  22 H :   -0.033070
  23 H :   -0.021828
  24 H :   -0.038135
  25 H :   -0.006499
  26 H :   -0.016038
  27 H :   -0.017237
  28 H :   -0.057958
  29 H :   -0.063231
  30 H :   -0.005401
  31 H :   -0.022070
  32 H :   -0.019400
  33 H :   -0.035253
  34 H :   -0.153726
  35 H :   -0.024456

  Mayer bond orders larger than 0.100000
B(  0-C ,  1-C ) :   0.9582 B(  0-C , 20-H ) :   0.9676 B(  0-C , 21-H ) :   0.9754
B(  0-C , 22-H ) :   0.9703 B(  1-C ,  2-O ) :   0.9050 B(  1-C , 23-H ) :   0.9822
B(  1-C , 24-H ) :   0.9764 B(  2-O ,  3-C ) :   1.1183 B(  3-C ,  4-O ) :   2.0738
B(  3-C ,  5-C ) :   0.9586 B(  5-C ,  6-C ) :   1.6818 B(  5-C , 12-C ) :   0.9442
B(  6-C ,  7-C ) :   0.9409 B(  6-C ,  8-N ) :   1.1244 B(  7-C , 25-H ) :   0.9657
B(  7-C , 26-H ) :   0.9864 B(  7-C , 27-H ) :   0.9678 B(  8-N ,  9-C ) :   1.1908
B(  8-N , 28-H ) :   0.9487 B(  9-C , 10-S ) :   1.6110 B(  9-C , 11-N ) :   1.2973
B( 11-N , 12-C ) :   0.9791 B( 11-N , 29-H ) :   0.9483 B( 12-C , 13-C ) :   0.9700
B( 12-C , 30-H ) :   0.9925 B( 13-C , 14-C ) :   1.3871 B( 13-C , 19-C ) :   1.3458
B( 14-C , 15-C ) :   1.3949 B( 14-C , 31-H ) :   0.9583 B( 15-C , 16-C ) :   1.3598
B( 15-C , 32-H ) :   0.9702 B( 16-C , 17-C ) :   1.3316 B( 16-C , 33-H ) :   0.9849
B( 17-C , 18-O ) :   1.1077 B( 17-C , 19-C ) :   1.3599 B( 18-O , 34-H ) :   0.9799
B( 19-C , 35-H ) :   0.9579

MP2 TOTAL ENERGY:    -1274.324819580 Eh
FINAL SINGLE POINT ENERGY     -1274.324819579960

DIPOLE MOMENT
-------------
                                X             Y             Z
Electronic contribution:      8.85706       7.57145       6.71621
Nuclear contribution   :    -10.43199      -8.70296      -7.29795
                        -----------------------------------------
Total Dipole Moment    :     -1.57493      -1.13151      -0.58174
                        -----------------------------------------
Magnitude (a.u.)       :      2.02463
Magnitude (Debye)      :      5.14620

Rotational constants in cm-1:     0.011437     0.009369     0.006407
Rotational constants in MHz :   342.881893   280.883003   192.082700

                             ****ORCA TERMINATED NORMALLY****
TOTAL RUN TIME: 0 days 2 hours 10 minutes 33 seconds 421 msec
