                         Program Version 4.2.0 -  RELEASE  -
|  1> ! ri-mp2 cc-pvtz cc-pvtz/c TightSCF NoKeepInts
|  2>
|  3> %scf
|  4>   MaxCore 4096
|  5> end
|  6> *xyz  0  1
|  7>     C       14.7870833   15.0114510   14.1054211
|  8>     C       15.3984956   14.9163495   15.5200280
|  9>     O       16.3454978   15.9712020   15.8076343
| 10>     C       16.0832820   17.3095140   15.6661470
| 11>     O       15.2898662   17.7588615   14.8588390
| 12>     C       16.8086930   18.1371658   16.6953218
| 13>     C       16.8930523   19.4872659   16.5702868
| 14>     C       16.1186225   20.3711708   15.6140990
| 15>     N       17.7738137   20.2302574   17.3598549
| 16>     C       18.7392978   19.6880149   18.1637922
| 17>     S       19.8132931   20.6279259   18.9998023
| 18>     N       18.7847079   18.3184877   18.2239842
| 19>     C       17.8086069   17.4018840   17.6053356
| 20>     C       17.1588933   16.4694696   18.6198467
| 21>     C       17.4909822   15.1024373   18.6516674
| 22>     C       16.8894010   14.2436789   19.5870238
| 23>     C       15.9514085   14.7573212   20.4991221
| 24>     C       15.6230107   16.1199484   20.4722440
| 25>     O       14.7190278   16.6186037   21.3526435
| 26>     C       16.2230006   16.9718988   19.5396944
| 27>     H       14.0032385   15.7770940   14.0577908
| 28>     H       14.3273794   14.0559298   13.8260776
| 29>     H       15.5574079   15.2498090   13.3614725
| 30>     H       14.5891617   14.9362096   16.2618274
| 31>     H       15.9129780   13.9521746   15.6204365
| 32>     H       15.0394688   20.2009555   15.7200033
| 33>     H       16.3856914   20.1435930   14.5742431
| 34>     H       16.2972794   21.4407881   15.7751074
| 35>     H       17.7652452   21.2363165   17.3077361
| 36>     H       19.4870458   17.9478993   18.8514758
| 37>     H       18.4689056   16.8400000   16.9295438
| 38>     H       18.2131387   14.7042912   17.9438045
| 39>     H       17.1510934   13.1871015   19.6041817
| 40>     H       15.4848751   14.0985212   21.2241698
| 41>     H       14.4424246   15.8915452   21.9303318
| 42>     H       15.9616303   18.0248631   19.5370100
| 43> *
| 44>
| 45>                          ****END OF INPUT****

CARTESIAN COORDINATES (ANGSTROEM)
---------------------------------
  C     14.787083   15.011451   14.105421
  C     15.398496   14.916349   15.520028
  O     16.345498   15.971202   15.807634
  C     16.083282   17.309514   15.666147
  O     15.289866   17.758861   14.858839
  C     16.808693   18.137166   16.695322
  C     16.893052   19.487266   16.570287
  C     16.118623   20.371171   15.614099
  N     17.773814   20.230257   17.359855
  C     18.739298   19.688015   18.163792
  S     19.813293   20.627926   18.999802
  N     18.784708   18.318488   18.223984
  C     17.808607   17.401884   17.605336
  C     17.158893   16.469470   18.619847
  C     17.490982   15.102437   18.651667
  C     16.889401   14.243679   19.587024
  C     15.951408   14.757321   20.499122
  C     15.623011   16.119948   20.472244
  O     14.719028   16.618604   21.352643
  C     16.223001   16.971899   19.539694
  H     14.003239   15.777094   14.057791
  H     14.327379   14.055930   13.826078
  H     15.557408   15.249809   13.361472
  H     14.589162   14.936210   16.261827
  H     15.912978   13.952175   15.620436
  H     15.039469   20.200955   15.720003
  H     16.385691   20.143593   14.574243
  H     16.297279   21.440788   15.775107
  H     17.765245   21.236316   17.307736
  H     19.487046   17.947899   18.851476
  H     18.468906   16.840000   16.929544
  H     18.213139   14.704291   17.943804
  H     17.151093   13.187102   19.604182
  H     15.484875   14.098521   21.224170
  H     14.442425   15.891545   21.930332
  H     15.961630   18.024863   19.537010

 Total Charge           Charge          ....    0
 Multiplicity           Mult            ....    1
 Number of Electrons    NEL             ....  154
 Basis Dimension        Dim             ....  828

ORBITAL ENERGIES
----------------

  NO   OCC          E(Eh)            E(eV)
   0   2.0000     -91.888532     -2500.4141
   1   2.0000     -20.596983      -560.4724
   2   2.0000     -20.594882      -560.4152
   3   2.0000     -20.541942      -558.9747
   4   2.0000     -15.628846      -425.2825
   5   2.0000     -15.606490      -424.6742
   6   2.0000     -11.396484      -310.1141
   7   2.0000     -11.383082      -309.7494
   8   2.0000     -11.336871      -308.4919
   9   2.0000     -11.314170      -307.8742
  10   2.0000     -11.306827      -307.6744
  11   2.0000     -11.301163      -307.5203
  12   2.0000     -11.261049      -306.4287
  13   2.0000     -11.258164      -306.3502
  14   2.0000     -11.255636      -306.2814
  15   2.0000     -11.251462      -306.1678
  16   2.0000     -11.243875      -305.9614
  17   2.0000     -11.239111      -305.8318
  18   2.0000     -11.238917      -305.8265
  19   2.0000     -11.219619      -305.3014
  20   2.0000      -8.893607      -242.0073
  21   2.0000      -6.575180      -178.9198
  22   2.0000      -6.573182      -178.8654
  23   2.0000      -6.572592      -178.8493
  24   2.0000      -1.444862       -39.3167
  25   2.0000      -1.416636       -38.5486
  26   2.0000      -1.354530       -36.8586
  27   2.0000      -1.340015       -36.4637
  28   2.0000      -1.237858       -33.6838
  29   2.0000      -1.157656       -31.5014
  30   2.0000      -1.120265       -30.4839
  31   2.0000      -1.042630       -28.3714
  32   2.0000      -1.034787       -28.1580
  33   2.0000      -1.015307       -27.6279
  34   2.0000      -0.995393       -27.0860
  35   2.0000      -0.983656       -26.7667
  36   2.0000      -0.921518       -25.0758
  37   2.0000      -0.893418       -24.3111
  38   2.0000      -0.846688       -23.0396
  39   2.0000      -0.838277       -22.8107
  40   2.0000      -0.834450       -22.7065
  41   2.0000      -0.819623       -22.3031
  42   2.0000      -0.749341       -20.3906
  43   2.0000      -0.732367       -19.9287
  44   2.0000      -0.718988       -19.5647
  45   2.0000      -0.695567       -18.9273
  46   2.0000      -0.688226       -18.7276
  47   2.0000      -0.678857       -18.4726
  48   2.0000      -0.668867       -18.2008
  49   2.0000      -0.655242       -17.8300
  50   2.0000      -0.648553       -17.6480
  51   2.0000      -0.645143       -17.5552
  52   2.0000      -0.634221       -17.2580
  53   2.0000      -0.607318       -16.5260
  54   2.0000      -0.601532       -16.3685
  55   2.0000      -0.599337       -16.3088
  56   2.0000      -0.595724       -16.2105
  57   2.0000      -0.582487       -15.8503
  58   2.0000      -0.575269       -15.6539
  59   2.0000      -0.569513       -15.4972
  60   2.0000      -0.562443       -15.3049
  61   2.0000      -0.539940       -14.6925
  62   2.0000      -0.535201       -14.5635
  63   2.0000      -0.524211       -14.2645
  64   2.0000      -0.520395       -14.1607
  65   2.0000      -0.512354       -13.9419
  66   2.0000      -0.500504       -13.6194
  67   2.0000      -0.497427       -13.5357
  68   2.0000      -0.483712       -13.1625
  69   2.0000      -0.463245       -12.6055
  70   2.0000      -0.454714       -12.3734
  71   2.0000      -0.439213       -11.9516
  72   2.0000      -0.352410        -9.5896
  73   2.0000      -0.349938        -9.5223
  74   2.0000      -0.327775        -8.9192
  75   2.0000      -0.321524        -8.7491
  76   2.0000      -0.317775        -8.6471
  77   0.0000       0.076137         2.0718
  78   0.0000       0.104952         2.8559
  79   0.0000       0.124944         3.3999
  80   0.0000       0.132739         3.6120
  81   0.0000       0.136767         3.7216

MULLIKEN ATOMIC CHARGES
-----------------------
   0 C :   -0.282176
   1 C :    0.047866
   2 O :   -0.366160
   3 C :    0.441411
   4 O :   -0.432192
   5 C :   -0.220142
   6 C :    0.174415
   7 C :   -0.267461
   8 N :   -0.125609
   9 C :    0.211248
  10 S :   -0.442585
  11 N :   -0.216123
  12 C :    0.066133
  13 C :    0.043591
  14 C :   -0.185861
  15 C :   -0.131175
  16 C :   -0.277471
  17 C :    0.316469
  18 O :   -0.356653
  19 C :   -0.250584
  20 H :    0.118295
  21 H :    0.092457
  22 H :    0.097364
  23 H :    0.090224
  24 H :    0.098501
  25 H :    0.133268
  26 H :    0.128701
  27 H :    0.094656
  28 H :    0.199522
  29 H :    0.200357
  30 H :    0.151663
  31 H :    0.152895
  32 H :    0.160885
  33 H :    0.130477
  34 H :    0.240652
  35 H :    0.163142
Sum of atomic charges:   -0.0000000

LOEWDIN ATOMIC CHARGES
----------------------
   0 C :    0.102972
   1 C :   -0.012063
   2 O :    0.295879
   3 C :   -0.412886
   4 O :    0.108540
   5 C :   -0.095544
   6 C :   -0.056099
   7 C :    0.130643
   8 N :    0.407126
   9 C :   -0.456668
  10 S :   -0.037017
  11 N :    0.394503
  12 C :   -0.054766
  13 C :   -0.038804
  14 C :    0.016978
  15 C :    0.038703
  16 C :   -0.001329
  17 C :   -0.189873
  18 O :    0.395104
  19 C :    0.032584
  20 H :   -0.026803
  21 H :   -0.030238
  22 H :   -0.025476
  23 H :   -0.029260
  24 H :   -0.024588
  25 H :   -0.004578
  26 H :   -0.005181
  27 H :   -0.023770
  28 H :   -0.057284
  29 H :   -0.064528
  30 H :   -0.013618
  31 H :   -0.029157
  32 H :   -0.021335
  33 H :   -0.035476
  34 H :   -0.153915
  35 H :   -0.022779

  Mayer bond orders larger than 0.100000
B(  0-C ,  1-C ) :   0.9779 B(  0-C , 20-H ) :   0.9724 B(  0-C , 21-H ) :   0.9770
B(  0-C , 22-H ) :   0.9752 B(  1-C ,  2-O ) :   0.8982 B(  1-C , 23-H ) :   0.9745
B(  1-C , 24-H ) :   0.9828 B(  2-O ,  3-C ) :   1.1236 B(  3-C ,  4-O ) :   1.9692
B(  3-C ,  5-C ) :   1.0813 B(  5-C ,  6-C ) :   1.6347 B(  5-C , 12-C ) :   0.9560
B(  6-C ,  7-C ) :   0.9658 B(  6-C ,  8-N ) :   1.1526 B(  7-C , 25-H ) :   0.9609
B(  7-C , 26-H ) :   0.9590 B(  7-C , 27-H ) :   0.9909 B(  8-N ,  9-C ) :   1.1873
B(  8-N , 28-H ) :   0.9464 B(  9-C , 10-S ) :   1.6051 B(  9-C , 11-N ) :   1.3100
B( 11-N , 12-C ) :   0.9654 B( 11-N , 29-H ) :   0.9484 B( 12-C , 13-C ) :   0.9623
B( 12-C , 30-H ) :   1.0009 B( 13-C , 14-C ) :   1.3527 B( 13-C , 19-C ) :   1.3813
B( 14-C , 15-C ) :   1.3932 B( 14-C , 31-H ) :   0.9716 B( 15-C , 16-C ) :   1.3600
B( 15-C , 32-H ) :   0.9706 B( 16-C , 17-C ) :   1.3339 B( 16-C , 33-H ) :   0.9849
B( 17-C , 18-O ) :   1.1048 B( 17-C , 19-C ) :   1.3645 B( 18-O , 34-H ) :   0.9798
B( 19-C , 35-H ) :   0.9596

MP2 TOTAL ENERGY:    -1274.333516702 Eh
FINAL SINGLE POINT ENERGY     -1274.333516702199

DIPOLE MOMENT
-------------
                                X             Y             Z
Electronic contribution:      9.44702       9.67268      10.29822
Nuclear contribution   :    -10.51789     -11.39269     -10.59765
                        -----------------------------------------
Total Dipole Moment    :     -1.07088      -1.72001      -0.29944
                        -----------------------------------------
Magnitude (a.u.)       :      2.04814
Magnitude (Debye)      :      5.20595

Rotational constants in cm-1:     0.010938     0.008720     0.005803
Rotational constants in MHz :   327.902576   261.411417   173.980763

                             ****ORCA TERMINATED NORMALLY****
TOTAL RUN TIME: 0 days 1 hours 38 minutes 18 seconds 102 msec
