                         Program Version 4.2.0 -  RELEASE  -
|  1> ! ri-mp2 cc-pvtz cc-pvtz/c TightSCF NoKeepInts
|  2>
|  3> %scf
|  4>   MaxCore 4096
|  5> end
|  6> *xyz  0  1
|  7>     C       14.8980100   14.8929492   15.7414603
|  8>     C       14.8516889   16.1179368   14.7995502
|  9>     O       16.1423745   16.7426719   14.6037788
| 10>     C       17.1208921   16.6585059   15.5500312
| 11>     O       17.8326918   15.6746577   15.6555992
| 12>     C       17.1707329   17.8119985   16.5073940
| 13>     C       16.9122692   19.0898022   16.1269059
| 14>     C       16.3464107   19.5655786   14.8036121
| 15>     N       17.2224724   20.1597916   16.9699590
| 16>     C       17.9808398   20.0557639   18.1052421
| 17>     S       18.3943117   21.3824159   19.0019592
| 18>     N       18.3965382   18.7939530   18.4491479
| 19>     C       17.9742388   17.5457946   17.7840380
| 20>     C       17.2875253   16.5593626   18.7189506
| 21>     C       17.7360716   15.2296442   18.8112962
| 22>     C       17.0908157   14.3150882   19.6603258
| 23>     C       15.9875417   14.7340936   20.4235195
| 24>     C       15.5365949   16.0579836   20.3309928
| 25>     O       14.4665807   16.4632246   21.0602525
| 26>     C       16.1800734   16.9656407   19.4836484
| 27>     H       15.6074636   14.1417621   15.3709371
| 28>     H       13.9098424   14.4211017   15.7998006
| 29>     H       15.1908848   15.1780481   16.7603195
| 30>     H       14.4469197   15.8163671   13.8247690
| 31>     H       14.1607238   16.8543406   15.2299615
| 32>     H       15.2995283   19.2583423   14.6937696
| 33>     H       16.9128751   19.1451336   13.9627856
| 34>     H       16.3816461   20.6565775   14.6952303
| 35>     H       16.9464109   21.0953498   16.7177392
| 36>     H       18.9397002   18.7426409   19.3018239
| 37>     H       18.9476110   17.1546636   17.4529962
| 38>     H       18.5784570   14.9004650   18.2068985
| 39>     H       17.4435844   13.2868697   19.7187747
| 40>     H       15.4853742   14.0303537   21.0790137
| 41>     H       14.1906013   15.7149098   21.6106659
| 42>     H       15.8167030   17.9862171   19.4248510
| 43> *
| 44>
| 45>                          ****END OF INPUT****

CARTESIAN COORDINATES (ANGSTROEM)
---------------------------------
  C     14.898010   14.892949   15.741460
  C     14.851689   16.117937   14.799550
  O     16.142374   16.742672   14.603779
  C     17.120892   16.658506   15.550031
  O     17.832692   15.674658   15.655599
  C     17.170733   17.811998   16.507394
  C     16.912269   19.089802   16.126906
  C     16.346411   19.565579   14.803612
  N     17.222472   20.159792   16.969959
  C     17.980840   20.055764   18.105242
  S     18.394312   21.382416   19.001959
  N     18.396538   18.793953   18.449148
  C     17.974239   17.545795   17.784038
  C     17.287525   16.559363   18.718951
  C     17.736072   15.229644   18.811296
  C     17.090816   14.315088   19.660326
  C     15.987542   14.734094   20.423520
  C     15.536595   16.057984   20.330993
  O     14.466581   16.463225   21.060253
  C     16.180073   16.965641   19.483648
  H     15.607464   14.141762   15.370937
  H     13.909842   14.421102   15.799801
  H     15.190885   15.178048   16.760320
  H     14.446920   15.816367   13.824769
  H     14.160724   16.854341   15.229961
  H     15.299528   19.258342   14.693770
  H     16.912875   19.145134   13.962786
  H     16.381646   20.656578   14.695230
  H     16.946411   21.095350   16.717739
  H     18.939700   18.742641   19.301824
  H     18.947611   17.154664   17.452996
  H     18.578457   14.900465   18.206898
  H     17.443584   13.286870   19.718775
  H     15.485374   14.030354   21.079014
  H     14.190601   15.714910   21.610666
  H     15.816703   17.986217   19.424851

 Total Charge           Charge          ....    0
 Multiplicity           Mult            ....    1
 Number of Electrons    NEL             ....  154
 Basis Dimension        Dim             ....  828

ORBITAL ENERGIES
----------------

  NO   OCC          E(Eh)            E(eV)
   0   2.0000     -91.889482     -2500.4399
   1   2.0000     -20.595629      -560.4356
   2   2.0000     -20.585607      -560.1628
   3   2.0000     -20.551441      -559.2331
   4   2.0000     -15.630102      -425.3167
   5   2.0000     -15.607251      -424.6949
   6   2.0000     -11.394619      -310.0634
   7   2.0000     -11.384312      -309.7829
   8   2.0000     -11.339053      -308.5513
   9   2.0000     -11.312094      -307.8177
  10   2.0000     -11.307894      -307.7034
  11   2.0000     -11.305375      -307.6349
  12   2.0000     -11.260904      -306.4248
  13   2.0000     -11.259621      -306.3899
  14   2.0000     -11.258809      -306.3678
  15   2.0000     -11.251937      -306.1808
  16   2.0000     -11.242122      -305.9137
  17   2.0000     -11.238191      -305.8067
  18   2.0000     -11.234518      -305.7068
  19   2.0000     -11.227870      -305.5259
  20   2.0000      -8.894559      -242.0333
  21   2.0000      -6.576134      -178.9457
  22   2.0000      -6.574132      -178.8912
  23   2.0000      -6.573542      -178.8752
  24   2.0000      -1.446738       -39.3677
  25   2.0000      -1.415406       -38.5152
  26   2.0000      -1.356434       -36.9104
  27   2.0000      -1.341117       -36.4936
  28   2.0000      -1.238359       -33.6975
  29   2.0000      -1.156300       -31.4645
  30   2.0000      -1.122277       -30.5387
  31   2.0000      -1.044362       -28.4185
  32   2.0000      -1.032677       -28.1006
  33   2.0000      -1.013870       -27.5888
  34   2.0000      -1.001409       -27.2497
  35   2.0000      -0.986268       -26.8377
  36   2.0000      -0.923419       -25.1275
  37   2.0000      -0.895199       -24.3596
  38   2.0000      -0.850336       -23.1388
  39   2.0000      -0.838662       -22.8212
  40   2.0000      -0.832025       -22.6406
  41   2.0000      -0.823787       -22.4164
  42   2.0000      -0.744160       -20.2496
  43   2.0000      -0.729585       -19.8530
  44   2.0000      -0.726906       -19.7801
  45   2.0000      -0.692809       -18.8523
  46   2.0000      -0.685365       -18.6497
  47   2.0000      -0.679570       -18.4920
  48   2.0000      -0.676763       -18.4157
  49   2.0000      -0.665390       -18.1062
  50   2.0000      -0.649351       -17.6698
  51   2.0000      -0.645780       -17.5726
  52   2.0000      -0.634740       -17.2722
  53   2.0000      -0.621725       -16.9180
  54   2.0000      -0.606011       -16.4904
  55   2.0000      -0.601623       -16.3710
  56   2.0000      -0.599087       -16.3020
  57   2.0000      -0.577759       -15.7216
  58   2.0000      -0.574775       -15.6404
  59   2.0000      -0.565372       -15.3846
  60   2.0000      -0.553024       -15.0486
  61   2.0000      -0.547865       -14.9082
  62   2.0000      -0.539526       -14.6812
  63   2.0000      -0.529490       -14.4081
  64   2.0000      -0.518621       -14.1124
  65   2.0000      -0.511187       -13.9101
  66   2.0000      -0.498594       -13.5674
  67   2.0000      -0.492862       -13.4115
  68   2.0000      -0.482756       -13.1364
  69   2.0000      -0.465202       -12.6588
  70   2.0000      -0.457837       -12.4584
  71   2.0000      -0.449082       -12.2202
  72   2.0000      -0.354524        -9.6471
  73   2.0000      -0.348400        -9.4804
  74   2.0000      -0.328582        -8.9412
  75   2.0000      -0.319114        -8.6835
  76   2.0000      -0.318525        -8.6675
  77   0.0000       0.072857         1.9826
  78   0.0000       0.106595         2.9006
  79   0.0000       0.120728         3.2852
  80   0.0000       0.132711         3.6112
  81   0.0000       0.138467         3.7679

MULLIKEN ATOMIC CHARGES
-----------------------
   0 C :   -0.303850
   1 C :    0.045302
   2 O :   -0.384045
   3 C :    0.455071
   4 O :   -0.390302
   5 C :   -0.210198
   6 C :    0.152013
   7 C :   -0.285014
   8 N :   -0.126891
   9 C :    0.207272
  10 S :   -0.440380
  11 N :   -0.213268
  12 C :    0.056951
  13 C :    0.002471
  14 C :   -0.173675
  15 C :   -0.134271
  16 C :   -0.275217
  17 C :    0.308861
  18 O :   -0.358352
  19 C :   -0.236817
  20 H :    0.117508
  21 H :    0.104129
  22 H :    0.113770
  23 H :    0.108961
  24 H :    0.080121
  25 H :    0.122197
  26 H :    0.131976
  27 H :    0.104672
  28 H :    0.198425
  29 H :    0.199700
  30 H :    0.157880
  31 H :    0.165505
  32 H :    0.161687
  33 H :    0.130711
  34 H :    0.240539
  35 H :    0.166558
Sum of atomic charges:    0.0000000

LOEWDIN ATOMIC CHARGES
----------------------
   0 C :    0.108119
   1 C :   -0.015856
   2 O :    0.286886
   3 C :   -0.422096
   4 O :    0.126056
   5 C :   -0.097783
   6 C :   -0.066355
   7 C :    0.126654
   8 N :    0.405621
   9 C :   -0.457876
  10 S :   -0.036354
  11 N :    0.396115
  12 C :   -0.048736
  13 C :   -0.043270
  14 C :    0.024010
  15 C :    0.041475
  16 C :   -0.001075
  17 C :   -0.193384
  18 O :    0.393735
  19 C :    0.027883
  20 H :   -0.021405
  21 H :   -0.024876
  22 H :   -0.024309
  23 H :   -0.023074
  24 H :   -0.036972
  25 H :   -0.011331
  26 H :   -0.006384
  27 H :   -0.020147
  28 H :   -0.058329
  29 H :   -0.063527
  30 H :   -0.007210
  31 H :   -0.022911
  32 H :   -0.020104
  33 H :   -0.035476
  34 H :   -0.154133
  35 H :   -0.023582

  Mayer bond orders larger than 0.100000
B(  0-C ,  1-C ) :   0.9754 B(  0-C , 20-H ) :   0.9713 B(  0-C , 21-H ) :   0.9742
B(  0-C , 22-H ) :   0.9672 B(  1-C ,  2-O ) :   0.9036 B(  1-C , 23-H ) :   0.9786
B(  1-C , 24-H ) :   0.9755 B(  2-O ,  3-C ) :   1.0682 B(  3-C ,  4-O ) :   2.0448
B(  3-C ,  5-C ) :   1.0130 B(  5-C ,  6-C ) :   1.6698 B(  5-C , 12-C ) :   0.9449
B(  6-C ,  7-C ) :   0.9516 B(  6-C ,  8-N ) :   1.1427 B(  7-C , 25-H ) :   0.9675
B(  7-C , 26-H ) :   0.9647 B(  7-C , 27-H ) :   0.9891 B(  8-N ,  9-C ) :   1.1841
B(  8-N , 28-H ) :   0.9473 B(  9-C , 10-S ) :   1.6114 B(  9-C , 11-N ) :   1.3027
B( 11-N , 12-C ) :   0.9817 B( 11-N , 29-H ) :   0.9487 B( 12-C , 13-C ) :   0.9670
B( 12-C , 30-H ) :   0.9956 B( 13-C , 14-C ) :   1.3853 B( 13-C , 19-C ) :   1.3636
B( 14-C , 15-C ) :   1.3961 B( 14-C , 31-H ) :   0.9608 B( 15-C , 16-C ) :   1.3591
B( 15-C , 32-H ) :   0.9709 B( 16-C , 17-C ) :   1.3326 B( 16-C , 33-H ) :   0.9850
B( 17-C , 18-O ) :   1.1064 B( 17-C , 19-C ) :   1.3672 B( 18-O , 34-H ) :   0.9800
B( 19-C , 35-H ) :   0.9590

MP2 TOTAL ENERGY:    -1274.325834936 Eh
FINAL SINGLE POINT ENERGY     -1274.325834936277

DIPOLE MOMENT
-------------
                                X             Y             Z
Electronic contribution:      9.04065       9.70598       7.74669
Nuclear contribution   :    -10.56589     -10.90555      -8.45765
                        -----------------------------------------
Total Dipole Moment    :     -1.52524      -1.19957      -0.71096
                        -----------------------------------------
Magnitude (a.u.)       :      2.06659
Magnitude (Debye)      :      5.25285

Rotational constants in cm-1:     0.011245     0.009201     0.006145
Rotational constants in MHz :   337.102008   275.850312   184.224584

                             ****ORCA TERMINATED NORMALLY****
TOTAL RUN TIME: 0 days 2 hours 1 minutes 54 seconds 598 msec
