                         Program Version 4.2.0 -  RELEASE  -
|  1> ! ri-mp2 cc-pvtz cc-pvtz/c TightSCF NoKeepInts
|  2>
|  3> %scf
|  4>   MaxCore 4096
|  5> end
|  6> *xyz  0  1
|  7>     C       14.3073073   14.8824661   14.8429510
|  8>     C       14.8121353   16.2436804   15.3491420
|  9>     O       16.1195712   16.4517310   14.7880605
| 10>     C       17.1689206   16.4893460   15.6552966
| 11>     O       17.9460783   15.5572653   15.7523480
| 12>     C       17.2184485   17.6957327   16.5440080
| 13>     C       16.9567809   18.9427705   16.0759123
| 14>     C       16.4006853   19.3196771   14.7170477
| 15>     N       17.2705431   20.0699255   16.8389662
| 16>     C       18.0474666   20.0470124   17.9664593
| 17>     S       18.4692405   21.4337498   18.7624275
| 18>     N       18.4752021   18.8131476   18.3891611
| 19>     C       18.0420076   17.5206534   17.8225397
| 20>     C       17.3749626   16.5975636   18.8326836
| 21>     C       17.7977645   15.2632435   18.9686231
| 22>     C       17.1733184   14.4062527   19.8902070
| 23>     C       16.1162691   14.8876326   20.6815742
| 24>     C       15.6898932   16.2157814   20.5446253
| 25>     O       14.6638379   16.6810439   21.3006592
| 26>     C       16.3124902   17.0661874   19.6252197
| 27>     H       14.9759206   14.0772413   15.1738619
| 28>     H       14.2664238   14.8673327   13.7466265
| 29>     H       13.3019957   14.6744496   15.2287834
| 30>     H       14.1285889   17.0335930   15.0130703
| 31>     H       14.8363033   16.2473690   16.4483357
| 32>     H       16.9031624   18.7617287   13.9163882
| 33>     H       16.5378194   20.3838721   14.4882479
| 34>     H       15.3275465   19.1056725   14.6572259
| 35>     H       16.9886752   20.9851257   16.5252713
| 36>     H       19.0360639   18.8227980   19.2319577
| 37>     H       19.0109220   17.1086411   17.5033938
| 38>     H       18.6053263   14.8857537   18.3448772
| 39>     H       17.5065887   13.3740208   19.9834052
| 40>     H       15.6304128   14.2283094   21.3932196
| 41>     H       14.3992333   15.9678519   21.9011852
| 42>     H       15.9690940   18.0913775   19.5342380
| 43> *
| 44>
| 45>                          ****END OF INPUT****

CARTESIAN COORDINATES (ANGSTROEM)
---------------------------------
  C     14.307307   14.882466   14.842951
  C     14.812135   16.243680   15.349142
  O     16.119571   16.451731   14.788060
  C     17.168921   16.489346   15.655297
  O     17.946078   15.557265   15.752348
  C     17.218449   17.695733   16.544008
  C     16.956781   18.942771   16.075912
  C     16.400685   19.319677   14.717048
  N     17.270543   20.069926   16.838966
  C     18.047467   20.047012   17.966459
  S     18.469240   21.433750   18.762428
  N     18.475202   18.813148   18.389161
  C     18.042008   17.520653   17.822540
  C     17.374963   16.597564   18.832684
  C     17.797764   15.263243   18.968623
  C     17.173318   14.406253   19.890207
  C     16.116269   14.887633   20.681574
  C     15.689893   16.215781   20.544625
  O     14.663838   16.681044   21.300659
  C     16.312490   17.066187   19.625220
  H     14.975921   14.077241   15.173862
  H     14.266424   14.867333   13.746626
  H     13.301996   14.674450   15.228783
  H     14.128589   17.033593   15.013070
  H     14.836303   16.247369   16.448336
  H     16.903162   18.761729   13.916388
  H     16.537819   20.383872   14.488248
  H     15.327547   19.105672   14.657226
  H     16.988675   20.985126   16.525271
  H     19.036064   18.822798   19.231958
  H     19.010922   17.108641   17.503394
  H     18.605326   14.885754   18.344877
  H     17.506589   13.374021   19.983405
  H     15.630413   14.228309   21.393220
  H     14.399233   15.967852   21.901185
  H     15.969094   18.091378   19.534238

 Total Charge           Charge          ....    0
 Multiplicity           Mult            ....    1
 Number of Electrons    NEL             ....  154
 Basis Dimension        Dim             ....  828

ORBITAL ENERGIES
----------------

  NO   OCC          E(Eh)            E(eV)
   0   2.0000     -91.890280     -2500.4616
   1   2.0000     -20.596555      -560.4607
   2   2.0000     -20.590811      -560.3044
   3   2.0000     -20.553715      -559.2950
   4   2.0000     -15.630706      -425.3331
   5   2.0000     -15.608266      -424.7225
   6   2.0000     -11.395061      -310.0754
   7   2.0000     -11.385324      -309.8104
   8   2.0000     -11.339526      -308.5642
   9   2.0000     -11.313112      -307.8454
  10   2.0000     -11.307089      -307.6815
  11   2.0000     -11.306579      -307.6677
  12   2.0000     -11.263720      -306.5014
  13   2.0000     -11.261035      -306.4283
  14   2.0000     -11.260233      -306.4065
  15   2.0000     -11.252950      -306.2083
  16   2.0000     -11.242832      -305.9330
  17   2.0000     -11.239173      -305.8335
  18   2.0000     -11.235504      -305.7336
  19   2.0000     -11.229336      -305.5658
  20   2.0000      -8.895360      -242.0551
  21   2.0000      -6.576935      -178.9675
  22   2.0000      -6.574932      -178.9130
  23   2.0000      -6.574342      -178.8969
  24   2.0000      -1.452713       -39.5303
  25   2.0000      -1.416311       -38.5398
  26   2.0000      -1.361884       -37.0588
  27   2.0000      -1.342000       -36.5177
  28   2.0000      -1.239265       -33.7221
  29   2.0000      -1.157432       -31.4953
  30   2.0000      -1.123829       -30.5810
  31   2.0000      -1.045797       -28.4576
  32   2.0000      -1.036719       -28.2105
  33   2.0000      -1.015112       -27.6226
  34   2.0000      -1.003075       -27.2950
  35   2.0000      -0.987552       -26.8727
  36   2.0000      -0.924307       -25.1517
  37   2.0000      -0.881706       -23.9925
  38   2.0000      -0.853873       -23.2351
  39   2.0000      -0.841690       -22.9036
  40   2.0000      -0.834097       -22.6969
  41   2.0000      -0.832595       -22.6561
  42   2.0000      -0.756143       -20.5757
  43   2.0000      -0.736999       -20.0548
  44   2.0000      -0.730167       -19.8689
  45   2.0000      -0.694545       -18.8995
  46   2.0000      -0.687573       -18.7098
  47   2.0000      -0.680488       -18.5170
  48   2.0000      -0.675452       -18.3800
  49   2.0000      -0.664689       -18.0871
  50   2.0000      -0.652861       -17.7653
  51   2.0000      -0.646240       -17.5851
  52   2.0000      -0.638246       -17.3676
  53   2.0000      -0.609075       -16.5738
  54   2.0000      -0.603363       -16.4183
  55   2.0000      -0.600122       -16.3301
  56   2.0000      -0.594229       -16.1698
  57   2.0000      -0.583949       -15.8901
  58   2.0000      -0.577822       -15.7233
  59   2.0000      -0.570916       -15.5354
  60   2.0000      -0.562918       -15.3178
  61   2.0000      -0.556453       -15.1419
  62   2.0000      -0.543892       -14.8001
  63   2.0000      -0.521995       -14.2042
  64   2.0000      -0.515983       -14.0406
  65   2.0000      -0.513070       -13.9614
  66   2.0000      -0.501697       -13.6519
  67   2.0000      -0.497978       -13.5507
  68   2.0000      -0.486580       -13.2405
  69   2.0000      -0.468998       -12.7621
  70   2.0000      -0.458723       -12.4825
  71   2.0000      -0.451833       -12.2950
  72   2.0000      -0.356064        -9.6890
  73   2.0000      -0.349188        -9.5019
  74   2.0000      -0.329412        -8.9638
  75   2.0000      -0.320400        -8.7185
  76   2.0000      -0.319459        -8.6929
  77   0.0000       0.074076         2.0157
  78   0.0000       0.105798         2.8789
  79   0.0000       0.119360         3.2479
  80   0.0000       0.132412         3.6031
  81   0.0000       0.137155         3.7322

MULLIKEN ATOMIC CHARGES
-----------------------
   0 C :   -0.251781
   1 C :    0.024542
   2 O :   -0.359098
   3 C :    0.456626
   4 O :   -0.382519
   5 C :   -0.239035
   6 C :    0.160028
   7 C :   -0.296676
   8 N :   -0.129782
   9 C :    0.206160
  10 S :   -0.439845
  11 N :   -0.213824
  12 C :    0.055817
  13 C :    0.028063
  14 C :   -0.191210
  15 C :   -0.130757
  16 C :   -0.277540
  17 C :    0.314389
  18 O :   -0.357836
  19 C :   -0.256500
  20 H :    0.108103
  21 H :    0.096792
  22 H :    0.087929
  23 H :    0.092455
  24 H :    0.099610
  25 H :    0.135697
  26 H :    0.110623
  27 H :    0.120414
  28 H :    0.198466
  29 H :    0.200230
  30 H :    0.159429
  31 H :    0.168634
  32 H :    0.162639
  33 H :    0.130465
  34 H :    0.240858
  35 H :    0.168434
Sum of atomic charges:   -0.0000000

LOEWDIN ATOMIC CHARGES
----------------------
   0 C :    0.109080
   1 C :   -0.022230
   2 O :    0.300762
   3 C :   -0.425159
   4 O :    0.127211
   5 C :   -0.096872
   6 C :   -0.070558
   7 C :    0.127881
   8 N :    0.405097
   9 C :   -0.457960
  10 S :   -0.035831
  11 N :    0.396058
  12 C :   -0.049402
  13 C :   -0.043186
  14 C :    0.023156
  15 C :    0.042709
  16 C :   -0.000668
  17 C :   -0.193344
  18 O :    0.393641
  19 C :    0.027094
  20 H :   -0.021158
  21 H :   -0.025514
  22 H :   -0.027716
  23 H :   -0.033919
  24 H :   -0.028493
  25 H :   -0.005996
  26 H :   -0.018083
  27 H :   -0.013818
  28 H :   -0.058105
  29 H :   -0.063365
  30 H :   -0.006438
  31 H :   -0.022249
  32 H :   -0.019701
  33 H :   -0.035375
  34 H :   -0.153810
  35 H :   -0.023737

  Mayer bond orders larger than 0.100000
B(  0-C ,  1-C ) :   0.9863 B(  0-C , 20-H ) :   0.9763 B(  0-C , 21-H ) :   0.9779
B(  0-C , 22-H ) :   0.9758 B(  1-C ,  2-O ) :   0.8912 B(  1-C , 23-H ) :   0.9776
B(  1-C , 24-H ) :   0.9654 B(  2-O ,  3-C ) :   1.1050 B(  3-C ,  4-O ) :   2.0670
B(  3-C ,  5-C ) :   0.9868 B(  5-C ,  6-C ) :   1.6824 B(  5-C , 12-C ) :   0.9484
B(  6-C ,  7-C ) :   0.9448 B(  6-C ,  8-N ) :   1.1313 B(  7-C , 25-H ) :   0.9654
B(  7-C , 26-H ) :   0.9883 B(  7-C , 27-H ) :   0.9678 B(  8-N ,  9-C ) :   1.1864
B(  8-N , 28-H ) :   0.9478 B(  9-C , 10-S ) :   1.6126 B(  9-C , 11-N ) :   1.2999
B( 11-N , 12-C ) :   0.9840 B( 11-N , 29-H ) :   0.9486 B( 12-C , 13-C ) :   0.9691
B( 12-C , 30-H ) :   0.9932 B( 13-C , 14-C ) :   1.3840 B( 13-C , 19-C ) :   1.3582
B( 14-C , 15-C ) :   1.3951 B( 14-C , 31-H ) :   0.9603 B( 15-C , 16-C ) :   1.3605
B( 15-C , 32-H ) :   0.9705 B( 16-C , 17-C ) :   1.3322 B( 16-C , 33-H ) :   0.9851
B( 17-C , 18-O ) :   1.1065 B( 17-C , 19-C ) :   1.3652 B( 18-O , 34-H ) :   0.9798
B( 19-C , 35-H ) :   0.9586

MP2 TOTAL ENERGY:    -1274.327460684 Eh
FINAL SINGLE POINT ENERGY     -1274.327460683803

DIPOLE MOMENT
-------------
                                X             Y             Z
Electronic contribution:     10.39329       9.51953       8.94235
Nuclear contribution   :    -11.96724     -10.56790      -9.42790
                        -----------------------------------------
Total Dipole Moment    :     -1.57395      -1.04836      -0.48556
                        -----------------------------------------
Magnitude (a.u.)       :      1.95247
Magnitude (Debye)      :      4.96279

Rotational constants in cm-1:     0.010519     0.009216     0.006011
Rotational constants in MHz :   315.345140   276.277539   180.193999

                             ****ORCA TERMINATED NORMALLY****
TOTAL RUN TIME: 0 days 1 hours 37 minutes 56 seconds 596 msec
