                         Program Version 4.2.0 -  RELEASE  -
|  1> ! ri-mp2 cc-pvtz cc-pvtz/c TightSCF NoKeepInts
|  2>
|  3> %scf
|  4>   MaxCore 4096
|  5> end
|  6> *xyz  0  1
|  7>     C       14.5335755   16.1810008   16.4357123
|  8>     C       15.2071861   15.8926308   15.0769457
|  9>     O       16.6216946   15.6350261   15.2106792
| 10>     C       17.5845859   16.5784213   15.4613887
| 11>     O       18.7198356   16.4548550   15.0428798
| 12>     C       17.2315102   17.6540236   16.4229695
| 13>     C       16.8902340   18.8689724   15.9374157
| 14>     C       16.4992841   19.1836220   14.5081267
| 15>     N       16.9053873   19.9989301   16.7567488
| 16>     C       17.5066305   20.0405433   17.9877656
| 17>     S       17.6009848   21.4390581   18.8651439
| 18>     N       18.0482420   18.8633281   18.4453868
| 19>     C       17.8795949   17.5441652   17.8019280
| 20>     C       17.2632259   16.4654835   18.6796627
| 21>     C       17.7422999   15.1448521   18.6115341
| 22>     C       17.1663896   14.1349651   19.4001037
| 23>     C       16.1015321   14.4483194   20.2621438
| 24>     C       15.6196702   15.7628265   20.3288545
| 25>     O       14.5846656   16.0656961   21.1519545
| 26>     C       16.1942354   16.7665073   19.5423852
| 27>     H       14.8889473   15.4781766   17.1998694
| 28>     H       13.4475170   16.0553017   16.3489703
| 29>     H       14.7114115   17.2033623   16.7845359
| 30>     H       14.7410017   14.9934901   14.6532392
| 31>     H       15.0247835   16.7157168   14.3750865
| 32>     H       16.9742954   18.5026253   13.7903982
| 33>     H       16.8102471   20.1963311   14.2213682
| 34>     H       15.4130611   19.1161291   14.3749452
| 35>     H       16.5466781   20.8767656   16.4155386
| 36>     H       18.4864204   18.9210367   19.3562232
| 37>     H       18.9335399   17.2975071   17.6030295
| 38>     H       18.5590634   14.8991006   17.9360592
| 39>     H       17.5435792   13.1154840   19.3380405
| 40>     H       15.6528119   13.6706655   20.8714374
| 41>     H       14.3520785   15.2591057   21.6362489
| 42>     H       15.8007999   17.7759745   19.6032806
| 43> *
| 44>
| 45>                          ****END OF INPUT****

CARTESIAN COORDINATES (ANGSTROEM)
---------------------------------
  C     14.533575   16.181001   16.435712
  C     15.207186   15.892631   15.076946
  O     16.621695   15.635026   15.210679
  C     17.584586   16.578421   15.461389
  O     18.719836   16.454855   15.042880
  C     17.231510   17.654024   16.422970
  C     16.890234   18.868972   15.937416
  C     16.499284   19.183622   14.508127
  N     16.905387   19.998930   16.756749
  C     17.506630   20.040543   17.987766
  S     17.600985   21.439058   18.865144
  N     18.048242   18.863328   18.445387
  C     17.879595   17.544165   17.801928
  C     17.263226   16.465484   18.679663
  C     17.742300   15.144852   18.611534
  C     17.166390   14.134965   19.400104
  C     16.101532   14.448319   20.262144
  C     15.619670   15.762826   20.328854
  O     14.584666   16.065696   21.151954
  C     16.194235   16.766507   19.542385
  H     14.888947   15.478177   17.199869
  H     13.447517   16.055302   16.348970
  H     14.711412   17.203362   16.784536
  H     14.741002   14.993490   14.653239
  H     15.024783   16.715717   14.375087
  H     16.974295   18.502625   13.790398
  H     16.810247   20.196331   14.221368
  H     15.413061   19.116129   14.374945
  H     16.546678   20.876766   16.415539
  H     18.486420   18.921037   19.356223
  H     18.933540   17.297507   17.603029
  H     18.559063   14.899101   17.936059
  H     17.543579   13.115484   19.338040
  H     15.652812   13.670665   20.871437
  H     14.352078   15.259106   21.636249
  H     15.800800   17.775975   19.603281

 Total Charge           Charge          ....    0
 Multiplicity           Mult            ....    1
 Number of Electrons    NEL             ....  154
 Basis Dimension        Dim             ....  828

ORBITAL ENERGIES
----------------

  NO   OCC          E(Eh)            E(eV)
   0   2.0000     -91.888451     -2500.4119
   1   2.0000     -20.600447      -560.5667
   2   2.0000     -20.598904      -560.5247
   3   2.0000     -20.556806      -559.3791
   4   2.0000     -15.624538      -425.1653
   5   2.0000     -15.609673      -424.7608
   6   2.0000     -11.399951      -310.2084
   7   2.0000     -11.384558      -309.7896
   8   2.0000     -11.325159      -308.1732
   9   2.0000     -11.318111      -307.9815
  10   2.0000     -11.314011      -307.8699
  11   2.0000     -11.310522      -307.7750
  12   2.0000     -11.266387      -306.5740
  13   2.0000     -11.266274      -306.5709
  14   2.0000     -11.259864      -306.3965
  15   2.0000     -11.259411      -306.3841
  16   2.0000     -11.247444      -306.0585
  17   2.0000     -11.242564      -305.9257
  18   2.0000     -11.242225      -305.9165
  19   2.0000     -11.229309      -305.5650
  20   2.0000      -8.893561      -242.0061
  21   2.0000      -6.575147      -178.9189
  22   2.0000      -6.573131      -178.8640
  23   2.0000      -6.572554      -178.8483
  24   2.0000      -1.448718       -39.4216
  25   2.0000      -1.420177       -38.6450
  26   2.0000      -1.363632       -37.1063
  27   2.0000      -1.338438       -36.4207
  28   2.0000      -1.238009       -33.6879
  29   2.0000      -1.162627       -31.6367
  30   2.0000      -1.126573       -30.6556
  31   2.0000      -1.049278       -28.5523
  32   2.0000      -1.038175       -28.2502
  33   2.0000      -1.020512       -27.7696
  34   2.0000      -1.006162       -27.3791
  35   2.0000      -0.989916       -26.9370
  36   2.0000      -0.926862       -25.2212
  37   2.0000      -0.896573       -24.3970
  38   2.0000      -0.851990       -23.1838
  39   2.0000      -0.841887       -22.9089
  40   2.0000      -0.838095       -22.8057
  41   2.0000      -0.830712       -22.6048
  42   2.0000      -0.752096       -20.4656
  43   2.0000      -0.738353       -20.0916
  44   2.0000      -0.732582       -19.9346
  45   2.0000      -0.698330       -19.0025
  46   2.0000      -0.691100       -18.8058
  47   2.0000      -0.680229       -18.5100
  48   2.0000      -0.674676       -18.3589
  49   2.0000      -0.666211       -18.1285
  50   2.0000      -0.651509       -17.7285
  51   2.0000      -0.647238       -17.6122
  52   2.0000      -0.637701       -17.3527
  53   2.0000      -0.614555       -16.7229
  54   2.0000      -0.609845       -16.5947
  55   2.0000      -0.605220       -16.4689
  56   2.0000      -0.603221       -16.4145
  57   2.0000      -0.589331       -16.0365
  58   2.0000      -0.580559       -15.7978
  59   2.0000      -0.577599       -15.7173
  60   2.0000      -0.564206       -15.3528
  61   2.0000      -0.559467       -15.2239
  62   2.0000      -0.541247       -14.7281
  63   2.0000      -0.529420       -14.4063
  64   2.0000      -0.519473       -14.1356
  65   2.0000      -0.513312       -13.9679
  66   2.0000      -0.504221       -13.7206
  67   2.0000      -0.502317       -13.6687
  68   2.0000      -0.490018       -13.3341
  69   2.0000      -0.462185       -12.5767
  70   2.0000      -0.456895       -12.4327
  71   2.0000      -0.454854       -12.3772
  72   2.0000      -0.354889        -9.6570
  73   2.0000      -0.350101        -9.5267
  74   2.0000      -0.328178        -8.9302
  75   2.0000      -0.326213        -8.8767
  76   2.0000      -0.317863        -8.6495
  77   0.0000       0.092712         2.5228
  78   0.0000       0.105253         2.8641
  79   0.0000       0.114731         3.1220
  80   0.0000       0.128338         3.4922
  81   0.0000       0.129040         3.5114

MULLIKEN ATOMIC CHARGES
-----------------------
   0 C :   -0.319668
   1 C :    0.026031
   2 O :   -0.323504
   3 C :    0.410937
   4 O :   -0.371240
   5 C :   -0.191038
   6 C :    0.151842
   7 C :   -0.335353
   8 N :   -0.139815
   9 C :    0.214638
  10 S :   -0.444953
  11 N :   -0.234071
  12 C :    0.056412
  13 C :    0.021582
  14 C :   -0.212870
  15 C :   -0.132805
  16 C :   -0.277602
  17 C :    0.315091
  18 O :   -0.356087
  19 C :   -0.245727
  20 H :    0.123714
  21 H :    0.112711
  22 H :    0.106928
  23 H :    0.128908
  24 H :    0.086421
  25 H :    0.131581
  26 H :    0.123829
  27 H :    0.123294
  28 H :    0.196878
  29 H :    0.204630
  30 H :    0.170809
  31 H :    0.163826
  32 H :    0.164043
  33 H :    0.132877
  34 H :    0.241354
  35 H :    0.176398
Sum of atomic charges:   -0.0000000

LOEWDIN ATOMIC CHARGES
----------------------
   0 C :    0.102040
   1 C :   -0.018305
   2 O :    0.300612
   3 C :   -0.418772
   4 O :    0.130628
   5 C :   -0.077614
   6 C :   -0.098715
   7 C :    0.124960
   8 N :    0.401659
   9 C :   -0.454919
  10 S :   -0.040072
  11 N :    0.396669
  12 C :   -0.049806
  13 C :   -0.042519
  14 C :    0.018549
  15 C :    0.045192
  16 C :   -0.000605
  17 C :   -0.191194
  18 O :    0.396509
  19 C :    0.030781
  20 H :   -0.020178
  21 H :   -0.026128
  22 H :   -0.036535
  23 H :   -0.018031
  24 H :   -0.037428
  25 H :   -0.007392
  26 H :   -0.012055
  27 H :   -0.018495
  28 H :   -0.059052
  29 H :   -0.064269
  30 H :   -0.003213
  31 H :   -0.023145
  32 H :   -0.018243
  33 H :   -0.034481
  34 H :   -0.153068
  35 H :   -0.023366

  Mayer bond orders larger than 0.100000
B(  0-C ,  1-C ) :   0.9545 B(  0-C , 20-H ) :   0.9690 B(  0-C , 21-H ) :   0.9771
B(  0-C , 22-H ) :   0.9724 B(  1-C ,  2-O ) :   0.9078 B(  1-C , 23-H ) :   0.9836
B(  1-C , 24-H ) :   0.9792 B(  2-O ,  3-C ) :   1.1501 B(  3-C ,  4-O ) :   2.1207
B(  3-C ,  5-C ) :   0.9036 B(  5-C ,  6-C ) :   1.7320 B(  5-C , 12-C ) :   0.9391
B(  6-C ,  7-C ) :   0.9253 B(  6-C ,  8-N ) :   1.0978 B(  7-C , 25-H ) :   0.9756
B(  7-C , 26-H ) :   0.9807 B(  7-C , 27-H ) :   0.9680 B(  8-N ,  9-C ) :   1.2046
B(  8-N , 28-H ) :   0.9514 B(  9-C , 10-S ) :   1.6061 B(  9-C , 11-N ) :   1.2848
B( 11-N , 12-C ) :   0.9730 B( 11-N , 29-H ) :   0.9461 B( 12-C , 13-C ) :   0.9645
B( 12-C , 30-H ) :   0.9905 B( 13-C , 14-C ) :   1.3810 B( 13-C , 19-C ) :   1.3490
B( 14-C , 15-C ) :   1.4012 B( 14-C , 31-H ) :   0.9666 B( 15-C , 16-C ) :   1.3596
B( 15-C , 32-H ) :   0.9697 B( 16-C , 17-C ) :   1.3306 B( 16-C , 33-H ) :   0.9846
B( 17-C , 18-O ) :   1.1107 B( 17-C , 19-C ) :   1.3665 B( 18-O , 34-H ) :   0.9792
B( 19-C , 35-H ) :   0.9561

MP2 TOTAL ENERGY:    -1274.319306863 Eh
FINAL SINGLE POINT ENERGY     -1274.319306863028

DIPOLE MOMENT
-------------
                                X             Y             Z
Electronic contribution:      8.84914       6.78659       6.81207
Nuclear contribution   :    -10.50240      -8.27130      -7.31826
                        -----------------------------------------
Total Dipole Moment    :     -1.65327      -1.48471      -0.50619
                        -----------------------------------------
Magnitude (a.u.)       :      2.27901
Magnitude (Debye)      :      5.79278

Rotational constants in cm-1:     0.011857     0.009236     0.006477
Rotational constants in MHz :   355.470658   276.879507   194.171756

                             ****ORCA TERMINATED NORMALLY****
TOTAL RUN TIME: 0 days 1 hours 43 minutes 30 seconds 774 msec
