                         Program Version 4.2.0 -  RELEASE  -
|  1> ! ri-mp2 cc-pvtz cc-pvtz/c TightSCF NoKeepInts
|  2>
|  3> %scf
|  4>   MaxCore 4096
|  5> end
|  6> *xyz  0  1
|  7>     C       14.8293993   14.6490023   16.1754256
|  8>     C       15.8785026   14.9271696   15.0835229
|  9>     O       16.7664884   15.9516287   15.5659150
| 10>     C       16.4596855   17.2643993   15.3411438
| 11>     O       15.8095532   17.6187901   14.3724260
| 12>     C       16.9181857   18.1682494   16.4543625
| 13>     C       16.8976170   19.5181788   16.3064610
| 14>     C       16.2122550   20.3103123   15.2120844
| 15>     N       17.5627295   20.3517809   17.2084540
| 16>     C       18.4275088   19.9137266   18.1743319
| 17>     S       19.2581534   20.9619413   19.1475653
| 18>     N       18.5885626   18.5555177   18.2787660
| 19>     C       17.8163680   17.5423285   17.5354504
| 20>     C       17.1068365   16.5601762   18.4584070
| 21>     C       17.6527296   15.2854156   18.6969569
| 22>     C       17.0042637   14.3804643   19.5543036
| 23>     C       15.8008475   14.7539613   20.1770751
| 24>     C       15.2576326   16.0250448   19.9436953
| 25>     O       14.0963663   16.3882864   20.5439323
| 26>     C       15.9069533   16.9247593   19.0926940
| 27>     H       15.3128359   14.3255819   17.1048986
| 28>     H       14.1413312   13.8578403   15.8544089
| 29>     H       14.2396697   15.5496599   16.3875143
| 30>     H       16.4513703   14.0084369   14.9042505
| 31>     H       15.3956118   15.2135141   14.1391696
| 32>     H       15.1560913   20.0228334   15.1309627
| 33>     H       16.6813246   20.1126985   14.2397630
| 34>     H       16.2428069   21.3931684   15.3808108
| 35>     H       17.4711121   21.3517643   17.1271592
| 36>     H       19.2076321   18.2615093   19.0234839
| 37>     H       18.6269945   17.0392864   16.9893043
| 38>     H       18.5804368   14.9941391   18.2116882
| 39>     H       17.4331485   13.3958449   19.7325042
| 40>     H       15.2957474   14.0583636   20.8391550
| 41>     H       13.8235564   15.6567906   21.1179086
| 42>     H       15.4766918   17.9074351   18.9320451
| 43> *
| 44>
| 45>                          ****END OF INPUT****

CARTESIAN COORDINATES (ANGSTROEM)
---------------------------------
  C     14.829399   14.649002   16.175426
  C     15.878503   14.927170   15.083523
  O     16.766488   15.951629   15.565915
  C     16.459685   17.264399   15.341144
  O     15.809553   17.618790   14.372426
  C     16.918186   18.168249   16.454362
  C     16.897617   19.518179   16.306461
  C     16.212255   20.310312   15.212084
  N     17.562729   20.351781   17.208454
  C     18.427509   19.913727   18.174332
  S     19.258153   20.961941   19.147565
  N     18.588563   18.555518   18.278766
  C     17.816368   17.542328   17.535450
  C     17.106836   16.560176   18.458407
  C     17.652730   15.285416   18.696957
  C     17.004264   14.380464   19.554304
  C     15.800847   14.753961   20.177075
  C     15.257633   16.025045   19.943695
  O     14.096366   16.388286   20.543932
  C     15.906953   16.924759   19.092694
  H     15.312836   14.325582   17.104899
  H     14.141331   13.857840   15.854409
  H     14.239670   15.549660   16.387514
  H     16.451370   14.008437   14.904250
  H     15.395612   15.213514   14.139170
  H     15.156091   20.022833   15.130963
  H     16.681325   20.112699   14.239763
  H     16.242807   21.393168   15.380811
  H     17.471112   21.351764   17.127159
  H     19.207632   18.261509   19.023484
  H     18.626994   17.039286   16.989304
  H     18.580437   14.994139   18.211688
  H     17.433149   13.395845   19.732504
  H     15.295747   14.058364   20.839155
  H     13.823556   15.656791   21.117909
  H     15.476692   17.907435   18.932045

 Total Charge           Charge          ....    0
 Multiplicity           Mult            ....    1
 Number of Electrons    NEL             ....  154
 Basis Dimension        Dim             ....  828

ORBITAL ENERGIES
----------------

  NO   OCC          E(Eh)            E(eV)
   0   2.0000     -91.889340     -2500.4361
   1   2.0000     -20.598816      -560.5223
   2   2.0000     -20.595852      -560.4416
   3   2.0000     -20.541394      -558.9597
   4   2.0000     -15.629843      -425.3097
   5   2.0000     -15.607466      -424.7008
   6   2.0000     -11.394096      -310.0491
   7   2.0000     -11.383996      -309.7743
   8   2.0000     -11.338190      -308.5278
   9   2.0000     -11.316155      -307.9282
  10   2.0000     -11.308268      -307.7136
  11   2.0000     -11.293658      -307.3161
  12   2.0000     -11.262881      -306.4786
  13   2.0000     -11.259108      -306.3759
  14   2.0000     -11.257542      -306.3333
  15   2.0000     -11.252056      -306.1840
  16   2.0000     -11.245771      -306.0130
  17   2.0000     -11.240575      -305.8716
  18   2.0000     -11.240519      -305.8701
  19   2.0000     -11.221673      -305.3572
  20   2.0000      -8.894403      -242.0290
  21   2.0000      -6.575974      -178.9414
  22   2.0000      -6.573977      -178.8870
  23   2.0000      -6.573386      -178.8709
  24   2.0000      -1.449446       -39.4414
  25   2.0000      -1.418481       -38.5988
  26   2.0000      -1.353122       -36.8203
  27   2.0000      -1.340965       -36.4895
  28   2.0000      -1.238910       -33.7125
  29   2.0000      -1.159557       -31.5531
  30   2.0000      -1.121764       -30.5248
  31   2.0000      -1.044217       -28.4146
  32   2.0000      -1.034376       -28.1468
  33   2.0000      -1.017216       -27.6798
  34   2.0000      -0.996875       -27.1263
  35   2.0000      -0.985235       -26.8096
  36   2.0000      -0.922834       -25.1116
  37   2.0000      -0.891275       -24.2528
  38   2.0000      -0.847246       -23.0547
  39   2.0000      -0.839712       -22.8497
  40   2.0000      -0.835905       -22.7461
  41   2.0000      -0.814380       -22.1604
  42   2.0000      -0.758107       -20.6291
  43   2.0000      -0.735122       -20.0037
  44   2.0000      -0.722339       -19.6558
  45   2.0000      -0.697644       -18.9838
  46   2.0000      -0.689052       -18.7501
  47   2.0000      -0.677963       -18.4483
  48   2.0000      -0.670873       -18.2554
  49   2.0000      -0.663944       -18.0668
  50   2.0000      -0.647114       -17.6089
  51   2.0000      -0.641278       -17.4501
  52   2.0000      -0.635689       -17.2980
  53   2.0000      -0.609185       -16.5768
  54   2.0000      -0.603683       -16.4270
  55   2.0000      -0.600732       -16.3468
  56   2.0000      -0.597561       -16.2605
  57   2.0000      -0.579019       -15.7559
  58   2.0000      -0.569975       -15.5098
  59   2.0000      -0.566606       -15.4181
  60   2.0000      -0.557743       -15.1769
  61   2.0000      -0.547809       -14.9066
  62   2.0000      -0.537552       -14.6275
  63   2.0000      -0.527532       -14.3549
  64   2.0000      -0.526064       -14.3149
  65   2.0000      -0.513489       -13.9727
  66   2.0000      -0.502108       -13.6631
  67   2.0000      -0.497873       -13.5478
  68   2.0000      -0.479910       -13.0590
  69   2.0000      -0.463608       -12.6154
  70   2.0000      -0.452479       -12.3126
  71   2.0000      -0.446278       -12.1438
  72   2.0000      -0.353954        -9.6316
  73   2.0000      -0.351667        -9.5693
  74   2.0000      -0.328755        -8.9459
  75   2.0000      -0.323603        -8.8057
  76   2.0000      -0.318925        -8.6784
  77   0.0000       0.075916         2.0658
  78   0.0000       0.102524         2.7898
  79   0.0000       0.123768         3.3679
  80   0.0000       0.131834         3.5874
  81   0.0000       0.134738         3.6664

MULLIKEN ATOMIC CHARGES
-----------------------
   0 C :   -0.301213
   1 C :    0.017873
   2 O :   -0.358243
   3 C :    0.443565
   4 O :   -0.431729
   5 C :   -0.249240
   6 C :    0.181554
   7 C :   -0.266212
   8 N :   -0.126899
   9 C :    0.213448
  10 S :   -0.441932
  11 N :   -0.219286
  12 C :    0.073008
  13 C :    0.040620
  14 C :   -0.183527
  15 C :   -0.137521
  16 C :   -0.276665
  17 C :    0.315321
  18 O :   -0.357520
  19 C :   -0.238678
  20 H :    0.105620
  21 H :    0.106965
  22 H :    0.101966
  23 H :    0.104866
  24 H :    0.122449
  25 H :    0.132699
  26 H :    0.130216
  27 H :    0.094578
  28 H :    0.199570
  29 H :    0.201211
  30 H :    0.151385
  31 H :    0.151439
  32 H :    0.162289
  33 H :    0.131763
  34 H :    0.241188
  35 H :    0.165069
Sum of atomic charges:   -0.0000000

LOEWDIN ATOMIC CHARGES
----------------------
   0 C :    0.103898
   1 C :   -0.016944
   2 O :    0.305511
   3 C :   -0.416545
   4 O :    0.097817
   5 C :   -0.097107
   6 C :   -0.055389
   7 C :    0.131328
   8 N :    0.407535
   9 C :   -0.455616
  10 S :   -0.036194
  11 N :    0.394362
  12 C :   -0.054006
  13 C :   -0.037776
  14 C :    0.014775
  15 C :    0.039746
  16 C :   -0.001255
  17 C :   -0.189264
  18 O :    0.396009
  19 C :    0.034400
  20 H :   -0.025768
  21 H :   -0.027327
  22 H :   -0.027431
  23 H :   -0.026716
  24 H :   -0.028458
  25 H :   -0.004452
  26 H :   -0.004563
  27 H :   -0.023626
  28 H :   -0.057031
  29 H :   -0.064767
  30 H :   -0.013110
  31 H :   -0.029018
  32 H :   -0.020797
  33 H :   -0.035150
  34 H :   -0.153444
  35 H :   -0.023626

  Mayer bond orders larger than 0.100000
B(  0-C ,  1-C ) :   0.9633 B(  0-C , 20-H ) :   0.9718 B(  0-C , 21-H ) :   0.9782
B(  0-C , 22-H ) :   0.9761 B(  1-C ,  2-O ) :   0.8901 B(  1-C , 23-H ) :   0.9853
B(  1-C , 24-H ) :   0.9767 B(  2-O ,  3-C ) :   1.1479 B(  3-C ,  4-O ) :   1.9760
B(  3-C ,  5-C ) :   1.0646 B(  5-C ,  6-C ) :   1.6297 B(  5-C , 12-C ) :   0.9537
B(  6-C ,  7-C ) :   0.9654 B(  6-C ,  8-N ) :   1.1584 B(  7-C , 25-H ) :   0.9614
B(  7-C , 26-H ) :   0.9582 B(  7-C , 27-H ) :   0.9904 B(  8-N ,  9-C ) :   1.1865
B(  8-N , 28-H ) :   0.9464 B(  9-C , 10-S ) :   1.6032 B(  9-C , 11-N ) :   1.3121
B( 11-N , 12-C ) :   0.9607 B( 11-N , 29-H ) :   0.9483 B( 12-C , 13-C ) :   0.9647
B( 12-C , 30-H ) :   1.0013 B( 13-C , 14-C ) :   1.3513 B( 13-C , 19-C ) :   1.3760
B( 14-C , 15-C ) :   1.3932 B( 14-C , 31-H ) :   0.9729 B( 15-C , 16-C ) :   1.3555
B( 15-C , 32-H ) :   0.9714 B( 16-C , 17-C ) :   1.3340 B( 16-C , 33-H ) :   0.9850
B( 17-C , 18-O ) :   1.1054 B( 17-C , 19-C ) :   1.3633 B( 18-O , 34-H ) :   0.9794
B( 19-C , 35-H ) :   0.9591

MP2 TOTAL ENERGY:    -1274.342614848 Eh
FINAL SINGLE POINT ENERGY     -1274.342614848112

DIPOLE MOMENT
-------------
                                X             Y             Z
Electronic contribution:      8.41281      10.76463       6.33182
Nuclear contribution   :     -9.27436     -12.51697      -6.55702
                        -----------------------------------------
Total Dipole Moment    :     -0.86155      -1.75234      -0.22520
                        -----------------------------------------
Magnitude (a.u.)       :      1.96563
Magnitude (Debye)      :      4.99622

Rotational constants in cm-1:     0.012466     0.008510     0.006113
Rotational constants in MHz :   373.734943   255.126326   183.252748

                             ****ORCA TERMINATED NORMALLY****
TOTAL RUN TIME: 0 days 1 hours 42 minutes 4 seconds 443 msec
