                         Program Version 4.2.0 -  RELEASE  -
|  1> ! ri-mp2 cc-pvtz cc-pvtz/c TightSCF NoKeepInts
|  2>
|  3> %scf
|  4>   MaxCore 4096
|  5> end
|  6> *xyz  0  1
|  7>     C       14.6210883   15.8686664   16.3861053
|  8>     C       15.1029662   16.1992719   14.9580631
|  9>     O       16.5132369   15.9184457   14.8082614
| 10>     C       17.5500968   16.4990999   15.4994241
| 11>     O       18.6741043   16.0369289   15.4356239
| 12>     C       17.2233842   17.6240153   16.4247059
| 13>     C       16.8824578   18.8349241   15.9197601
| 14>     C       16.5818654   19.1779880   14.4740511
| 15>     N       16.9011001   19.9769083   16.7224833
| 16>     C       17.5014679   20.0410622   17.9521167
| 17>     S       17.6035207   21.4573244   18.7994451
| 18>     N       18.0435426   18.8730353   18.4286598
| 19>     C       17.8717914   17.5434465   17.8095376
| 20>     C       17.2492086   16.4864752   18.7106093
| 21>     C       17.7156301   15.1603676   18.6635161
| 22>     C       17.1342280   14.1690883   19.4712887
| 23>     C       16.0761268   14.5065130   20.3324150
| 24>     C       15.6074162   15.8265526   20.3796151
| 25>     O       14.5796409   16.1530322   21.2027804
| 26>     C       16.1879393   16.8117979   19.5743532
| 27>     H       15.0953542   14.9517238   16.7596379
| 28>     H       13.5354310   15.7132736   16.3923403
| 29>     H       14.8347721   16.6844477   17.0844329
| 30>     H       14.5555475   15.5599668   14.2531517
| 31>     H       14.8586559   17.2365171   14.7092638
| 32>     H       16.8221306   18.3610628   13.7831551
| 33>     H       17.1794464   20.0390032   14.1472146
| 34>     H       15.5245385   19.4364139   14.3396233
| 35>     H       16.5497149   20.8510185   16.3641482
| 36>     H       18.4849904   18.9458624   19.3368813
| 37>     H       18.9258732   17.2884756   17.6227356
| 38>     H       18.5280070   14.8960794   17.9890788
| 39>     H       17.5026531   13.1455783   19.4247510
| 40>     H       15.6231243   13.7433445   20.9566413
| 41>     H       14.3414804   15.3564740   21.7007969
| 42>     H       15.8044680   17.8258148   19.6213319
| 43> *
| 44>
| 45>                          ****END OF INPUT****

CARTESIAN COORDINATES (ANGSTROEM)
---------------------------------
  C     14.621088   15.868666   16.386105
  C     15.102966   16.199272   14.958063
  O     16.513237   15.918446   14.808261
  C     17.550097   16.499100   15.499424
  O     18.674104   16.036929   15.435624
  C     17.223384   17.624015   16.424706
  C     16.882458   18.834924   15.919760
  C     16.581865   19.177988   14.474051
  N     16.901100   19.976908   16.722483
  C     17.501468   20.041062   17.952117
  S     17.603521   21.457324   18.799445
  N     18.043543   18.873035   18.428660
  C     17.871791   17.543446   17.809538
  C     17.249209   16.486475   18.710609
  C     17.715630   15.160368   18.663516
  C     17.134228   14.169088   19.471289
  C     16.076127   14.506513   20.332415
  C     15.607416   15.826553   20.379615
  O     14.579641   16.153032   21.202780
  C     16.187939   16.811798   19.574353
  H     15.095354   14.951724   16.759638
  H     13.535431   15.713274   16.392340
  H     14.834772   16.684448   17.084433
  H     14.555547   15.559967   14.253152
  H     14.858656   17.236517   14.709264
  H     16.822131   18.361063   13.783155
  H     17.179446   20.039003   14.147215
  H     15.524539   19.436414   14.339623
  H     16.549715   20.851018   16.364148
  H     18.484990   18.945862   19.336881
  H     18.925873   17.288476   17.622736
  H     18.528007   14.896079   17.989079
  H     17.502653   13.145578   19.424751
  H     15.623124   13.743344   20.956641
  H     14.341480   15.356474   21.700797
  H     15.804468   17.825815   19.621332

 Total Charge           Charge          ....    0
 Multiplicity           Mult            ....    1
 Number of Electrons    NEL             ....  154
 Basis Dimension        Dim             ....  828

ORBITAL ENERGIES
----------------

  NO   OCC          E(Eh)            E(eV)
   0   2.0000     -91.889882     -2500.4508
   1   2.0000     -20.602609      -560.6255
   2   2.0000     -20.599420      -560.5387
   3   2.0000     -20.550569      -559.2094
   4   2.0000     -15.627323      -425.2411
   5   2.0000     -15.609932      -424.7679
   6   2.0000     -11.401400      -310.2479
   7   2.0000     -11.385832      -309.8242
   8   2.0000     -11.333204      -308.3922
   9   2.0000     -11.316857      -307.9473
  10   2.0000     -11.311384      -307.7984
  11   2.0000     -11.309462      -307.7461
  12   2.0000     -11.268630      -306.6350
  13   2.0000     -11.265775      -306.5573
  14   2.0000     -11.264907      -306.5337
  15   2.0000     -11.257379      -306.3288
  16   2.0000     -11.245794      -306.0136
  17   2.0000     -11.241457      -305.8956
  18   2.0000     -11.238893      -305.8258
  19   2.0000     -11.229531      -305.5711
  20   2.0000      -8.894991      -242.0450
  21   2.0000      -6.576575      -178.9577
  22   2.0000      -6.574559      -178.9028
  23   2.0000      -6.573978      -178.8870
  24   2.0000      -1.447051       -39.3763
  25   2.0000      -1.419144       -38.6169
  26   2.0000      -1.361191       -37.0399
  27   2.0000      -1.341207       -36.4961
  28   2.0000      -1.239716       -33.7344
  29   2.0000      -1.161151       -31.5965
  30   2.0000      -1.126714       -30.6595
  31   2.0000      -1.048604       -28.5340
  32   2.0000      -1.037794       -28.2398
  33   2.0000      -1.019460       -27.7409
  34   2.0000      -1.007069       -27.4037
  35   2.0000      -0.990519       -26.9534
  36   2.0000      -0.927197       -25.2303
  37   2.0000      -0.897044       -24.4098
  38   2.0000      -0.854267       -23.2458
  39   2.0000      -0.841883       -22.9088
  40   2.0000      -0.836478       -22.7617
  41   2.0000      -0.831298       -22.6208
  42   2.0000      -0.748058       -20.3557
  43   2.0000      -0.740180       -20.1413
  44   2.0000      -0.732182       -19.9237
  45   2.0000      -0.696773       -18.9602
  46   2.0000      -0.689446       -18.7608
  47   2.0000      -0.681103       -18.5337
  48   2.0000      -0.674614       -18.3572
  49   2.0000      -0.663856       -18.0644
  50   2.0000      -0.653037       -17.7700
  51   2.0000      -0.647826       -17.6283
  52   2.0000      -0.638362       -17.3707
  53   2.0000      -0.619171       -16.8485
  54   2.0000      -0.612554       -16.6685
  55   2.0000      -0.607341       -16.5266
  56   2.0000      -0.602820       -16.4036
  57   2.0000      -0.588785       -16.0216
  58   2.0000      -0.577661       -15.7189
  59   2.0000      -0.570246       -15.5172
  60   2.0000      -0.564157       -15.3515
  61   2.0000      -0.555777       -15.1235
  62   2.0000      -0.539181       -14.6719
  63   2.0000      -0.535245       -14.5648
  64   2.0000      -0.520996       -14.1770
  65   2.0000      -0.512475       -13.9452
  66   2.0000      -0.504935       -13.7400
  67   2.0000      -0.501928       -13.6581
  68   2.0000      -0.485707       -13.2168
  69   2.0000      -0.465835       -12.6760
  70   2.0000      -0.455503       -12.3949
  71   2.0000      -0.452053       -12.3010
  72   2.0000      -0.357684        -9.7331
  73   2.0000      -0.349798        -9.5185
  74   2.0000      -0.329471        -8.9654
  75   2.0000      -0.324800        -8.8383
  76   2.0000      -0.320206        -8.7133
  77   0.0000       0.086983         2.3669
  78   0.0000       0.104917         2.8549
  79   0.0000       0.114178         3.1069
  80   0.0000       0.126165         3.4331
  81   0.0000       0.129932         3.5356

MULLIKEN ATOMIC CHARGES
-----------------------
   0 C :   -0.319020
   1 C :    0.029655
   2 O :   -0.323377
   3 C :    0.430438
   4 O :   -0.383054
   5 C :   -0.237107
   6 C :    0.159258
   7 C :   -0.337726
   8 N :   -0.141154
   9 C :    0.209624
  10 S :   -0.443213
  11 N :   -0.232351
  12 C :    0.085282
  13 C :    0.021495
  14 C :   -0.234096
  15 C :   -0.130940
  16 C :   -0.276409
  17 C :    0.322469
  18 O :   -0.355738
  19 C :   -0.260118
  20 H :    0.121500
  21 H :    0.111024
  22 H :    0.108728
  23 H :    0.128447
  24 H :    0.084769
  25 H :    0.131522
  26 H :    0.137611
  27 H :    0.122801
  28 H :    0.196994
  29 H :    0.205296
  30 H :    0.169904
  31 H :    0.179370
  32 H :    0.165440
  33 H :    0.132173
  34 H :    0.241242
  35 H :    0.179263
Sum of atomic charges:   -0.0000000

LOEWDIN ATOMIC CHARGES
----------------------
   0 C :    0.104841
   1 C :   -0.019012
   2 O :    0.300720
   3 C :   -0.414932
   4 O :    0.120181
   5 C :   -0.079553
   6 C :   -0.094173
   7 C :    0.122293
   8 N :    0.402507
   9 C :   -0.457332
  10 S :   -0.038487
  11 N :    0.396706
  12 C :   -0.047718
  13 C :   -0.042363
  14 C :    0.019262
  15 C :    0.044459
  16 C :   -0.000592
  17 C :   -0.190753
  18 O :    0.395874
  19 C :    0.028242
  20 H :   -0.020455
  21 H :   -0.025627
  22 H :   -0.034599
  23 H :   -0.019355
  24 H :   -0.038201
  25 H :   -0.008289
  26 H :   -0.009050
  27 H :   -0.018647
  28 H :   -0.057034
  29 H :   -0.063478
  30 H :   -0.003157
  31 H :   -0.021582
  32 H :   -0.018442
  33 H :   -0.034828
  34 H :   -0.153172
  35 H :   -0.024256

  Mayer bond orders larger than 0.100000
B(  0-C ,  1-C ) :   0.9538 B(  0-C , 20-H ) :   0.9697 B(  0-C , 21-H ) :   0.9774
B(  0-C , 22-H ) :   0.9716 B(  1-C ,  2-O ) :   0.9028 B(  1-C , 23-H ) :   0.9836
B(  1-C , 24-H ) :   0.9721 B(  2-O ,  3-C ) :   1.1772 B(  3-C ,  4-O ) :   2.0894
B(  3-C ,  5-C ) :   0.9195 B(  5-C ,  6-C ) :   1.7143 B(  5-C , 12-C ) :   0.9298
B(  6-C ,  7-C ) :   0.9361 B(  6-C ,  8-N ) :   1.1059 B(  7-C , 25-H ) :   0.9770
B(  7-C , 26-H ) :   0.9716 B(  7-C , 27-H ) :   0.9669 B(  8-N ,  9-C ) :   1.1997
B(  8-N , 28-H ) :   0.9517 B(  9-C , 10-S ) :   1.6080 B(  9-C , 11-N ) :   1.2906
B( 11-N , 12-C ) :   0.9764 B( 11-N , 29-H ) :   0.9464 B( 12-C , 13-C ) :   0.9712
B( 12-C , 30-H ) :   0.9883 B( 13-C , 14-C ) :   1.3858 B( 13-C , 19-C ) :   1.3410
B( 14-C , 15-C ) :   1.3981 B( 14-C , 31-H ) :   0.9582 B( 15-C , 16-C ) :   1.3589
B( 15-C , 32-H ) :   0.9694 B( 16-C , 17-C ) :   1.3319 B( 16-C , 33-H ) :   0.9847
B( 17-C , 18-O ) :   1.1096 B( 17-C , 19-C ) :   1.3613 B( 18-O , 34-H ) :   0.9794
B( 19-C , 35-H ) :   0.9559

MP2 TOTAL ENERGY:    -1274.327386554 Eh
FINAL SINGLE POINT ENERGY     -1274.327386554393

DIPOLE MOMENT
-------------
                                X             Y             Z
Electronic contribution:      8.43495       7.14030       6.72857
Nuclear contribution   :    -10.05284      -8.34324      -7.28621
                        -----------------------------------------
Total Dipole Moment    :     -1.61788      -1.20294      -0.55764
                        -----------------------------------------
Magnitude (a.u.)       :      2.09179
Magnitude (Debye)      :      5.31690

Rotational constants in cm-1:     0.011672     0.009258     0.006436
Rotational constants in MHz :   349.913062   277.546569   192.957735

                             ****ORCA TERMINATED NORMALLY****
TOTAL RUN TIME: 0 days 1 hours 58 minutes 42 seconds 311 msec
