                         Program Version 4.2.0 -  RELEASE  -
|  1> ! ri-mp2 cc-pvtz cc-pvtz/c TightSCF NoKeepInts
|  2>
|  3> %scf
|  4>   MaxCore 4096
|  5> end
|  6> *xyz  0  1
|  7>     C       14.4599543   16.6111197   16.1724050
|  8>     C       15.0644765   15.9319514   14.9235902
|  9>     O       16.5144957   15.8884132   14.8028622
| 10>     C       17.5374785   16.4946544   15.4981655
| 11>     O       18.6764307   16.0816305   15.3822169
| 12>     C       17.2206298   17.5785291   16.4683302
| 13>     C       16.8651934   18.7926850   15.9835194
| 14>     C       16.4894708   19.1183054   14.5501068
| 15>     N       16.8974448   19.9271989   16.7963920
| 16>     C       17.5280061   19.9796162   18.0117681
| 17>     S       17.6416746   21.3857234   18.8746080
| 18>     N       18.0862767   18.8081862   18.4624035
| 19>     C       17.9052805   17.4842887   17.8328624
| 20>     C       17.3105616   16.4117939   18.7330165
| 21>     C       17.7974684   15.0938440   18.6714815
| 22>     C       17.2432982   14.0892288   19.4820514
| 23>     C       16.1913471   14.4051120   20.3589454
| 24>     C       15.7005306   15.7167214   20.4180582
| 25>     O       14.6782211   16.0219858   21.2560942
| 26>     C       16.2537919   16.7151455   19.6098245
| 27>     H       14.9382960   16.2505313   17.0905183
| 28>     H       13.3963699   16.3530307   16.2461624
| 29>     H       14.5104981   17.7020394   16.1308349
| 30>     H       14.7012703   14.8962609   14.8936965
| 31>     H       14.6555856   16.4281508   14.0339990
| 32>     H       16.9742110   18.4442191   13.8327634
| 33>     H       16.8018464   20.1334159   14.2736967
| 34>     H       15.4065100   19.0498461   14.3962869
| 35>     H       16.5284125   20.8020243   16.4585321
| 36>     H       18.5480507   18.8729316   19.3609922
| 37>     H       18.9554402   17.2380439   17.6150957
| 38>     H       18.6050621   14.8471006   17.9847635
| 39>     H       17.6278659   13.0721787   19.4257897
| 40>     H       15.7596264   13.6316759   20.9856105
| 41>     H       14.4611822   15.2197152   21.7545568
| 42>     H       15.8547414   17.7227021   19.6659997
| 43> *
| 44>
| 45>                          ****END OF INPUT****

CARTESIAN COORDINATES (ANGSTROEM)
---------------------------------
  C     14.459954   16.611120   16.172405
  C     15.064476   15.931951   14.923590
  O     16.514496   15.888413   14.802862
  C     17.537478   16.494654   15.498165
  O     18.676431   16.081630   15.382217
  C     17.220630   17.578529   16.468330
  C     16.865193   18.792685   15.983519
  C     16.489471   19.118305   14.550107
  N     16.897445   19.927199   16.796392
  C     17.528006   19.979616   18.011768
  S     17.641675   21.385723   18.874608
  N     18.086277   18.808186   18.462404
  C     17.905280   17.484289   17.832862
  C     17.310562   16.411794   18.733017
  C     17.797468   15.093844   18.671481
  C     17.243298   14.089229   19.482051
  C     16.191347   14.405112   20.358945
  C     15.700531   15.716721   20.418058
  O     14.678221   16.021986   21.256094
  C     16.253792   16.715145   19.609824
  H     14.938296   16.250531   17.090518
  H     13.396370   16.353031   16.246162
  H     14.510498   17.702039   16.130835
  H     14.701270   14.896261   14.893697
  H     14.655586   16.428151   14.033999
  H     16.974211   18.444219   13.832763
  H     16.801846   20.133416   14.273697
  H     15.406510   19.049846   14.396287
  H     16.528413   20.802024   16.458532
  H     18.548051   18.872932   19.360992
  H     18.955440   17.238044   17.615096
  H     18.605062   14.847101   17.984763
  H     17.627866   13.072179   19.425790
  H     15.759626   13.631676   20.985610
  H     14.461182   15.219715   21.754557
  H     15.854741   17.722702   19.666000

 Total Charge           Charge          ....    0
 Multiplicity           Mult            ....    1
 Number of Electrons    NEL             ....  154
 Basis Dimension        Dim             ....  828

ORBITAL ENERGIES
----------------

  NO   OCC          E(Eh)            E(eV)
   0   2.0000     -91.889229     -2500.4330
   1   2.0000     -20.599792      -560.5488
   2   2.0000     -20.599356      -560.5370
   3   2.0000     -20.547411      -559.1235
   4   2.0000     -15.626884      -425.2291
   5   2.0000     -15.609219      -424.7485
   6   2.0000     -11.401100      -310.2397
   7   2.0000     -11.385074      -309.8036
   8   2.0000     -11.329699      -308.2968
   9   2.0000     -11.317313      -307.9597
  10   2.0000     -11.314668      -307.8878
  11   2.0000     -11.310140      -307.7646
  12   2.0000     -11.266876      -306.5873
  13   2.0000     -11.265210      -306.5420
  14   2.0000     -11.261128      -306.4309
  15   2.0000     -11.257904      -306.3431
  16   2.0000     -11.246138      -306.0230
  17   2.0000     -11.241928      -305.9084
  18   2.0000     -11.239695      -305.8477
  19   2.0000     -11.237839      -305.7971
  20   2.0000      -8.894336      -242.0272
  21   2.0000      -6.575919      -178.9398
  22   2.0000      -6.573906      -178.8851
  23   2.0000      -6.573325      -178.8693
  24   2.0000      -1.441588       -39.2276
  25   2.0000      -1.419515       -38.6270
  26   2.0000      -1.355703       -36.8905
  27   2.0000      -1.339806       -36.4580
  28   2.0000      -1.238442       -33.6997
  29   2.0000      -1.161360       -31.6022
  30   2.0000      -1.126084       -30.6423
  31   2.0000      -1.048412       -28.5287
  32   2.0000      -1.042216       -28.3601
  33   2.0000      -1.019462       -27.7410
  34   2.0000      -1.005780       -27.3687
  35   2.0000      -0.990531       -26.9537
  36   2.0000      -0.926847       -25.2208
  37   2.0000      -0.903314       -24.5804
  38   2.0000      -0.852288       -23.1919
  39   2.0000      -0.841593       -22.9009
  40   2.0000      -0.836817       -22.7709
  41   2.0000      -0.827780       -22.5250
  42   2.0000      -0.745667       -20.2906
  43   2.0000      -0.734615       -19.9899
  44   2.0000      -0.730763       -19.8851
  45   2.0000      -0.696713       -18.9585
  46   2.0000      -0.687211       -18.7000
  47   2.0000      -0.677011       -18.4224
  48   2.0000      -0.673163       -18.3177
  49   2.0000      -0.663466       -18.0538
  50   2.0000      -0.660153       -17.9637
  51   2.0000      -0.650993       -17.7144
  52   2.0000      -0.639938       -17.4136
  53   2.0000      -0.614939       -16.7333
  54   2.0000      -0.608131       -16.5481
  55   2.0000      -0.604277       -16.4432
  56   2.0000      -0.601514       -16.3680
  57   2.0000      -0.592016       -16.1096
  58   2.0000      -0.577324       -15.7098
  59   2.0000      -0.574645       -15.6369
  60   2.0000      -0.563773       -15.3410
  61   2.0000      -0.558386       -15.1945
  62   2.0000      -0.544690       -14.8218
  63   2.0000      -0.531516       -14.4633
  64   2.0000      -0.520782       -14.1712
  65   2.0000      -0.513771       -13.9804
  66   2.0000      -0.501668       -13.6511
  67   2.0000      -0.499968       -13.6048
  68   2.0000      -0.486095       -13.2273
  69   2.0000      -0.465440       -12.6653
  70   2.0000      -0.454474       -12.3669
  71   2.0000      -0.450320       -12.2538
  72   2.0000      -0.354551        -9.6478
  73   2.0000      -0.349792        -9.5183
  74   2.0000      -0.328793        -8.9469
  75   2.0000      -0.325106        -8.8466
  76   2.0000      -0.318778        -8.6744
  77   0.0000       0.087146         2.3714
  78   0.0000       0.105434         2.8690
  79   0.0000       0.115139         3.1331
  80   0.0000       0.125458         3.4139
  81   0.0000       0.130001         3.5375

MULLIKEN ATOMIC CHARGES
-----------------------
   0 C :   -0.338375
   1 C :    0.048470
   2 O :   -0.336793
   3 C :    0.431496
   4 O :   -0.384245
   5 C :   -0.211242
   6 C :    0.137292
   7 C :   -0.323103
   8 N :   -0.143905
   9 C :    0.211016
  10 S :   -0.443864
  11 N :   -0.230814
  12 C :    0.083113
  13 C :    0.013238
  14 C :   -0.224774
  15 C :   -0.130530
  16 C :   -0.276676
  17 C :    0.322875
  18 O :   -0.356187
  19 C :   -0.263883
  20 H :    0.128825
  21 H :    0.124042
  22 H :    0.103948
  23 H :    0.122522
  24 H :    0.091496
  25 H :    0.135950
  26 H :    0.124514
  27 H :    0.118612
  28 H :    0.198414
  29 H :    0.204853
  30 H :    0.169904
  31 H :    0.178693
  32 H :    0.164776
  33 H :    0.132389
  34 H :    0.241248
  35 H :    0.176707
Sum of atomic charges:    0.0000000

LOEWDIN ATOMIC CHARGES
----------------------
   0 C :    0.102479
   1 C :   -0.011296
   2 O :    0.291758
   3 C :   -0.418544
   4 O :    0.118458
   5 C :   -0.081740
   6 C :   -0.091161
   7 C :    0.128077
   8 N :    0.402573
   9 C :   -0.456154
  10 S :   -0.039067
  11 N :    0.396619
  12 C :   -0.048402
  13 C :   -0.044216
  14 C :    0.018531
  15 C :    0.045271
  16 C :   -0.000538
  17 C :   -0.191532
  18 O :    0.395730
  19 C :    0.027290
  20 H :   -0.023718
  21 H :   -0.021007
  22 H :   -0.035055
  23 H :   -0.019466
  24 H :   -0.031009
  25 H :   -0.005926
  26 H :   -0.012229
  27 H :   -0.018762
  28 H :   -0.058530
  29 H :   -0.063888
  30 H :   -0.003548
  31 H :   -0.021135
  32 H :   -0.018343
  33 H :   -0.034846
  34 H :   -0.153199
  35 H :   -0.023476

  Mayer bond orders larger than 0.100000
B(  0-C ,  1-C ) :   0.9613 B(  0-C , 20-H ) :   0.9633 B(  0-C , 21-H ) :   0.9778
B(  0-C , 22-H ) :   0.9738 B(  1-C ,  2-O ) :   0.9057 B(  1-C , 23-H ) :   0.9783
B(  1-C , 24-H ) :   0.9769 B(  2-O ,  3-C ) :   1.1664 B(  3-C ,  4-O ) :   2.0846
B(  3-C ,  5-C ) :   0.9311 B(  5-C ,  6-C ) :   1.7274 B(  5-C , 12-C ) :   0.9279
B(  6-C ,  7-C ) :   0.9396 B(  6-C ,  8-N ) :   1.0942 B(  7-C , 25-H ) :   0.9722
B(  7-C , 26-H ) :   0.9823 B(  7-C , 27-H ) :   0.9656 B(  8-N ,  9-C ) :   1.1996
B(  8-N , 28-H ) :   0.9500 B(  9-C , 10-S ) :   1.6071 B(  9-C , 11-N ) :   1.2904
B( 11-N , 12-C ) :   0.9739 B( 11-N , 29-H ) :   0.9466 B( 12-C , 13-C ) :   0.9698
B( 12-C , 30-H ) :   0.9881 B( 13-C , 14-C ) :   1.3858 B( 13-C , 19-C ) :   1.3461
B( 14-C , 15-C ) :   1.3985 B( 14-C , 31-H ) :   0.9580 B( 15-C , 16-C ) :   1.3602
B( 15-C , 32-H ) :   0.9697 B( 16-C , 17-C ) :   1.3325 B( 16-C , 33-H ) :   0.9845
B( 17-C , 18-O ) :   1.1094 B( 17-C , 19-C ) :   1.3608 B( 18-O , 34-H ) :   0.9793
B( 19-C , 35-H ) :   0.9572

MP2 TOTAL ENERGY:    -1274.317243806 Eh
FINAL SINGLE POINT ENERGY     -1274.317243805946

DIPOLE MOMENT
-------------
                                X             Y             Z
Electronic contribution:      9.04964       5.96594       7.36663
Nuclear contribution   :    -10.78017      -7.28824      -7.88052
                        -----------------------------------------
Total Dipole Moment    :     -1.73053      -1.32230      -0.51390
                        -----------------------------------------
Magnitude (a.u.)       :      2.23770
Magnitude (Debye)      :      5.68779

Rotational constants in cm-1:     0.011379     0.009239     0.006455
Rotational constants in MHz :   341.121157   276.983041   193.507327

                             ****ORCA TERMINATED NORMALLY****
TOTAL RUN TIME: 0 days 2 hours 2 minutes 31 seconds 434 msec
