                         Program Version 4.2.0 -  RELEASE  -
|  1> ! ri-mp2 cc-pvtz cc-pvtz/c TightSCF NoKeepInts
|  2>
|  3> %scf
|  4>   MaxCore 4096
|  5> end
|  6> *xyz  0  1
|  7>     C       13.7343266   15.8502225   13.9422249
|  8>     C       14.9550658   15.4620438   14.7931376
|  9>     O       15.7492582   16.6442994   14.9718100
| 10>     C       16.8321532   16.5607079   15.7943753
| 11>     O       17.5026000   15.5447648   15.8727823
| 12>     C       17.0141119   17.7296792   16.7204448
| 13>     C       16.6548362   18.9963365   16.3816647
| 14>     C       15.8310576   19.4444232   15.1901861
| 15>     N       17.0863186   20.0869106   17.1411462
| 16>     C       18.0495426   20.0228527   18.1114845
| 17>     S       18.5909439   21.3753218   18.8945345
| 18>     N       18.5587126   18.7785934   18.3839396
| 19>     C       18.0487713   17.5087696   17.8312550
| 20>     C       17.5903199   16.5287868   18.9032315
| 21>     C       18.1285182   15.2308576   18.9663514
| 22>     C       17.7054836   14.3291405   19.9572857
| 23>     C       16.7369551   14.7294406   20.8938243
| 24>     C       16.1975820   16.0217533   20.8318756
| 25>     O       15.2592201   16.4094392   21.7321447
| 26>     C       16.6201865   16.9167340   19.8437665
| 27>     H       13.1402059   16.6223708   14.4464673
| 28>     H       13.0912810   14.9779695   13.7727336
| 29>     H       14.0514455   16.2376924   12.9659815
| 30>     H       14.6237923   15.0731953   15.7656811
| 31>     H       15.5380099   14.6820708   14.2843135
| 32>     H       16.2742518   19.0864889   14.2523350
| 33>     H       15.7536459   20.5356528   15.1114204
| 34>     H       14.8096248   19.0489954   15.2541175
| 35>     H       16.7384685   21.0100343   16.9368549
| 36>     H       19.2525849   18.7554899   19.1205670
| 37>     H       18.9533617   17.1371402   17.3280885
| 38>     H       18.8664823   14.9159725   18.2322239
| 39>     H       18.1244955   13.3251127   19.9922483
| 40>     H       16.4065102   14.0357774   21.6597110
| 41>     H       15.1227902   15.6709969   22.3444322
| 42>     H       16.1940856   17.9139632   19.8133588
| 43> *
| 44>
| 45>                          ****END OF INPUT****

CARTESIAN COORDINATES (ANGSTROEM)
---------------------------------
  C     13.734327   15.850222   13.942225
  C     14.955066   15.462044   14.793138
  O     15.749258   16.644299   14.971810
  C     16.832153   16.560708   15.794375
  O     17.502600   15.544765   15.872782
  C     17.014112   17.729679   16.720445
  C     16.654836   18.996337   16.381665
  C     15.831058   19.444423   15.190186
  N     17.086319   20.086911   17.141146
  C     18.049543   20.022853   18.111484
  S     18.590944   21.375322   18.894534
  N     18.558713   18.778593   18.383940
  C     18.048771   17.508770   17.831255
  C     17.590320   16.528787   18.903232
  C     18.128518   15.230858   18.966351
  C     17.705484   14.329140   19.957286
  C     16.736955   14.729441   20.893824
  C     16.197582   16.021753   20.831876
  O     15.259220   16.409439   21.732145
  C     16.620186   16.916734   19.843766
  H     13.140206   16.622371   14.446467
  H     13.091281   14.977970   13.772734
  H     14.051445   16.237692   12.965981
  H     14.623792   15.073195   15.765681
  H     15.538010   14.682071   14.284313
  H     16.274252   19.086489   14.252335
  H     15.753646   20.535653   15.111420
  H     14.809625   19.048995   15.254117
  H     16.738468   21.010034   16.936855
  H     19.252585   18.755490   19.120567
  H     18.953362   17.137140   17.328088
  H     18.866482   14.915973   18.232224
  H     18.124495   13.325113   19.992248
  H     16.406510   14.035777   21.659711
  H     15.122790   15.670997   22.344432
  H     16.194086   17.913963   19.813359

 Total Charge           Charge          ....    0
 Multiplicity           Mult            ....    1
 Number of Electrons    NEL             ....  154
 Basis Dimension        Dim             ....  828

ORBITAL ENERGIES
----------------

  NO   OCC          E(Eh)            E(eV)
   0   2.0000     -91.888363     -2500.4095
   1   2.0000     -20.598200      -560.5055
   2   2.0000     -20.592153      -560.3410
   3   2.0000     -20.547217      -559.1182
   4   2.0000     -15.629091      -425.2892
   5   2.0000     -15.605931      -424.6590
   6   2.0000     -11.394147      -310.0505
   7   2.0000     -11.382930      -309.7453
   8   2.0000     -11.338625      -308.5397
   9   2.0000     -11.308118      -307.7095
  10   2.0000     -11.304379      -307.6078
  11   2.0000     -11.300334      -307.4977
  12   2.0000     -11.260525      -306.4145
  13   2.0000     -11.259491      -306.3863
  14   2.0000     -11.255337      -306.2733
  15   2.0000     -11.248111      -306.0767
  16   2.0000     -11.238356      -305.8112
  17   2.0000     -11.235499      -305.7335
  18   2.0000     -11.234517      -305.7068
  19   2.0000     -11.231171      -305.6157
  20   2.0000      -8.893443      -242.0029
  21   2.0000      -6.575019      -178.9154
  22   2.0000      -6.573017      -178.8609
  23   2.0000      -6.572428      -178.8449
  24   2.0000      -1.455171       -39.5972
  25   2.0000      -1.411901       -38.4198
  26   2.0000      -1.357437       -36.9377
  27   2.0000      -1.340238       -36.4697
  28   2.0000      -1.237315       -33.6691
  29   2.0000      -1.152716       -31.3670
  30   2.0000      -1.121129       -30.5075
  31   2.0000      -1.044908       -28.4334
  32   2.0000      -1.037076       -28.2203
  33   2.0000      -1.010253       -27.4904
  34   2.0000      -0.999154       -27.1884
  35   2.0000      -0.984350       -26.7855
  36   2.0000      -0.920908       -25.0592
  37   2.0000      -0.886567       -24.1247
  38   2.0000      -0.847403       -23.0590
  39   2.0000      -0.835391       -22.7321
  40   2.0000      -0.828355       -22.5407
  41   2.0000      -0.821194       -22.3458
  42   2.0000      -0.761736       -20.7279
  43   2.0000      -0.736263       -20.0347
  44   2.0000      -0.726455       -19.7679
  45   2.0000      -0.690203       -18.7814
  46   2.0000      -0.684715       -18.6320
  47   2.0000      -0.681564       -18.5463
  48   2.0000      -0.676007       -18.3951
  49   2.0000      -0.656994       -17.8777
  50   2.0000      -0.651122       -17.7179
  51   2.0000      -0.640985       -17.4421
  52   2.0000      -0.633196       -17.2301
  53   2.0000      -0.607309       -16.5257
  54   2.0000      -0.603516       -16.4225
  55   2.0000      -0.598889       -16.2966
  56   2.0000      -0.595483       -16.2039
  57   2.0000      -0.576374       -15.6839
  58   2.0000      -0.573428       -15.6038
  59   2.0000      -0.563836       -15.3428
  60   2.0000      -0.561040       -15.2667
  61   2.0000      -0.550164       -14.9707
  62   2.0000      -0.544127       -14.8064
  63   2.0000      -0.520864       -14.1734
  64   2.0000      -0.516307       -14.0494
  65   2.0000      -0.510975       -13.9043
  66   2.0000      -0.506326       -13.7778
  67   2.0000      -0.494477       -13.4554
  68   2.0000      -0.480873       -13.0852
  69   2.0000      -0.463065       -12.6006
  70   2.0000      -0.461722       -12.5641
  71   2.0000      -0.452137       -12.3033
  72   2.0000      -0.353416        -9.6169
  73   2.0000      -0.344863        -9.3842
  74   2.0000      -0.327408        -8.9092
  75   2.0000      -0.317518        -8.6401
  76   2.0000      -0.314743        -8.5646
  77   0.0000       0.075172         2.0455
  78   0.0000       0.110944         3.0190
  79   0.0000       0.120650         3.2831
  80   0.0000       0.135333         3.6826
  81   0.0000       0.138015         3.7556

MULLIKEN ATOMIC CHARGES
-----------------------
   0 C :   -0.275653
   1 C :    0.046866
   2 O :   -0.345582
   3 C :    0.421592
   4 O :   -0.410871
   5 C :   -0.176119
   6 C :    0.154319
   7 C :   -0.283671
   8 N :   -0.128420
   9 C :    0.207464
  10 S :   -0.441783
  11 N :   -0.210555
  12 C :    0.041829
  13 C :    0.032340
  14 C :   -0.167749
  15 C :   -0.134331
  16 C :   -0.277404
  17 C :    0.313649
  18 O :   -0.359133
  19 C :   -0.252342
  20 H :    0.092508
  21 H :    0.099952
  22 H :    0.098461
  23 H :    0.085071
  24 H :    0.105728
  25 H :    0.126933
  26 H :    0.103628
  27 H :    0.127543
  28 H :    0.198897
  29 H :    0.199933
  30 H :    0.155582
  31 H :    0.159176
  32 H :    0.160207
  33 H :    0.128366
  34 H :    0.240009
  35 H :    0.163562
Sum of atomic charges:    0.0000000

LOEWDIN ATOMIC CHARGES
----------------------
   0 C :    0.107835
   1 C :   -0.018937
   2 O :    0.303000
   3 C :   -0.417394
   4 O :    0.110658
   5 C :   -0.093564
   6 C :   -0.064344
   7 C :    0.125572
   8 N :    0.405614
   9 C :   -0.458486
  10 S :   -0.037190
  11 N :    0.396356
  12 C :   -0.048279
  13 C :   -0.040726
  14 C :    0.025116
  15 C :    0.041093
  16 C :   -0.001278
  17 C :   -0.192801
  18 O :    0.392977
  19 C :    0.029184
  20 H :   -0.029173
  21 H :   -0.022904
  22 H :   -0.026245
  23 H :   -0.029188
  24 H :   -0.027487
  25 H :   -0.008741
  26 H :   -0.021009
  27 H :   -0.010207
  28 H :   -0.058611
  29 H :   -0.063153
  30 H :   -0.008005
  31 H :   -0.023826
  32 H :   -0.020938
  33 H :   -0.036144
  34 H :   -0.154818
  35 H :   -0.023955

  Mayer bond orders larger than 0.100000
B(  0-C ,  1-C ) :   0.9719 B(  0-C , 20-H ) :   0.9782 B(  0-C , 21-H ) :   0.9780
B(  0-C , 22-H ) :   0.9770 B(  1-C ,  2-O ) :   0.9095 B(  1-C , 23-H ) :   0.9731
B(  1-C , 24-H ) :   0.9792 B(  2-O ,  3-C ) :   1.1183 B(  3-C ,  4-O ) :   2.0082
B(  3-C ,  5-C ) :   1.0348 B(  5-C ,  6-C ) :   1.6556 B(  5-C , 12-C ) :   0.9496
B(  6-C ,  7-C ) :   0.9546 B(  6-C ,  8-N ) :   1.1351 B(  7-C , 25-H ) :   0.9649
B(  7-C , 26-H ) :   0.9915 B(  7-C , 27-H ) :   0.9632 B(  8-N ,  9-C ) :   1.1849
B(  8-N , 28-H ) :   0.9468 B(  9-C , 10-S ) :   1.6090 B(  9-C , 11-N ) :   1.3062
B( 11-N , 12-C ) :   0.9766 B( 11-N , 29-H ) :   0.9485 B( 12-C , 13-C ) :   0.9727
B( 12-C , 30-H ) :   0.9968 B( 13-C , 14-C ) :   1.3771 B( 13-C , 19-C ) :   1.3647
B( 14-C , 15-C ) :   1.3976 B( 14-C , 31-H ) :   0.9636 B( 15-C , 16-C ) :   1.3587
B( 15-C , 32-H ) :   0.9711 B( 16-C , 17-C ) :   1.3333 B( 16-C , 33-H ) :   0.9859
B( 17-C , 18-O ) :   1.1036 B( 17-C , 19-C ) :   1.3677 B( 18-O , 34-H ) :   0.9806
B( 19-C , 35-H ) :   0.9603

MP2 TOTAL ENERGY:    -1274.336625899 Eh
FINAL SINGLE POINT ENERGY     -1274.336625898946

DIPOLE MOMENT
-------------
                                X             Y             Z
Electronic contribution:     11.30823       8.52923      11.55277
Nuclear contribution   :    -12.77146      -9.86444     -12.45862
                        -----------------------------------------
Total Dipole Moment    :     -1.46323      -1.33521      -0.90585
                        -----------------------------------------
Magnitude (a.u.)       :      2.17816
Magnitude (Debye)      :      5.53645

Rotational constants in cm-1:     0.009674     0.009064     0.005601
Rotational constants in MHz :   290.021227   271.722625   167.913580

                             ****ORCA TERMINATED NORMALLY****
TOTAL RUN TIME: 0 days 1 hours 36 minutes 7 seconds 627 msec
