                         Program Version 4.2.0 -  RELEASE  -
|  1> ! ri-mp2 cc-pvtz cc-pvtz/c TightSCF NoKeepInts
|  2>
|  3> %scf
|  4>   MaxCore 4096
|  5> end
|  6> *xyz  0  1
|  7>     C       15.3864267   15.3563519   13.1906330
|  8>     C       14.6199587   15.6109825   14.5014828
|  9>     O       15.2743108   16.6840818   15.2029552
| 10>     C       16.2803304   16.4094797   16.0858427
| 11>     O       16.6889029   15.2756046   16.2778744
| 12>     C       16.8140007   17.5987876   16.8364607
| 13>     C       16.7764955   18.8660163   16.3432820
| 14>     C       16.0230400   19.3780646   15.1309671
| 15>     N       17.5226682   19.8857200   16.9401811
| 16>     C       18.4928297   19.6867061   17.8845885
| 17>     S       19.4147132   20.9313061   18.4648630
| 18>     N       18.6755123   18.3949316   18.3071333
| 19>     C       17.8205709   17.2492407   17.9412129
| 20>     C       17.1904164   16.5648741   19.1472434
| 21>     C       17.3795251   15.1893274   19.3718732
| 22>     C       16.8005827   14.5610430   20.4872739
| 23>     C       16.0273710   15.3152649   21.3865356
| 24>     C       15.8360398   16.6859442   21.1640736
| 25>     O       15.0870004   17.4157413   22.0287922
| 26>     C       16.4132429   17.3083046   20.0525741
| 27>     H       15.4396791   16.2706298   12.5868875
| 28>     H       14.8856535   14.5812143   12.5979871
| 29>     H       16.4088858   15.0168495   13.3997253
| 30>     H       13.5937779   15.9133523   14.2563733
| 31>     H       14.5674446   14.6984535   15.1115348
| 32>     H       14.9420055   19.2420130   15.2605928
| 33>     H       16.3276427   18.8379145   14.2258671
| 34>     H       16.1942098   20.4446412   14.9410090
| 35>     H       17.4148449   20.8364243   16.6250745
| 36>     H       19.3813555   18.2778067   19.0231003
| 37>     H       18.5663775   16.5928564   17.4696410
| 38>     H       17.9647391   14.6026590   18.6676773
| 39>     H       16.9478771   13.4944526   20.6468122
| 40>     H       15.5770996   14.8336958   22.2480565
| 41>     H       14.7944368   16.8185494   22.7333970
| 42>     H       16.2570322   18.3707146   19.8984215
| 43> *
| 44>
| 45>                          ****END OF INPUT****

CARTESIAN COORDINATES (ANGSTROEM)
---------------------------------
  C     15.386427   15.356352   13.190633
  C     14.619959   15.610982   14.501483
  O     15.274311   16.684082   15.202955
  C     16.280330   16.409480   16.085843
  O     16.688903   15.275605   16.277874
  C     16.814001   17.598788   16.836461
  C     16.776495   18.866016   16.343282
  C     16.023040   19.378065   15.130967
  N     17.522668   19.885720   16.940181
  C     18.492830   19.686706   17.884588
  S     19.414713   20.931306   18.464863
  N     18.675512   18.394932   18.307133
  C     17.820571   17.249241   17.941213
  C     17.190416   16.564874   19.147243
  C     17.379525   15.189327   19.371873
  C     16.800583   14.561043   20.487274
  C     16.027371   15.315265   21.386536
  C     15.836040   16.685944   21.164074
  O     15.087000   17.415741   22.028792
  C     16.413243   17.308305   20.052574
  H     15.439679   16.270630   12.586887
  H     14.885654   14.581214   12.597987
  H     16.408886   15.016849   13.399725
  H     13.593778   15.913352   14.256373
  H     14.567445   14.698453   15.111535
  H     14.942005   19.242013   15.260593
  H     16.327643   18.837915   14.225867
  H     16.194210   20.444641   14.941009
  H     17.414845   20.836424   16.625075
  H     19.381356   18.277807   19.023100
  H     18.566378   16.592856   17.469641
  H     17.964739   14.602659   18.667677
  H     16.947877   13.494453   20.646812
  H     15.577100   14.833696   22.248057
  H     14.794437   16.818549   22.733397
  H     16.257032   18.370715   19.898421

 Total Charge           Charge          ....    0
 Multiplicity           Mult            ....    1
 Number of Electrons    NEL             ....  154
 Basis Dimension        Dim             ....  828

ORBITAL ENERGIES
----------------

  NO   OCC          E(Eh)            E(eV)
   0   2.0000     -91.887755     -2500.3929
   1   2.0000     -20.604980      -560.6900
   2   2.0000     -20.590771      -560.3034
   3   2.0000     -20.545024      -559.0585
   4   2.0000     -15.628331      -425.2685
   5   2.0000     -15.605413      -424.6449
   6   2.0000     -11.397029      -310.1289
   7   2.0000     -11.382232      -309.7263
   8   2.0000     -11.338321      -308.5314
   9   2.0000     -11.306748      -307.6722
  10   2.0000     -11.303903      -307.5948
  11   2.0000     -11.300457      -307.5011
  12   2.0000     -11.261608      -306.4439
  13   2.0000     -11.259070      -306.3749
  14   2.0000     -11.254116      -306.2401
  15   2.0000     -11.246847      -306.0423
  16   2.0000     -11.237068      -305.7762
  17   2.0000     -11.233213      -305.6713
  18   2.0000     -11.229998      -305.5838
  19   2.0000     -11.229973      -305.5831
  20   2.0000      -8.892841      -241.9865
  21   2.0000      -6.574420      -178.8990
  22   2.0000      -6.572415      -178.8445
  23   2.0000      -6.571829      -178.8285
  24   2.0000      -1.454701       -39.5844
  25   2.0000      -1.410515       -38.3821
  26   2.0000      -1.357549       -36.9408
  27   2.0000      -1.339743       -36.4563
  28   2.0000      -1.236857       -33.6566
  29   2.0000      -1.151558       -31.3355
  30   2.0000      -1.120396       -30.4875
  31   2.0000      -1.043051       -28.3829
  32   2.0000      -1.035553       -28.1788
  33   2.0000      -1.009034       -27.4572
  34   2.0000      -0.998210       -27.1627
  35   2.0000      -0.983276       -26.7563
  36   2.0000      -0.920436       -25.0463
  37   2.0000      -0.893541       -24.3145
  38   2.0000      -0.847401       -23.0590
  39   2.0000      -0.834294       -22.7023
  40   2.0000      -0.827103       -22.5066
  41   2.0000      -0.817005       -22.2318
  42   2.0000      -0.757527       -20.6134
  43   2.0000      -0.735490       -20.0137
  44   2.0000      -0.725480       -19.7413
  45   2.0000      -0.689887       -18.7728
  46   2.0000      -0.685275       -18.6473
  47   2.0000      -0.680321       -18.5125
  48   2.0000      -0.671641       -18.2763
  49   2.0000      -0.656856       -17.8739
  50   2.0000      -0.648011       -17.6333
  51   2.0000      -0.639501       -17.4017
  52   2.0000      -0.629534       -17.1305
  53   2.0000      -0.612822       -16.6757
  54   2.0000      -0.602469       -16.3940
  55   2.0000      -0.597352       -16.2548
  56   2.0000      -0.593988       -16.1632
  57   2.0000      -0.584237       -15.8979
  58   2.0000      -0.572178       -15.5698
  59   2.0000      -0.565571       -15.3900
  60   2.0000      -0.560962       -15.2645
  61   2.0000      -0.546991       -14.8844
  62   2.0000      -0.535099       -14.5608
  63   2.0000      -0.533209       -14.5094
  64   2.0000      -0.514889       -14.0108
  65   2.0000      -0.508849       -13.8465
  66   2.0000      -0.499329       -13.5874
  67   2.0000      -0.493463       -13.4278
  68   2.0000      -0.480619       -13.0783
  69   2.0000      -0.465878       -12.6772
  70   2.0000      -0.455266       -12.3884
  71   2.0000      -0.454495       -12.3674
  72   2.0000      -0.353033        -9.6065
  73   2.0000      -0.343714        -9.3529
  74   2.0000      -0.326831        -8.8935
  75   2.0000      -0.316893        -8.6231
  76   2.0000      -0.313364        -8.5271
  77   0.0000       0.077993         2.1223
  78   0.0000       0.112739         3.0678
  79   0.0000       0.121395         3.3033
  80   0.0000       0.136539         3.7154
  81   0.0000       0.140590         3.8257

MULLIKEN ATOMIC CHARGES
-----------------------
   0 C :   -0.291386
   1 C :    0.027318
   2 O :   -0.342538
   3 C :    0.425141
   4 O :   -0.431722
   5 C :   -0.179484
   6 C :    0.168026
   7 C :   -0.282683
   8 N :   -0.128840
   9 C :    0.207497
  10 S :   -0.442952
  11 N :   -0.210532
  12 C :    0.040863
  13 C :    0.031109
  14 C :   -0.164559
  15 C :   -0.134255
  16 C :   -0.276608
  17 C :    0.314607
  18 O :   -0.359150
  19 C :   -0.250474
  20 H :    0.090639
  21 H :    0.099284
  22 H :    0.110907
  23 H :    0.108107
  24 H :    0.112280
  25 H :    0.131753
  26 H :    0.123603
  27 H :    0.102340
  28 H :    0.198820
  29 H :    0.199983
  30 H :    0.154805
  31 H :    0.158041
  32 H :    0.159435
  33 H :    0.127879
  34 H :    0.239792
  35 H :    0.162953
Sum of atomic charges:   -0.0000000

LOEWDIN ATOMIC CHARGES
----------------------
   0 C :    0.103646
   1 C :   -0.015969
   2 O :    0.308209
   3 C :   -0.414168
   4 O :    0.100788
   5 C :   -0.090089
   6 C :   -0.063664
   7 C :    0.124524
   8 N :    0.405398
   9 C :   -0.458896
  10 S :   -0.038000
  11 N :    0.396629
  12 C :   -0.048301
  13 C :   -0.040406
  14 C :    0.025098
  15 C :    0.040965
  16 C :   -0.000974
  17 C :   -0.192283
  18 O :    0.393076
  19 C :    0.030001
  20 H :   -0.030977
  21 H :   -0.025708
  22 H :   -0.024474
  23 H :   -0.026468
  24 H :   -0.026128
  25 H :   -0.008736
  26 H :   -0.010633
  27 H :   -0.021353
  28 H :   -0.058851
  29 H :   -0.062978
  30 H :   -0.008710
  31 H :   -0.024239
  32 H :   -0.021203
  33 H :   -0.036231
  34 H :   -0.154975
  35 H :   -0.023920

  Mayer bond orders larger than 0.100000
B(  0-C ,  1-C ) :   0.9630 B(  0-C , 20-H ) :   0.9784 B(  0-C , 21-H ) :   0.9765
B(  0-C , 22-H ) :   0.9760 B(  1-C ,  2-O ) :   0.8943 B(  1-C , 23-H ) :   0.9846
B(  1-C , 24-H ) :   0.9748 B(  2-O ,  3-C ) :   1.1589 B(  3-C ,  4-O ) :   1.9578
B(  3-C ,  5-C ) :   1.0665 B(  5-C ,  6-C ) :   1.6515 B(  5-C , 12-C ) :   0.9504
B(  6-C ,  7-C ) :   0.9533 B(  6-C ,  8-N ) :   1.1360 B(  7-C , 25-H ) :   0.9632
B(  7-C , 26-H ) :   0.9658 B(  7-C , 27-H ) :   0.9913 B(  8-N ,  9-C ) :   1.1854
B(  8-N , 28-H ) :   0.9468 B(  9-C , 10-S ) :   1.6073 B(  9-C , 11-N ) :   1.3068
B( 11-N , 12-C ) :   0.9769 B( 11-N , 29-H ) :   0.9484 B( 12-C , 13-C ) :   0.9754
B( 12-C , 30-H ) :   0.9978 B( 13-C , 14-C ) :   1.3747 B( 13-C , 19-C ) :   1.3677
B( 14-C , 15-C ) :   1.3970 B( 14-C , 31-H ) :   0.9643 B( 15-C , 16-C ) :   1.3587
B( 15-C , 32-H ) :   0.9713 B( 16-C , 17-C ) :   1.3334 B( 16-C , 33-H ) :   0.9861
B( 17-C , 18-O ) :   1.1030 B( 17-C , 19-C ) :   1.3676 B( 18-O , 34-H ) :   0.9808
B( 19-C , 35-H ) :   0.9601

MP2 TOTAL ENERGY:    -1274.342449354 Eh
FINAL SINGLE POINT ENERGY     -1274.342449353713

DIPOLE MOMENT
-------------
                                X             Y             Z
Electronic contribution:      8.33584       8.65928      13.51559
Nuclear contribution   :     -9.92788      -9.78061     -14.54277
                        -----------------------------------------
Total Dipole Moment    :     -1.59204      -1.12134      -1.02718
                        -----------------------------------------
Magnitude (a.u.)       :      2.20161
Magnitude (Debye)      :      5.59604

Rotational constants in cm-1:     0.010204     0.008598     0.005410
Rotational constants in MHz :   305.908626   257.760656   162.190086

                             ****ORCA TERMINATED NORMALLY****
TOTAL RUN TIME: 0 days 1 hours 33 minutes 40 seconds 707 msec
