                         Program Version 4.2.0 -  RELEASE  -
|  1> ! ri-mp2 cc-pvtz cc-pvtz/c TightSCF NoKeepInts
|  2>
|  3> %scf
|  4>   MaxCore 4096
|  5> end
|  6> *xyz  0  1
|  7>     C       14.2350470   16.6287315   15.8203486
|  8>     C       15.3007101   15.5180650   15.9250265
|  9>     O       16.4486356   15.7991459   15.0940237
| 10>     C       17.4034273   16.7592952   15.3208656
| 11>     O       18.4086553   16.8264647   14.6393036
| 12>     C       17.1457184   17.7331711   16.4159363
| 13>     C       16.8273061   18.9974047   16.0580354
| 14>     C       16.3767057   19.4304133   14.6795787
| 15>     N       16.9679231   20.0612116   16.9504151
| 16>     C       17.6574406   19.9788452   18.1316382
| 17>     S       17.8934554   21.2983401   19.1000575
| 18>     N       18.1672742   18.7453786   18.4582507
| 19>     C       17.8938933   17.4910932   17.7282968
| 20>     C       17.3241041   16.3711099   18.5816001
| 21>     C       17.8995688   15.0880916   18.5465647
| 22>     C       17.3576359   14.0437078   19.3142569
| 23>     C       16.2321984   14.2851587   20.1210582
| 24>     C       15.6574384   15.5631359   20.1565608
| 25>     O       14.5654178   15.7966759   20.9265128
| 26>     C       16.1974994   16.6006877   19.3900016
| 27>     H       14.5053906   17.5151746   16.4030933
| 28>     H       13.2783997   16.2643501   16.2145188
| 29>     H       14.0770603   16.9204231   14.7747717
| 30>     H       15.5879233   15.3541931   16.9684754
| 31>     H       14.8497887   14.5829904   15.5682286
| 32>     H       15.7545432   18.6659257   14.1992599
| 33>     H       17.2475234   19.5961774   14.0313365
| 34>     H       15.7916382   20.3575900   14.7050262
| 35>     H       16.6459749   20.9813520   16.6949195
| 36>     H       18.6695417   18.7129949   19.3367279
| 37>     H       18.9181610   17.2320481   17.4204783
| 38>     H       18.7654245   14.8979104   17.9162005
| 39>     H       17.8091425   13.0532205   19.2815312
| 40>     H       15.8105597   13.4806984   20.7151152
| 41>     H       14.3780603   14.9855447   21.4231305
| 42>     H       15.7378132   17.5832789   19.4268546
| 43> *
| 44>
| 45>                          ****END OF INPUT****

CARTESIAN COORDINATES (ANGSTROEM)
---------------------------------
  C     14.235047   16.628732   15.820349
  C     15.300710   15.518065   15.925026
  O     16.448636   15.799146   15.094024
  C     17.403427   16.759295   15.320866
  O     18.408655   16.826465   14.639304
  C     17.145718   17.733171   16.415936
  C     16.827306   18.997405   16.058035
  C     16.376706   19.430413   14.679579
  N     16.967923   20.061212   16.950415
  C     17.657441   19.978845   18.131638
  S     17.893455   21.298340   19.100057
  N     18.167274   18.745379   18.458251
  C     17.893893   17.491093   17.728297
  C     17.324104   16.371110   18.581600
  C     17.899569   15.088092   18.546565
  C     17.357636   14.043708   19.314257
  C     16.232198   14.285159   20.121058
  C     15.657438   15.563136   20.156561
  O     14.565418   15.796676   20.926513
  C     16.197499   16.600688   19.390002
  H     14.505391   17.515175   16.403093
  H     13.278400   16.264350   16.214519
  H     14.077060   16.920423   14.774772
  H     15.587923   15.354193   16.968475
  H     14.849789   14.582990   15.568229
  H     15.754543   18.665926   14.199260
  H     17.247523   19.596177   14.031337
  H     15.791638   20.357590   14.705026
  H     16.645975   20.981352   16.694920
  H     18.669542   18.712995   19.336728
  H     18.918161   17.232048   17.420478
  H     18.765425   14.897910   17.916200
  H     17.809143   13.053221   19.281531
  H     15.810560   13.480698   20.715115
  H     14.378060   14.985545   21.423130
  H     15.737813   17.583279   19.426855

 Total Charge           Charge          ....    0
 Multiplicity           Mult            ....    1
 Number of Electrons    NEL             ....  154
 Basis Dimension        Dim             ....  828

ORBITAL ENERGIES
----------------

  NO   OCC          E(Eh)            E(eV)
   0   2.0000     -91.889155     -2500.4310
   1   2.0000     -20.606163      -560.7222
   2   2.0000     -20.599114      -560.5304
   3   2.0000     -20.551792      -559.2427
   4   2.0000     -15.625401      -425.1888
   5   2.0000     -15.610504      -424.7834
   6   2.0000     -11.398304      -310.1636
   7   2.0000     -11.384897      -309.7988
   8   2.0000     -11.325485      -308.1821
   9   2.0000     -11.324984      -308.1685
  10   2.0000     -11.315698      -307.9158
  11   2.0000     -11.302529      -307.5574
  12   2.0000     -11.271491      -306.7129
  13   2.0000     -11.266173      -306.5682
  14   2.0000     -11.259359      -306.3827
  15   2.0000     -11.256093      -306.2939
  16   2.0000     -11.254366      -306.2469
  17   2.0000     -11.249293      -306.1088
  18   2.0000     -11.248869      -306.0973
  19   2.0000     -11.232303      -305.6465
  20   2.0000      -8.894247      -242.0248
  21   2.0000      -6.575827      -178.9373
  22   2.0000      -6.573818      -178.8827
  23   2.0000      -6.573236      -178.8668
  24   2.0000      -1.445108       -39.3234
  25   2.0000      -1.425882       -38.8002
  26   2.0000      -1.360300       -37.0156
  27   2.0000      -1.338933       -36.4342
  28   2.0000      -1.238916       -33.7126
  29   2.0000      -1.168374       -31.7931
  30   2.0000      -1.126952       -30.6659
  31   2.0000      -1.052917       -28.6513
  32   2.0000      -1.036366       -28.2009
  33   2.0000      -1.026226       -27.9250
  34   2.0000      -1.004945       -27.3459
  35   2.0000      -0.990380       -26.9496
  36   2.0000      -0.927945       -25.2507
  37   2.0000      -0.895256       -24.3612
  38   2.0000      -0.852092       -23.1866
  39   2.0000      -0.845061       -22.9953
  40   2.0000      -0.844300       -22.9746
  41   2.0000      -0.832642       -22.6573
  42   2.0000      -0.754841       -20.5403
  43   2.0000      -0.740201       -20.1419
  44   2.0000      -0.725143       -19.7321
  45   2.0000      -0.704602       -19.1732
  46   2.0000      -0.693943       -18.8831
  47   2.0000      -0.679850       -18.4996
  48   2.0000      -0.676999       -18.4221
  49   2.0000      -0.664958       -18.0944
  50   2.0000      -0.652788       -17.7633
  51   2.0000      -0.643155       -17.5011
  52   2.0000      -0.636498       -17.3200
  53   2.0000      -0.618742       -16.8368
  54   2.0000      -0.613751       -16.7010
  55   2.0000      -0.608534       -16.5590
  56   2.0000      -0.606242       -16.4967
  57   2.0000      -0.585303       -15.9269
  58   2.0000      -0.580044       -15.7838
  59   2.0000      -0.573638       -15.6095
  60   2.0000      -0.567256       -15.4358
  61   2.0000      -0.553622       -15.0648
  62   2.0000      -0.538238       -14.6462
  63   2.0000      -0.536802       -14.6071
  64   2.0000      -0.528542       -14.3824
  65   2.0000      -0.517896       -14.0927
  66   2.0000      -0.505536       -13.7563
  67   2.0000      -0.503507       -13.7011
  68   2.0000      -0.490913       -13.3584
  69   2.0000      -0.462577       -12.5874
  70   2.0000      -0.453827       -12.3493
  71   2.0000      -0.450922       -12.2702
  72   2.0000      -0.358897        -9.7661
  73   2.0000      -0.351979        -9.5778
  74   2.0000      -0.333883        -9.0854
  75   2.0000      -0.328244        -8.9320
  76   2.0000      -0.318309        -8.6616
  77   0.0000       0.088249         2.4014
  78   0.0000       0.096299         2.6204
  79   0.0000       0.119893         3.2624
  80   0.0000       0.126166         3.4331
  81   0.0000       0.128758         3.5037

MULLIKEN ATOMIC CHARGES
-----------------------
   0 C :   -0.328485
   1 C :    0.035553
   2 O :   -0.315562
   3 C :    0.424378
   4 O :   -0.381447
   5 C :   -0.216607
   6 C :    0.140427
   7 C :   -0.299900
   8 N :   -0.136073
   9 C :    0.213003
  10 S :   -0.443063
  11 N :   -0.217299
  12 C :    0.032019
  13 C :    0.002353
  14 C :   -0.204439
  15 C :   -0.130177
  16 C :   -0.272076
  17 C :    0.308219
  18 O :   -0.353774
  19 C :   -0.232573
  20 H :    0.108857
  21 H :    0.117266
  22 H :    0.107527
  23 H :    0.101363
  24 H :    0.124815
  25 H :    0.117707
  26 H :    0.148484
  27 H :    0.099815
  28 H :    0.197507
  29 H :    0.200612
  30 H :    0.167428
  31 H :    0.165154
  32 H :    0.165735
  33 H :    0.135659
  34 H :    0.242138
  35 H :    0.175455
Sum of atomic charges:    0.0000000

LOEWDIN ATOMIC CHARGES
----------------------
   0 C :    0.101637
   1 C :   -0.015278
   2 O :    0.300872
   3 C :   -0.415396
   4 O :    0.125149
   5 C :   -0.087385
   6 C :   -0.091181
   7 C :    0.129606
   8 N :    0.403996
   9 C :   -0.454497
  10 S :   -0.038213
  11 N :    0.395723
  12 C :   -0.055593
  13 C :   -0.047432
  14 C :    0.015383
  15 C :    0.045875
  16 C :    0.002086
  17 C :   -0.190839
  18 O :    0.397713
  19 C :    0.031263
  20 H :   -0.036137
  21 H :   -0.023215
  22 H :   -0.029499
  23 H :   -0.034160
  24 H :   -0.019790
  25 H :   -0.011159
  26 H :   -0.003435
  27 H :   -0.018674
  28 H :   -0.058670
  29 H :   -0.064432
  30 H :   -0.006232
  31 H :   -0.024508
  32 H :   -0.017516
  33 H :   -0.033067
  34 H :   -0.151917
  35 H :   -0.021078

  Mayer bond orders larger than 0.100000
B(  0-C ,  1-C ) :   0.9548 B(  0-C , 20-H ) :   0.9728 B(  0-C , 21-H ) :   0.9779
B(  0-C , 22-H ) :   0.9768 B(  1-C ,  2-O ) :   0.9041 B(  1-C , 23-H ) :   0.9646
B(  1-C , 24-H ) :   0.9853 B(  2-O ,  3-C ) :   1.1958 B(  3-C ,  4-O ) :   2.1199
B(  3-C ,  5-C ) :   0.9046 B(  5-C ,  6-C ) :   1.7348 B(  5-C , 12-C ) :   0.9478
B(  6-C ,  7-C ) :   0.9422 B(  6-C ,  8-N ) :   1.1068 B(  7-C , 25-H ) :   0.9768
B(  7-C , 26-H ) :   0.9606 B(  7-C , 27-H ) :   0.9830 B(  8-N ,  9-C ) :   1.2018
B(  8-N , 28-H ) :   0.9491 B(  9-C , 10-S ) :   1.6108 B(  9-C , 11-N ) :   1.2846
B( 11-N , 12-C ) :   0.9810 B( 11-N , 29-H ) :   0.9473 B( 12-C , 13-C ) :   0.9617
B( 12-C , 30-H ) :   0.9978 B( 13-C , 14-C ) :   1.3777 B( 13-C , 19-C ) :   1.3566
B( 14-C , 15-C ) :   1.3934 B( 14-C , 31-H ) :   0.9668 B( 15-C , 16-C ) :   1.3661
B( 15-C , 32-H ) :   0.9694 B( 16-C , 17-C ) :   1.3276 B( 16-C , 33-H ) :   0.9832
B( 17-C , 18-O ) :   1.1138 B( 17-C , 19-C ) :   1.3626 B( 18-O , 34-H ) :   0.9783
B( 19-C , 35-H ) :   0.9567

MP2 TOTAL ENERGY:    -1274.323124294 Eh
FINAL SINGLE POINT ENERGY     -1274.323124294387

DIPOLE MOMENT
-------------
                                X             Y             Z
Electronic contribution:      9.29409       6.26391       6.75861
Nuclear contribution   :    -10.82346      -8.00638      -6.58600
                        -----------------------------------------
Total Dipole Moment    :     -1.52938      -1.74247       0.17261
                        -----------------------------------------
Magnitude (a.u.)       :      2.32486
Magnitude (Debye)      :      5.90934

Rotational constants in cm-1:     0.011993     0.009026     0.006500
Rotational constants in MHz :   359.547280   270.602668   194.879763

                             ****ORCA TERMINATED NORMALLY****
TOTAL RUN TIME: 0 days 1 hours 42 minutes 44 seconds 503 msec
