                         Program Version 4.2.0 -  RELEASE  -
|  1> ! ri-mp2 cc-pvtz cc-pvtz/c TightSCF NoKeepInts
|  2>
|  3> %scf
|  4>   MaxCore 4096
|  5> end
|  6> *xyz  0  1
|  7>     C       15.2127337   15.0557823   13.8044087
|  8>     C       15.0384751   15.0596027   15.3379699
|  9>     O       15.9557882   15.9925758   15.9413651
| 10>     C       15.7695434   17.3449737   15.8379748
| 11>     O       14.9287196   17.8387768   15.1061689
| 12>     C       16.6536686   18.1200542   16.7791740
| 13>     C       16.8050886   19.4629117   16.6421585
| 14>     C       15.9785637   20.3964363   15.7816423
| 15>     N       17.8161699   20.1467727   17.3212121
| 16>     C       18.8361822   19.5420044   18.0041761
| 17>     S       20.0582326   20.4100384   18.7033976
| 18>     N       18.8049846   18.1718089   18.0598885
| 19>     C       17.7065756   17.3200406   17.5658394
| 20>     C       17.1268646   16.4250250   18.6535307
| 21>     C       17.3492396   15.0357400   18.6332742
| 22>     C       16.8164584   14.2132197   19.6402304
| 23>     C       16.0586067   14.7854839   20.6764692
| 24>     C       15.8396632   16.1699578   20.7006503
| 25>     O       15.1099127   16.7250942   21.7008448
| 26>     C       16.3712527   16.9858922   19.6970862
| 27>     H       14.8831388   16.0012687   13.3574194
| 28>     H       14.6163987   14.2516809   13.3567680
| 29>     H       16.2631534   14.8921087   13.5343530
| 30>     H       14.0028729   15.3142182   15.6014249
| 31>     H       15.2485368   14.0534377   15.7227106
| 32>     H       14.9099552   20.2813531   16.0044206
| 33>     H       16.1181647   20.1673915   14.7175015
| 34>     H       16.2297430   21.4534104   15.9288436
| 35>     H       17.8626779   21.1518065   17.2693370
| 36>     H       19.5530325   17.7553131   18.5996648
| 37>     H       18.2464126   16.7220148   16.8180249
| 38>     H       17.9309195   14.5923505   17.8295455
| 39>     H       16.9911325   13.1390420   19.6157300
| 40>     H       15.6453654   14.1546048   21.4565079
| 41>     H       14.8510751   16.0116832   22.3031789
| 42>     H       16.1976972   18.0561245   19.7351078
| 43> *
| 44>
| 45>                          ****END OF INPUT****

CARTESIAN COORDINATES (ANGSTROEM)
---------------------------------
  C     15.212734   15.055782   13.804409
  C     15.038475   15.059603   15.337970
  O     15.955788   15.992576   15.941365
  C     15.769543   17.344974   15.837975
  O     14.928720   17.838777   15.106169
  C     16.653669   18.120054   16.779174
  C     16.805089   19.462912   16.642159
  C     15.978564   20.396436   15.781642
  N     17.816170   20.146773   17.321212
  C     18.836182   19.542004   18.004176
  S     20.058233   20.410038   18.703398
  N     18.804985   18.171809   18.059888
  C     17.706576   17.320041   17.565839
  C     17.126865   16.425025   18.653531
  C     17.349240   15.035740   18.633274
  C     16.816458   14.213220   19.640230
  C     16.058607   14.785484   20.676469
  C     15.839663   16.169958   20.700650
  O     15.109913   16.725094   21.700845
  C     16.371253   16.985892   19.697086
  H     14.883139   16.001269   13.357419
  H     14.616399   14.251681   13.356768
  H     16.263153   14.892109   13.534353
  H     14.002873   15.314218   15.601425
  H     15.248537   14.053438   15.722711
  H     14.909955   20.281353   16.004421
  H     16.118165   20.167392   14.717501
  H     16.229743   21.453410   15.928844
  H     17.862678   21.151806   17.269337
  H     19.553033   17.755313   18.599665
  H     18.246413   16.722015   16.818025
  H     17.930919   14.592351   17.829545
  H     16.991132   13.139042   19.615730
  H     15.645365   14.154605   21.456508
  H     14.851075   16.011683   22.303179
  H     16.197697   18.056124   19.735108

 Total Charge           Charge          ....    0
 Multiplicity           Mult            ....    1
 Number of Electrons    NEL             ....  154
 Basis Dimension        Dim             ....  828

ORBITAL ENERGIES
----------------

  NO   OCC          E(Eh)            E(eV)
   0   2.0000     -91.888614     -2500.4163
   1   2.0000     -20.600439      -560.5664
   2   2.0000     -20.595622      -560.4354
   3   2.0000     -20.541900      -558.9735
   4   2.0000     -15.629005      -425.2868
   5   2.0000     -15.606646      -424.6784
   6   2.0000     -11.396267      -310.1082
   7   2.0000     -11.383205      -309.7527
   8   2.0000     -11.337287      -308.5033
   9   2.0000     -11.312682      -307.8337
  10   2.0000     -11.307108      -307.6821
  11   2.0000     -11.299285      -307.4692
  12   2.0000     -11.259872      -306.3967
  13   2.0000     -11.259277      -306.3805
  14   2.0000     -11.254177      -306.2417
  15   2.0000     -11.251670      -306.1735
  16   2.0000     -11.242551      -305.9254
  17   2.0000     -11.237923      -305.7994
  18   2.0000     -11.237813      -305.7965
  19   2.0000     -11.222481      -305.3792
  20   2.0000      -8.893687      -242.0095
  21   2.0000      -6.575260      -178.9219
  22   2.0000      -6.573261      -178.8675
  23   2.0000      -6.572671      -178.8515
  24   2.0000      -1.450018       -39.4570
  25   2.0000      -1.415276       -38.5116
  26   2.0000      -1.354991       -36.8712
  27   2.0000      -1.340199       -36.4687
  28   2.0000      -1.237989       -33.6874
  29   2.0000      -1.156649       -31.4740
  30   2.0000      -1.120721       -30.4964
  31   2.0000      -1.042154       -28.3585
  32   2.0000      -1.036104       -28.1938
  33   2.0000      -1.013987       -27.5920
  34   2.0000      -0.995595       -27.0915
  35   2.0000      -0.983918       -26.7738
  36   2.0000      -0.921360       -25.0715
  37   2.0000      -0.894028       -24.3277
  38   2.0000      -0.846496       -23.0343
  39   2.0000      -0.837317       -22.7846
  40   2.0000      -0.833232       -22.6734
  41   2.0000      -0.818028       -22.2597
  42   2.0000      -0.755215       -20.5505
  43   2.0000      -0.732353       -19.9283
  44   2.0000      -0.721654       -19.6372
  45   2.0000      -0.694718       -18.9042
  46   2.0000      -0.688370       -18.7315
  47   2.0000      -0.679788       -18.4980
  48   2.0000      -0.670697       -18.2506
  49   2.0000      -0.652138       -17.7456
  50   2.0000      -0.646894       -17.6029
  51   2.0000      -0.644308       -17.5325
  52   2.0000      -0.631442       -17.1824
  53   2.0000      -0.609964       -16.5980
  54   2.0000      -0.605353       -16.4725
  55   2.0000      -0.599585       -16.3155
  56   2.0000      -0.598147       -16.2764
  57   2.0000      -0.579190       -15.7605
  58   2.0000      -0.572325       -15.5737
  59   2.0000      -0.569508       -15.4971
  60   2.0000      -0.562748       -15.3132
  61   2.0000      -0.540095       -14.6967
  62   2.0000      -0.536862       -14.6087
  63   2.0000      -0.524024       -14.2594
  64   2.0000      -0.522614       -14.2211
  65   2.0000      -0.512704       -13.9514
  66   2.0000      -0.500890       -13.6299
  67   2.0000      -0.497147       -13.5281
  68   2.0000      -0.484329       -13.1793
  69   2.0000      -0.462977       -12.5982
  70   2.0000      -0.455777       -12.4023
  71   2.0000      -0.444911       -12.1066
  72   2.0000      -0.352797        -9.6001
  73   2.0000      -0.348863        -9.4930
  74   2.0000      -0.327742        -8.9183
  75   2.0000      -0.320126        -8.7111
  76   2.0000      -0.317771        -8.6470
  77   0.0000       0.077511         2.1092
  78   0.0000       0.106229         2.8906
  79   0.0000       0.124436         3.3861
  80   0.0000       0.133300         3.6273
  81   0.0000       0.136613         3.7174

MULLIKEN ATOMIC CHARGES
-----------------------
   0 C :   -0.295607
   1 C :    0.040855
   2 O :   -0.346819
   3 C :    0.436716
   4 O :   -0.439863
   5 C :   -0.212098
   6 C :    0.172038
   7 C :   -0.269377
   8 N :   -0.125618
   9 C :    0.210227
  10 S :   -0.442322
  11 N :   -0.214729
  12 C :    0.056234
  13 C :    0.047606
  14 C :   -0.176667
  15 C :   -0.134273
  16 C :   -0.275729
  17 C :    0.316700
  18 O :   -0.357084
  19 C :   -0.248451
  20 H :    0.123195
  21 H :    0.094324
  22 H :    0.089936
  23 H :    0.094161
  24 H :    0.106427
  25 H :    0.134078
  26 H :    0.128061
  27 H :    0.094888
  28 H :    0.199685
  29 H :    0.200417
  30 H :    0.152045
  31 H :    0.149275
  32 H :    0.159805
  33 H :    0.129418
  34 H :    0.240423
  35 H :    0.162120
Sum of atomic charges:   -0.0000000

LOEWDIN ATOMIC CHARGES
----------------------
   0 C :    0.104593
   1 C :   -0.014061
   2 O :    0.306070
   3 C :   -0.412443
   4 O :    0.098240
   5 C :   -0.093933
   6 C :   -0.056419
   7 C :    0.130833
   8 N :    0.407122
   9 C :   -0.456809
  10 S :   -0.036823
  11 N :    0.394688
  12 C :   -0.054849
  13 C :   -0.039105
  14 C :    0.016867
  15 C :    0.038942
  16 C :   -0.000628
  17 C :   -0.189547
  18 O :    0.394894
  19 C :    0.033264
  20 H :   -0.026119
  21 H :   -0.028053
  22 H :   -0.030700
  23 H :   -0.028112
  24 H :   -0.025013
  25 H :   -0.004274
  26 H :   -0.005450
  27 H :   -0.023655
  28 H :   -0.057217
  29 H :   -0.064331
  30 H :   -0.014147
  31 H :   -0.029604
  32 H :   -0.021585
  33 H :   -0.035591
  34 H :   -0.154121
  35 H :   -0.022925

  Mayer bond orders larger than 0.100000
B(  0-C ,  1-C ) :   0.9678 B(  0-C , 20-H ) :   0.9726 B(  0-C , 21-H ) :   0.9772
B(  0-C , 22-H ) :   0.9763 B(  1-C ,  2-O ) :   0.9038 B(  1-C , 23-H ) :   0.9770
B(  1-C , 24-H ) :   0.9836 B(  2-O ,  3-C ) :   1.1624 B(  3-C ,  4-O ) :   1.9452
B(  3-C ,  5-C ) :   1.0787 B(  5-C ,  6-C ) :   1.6383 B(  5-C , 12-C ) :   0.9545
B(  6-C ,  7-C ) :   0.9658 B(  6-C ,  8-N ) :   1.1532 B(  7-C , 25-H ) :   0.9612
B(  7-C , 26-H ) :   0.9588 B(  7-C , 27-H ) :   0.9910 B(  8-N ,  9-C ) :   1.1876
B(  8-N , 28-H ) :   0.9463 B(  9-C , 10-S ) :   1.6057 B(  9-C , 11-N ) :   1.3094
B( 11-N , 12-C ) :   0.9678 B( 11-N , 29-H ) :   0.9484 B( 12-C , 13-C ) :   0.9658
B( 12-C , 30-H ) :   1.0007 B( 13-C , 14-C ) :   1.3541 B( 13-C , 19-C ) :   1.3811
B( 14-C , 15-C ) :   1.3956 B( 14-C , 31-H ) :   0.9721 B( 15-C , 16-C ) :   1.3603
B( 15-C , 32-H ) :   0.9709 B( 16-C , 17-C ) :   1.3341 B( 16-C , 33-H ) :   0.9853
B( 17-C , 18-O ) :   1.1039 B( 17-C , 19-C ) :   1.3649 B( 18-O , 34-H ) :   0.9800
B( 19-C , 35-H ) :   0.9597

MP2 TOTAL ENERGY:    -1274.341810004 Eh
FINAL SINGLE POINT ENERGY     -1274.341810003673

DIPOLE MOMENT
-------------
                                X             Y             Z
Electronic contribution:      8.88654       9.07054      11.05781
Nuclear contribution   :    -10.01826     -10.71152     -11.41731
                        -----------------------------------------
Total Dipole Moment    :     -1.13172      -1.64098      -0.35950
                        -----------------------------------------
Magnitude (a.u.)       :      2.02555
Magnitude (Debye)      :      5.14854

Rotational constants in cm-1:     0.010309     0.008925     0.005781
Rotational constants in MHz :   309.053955   267.568696   173.311126

                             ****ORCA TERMINATED NORMALLY****
TOTAL RUN TIME: 0 days 1 hours 38 minutes 13 seconds 751 msec
