                         Program Version 4.2.0 -  RELEASE  -
|  1> ! ri-mp2 cc-pvtz cc-pvtz/c TightSCF NoKeepInts
|  2>
|  3> %scf
|  4>   MaxCore 4096
|  5> end
|  6> *xyz  0  1
|  7>     C       14.7796772   14.9742889   16.2811760
|  8>     C       15.8965298   14.8943037   15.2235270
|  9>     O       16.9334565   15.8441741   15.5374175
| 10>     C       16.7184925   17.1569090   15.2310897
| 11>     O       16.2447342   17.4828778   14.1563613
| 12>     C       16.9731074   18.0888771   16.3870963
| 13>     C       16.8851265   19.4341252   16.2151209
| 14>     C       16.2536198   20.1739003   15.0533855
| 15>     N       17.4081494   20.3184927   17.1611726
| 16>     C       18.2262258   19.9502765   18.1939222
| 17>     S       18.9075212   21.0612987   19.2122859
| 18>     N       18.4737794   18.6078641   18.3248795
| 19>     C       17.8154226   17.5376681   17.5520842
| 20>     C       17.1091101   16.5337993   18.4521257
| 21>     C       17.6523730   15.2527092   18.6612118
| 22>     C       17.0166363   14.3400969   19.5201394
| 23>     C       15.8310753   14.7135874   20.1767038
| 24>     C       15.2915033   15.9915427   19.9735107
| 25>     O       14.1474832   16.3546980   20.6058677
| 26>     C       15.9269393   16.8979089   19.1189089
| 27>     H       15.1574178   14.6808310   17.2662709
| 28>     H       13.9591976   14.2951514   16.0203252
| 29>     H       14.3703102   15.9896835   16.3509310
| 30>     H       16.3190126   13.8814453   15.2319654
| 31>     H       15.4873916   15.0783135   14.2205082
| 32>     H       15.2517495   19.7791778   14.8413290
| 33>     H       16.8546406   20.0495205   14.1434486
| 34>     H       16.1457536   21.2495410   15.2360720
| 35>     H       17.2568181   21.3091630   17.0578101
| 36>     H       19.0580861   18.3632997   19.1143711
| 37>     H       18.6971908   17.0802025   17.0812634
| 38>     H       18.5687476   14.9634441   18.1535012
| 39>     H       17.4429314   13.3504337   19.6753351
| 40>     H       15.3368749   14.0124714   20.8412451
| 41>     H       13.8868241   15.6206329   21.1822859
| 42>     H       15.5030907   17.8872902   18.9833510
| 43> *
| 44>
| 45>                          ****END OF INPUT****

CARTESIAN COORDINATES (ANGSTROEM)
---------------------------------
  C     14.779677   14.974289   16.281176
  C     15.896530   14.894304   15.223527
  O     16.933456   15.844174   15.537418
  C     16.718492   17.156909   15.231090
  O     16.244734   17.482878   14.156361
  C     16.973107   18.088877   16.387096
  C     16.885126   19.434125   16.215121
  C     16.253620   20.173900   15.053385
  N     17.408149   20.318493   17.161173
  C     18.226226   19.950277   18.193922
  S     18.907521   21.061299   19.212286
  N     18.473779   18.607864   18.324880
  C     17.815423   17.537668   17.552084
  C     17.109110   16.533799   18.452126
  C     17.652373   15.252709   18.661212
  C     17.016636   14.340097   19.520139
  C     15.831075   14.713587   20.176704
  C     15.291503   15.991543   19.973511
  O     14.147483   16.354698   20.605868
  C     15.926939   16.897909   19.118909
  H     15.157418   14.680831   17.266271
  H     13.959198   14.295151   16.020325
  H     14.370310   15.989683   16.350931
  H     16.319013   13.881445   15.231965
  H     15.487392   15.078313   14.220508
  H     15.251749   19.779178   14.841329
  H     16.854641   20.049520   14.143449
  H     16.145754   21.249541   15.236072
  H     17.256818   21.309163   17.057810
  H     19.058086   18.363300   19.114371
  H     18.697191   17.080202   17.081263
  H     18.568748   14.963444   18.153501
  H     17.442931   13.350434   19.675335
  H     15.336875   14.012471   20.841245
  H     13.886824   15.620633   21.182286
  H     15.503091   17.887290   18.983351

 Total Charge           Charge          ....    0
 Multiplicity           Mult            ....    1
 Number of Electrons    NEL             ....  154
 Basis Dimension        Dim             ....  828

ORBITAL ENERGIES
----------------

  NO   OCC          E(Eh)            E(eV)
   0   2.0000     -91.890226     -2500.4602
   1   2.0000     -20.599299      -560.5354
   2   2.0000     -20.589782      -560.2765
   3   2.0000     -20.543258      -559.0105
   4   2.0000     -15.630751      -425.3344
   5   2.0000     -15.608083      -424.7175
   6   2.0000     -11.393294      -310.0273
   7   2.0000     -11.384541      -309.7891
   8   2.0000     -11.339435      -308.5617
   9   2.0000     -11.316680      -307.9425
  10   2.0000     -11.309400      -307.7444
  11   2.0000     -11.294811      -307.3474
  12   2.0000     -11.263189      -306.4870
  13   2.0000     -11.259650      -306.3906
  14   2.0000     -11.258185      -306.3508
  15   2.0000     -11.252726      -306.2022
  16   2.0000     -11.246717      -306.0387
  17   2.0000     -11.241264      -305.8903
  18   2.0000     -11.241216      -305.8890
  19   2.0000     -11.221706      -305.3581
  20   2.0000      -8.895277      -242.0528
  21   2.0000      -6.576844      -178.9650
  22   2.0000      -6.574851      -178.9108
  23   2.0000      -6.574256      -178.8946
  24   2.0000      -1.448570       -39.4176
  25   2.0000      -1.419007       -38.6131
  26   2.0000      -1.352119       -36.7930
  27   2.0000      -1.342147       -36.5217
  28   2.0000      -1.239969       -33.7413
  29   2.0000      -1.160130       -31.5687
  30   2.0000      -1.122180       -30.5361
  31   2.0000      -1.044805       -28.4306
  32   2.0000      -1.032638       -28.0995
  33   2.0000      -1.017778       -27.6951
  34   2.0000      -0.998258       -27.1640
  35   2.0000      -0.986272       -26.8378
  36   2.0000      -0.923618       -25.1329
  37   2.0000      -0.891786       -24.2667
  38   2.0000      -0.847952       -23.0739
  39   2.0000      -0.840590       -22.8736
  40   2.0000      -0.836780       -22.7700
  41   2.0000      -0.815186       -22.1823
  42   2.0000      -0.755559       -20.5598
  43   2.0000      -0.735742       -20.0206
  44   2.0000      -0.722716       -19.6661
  45   2.0000      -0.698070       -18.9954
  46   2.0000      -0.689572       -18.7642
  47   2.0000      -0.676336       -18.4040
  48   2.0000      -0.671052       -18.2603
  49   2.0000      -0.666024       -18.1234
  50   2.0000      -0.647204       -17.6113
  51   2.0000      -0.642751       -17.4901
  52   2.0000      -0.636719       -17.3260
  53   2.0000      -0.609666       -16.5899
  54   2.0000      -0.605559       -16.4781
  55   2.0000      -0.601222       -16.3601
  56   2.0000      -0.598529       -16.2868
  57   2.0000      -0.579311       -15.7639
  58   2.0000      -0.570314       -15.5190
  59   2.0000      -0.566783       -15.4229
  60   2.0000      -0.556628       -15.1466
  61   2.0000      -0.546948       -14.8832
  62   2.0000      -0.539872       -14.6907
  63   2.0000      -0.526453       -14.3255
  64   2.0000      -0.525243       -14.2926
  65   2.0000      -0.514339       -13.9959
  66   2.0000      -0.503028       -13.6881
  67   2.0000      -0.499709       -13.5978
  68   2.0000      -0.477610       -12.9964
  69   2.0000      -0.464320       -12.6348
  70   2.0000      -0.451919       -12.2973
  71   2.0000      -0.445841       -12.1319
  72   2.0000      -0.354169        -9.6374
  73   2.0000      -0.352766        -9.5993
  74   2.0000      -0.329444        -8.9646
  75   2.0000      -0.324528        -8.8308
  76   2.0000      -0.319775        -8.7015
  77   0.0000       0.072657         1.9771
  78   0.0000       0.102045         2.7768
  79   0.0000       0.122824         3.3422
  80   0.0000       0.130908         3.5622
  81   0.0000       0.134589         3.6624

MULLIKEN ATOMIC CHARGES
-----------------------
   0 C :   -0.311099
   1 C :    0.024867
   2 O :   -0.370692
   3 C :    0.447302
   4 O :   -0.420909
   5 C :   -0.237960
   6 C :    0.173677
   7 C :   -0.265360
   8 N :   -0.125976
   9 C :    0.209737
  10 S :   -0.439546
  11 N :   -0.214336
  12 C :    0.057385
  13 C :    0.024219
  14 C :   -0.179155
  15 C :   -0.131824
  16 C :   -0.278142
  17 C :    0.310077
  18 O :   -0.358656
  19 C :   -0.228377
  20 H :    0.107174
  21 H :    0.112786
  22 H :    0.100552
  23 H :    0.108248
  24 H :    0.120516
  25 H :    0.130609
  26 H :    0.132248
  27 H :    0.094245
  28 H :    0.200080
  29 H :    0.200915
  30 H :    0.153286
  31 H :    0.154501
  32 H :    0.162168
  33 H :    0.132007
  34 H :    0.241179
  35 H :    0.164256
Sum of atomic charges:    0.0000000

LOEWDIN ATOMIC CHARGES
----------------------
   0 C :    0.104909
   1 C :   -0.018025
   2 O :    0.297261
   3 C :   -0.419264
   4 O :    0.104609
   5 C :   -0.100217
   6 C :   -0.053472
   7 C :    0.131128
   8 N :    0.407940
   9 C :   -0.457333
  10 S :   -0.034499
  11 N :    0.395207
  12 C :   -0.054042
  13 C :   -0.039813
  14 C :    0.016818
  15 C :    0.039201
  16 C :   -0.001527
  17 C :   -0.190670
  18 O :    0.396261
  19 C :    0.035393
  20 H :   -0.026249
  21 H :   -0.026229
  22 H :   -0.028495
  23 H :   -0.024758
  24 H :   -0.028280
  25 H :   -0.004899
  26 H :   -0.004241
  27 H :   -0.023534
  28 H :   -0.056784
  29 H :   -0.064003
  30 H :   -0.012271
  31 H :   -0.027999
  32 H :   -0.020569
  33 H :   -0.034985
  34 H :   -0.153356
  35 H :   -0.023214

  Mayer bond orders larger than 0.100000
B(  0-C ,  1-C ) :   0.9585 B(  0-C , 20-H ) :   0.9725 B(  0-C , 21-H ) :   0.9782
B(  0-C , 22-H ) :   0.9744 B(  1-C ,  2-O ) :   0.8912 B(  1-C , 23-H ) :   0.9851
B(  1-C , 24-H ) :   0.9800 B(  2-O ,  3-C ) :   1.1204 B(  3-C ,  4-O ) :   1.9979
B(  3-C ,  5-C ) :   1.0680 B(  5-C ,  6-C ) :   1.6266 B(  5-C , 12-C ) :   0.9575
B(  6-C ,  7-C ) :   0.9671 B(  6-C ,  8-N ) :   1.1558 B(  7-C , 25-H ) :   0.9627
B(  7-C , 26-H ) :   0.9565 B(  7-C , 27-H ) :   0.9899 B(  8-N ,  9-C ) :   1.1853
B(  8-N , 28-H ) :   0.9465 B(  9-C , 10-S ) :   1.6086 B(  9-C , 11-N ) :   1.3096
B( 11-N , 12-C ) :   0.9645 B( 11-N , 29-H ) :   0.9485 B( 12-C , 13-C ) :   0.9608
B( 12-C , 30-H ) :   1.0037 B( 13-C , 14-C ) :   1.3546 B( 13-C , 19-C ) :   1.3750
B( 14-C , 15-C ) :   1.3914 B( 14-C , 31-H ) :   0.9714 B( 15-C , 16-C ) :   1.3552
B( 15-C , 32-H ) :   0.9713 B( 16-C , 17-C ) :   1.3346 B( 16-C , 33-H ) :   0.9850
B( 17-C , 18-O ) :   1.1060 B( 17-C , 19-C ) :   1.3627 B( 18-O , 34-H ) :   0.9793
B( 19-C , 35-H ) :   0.9599

MP2 TOTAL ENERGY:    -1274.336105880 Eh
FINAL SINGLE POINT ENERGY     -1274.336105879714

DIPOLE MOMENT
-------------
                                X             Y             Z
Electronic contribution:      8.44947      10.18845       6.05820
Nuclear contribution   :     -9.36228     -11.90702      -6.16210
                        -----------------------------------------
Total Dipole Moment    :     -0.91281      -1.71857      -0.10391
                        -----------------------------------------
Magnitude (a.u.)       :      1.94872
Magnitude (Debye)      :      4.95325

Rotational constants in cm-1:     0.012307     0.008809     0.006163
Rotational constants in MHz :   368.963562   264.095044   184.750745

                             ****ORCA TERMINATED NORMALLY****
TOTAL RUN TIME: 0 days 1 hours 43 minutes 44 seconds 729 msec
