                         Program Version 4.2.0 -  RELEASE  -
|  1> ! ri-mp2 cc-pvtz cc-pvtz/c TightSCF NoKeepInts
|  2>
|  3> %scf
|  4>   MaxCore 4096
|  5> end
|  6> *xyz  0  1
|  7>     C       14.6405766   14.4376281   16.1269035
|  8>     C       15.1836903   15.8673947   15.9726738
|  9>     O       16.5091304   15.7644133   15.4188231
| 10>     C       17.3036966   16.8656865   15.2590461
| 11>     O       18.0508939   16.9735927   14.3048060
| 12>     C       17.1931425   17.9134133   16.3193355
| 13>     C       17.1027181   19.2055349   15.9285431
| 14>     C       16.7033460   19.6831071   14.5490178
| 15>     N       17.4034874   20.2515475   16.8021531
| 16>     C       18.0440128   20.0841493   18.0013047
| 17>     S       18.4834117   21.3683740   18.9458746
| 18>     N       18.3250742   18.7909993   18.3696457
| 19>     C       17.8517489   17.5814785   17.6668095
| 20>     C       17.1061779   16.6016114   18.5598594
| 21>     C       17.4550540   15.2388143   18.5674147
| 22>     C       16.7629827   14.3300047   19.3852195
| 23>     C       15.7141021   14.7878608   20.2009355
| 24>     C       15.3666295   16.1456810   20.1972205
| 25>     O       14.3508412   16.5897493   20.9787706
| 26>     C       16.0576637   17.0487187   19.3829254
| 27>     H       15.2705728   13.8575714   16.8123373
| 28>     H       14.6211124   13.9245252   15.1572576
| 29>     H       13.6206347   14.4539157   16.5294754
| 30>     H       14.5372935   16.4373388   15.2923686
| 31>     H       15.1730257   16.3629153   16.9474528
| 32>     H       15.9543882   19.0199057   14.0990179
| 33>     H       17.5755980   19.6898133   13.8816766
| 34>     H       16.2783834   20.6939178   14.5625929
| 35>     H       17.2470511   21.2059915   16.5189763
| 36>     H       18.7922575   18.6979216   19.2631890
| 37>     H       18.8242255   17.1453829   17.3941424
| 38>     H       18.2591682   14.8805142   17.9288902
| 39>     H       17.0385712   13.2765170   19.3823580
| 40>     H       15.1759661   14.0886373   20.8327624
| 41>     H       14.0356741   15.8387719   21.5043745
| 42>     H       15.7746973   18.0966012   19.3938458
| 43> *
| 44>
| 45>                          ****END OF INPUT****

CARTESIAN COORDINATES (ANGSTROEM)
---------------------------------
  C     14.640577   14.437628   16.126904
  C     15.183690   15.867395   15.972674
  O     16.509130   15.764413   15.418823
  C     17.303697   16.865686   15.259046
  O     18.050894   16.973593   14.304806
  C     17.193142   17.913413   16.319336
  C     17.102718   19.205535   15.928543
  C     16.703346   19.683107   14.549018
  N     17.403487   20.251548   16.802153
  C     18.044013   20.084149   18.001305
  S     18.483412   21.368374   18.945875
  N     18.325074   18.790999   18.369646
  C     17.851749   17.581478   17.666809
  C     17.106178   16.601611   18.559859
  C     17.455054   15.238814   18.567415
  C     16.762983   14.330005   19.385219
  C     15.714102   14.787861   20.200935
  C     15.366630   16.145681   20.197221
  O     14.350841   16.589749   20.978771
  C     16.057664   17.048719   19.382925
  H     15.270573   13.857571   16.812337
  H     14.621112   13.924525   15.157258
  H     13.620635   14.453916   16.529475
  H     14.537293   16.437339   15.292369
  H     15.173026   16.362915   16.947453
  H     15.954388   19.019906   14.099018
  H     17.575598   19.689813   13.881677
  H     16.278383   20.693918   14.562593
  H     17.247051   21.205991   16.518976
  H     18.792257   18.697922   19.263189
  H     18.824226   17.145383   17.394142
  H     18.259168   14.880514   17.928890
  H     17.038571   13.276517   19.382358
  H     15.175966   14.088637   20.832762
  H     14.035674   15.838772   21.504375
  H     15.774697   18.096601   19.393846

 Total Charge           Charge          ....    0
 Multiplicity           Mult            ....    1
 Number of Electrons    NEL             ....  154
 Basis Dimension        Dim             ....  828

ORBITAL ENERGIES
----------------

  NO   OCC          E(Eh)            E(eV)
   0   2.0000     -91.890438     -2500.4659
   1   2.0000     -20.604440      -560.6753
   2   2.0000     -20.596957      -560.4717
   3   2.0000     -20.552679      -559.2668
   4   2.0000     -15.627227      -425.2385
   5   2.0000     -15.611221      -424.8029
   6   2.0000     -11.394986      -310.0733
   7   2.0000     -11.385835      -309.8243
   8   2.0000     -11.329483      -308.2909
   9   2.0000     -11.322916      -308.1122
  10   2.0000     -11.317088      -307.9536
  11   2.0000     -11.298870      -307.4579
  12   2.0000     -11.270327      -306.6812
  13   2.0000     -11.263900      -306.5063
  14   2.0000     -11.257237      -306.3250
  15   2.0000     -11.256636      -306.3086
  16   2.0000     -11.252465      -306.1951
  17   2.0000     -11.247453      -306.0587
  18   2.0000     -11.247411      -306.0576
  19   2.0000     -11.229165      -305.5611
  20   2.0000      -8.895508      -242.0591
  21   2.0000      -6.577080      -178.9715
  22   2.0000      -6.575080      -178.9170
  23   2.0000      -6.574490      -178.9010
  24   2.0000      -1.448161       -39.4065
  25   2.0000      -1.424218       -38.7549
  26   2.0000      -1.361278       -37.0423
  27   2.0000      -1.340306       -36.4716
  28   2.0000      -1.240165       -33.7466
  29   2.0000      -1.166337       -31.7376
  30   2.0000      -1.125335       -30.6219
  31   2.0000      -1.051070       -28.6011
  32   2.0000      -1.036696       -28.2099
  33   2.0000      -1.024581       -27.8803
  34   2.0000      -1.003045       -27.2942
  35   2.0000      -0.989393       -26.9227
  36   2.0000      -0.927223       -25.2310
  37   2.0000      -0.877419       -23.8758
  38   2.0000      -0.852696       -23.2030
  39   2.0000      -0.844480       -22.9795
  40   2.0000      -0.842836       -22.9347
  41   2.0000      -0.838314       -22.8117
  42   2.0000      -0.761418       -20.7192
  43   2.0000      -0.739696       -20.1281
  44   2.0000      -0.729012       -19.8374
  45   2.0000      -0.703010       -19.1299
  46   2.0000      -0.692587       -18.8462
  47   2.0000      -0.681481       -18.5440
  48   2.0000      -0.676279       -18.4025
  49   2.0000      -0.660117       -17.9627
  50   2.0000      -0.653544       -17.7838
  51   2.0000      -0.649447       -17.6724
  52   2.0000      -0.638627       -17.3779
  53   2.0000      -0.615098       -16.7377
  54   2.0000      -0.609272       -16.5791
  55   2.0000      -0.604212       -16.4414
  56   2.0000      -0.599882       -16.3236
  57   2.0000      -0.582874       -15.8608
  58   2.0000      -0.576730       -15.6936
  59   2.0000      -0.566123       -15.4050
  60   2.0000      -0.558737       -15.2040
  61   2.0000      -0.550177       -14.9711
  62   2.0000      -0.546939       -14.8830
  63   2.0000      -0.530845       -14.4450
  64   2.0000      -0.523351       -14.2411
  65   2.0000      -0.517538       -14.0829
  66   2.0000      -0.509228       -13.8568
  67   2.0000      -0.503797       -13.7090
  68   2.0000      -0.487785       -13.2733
  69   2.0000      -0.466267       -12.6878
  70   2.0000      -0.455974       -12.4077
  71   2.0000      -0.453375       -12.3370
  72   2.0000      -0.358137        -9.7454
  73   2.0000      -0.351713        -9.5706
  74   2.0000      -0.331272        -9.0144
  75   2.0000      -0.329062        -8.9542
  76   2.0000      -0.320284        -8.7154
  77   0.0000       0.083479         2.2716
  78   0.0000       0.096350         2.6218
  79   0.0000       0.120459         3.2778
  80   0.0000       0.124859         3.3976
  81   0.0000       0.128327         3.4919

MULLIKEN ATOMIC CHARGES
-----------------------
   0 C :   -0.265320
   1 C :    0.016436
   2 O :   -0.313669
   3 C :    0.396365
   4 O :   -0.370173
   5 C :   -0.212024
   6 C :    0.140927
   7 C :   -0.281793
   8 N :   -0.133318
   9 C :    0.212555
  10 S :   -0.439770
  11 N :   -0.218893
  12 C :    0.033454
  13 C :    0.001363
  14 C :   -0.170644
  15 C :   -0.161898
  16 C :   -0.262841
  17 C :    0.307932
  18 O :   -0.353864
  19 C :   -0.231839
  20 H :    0.098814
  21 H :    0.107185
  22 H :    0.089167
  23 H :    0.103836
  24 H :    0.108354
  25 H :    0.114496
  26 H :    0.143439
  27 H :    0.098731
  28 H :    0.198002
  29 H :    0.201664
  30 H :    0.160919
  31 H :    0.157354
  32 H :    0.171154
  33 H :    0.135639
  34 H :    0.241631
  35 H :    0.176630
Sum of atomic charges:   -0.0000000

LOEWDIN ATOMIC CHARGES
----------------------
   0 C :    0.111539
   1 C :   -0.023538
   2 O :    0.306642
   3 C :   -0.421766
   4 O :    0.128480
   5 C :   -0.097083
   6 C :   -0.080758
   7 C :    0.129464
   8 N :    0.405070
   9 C :   -0.454907
  10 S :   -0.035444
  11 N :    0.395513
  12 C :   -0.053752
  13 C :   -0.044949
  14 C :    0.020506
  15 C :    0.045823
  16 C :    0.002130
  17 C :   -0.191544
  18 O :    0.397231
  19 C :    0.030886
  20 H :   -0.027861
  21 H :   -0.025426
  22 H :   -0.025228
  23 H :   -0.035052
  24 H :   -0.038881
  25 H :   -0.010454
  26 H :   -0.003609
  27 H :   -0.020457
  28 H :   -0.057651
  29 H :   -0.063894
  30 H :   -0.009445
  31 H :   -0.025729
  32 H :   -0.018692
  33 H :   -0.033592
  34 H :   -0.152272
  35 H :   -0.021300

  Mayer bond orders larger than 0.100000
B(  0-C ,  1-C ) :   0.9824 B(  0-C , 20-H ) :   0.9748 B(  0-C , 21-H ) :   0.9784
B(  0-C , 22-H ) :   0.9769 B(  1-C ,  2-O ) :   0.8918 B(  1-C , 23-H ) :   0.9818
B(  1-C , 24-H ) :   0.9559 B(  2-O ,  3-C ) :   1.1814 B(  3-C ,  4-O ) :   2.1340
B(  3-C ,  5-C ) :   0.9232 B(  5-C ,  6-C ) :   1.7000 B(  5-C , 12-C ) :   0.9538
B(  6-C ,  7-C ) :   0.9447 B(  6-C ,  8-N ) :   1.1266 B(  7-C , 25-H ) :   0.9772
B(  7-C , 26-H ) :   0.9567 B(  7-C , 27-H ) :   0.9847 B(  8-N ,  9-C ) :   1.1980
B(  8-N , 28-H ) :   0.9493 B(  9-C , 10-S ) :   1.6133 B(  9-C , 11-N ) :   1.2872
B( 11-N , 12-C ) :   0.9803 B( 11-N , 29-H ) :   0.9462 B( 12-C , 13-C ) :   0.9633
B( 12-C , 30-H ) :   1.0035 B( 13-C , 14-C ) :   1.3739 B( 13-C , 19-C ) :   1.3477
B( 14-C , 15-C ) :   1.3910 B( 14-C , 31-H ) :   0.9696 B( 15-C , 16-C ) :   1.3565
B( 15-C , 32-H ) :   0.9686 B( 16-C , 17-C ) :   1.3318 B( 16-C , 33-H ) :   0.9829
B( 17-C , 18-O ) :   1.1118 B( 17-C , 19-C ) :   1.3635 B( 18-O , 34-H ) :   0.9786
B( 19-C , 35-H ) :   0.9572

MP2 TOTAL ENERGY:    -1274.325867770 Eh
FINAL SINGLE POINT ENERGY     -1274.325867770014

DIPOLE MOMENT
-------------
                                X             Y             Z
Electronic contribution:      9.24681      10.54937       5.97705
Nuclear contribution   :    -10.88019     -12.05670      -5.77432
                        -----------------------------------------
Total Dipole Moment    :     -1.63338      -1.50733       0.20273
                        -----------------------------------------
Magnitude (a.u.)       :      2.23183
Magnitude (Debye)      :      5.67286

Rotational constants in cm-1:     0.012451     0.008798     0.006020
Rotational constants in MHz :   373.285627   263.758293   180.464837

                             ****ORCA TERMINATED NORMALLY****
TOTAL RUN TIME: 0 days 1 hours 45 minutes 32 seconds 891 msec
