                         Program Version 4.2.0 -  RELEASE  -
|  1> ! ri-mp2 cc-pvtz cc-pvtz/c TightSCF NoKeepInts
|  2>
|  3> %scf
|  4>   MaxCore 4096
|  5> end
|  6> *xyz  0  1
|  7>     C       15.3485843   15.1313388   13.3560714
|  8>     C       14.5662467   15.6726576   14.5691630
|  9>     O       15.3123149   16.7490419   15.1677795
| 10>     C       16.3470104   16.4786856   16.0190302
| 11>     O       16.7778306   15.3498226   16.1899385
| 12>     C       16.8423863   17.6590790   16.8078795
| 13>     C       16.7820730   18.9358811   16.3432404
| 14>     C       16.0371396   19.4552082   15.1288516
| 15>     N       17.4953689   19.9586694   16.9739857
| 16>     C       18.4579450   19.7599106   17.9262862
| 17>     S       19.3423996   21.0115842   18.5481144
| 18>     N       18.6662763   18.4629112   18.3203544
| 19>     C       17.8428394   17.3066648   17.9170284
| 20>     C       17.2136317   16.5790020   19.0979164
| 21>     C       17.4295899   15.2025350   19.2903744
| 22>     C       16.8511968   14.5341315   20.3824934
| 23>     C       16.0513557   15.2488204   21.2907087
| 24>     C       15.8331549   16.6203020   21.1002005
| 25>     O       15.0583200   17.3119337   21.9735112
| 26>     C       16.4098585   17.2826372   20.0117815
| 27>     H       15.5648985   15.9363802   12.6431539
| 28>     H       14.7642757   14.3618720   12.8372211
| 29>     H       16.2985330   14.6794762   13.6677350
| 30>     H       13.5966969   16.0538275   14.2239175
| 31>     H       14.3777657   14.8716895   15.2974735
| 32>     H       14.9558590   19.3107397   15.2465505
| 33>     H       16.3537464   18.9261564   14.2212724
| 34>     H       16.2040438   20.5245474   14.9509501
| 35>     H       17.3688782   20.9137762   16.6797834
| 36>     H       19.3659849   18.3452777   19.0422345
| 37>     H       18.6094979   16.6789988   17.4398150
| 38>     H       18.0356263   14.6464188   18.5790145
| 39>     H       17.0196674   13.4672451   20.5171917
| 40>     H       15.6014979   14.7362182   22.1343584
| 41>     H       14.7719357   16.6915282   22.6603787
| 42>     H       16.2325704   18.3450314   19.8822405
| 43> *
| 44>
| 45>                          ****END OF INPUT****

CARTESIAN COORDINATES (ANGSTROEM)
---------------------------------
  C     15.348584   15.131339   13.356071
  C     14.566247   15.672658   14.569163
  O     15.312315   16.749042   15.167779
  C     16.347010   16.478686   16.019030
  O     16.777831   15.349823   16.189939
  C     16.842386   17.659079   16.807879
  C     16.782073   18.935881   16.343240
  C     16.037140   19.455208   15.128852
  N     17.495369   19.958669   16.973986
  C     18.457945   19.759911   17.926286
  S     19.342400   21.011584   18.548114
  N     18.666276   18.462911   18.320354
  C     17.842839   17.306665   17.917028
  C     17.213632   16.579002   19.097916
  C     17.429590   15.202535   19.290374
  C     16.851197   14.534132   20.382493
  C     16.051356   15.248820   21.290709
  C     15.833155   16.620302   21.100200
  O     15.058320   17.311934   21.973511
  C     16.409858   17.282637   20.011781
  H     15.564898   15.936380   12.643154
  H     14.764276   14.361872   12.837221
  H     16.298533   14.679476   13.667735
  H     13.596697   16.053828   14.223918
  H     14.377766   14.871690   15.297474
  H     14.955859   19.310740   15.246550
  H     16.353746   18.926156   14.221272
  H     16.204044   20.524547   14.950950
  H     17.368878   20.913776   16.679783
  H     19.365985   18.345278   19.042234
  H     18.609498   16.678999   17.439815
  H     18.035626   14.646419   18.579014
  H     17.019667   13.467245   20.517192
  H     15.601498   14.736218   22.134358
  H     14.771936   16.691528   22.660379
  H     16.232570   18.345031   19.882241

 Total Charge           Charge          ....    0
 Multiplicity           Mult            ....    1
 Number of Electrons    NEL             ....  154
 Basis Dimension        Dim             ....  828

ORBITAL ENERGIES
----------------

  NO   OCC          E(Eh)            E(eV)
   0   2.0000     -91.887741     -2500.3926
   1   2.0000     -20.604069      -560.6652
   2   2.0000     -20.591040      -560.3107
   3   2.0000     -20.545794      -559.0795
   4   2.0000     -15.628214      -425.2653
   5   2.0000     -15.605439      -424.6456
   6   2.0000     -11.397108      -310.1311
   7   2.0000     -11.382249      -309.7267
   8   2.0000     -11.337934      -308.5209
   9   2.0000     -11.307039      -307.6802
  10   2.0000     -11.304028      -307.5983
  11   2.0000     -11.301527      -307.5302
  12   2.0000     -11.261172      -306.4321
  13   2.0000     -11.258877      -306.3696
  14   2.0000     -11.254383      -306.2473
  15   2.0000     -11.247159      -306.0508
  16   2.0000     -11.237354      -305.7840
  17   2.0000     -11.233463      -305.6781
  18   2.0000     -11.230286      -305.5916
  19   2.0000     -11.226657      -305.4929
  20   2.0000      -8.892827      -241.9861
  21   2.0000      -6.574405      -178.8987
  22   2.0000      -6.572402      -178.8441
  23   2.0000      -6.571815      -178.8282
  24   2.0000      -1.454119       -39.5686
  25   2.0000      -1.410783       -38.3894
  26   2.0000      -1.357832       -36.9485
  27   2.0000      -1.339643       -36.4535
  28   2.0000      -1.236795       -33.6549
  29   2.0000      -1.151787       -31.3417
  30   2.0000      -1.120484       -30.4899
  31   2.0000      -1.042468       -28.3670
  32   2.0000      -1.034585       -28.1525
  33   2.0000      -1.009246       -27.4630
  34   2.0000      -0.998021       -27.1575
  35   2.0000      -0.983068       -26.7507
  36   2.0000      -0.920522       -25.0487
  37   2.0000      -0.893187       -24.3049
  38   2.0000      -0.847464       -23.0607
  39   2.0000      -0.834601       -22.7106
  40   2.0000      -0.827386       -22.5143
  41   2.0000      -0.817788       -22.2531
  42   2.0000      -0.755054       -20.5461
  43   2.0000      -0.734755       -19.9937
  44   2.0000      -0.725651       -19.7460
  45   2.0000      -0.690238       -18.7823
  46   2.0000      -0.685466       -18.6525
  47   2.0000      -0.680065       -18.5055
  48   2.0000      -0.670661       -18.2496
  49   2.0000      -0.658963       -17.9313
  50   2.0000      -0.646534       -17.5931
  51   2.0000      -0.639745       -17.4083
  52   2.0000      -0.630240       -17.1497
  53   2.0000      -0.611193       -16.6314
  54   2.0000      -0.602143       -16.3851
  55   2.0000      -0.597581       -16.2610
  56   2.0000      -0.594204       -16.1691
  57   2.0000      -0.585485       -15.9319
  58   2.0000      -0.572336       -15.5741
  59   2.0000      -0.565999       -15.4016
  60   2.0000      -0.560521       -15.2525
  61   2.0000      -0.546930       -14.8827
  62   2.0000      -0.536377       -14.5956
  63   2.0000      -0.526921       -14.3383
  64   2.0000      -0.515023       -14.0145
  65   2.0000      -0.509484       -13.8638
  66   2.0000      -0.500187       -13.6108
  67   2.0000      -0.493666       -13.4333
  68   2.0000      -0.480340       -13.0707
  69   2.0000      -0.464594       -12.6422
  70   2.0000      -0.455665       -12.3993
  71   2.0000      -0.453901       -12.3513
  72   2.0000      -0.352912        -9.6032
  73   2.0000      -0.343914        -9.3584
  74   2.0000      -0.326823        -8.8933
  75   2.0000      -0.316902        -8.6233
  76   2.0000      -0.313683        -8.5358
  77   0.0000       0.077939         2.1208
  78   0.0000       0.112407         3.0588
  79   0.0000       0.121269         3.2999
  80   0.0000       0.136365         3.7107
  81   0.0000       0.140814         3.8317

MULLIKEN ATOMIC CHARGES
-----------------------
   0 C :   -0.294876
   1 C :    0.032807
   2 O :   -0.344069
   3 C :    0.418467
   4 O :   -0.430199
   5 C :   -0.167757
   6 C :    0.166712
   7 C :   -0.281991
   8 N :   -0.129198
   9 C :    0.207579
  10 S :   -0.442926
  11 N :   -0.210673
  12 C :    0.040706
  13 C :    0.031231
  14 C :   -0.165786
  15 C :   -0.134353
  16 C :   -0.276812
  17 C :    0.314538
  18 O :   -0.359065
  19 C :   -0.250273
  20 H :    0.089580
  21 H :    0.096292
  22 H :    0.119036
  23 H :    0.107827
  24 H :    0.103838
  25 H :    0.131168
  26 H :    0.123993
  27 H :    0.101723
  28 H :    0.198845
  29 H :    0.199957
  30 H :    0.154963
  31 H :    0.158236
  32 H :    0.159575
  33 H :    0.127979
  34 H :    0.239804
  35 H :    0.163123
Sum of atomic charges:   -0.0000000

LOEWDIN ATOMIC CHARGES
----------------------
   0 C :    0.104153
   1 C :   -0.015992
   2 O :    0.305425
   3 C :   -0.413326
   4 O :    0.103649
   5 C :   -0.090168
   6 C :   -0.064131
   7 C :    0.124762
   8 N :    0.405356
   9 C :   -0.458776
  10 S :   -0.038006
  11 N :    0.396530
  12 C :   -0.048190
  13 C :   -0.040443
  14 C :    0.024833
  15 C :    0.040876
  16 C :   -0.001055
  17 C :   -0.192307
  18 O :    0.393111
  19 C :    0.030015
  20 H :   -0.031375
  21 H :   -0.026933
  22 H :   -0.024580
  23 H :   -0.025689
  24 H :   -0.026339
  25 H :   -0.008876
  26 H :   -0.010325
  27 H :   -0.021306
  28 H :   -0.058821
  29 H :   -0.063050
  30 H :   -0.008570
  31 H :   -0.024227
  32 H :   -0.021186
  33 H :   -0.036222
  34 H :   -0.154958
  35 H :   -0.023857

  Mayer bond orders larger than 0.100000
B(  0-C ,  1-C ) :   0.9640 B(  0-C , 20-H ) :   0.9776 B(  0-C , 21-H ) :   0.9766
B(  0-C , 22-H ) :   0.9736 B(  1-C ,  2-O ) :   0.9014 B(  1-C , 23-H ) :   0.9849
B(  1-C , 24-H ) :   0.9762 B(  2-O ,  3-C ) :   1.1478 B(  3-C ,  4-O ) :   1.9570
B(  3-C ,  5-C ) :   1.0638 B(  5-C ,  6-C ) :   1.6531 B(  5-C , 12-C ) :   0.9486
B(  6-C ,  7-C ) :   0.9533 B(  6-C ,  8-N ) :   1.1346 B(  7-C , 25-H ) :   0.9631
B(  7-C , 26-H ) :   0.9657 B(  7-C , 27-H ) :   0.9913 B(  8-N ,  9-C ) :   1.1858
B(  8-N , 28-H ) :   0.9468 B(  9-C , 10-S ) :   1.6075 B(  9-C , 11-N ) :   1.3064
B( 11-N , 12-C ) :   0.9764 B( 11-N , 29-H ) :   0.9484 B( 12-C , 13-C ) :   0.9751
B( 12-C , 30-H ) :   0.9974 B( 13-C , 14-C ) :   1.3750 B( 13-C , 19-C ) :   1.3676
B( 14-C , 15-C ) :   1.3971 B( 14-C , 31-H ) :   0.9642 B( 15-C , 16-C ) :   1.3587
B( 15-C , 32-H ) :   0.9713 B( 16-C , 17-C ) :   1.3333 B( 16-C , 33-H ) :   0.9861
B( 17-C , 18-O ) :   1.1031 B( 17-C , 19-C ) :   1.3675 B( 18-O , 34-H ) :   0.9808
B( 19-C , 35-H ) :   0.9601

MP2 TOTAL ENERGY:    -1274.341310407 Eh
FINAL SINGLE POINT ENERGY     -1274.341310406783

DIPOLE MOMENT
-------------
                                X             Y             Z
Electronic contribution:      8.48132       9.25573      13.10434
Nuclear contribution   :    -10.07933     -10.40213     -14.10358
                        -----------------------------------------
Total Dipole Moment    :     -1.59801      -1.14639      -0.99924
                        -----------------------------------------
Magnitude (a.u.)       :      2.20598
Magnitude (Debye)      :      5.60715

Rotational constants in cm-1:     0.010049     0.008763     0.005440
Rotational constants in MHz :   301.248129   262.695282   163.099366

                             ****ORCA TERMINATED NORMALLY****
TOTAL RUN TIME: 0 days 1 hours 34 minutes 57 seconds 82 msec
