                         Program Version 4.2.0 -  RELEASE  -
|  1> ! ri-mp2 cc-pvtz cc-pvtz/c TightSCF NoKeepInts
|  2>
|  3> %scf
|  4>   MaxCore 4096
|  5> end
|  6> *xyz  0  1
|  7>     C       14.4466454   15.2215592   15.8196783
|  8>     C       15.8829198   14.7922368   15.4414417
|  9>     O       16.8442879   15.8632449   15.5789805
| 10>     C       16.5212920   17.1754282   15.3728115
| 11>     O       15.8591113   17.5309428   14.4132043
| 12>     C       17.0255227   18.0791733   16.4652778
| 13>     C       17.0557096   19.4260383   16.2980795
| 14>     C       16.4038961   20.2247462   15.1884066
| 15>     N       17.7496123   20.2462763   17.1905923
| 16>     C       18.5859825   19.7886046   18.1726367
| 17>     S       19.4467186   20.8176406   19.1400778
| 18>     N       18.6898278   18.4266195   18.3014114
| 19>     C       17.8903833   17.4329477   17.5602382
| 20>     C       17.1201582   16.4950418   18.4806659
| 21>     C       17.5260232   15.1574053   18.6411834
| 22>     C       16.8061809   14.2891334   19.4790525
| 23>     C       15.6740584   14.7638128   20.1634640
| 24>     C       15.2719141   16.0978767   20.0097575
| 25>     O       14.1787958   16.5584487   20.6682176
| 26>     C       15.9902148   16.9594960   19.1749541
| 27>     H       14.4298221   15.7060474   16.8040747
| 28>     H       13.7918419   14.3432410   15.8664243
| 29>     H       14.0195800   15.9088484   15.0792701
| 30>     H       16.1931458   13.9494344   16.0723973
| 31>     H       15.8775517   14.4452562   14.3998085
| 32>     H       16.8551601   19.9789984   14.2186083
| 33>     H       16.4911911   21.3084613   15.3293436
| 34>     H       15.3340567   19.9889809   15.1206168
| 35>     H       17.6992268   21.2477485   17.0929367
| 36>     H       19.2898797   18.1198523   19.0565285
| 37>     H       18.6862759   16.8898158   17.0310147
| 38>     H       18.3976819   14.7884293   18.1070547
| 39>     H       17.1260091   13.2551270   19.5964233
| 40>     H       15.1148526   14.0972367   20.8118475
| 41>     H       13.8444951   15.8359477   21.2207160
| 42>     H       15.6669748   17.9899016   19.0708035
| 43> *
| 44>
| 45>                          ****END OF INPUT****

CARTESIAN COORDINATES (ANGSTROEM)
---------------------------------
  C     14.446645   15.221559   15.819678
  C     15.882920   14.792237   15.441442
  O     16.844288   15.863245   15.578980
  C     16.521292   17.175428   15.372811
  O     15.859111   17.530943   14.413204
  C     17.025523   18.079173   16.465278
  C     17.055710   19.426038   16.298080
  C     16.403896   20.224746   15.188407
  N     17.749612   20.246276   17.190592
  C     18.585983   19.788605   18.172637
  S     19.446719   20.817641   19.140078
  N     18.689828   18.426620   18.301411
  C     17.890383   17.432948   17.560238
  C     17.120158   16.495042   18.480666
  C     17.526023   15.157405   18.641183
  C     16.806181   14.289133   19.479052
  C     15.674058   14.763813   20.163464
  C     15.271914   16.097877   20.009757
  O     14.178796   16.558449   20.668218
  C     15.990215   16.959496   19.174954
  H     14.429822   15.706047   16.804075
  H     13.791842   14.343241   15.866424
  H     14.019580   15.908848   15.079270
  H     16.193146   13.949434   16.072397
  H     15.877552   14.445256   14.399809
  H     16.855160   19.978998   14.218608
  H     16.491191   21.308461   15.329344
  H     15.334057   19.988981   15.120617
  H     17.699227   21.247749   17.092937
  H     19.289880   18.119852   19.056528
  H     18.686276   16.889816   17.031015
  H     18.397682   14.788429   18.107055
  H     17.126009   13.255127   19.596423
  H     15.114853   14.097237   20.811847
  H     13.844495   15.835948   21.220716
  H     15.666975   17.989902   19.070803

 Total Charge           Charge          ....    0
 Multiplicity           Mult            ....    1
 Number of Electrons    NEL             ....  154
 Basis Dimension        Dim             ....  828

ORBITAL ENERGIES
----------------

  NO   OCC          E(Eh)            E(eV)
   0   2.0000     -91.889490     -2500.4401
   1   2.0000     -20.599575      -560.5429
   2   2.0000     -20.588952      -560.2539
   3   2.0000     -20.541860      -558.9724
   4   2.0000     -15.629893      -425.3110
   5   2.0000     -15.607652      -424.7058
   6   2.0000     -11.393776      -310.0404
   7   2.0000     -11.384219      -309.7803
   8   2.0000     -11.337715      -308.5149
   9   2.0000     -11.317024      -307.9519
  10   2.0000     -11.308128      -307.7098
  11   2.0000     -11.299203      -307.4670
  12   2.0000     -11.263631      -306.4990
  13   2.0000     -11.258660      -306.3637
  14   2.0000     -11.258316      -306.3544
  15   2.0000     -11.252085      -306.1848
  16   2.0000     -11.246880      -306.0432
  17   2.0000     -11.241769      -305.9041
  18   2.0000     -11.241725      -305.9029
  19   2.0000     -11.223365      -305.4033
  20   2.0000      -8.894555      -242.0331
  21   2.0000      -6.576125      -178.9455
  22   2.0000      -6.574129      -178.8911
  23   2.0000      -6.573537      -178.8750
  24   2.0000      -1.444541       -39.3080
  25   2.0000      -1.419291       -38.6209
  26   2.0000      -1.351098       -36.7652
  27   2.0000      -1.340871       -36.4870
  28   2.0000      -1.238879       -33.7116
  29   2.0000      -1.160507       -31.5790
  30   2.0000      -1.121688       -30.5227
  31   2.0000      -1.044863       -28.4322
  32   2.0000      -1.032759       -28.1028
  33   2.0000      -1.018279       -27.7088
  34   2.0000      -0.997277       -27.1373
  35   2.0000      -0.985632       -26.8204
  36   2.0000      -0.923116       -25.1193
  37   2.0000      -0.896861       -24.4048
  38   2.0000      -0.847608       -23.0646
  39   2.0000      -0.840572       -22.8731
  40   2.0000      -0.837196       -22.7813
  41   2.0000      -0.817017       -22.2322
  42   2.0000      -0.745891       -20.2967
  43   2.0000      -0.735061       -20.0020
  44   2.0000      -0.721554       -19.6345
  45   2.0000      -0.698101       -18.9963
  46   2.0000      -0.689442       -18.7607
  47   2.0000      -0.674916       -18.3654
  48   2.0000      -0.672421       -18.2975
  49   2.0000      -0.659439       -17.9442
  50   2.0000      -0.649133       -17.6638
  51   2.0000      -0.640526       -17.4296
  52   2.0000      -0.635468       -17.2920
  53   2.0000      -0.621067       -16.9001
  54   2.0000      -0.609733       -16.5917
  55   2.0000      -0.602737       -16.4013
  56   2.0000      -0.600983       -16.3536
  57   2.0000      -0.579610       -15.7720
  58   2.0000      -0.570608       -15.5270
  59   2.0000      -0.566186       -15.4067
  60   2.0000      -0.550935       -14.9917
  61   2.0000      -0.544519       -14.8171
  62   2.0000      -0.534637       -14.5482
  63   2.0000      -0.526405       -14.3242
  64   2.0000      -0.524883       -14.2828
  65   2.0000      -0.514070       -13.9885
  66   2.0000      -0.501002       -13.6329
  67   2.0000      -0.497375       -13.5343
  68   2.0000      -0.485032       -13.1984
  69   2.0000      -0.463834       -12.6216
  70   2.0000      -0.454183       -12.3590
  71   2.0000      -0.442670       -12.0457
  72   2.0000      -0.353912        -9.6304
  73   2.0000      -0.352029        -9.5792
  74   2.0000      -0.328968        -8.9517
  75   2.0000      -0.324501        -8.8301
  76   2.0000      -0.318778        -8.6744
  77   0.0000       0.074492         2.0270
  78   0.0000       0.101204         2.7539
  79   0.0000       0.123828         3.3695
  80   0.0000       0.131045         3.5659
  81   0.0000       0.135003         3.6736

MULLIKEN ATOMIC CHARGES
-----------------------
   0 C :   -0.325688
   1 C :    0.037364
   2 O :   -0.378928
   3 C :    0.478905
   4 O :   -0.431915
   5 C :   -0.264225
   6 C :    0.176680
   7 C :   -0.267996
   8 N :   -0.125437
   9 C :    0.211774
  10 S :   -0.441135
  11 N :   -0.216665
  12 C :    0.074346
  13 C :    0.032784
  14 C :   -0.184740
  15 C :   -0.130708
  16 C :   -0.275054
  17 C :    0.322616
  18 O :   -0.358884
  19 C :   -0.263431
  20 H :    0.106420
  21 H :    0.101892
  22 H :    0.125176
  23 H :    0.108343
  24 H :    0.116433
  25 H :    0.130471
  26 H :    0.094833
  27 H :    0.133158
  28 H :    0.199561
  29 H :    0.200460
  30 H :    0.152869
  31 H :    0.157611
  32 H :    0.163895
  33 H :    0.132389
  34 H :    0.241063
  35 H :    0.165763
Sum of atomic charges:    0.0000000

LOEWDIN ATOMIC CHARGES
----------------------
   0 C :    0.105232
   1 C :   -0.013429
   2 O :    0.294331
   3 C :   -0.417448
   4 O :    0.103769
   5 C :   -0.098168
   6 C :   -0.055899
   7 C :    0.131647
   8 N :    0.407397
   9 C :   -0.455907
  10 S :   -0.035962
  11 N :    0.394411
  12 C :   -0.054183
  13 C :   -0.039833
  14 C :    0.018777
  15 C :    0.039349
  16 C :   -0.000867
  17 C :   -0.190654
  18 O :    0.395937
  19 C :    0.032805
  20 H :   -0.028020
  21 H :   -0.025359
  22 H :   -0.025742
  23 H :   -0.026750
  24 H :   -0.028691
  25 H :   -0.004424
  26 H :   -0.023587
  27 H :   -0.004484
  28 H :   -0.057048
  29 H :   -0.064642
  30 H :   -0.012667
  31 H :   -0.028084
  32 H :   -0.020750
  33 H :   -0.034890
  34 H :   -0.153342
  35 H :   -0.022827

  Mayer bond orders larger than 0.100000
B(  0-C ,  1-C ) :   0.9561 B(  0-C , 20-H ) :   0.9703 B(  0-C , 21-H ) :   0.9775
B(  0-C , 22-H ) :   0.9729 B(  1-C ,  2-O ) :   0.8911 B(  1-C , 23-H ) :   0.9791
B(  1-C , 24-H ) :   0.9864 B(  2-O ,  3-C ) :   1.1244 B(  3-C ,  4-O ) :   1.9781
B(  3-C ,  5-C ) :   1.0648 B(  5-C ,  6-C ) :   1.6342 B(  5-C , 12-C ) :   0.9534
B(  6-C ,  7-C ) :   0.9646 B(  6-C ,  8-N ) :   1.1590 B(  7-C , 25-H ) :   0.9587
B(  7-C , 26-H ) :   0.9899 B(  7-C , 27-H ) :   0.9616 B(  8-N ,  9-C ) :   1.1858
B(  8-N , 28-H ) :   0.9465 B(  9-C , 10-S ) :   1.6064 B(  9-C , 11-N ) :   1.3094
B( 11-N , 12-C ) :   0.9689 B( 11-N , 29-H ) :   0.9487 B( 12-C , 13-C ) :   0.9608
B( 12-C , 30-H ) :   0.9999 B( 13-C , 14-C ) :   1.3509 B( 13-C , 19-C ) :   1.3759
B( 14-C , 15-C ) :   1.3882 B( 14-C , 31-H ) :   0.9708 B( 15-C , 16-C ) :   1.3606
B( 15-C , 32-H ) :   0.9699 B( 16-C , 17-C ) :   1.3331 B( 16-C , 33-H ) :   0.9841
B( 17-C , 18-O ) :   1.1041 B( 17-C , 19-C ) :   1.3597 B( 18-O , 34-H ) :   0.9794
B( 19-C , 35-H ) :   0.9606

MP2 TOTAL ENERGY:    -1274.335503488 Eh
FINAL SINGLE POINT ENERGY     -1274.335503487665

DIPOLE MOMENT
-------------
                                X             Y             Z
Electronic contribution:      9.60747       9.54865       6.81873
Nuclear contribution   :    -10.62308     -11.28046      -6.94016
                        -----------------------------------------
Total Dipole Moment    :     -1.01561      -1.73181      -0.12143
                        -----------------------------------------
Magnitude (a.u.)       :      2.01131
Magnitude (Debye)      :      5.11235

Rotational constants in cm-1:     0.012422     0.008614     0.006178
Rotational constants in MHz :   372.399261   258.233209   185.201782

                             ****ORCA TERMINATED NORMALLY****
TOTAL RUN TIME: 0 days 2 hours 3 minutes 29 seconds 537 msec
