                         Program Version 4.2.0 -  RELEASE  -
|  1> ! ri-mp2 cc-pvtz cc-pvtz/c TightSCF NoKeepInts
|  2>
|  3> %scf
|  4>   MaxCore 4096
|  5> end
|  6> *xyz  0  1
|  7>     C       15.2330916   14.8587735   13.9137474
|  8>     C       14.9889888   15.1611737   15.4039546
|  9>     O       16.0182219   16.0555500   15.8614283
| 10>     C       15.8244745   17.4073090   15.7908900
| 11>     O       14.9905279   17.9062066   15.0540536
| 12>     C       16.6843861   18.1668612   16.7656970
| 13>     C       16.8273285   19.5134292   16.6627562
| 14>     C       16.0101146   20.4590229   15.8067110
| 15>     N       17.8190606   20.1889344   17.3777103
| 16>     C       18.8291095   19.5758625   18.0682320
| 17>     S       20.0290525   20.4364494   18.8133990
| 18>     N       18.8073859   18.2044448   18.0921576
| 19>     C       17.7268444   17.3560743   17.5546523
| 20>     C       17.1301443   16.4310226   18.6074992
| 21>     C       17.3552936   15.0430962   18.5532163
| 22>     C       16.8048886   14.1924162   19.5267060
| 23>     C       16.0264102   14.7349205   20.5636560
| 24>     C       15.8045608   16.1179237   20.6218053
| 25>     O       15.0545827   16.6443226   21.6225415
| 26>     C       16.3534352   16.9618790   19.6512473
| 27>     H       15.1425219   15.7716278   13.3114705
| 28>     H       14.4981151   14.1337389   13.5439374
| 29>     H       16.2357780   14.4408658   13.7614894
| 30>     H       13.9888700   15.5893389   15.5585428
| 31>     H       15.0489959   14.2230932   15.9706124
| 32>     H       14.9383707   20.3314056   16.0063136
| 33>     H       16.1717224   20.2537974   14.7407948
| 34>     H       16.2505151   21.5143715   15.9811026
| 35>     H       17.8590909   21.1952060   17.3495135
| 36>     H       19.5476295   17.7810820   18.6373490
| 37>     H       18.2866426   16.7798328   16.8043270
| 38>     H       17.9527674   14.6227590   17.7485805
| 39>     H       16.9822475   13.1195616   19.4760523
| 40>     H       15.5997129   14.0822514   21.3181333
| 41>     H       14.7891472   15.9149676   22.2025347
| 42>     H       16.1769706   18.0304284   19.7151852
| 43> *
| 44>
| 45>                          ****END OF INPUT****

CARTESIAN COORDINATES (ANGSTROEM)
---------------------------------
  C     15.233092   14.858773   13.913747
  C     14.988989   15.161174   15.403955
  O     16.018222   16.055550   15.861428
  C     15.824474   17.407309   15.790890
  O     14.990528   17.906207   15.054054
  C     16.684386   18.166861   16.765697
  C     16.827329   19.513429   16.662756
  C     16.010115   20.459023   15.806711
  N     17.819061   20.188934   17.377710
  C     18.829110   19.575862   18.068232
  S     20.029052   20.436449   18.813399
  N     18.807386   18.204445   18.092158
  C     17.726844   17.356074   17.554652
  C     17.130144   16.431023   18.607499
  C     17.355294   15.043096   18.553216
  C     16.804889   14.192416   19.526706
  C     16.026410   14.734920   20.563656
  C     15.804561   16.117924   20.621805
  O     15.054583   16.644323   21.622541
  C     16.353435   16.961879   19.651247
  H     15.142522   15.771628   13.311470
  H     14.498115   14.133739   13.543937
  H     16.235778   14.440866   13.761489
  H     13.988870   15.589339   15.558543
  H     15.048996   14.223093   15.970612
  H     14.938371   20.331406   16.006314
  H     16.171722   20.253797   14.740795
  H     16.250515   21.514371   15.981103
  H     17.859091   21.195206   17.349513
  H     19.547629   17.781082   18.637349
  H     18.286643   16.779833   16.804327
  H     17.952767   14.622759   17.748580
  H     16.982247   13.119562   19.476052
  H     15.599713   14.082251   21.318133
  H     14.789147   15.914968   22.202535
  H     16.176971   18.030428   19.715185

 Total Charge           Charge          ....    0
 Multiplicity           Mult            ....    1
 Number of Electrons    NEL             ....  154
 Basis Dimension        Dim             ....  828

ORBITAL ENERGIES
----------------

  NO   OCC          E(Eh)            E(eV)
   0   2.0000     -91.889027     -2500.4276
   1   2.0000     -20.599164      -560.5318
   2   2.0000     -20.596284      -560.4534
   3   2.0000     -20.542391      -558.9869
   4   2.0000     -15.629468      -425.2994
   5   2.0000     -15.607090      -424.6905
   6   2.0000     -11.395552      -310.0887
   7   2.0000     -11.383655      -309.7650
   8   2.0000     -11.337705      -308.5146
   9   2.0000     -11.313428      -307.8540
  10   2.0000     -11.307595      -307.6953
  11   2.0000     -11.297030      -307.4078
  12   2.0000     -11.260587      -306.4161
  13   2.0000     -11.259241      -306.3795
  14   2.0000     -11.254914      -306.2618
  15   2.0000     -11.251978      -306.1819
  16   2.0000     -11.243299      -305.9457
  17   2.0000     -11.238685      -305.8202
  18   2.0000     -11.238483      -305.8147
  19   2.0000     -11.223004      -305.3935
  20   2.0000      -8.894095      -242.0206
  21   2.0000      -6.575666      -178.9330
  22   2.0000      -6.573669      -178.8786
  23   2.0000      -6.573078      -178.8625
  24   2.0000      -1.451344       -39.4931
  25   2.0000      -1.415943       -38.5298
  26   2.0000      -1.354748       -36.8646
  27   2.0000      -1.340578       -36.4790
  28   2.0000      -1.238387       -33.6982
  29   2.0000      -1.157367       -31.4936
  30   2.0000      -1.121243       -30.5106
  31   2.0000      -1.042769       -28.3752
  32   2.0000      -1.036500       -28.2046
  33   2.0000      -1.014723       -27.6120
  34   2.0000      -0.995948       -27.1011
  35   2.0000      -0.984396       -26.7868
  36   2.0000      -0.921849       -25.0848
  37   2.0000      -0.890912       -24.2429
  38   2.0000      -0.846797       -23.0425
  39   2.0000      -0.837884       -22.8000
  40   2.0000      -0.833942       -22.6927
  41   2.0000      -0.818899       -22.2834
  42   2.0000      -0.759132       -20.6570
  43   2.0000      -0.733216       -19.9518
  44   2.0000      -0.722452       -19.6589
  45   2.0000      -0.695219       -18.9179
  46   2.0000      -0.688613       -18.7381
  47   2.0000      -0.680010       -18.5040
  48   2.0000      -0.671499       -18.2724
  49   2.0000      -0.651788       -17.7360
  50   2.0000      -0.647416       -17.6171
  51   2.0000      -0.642802       -17.4915
  52   2.0000      -0.630055       -17.1447
  53   2.0000      -0.611540       -16.6408
  54   2.0000      -0.606162       -16.4945
  55   2.0000      -0.600058       -16.3284
  56   2.0000      -0.598833       -16.2951
  57   2.0000      -0.579047       -15.7567
  58   2.0000      -0.572097       -15.5675
  59   2.0000      -0.569473       -15.4961
  60   2.0000      -0.563534       -15.3345
  61   2.0000      -0.540859       -14.7175
  62   2.0000      -0.535446       -14.5702
  63   2.0000      -0.524610       -14.2754
  64   2.0000      -0.523487       -14.2448
  65   2.0000      -0.513192       -13.9647
  66   2.0000      -0.500318       -13.6144
  67   2.0000      -0.496869       -13.5205
  68   2.0000      -0.485658       -13.2154
  69   2.0000      -0.463452       -12.6112
  70   2.0000      -0.454548       -12.3689
  71   2.0000      -0.447422       -12.1750
  72   2.0000      -0.353186        -9.6107
  73   2.0000      -0.349555        -9.5119
  74   2.0000      -0.328143        -8.9292
  75   2.0000      -0.320880        -8.7316
  76   2.0000      -0.318200        -8.6587
  77   0.0000       0.076504         2.0818
  78   0.0000       0.105229         2.8634
  79   0.0000       0.124817         3.3965
  80   0.0000       0.132832         3.6145
  81   0.0000       0.136617         3.7176

MULLIKEN ATOMIC CHARGES
-----------------------
   0 C :   -0.281807
   1 C :    0.035907
   2 O :   -0.349430
   3 C :    0.432226
   4 O :   -0.437047
   5 C :   -0.214495
   6 C :    0.173982
   7 C :   -0.268899
   8 N :   -0.126020
   9 C :    0.209864
  10 S :   -0.441524
  11 N :   -0.215045
  12 C :    0.059216
  13 C :    0.043537
  14 C :   -0.179002
  15 C :   -0.134320
  16 C :   -0.276188
  17 C :    0.316613
  18 O :   -0.356922
  19 C :   -0.248438
  20 H :    0.113128
  21 H :    0.092024
  22 H :    0.090468
  23 H :    0.098446
  24 H :    0.107538
  25 H :    0.133843
  26 H :    0.128708
  27 H :    0.094890
  28 H :    0.199867
  29 H :    0.200488
  30 H :    0.153244
  31 H :    0.151510
  32 H :    0.160782
  33 H :    0.129867
  34 H :    0.240520
  35 H :    0.162467
Sum of atomic charges:   -0.0000000

LOEWDIN ATOMIC CHARGES
----------------------
   0 C :    0.104430
   1 C :   -0.016052
   2 O :    0.308949
   3 C :   -0.414267
   4 O :    0.096470
   5 C :   -0.095014
   6 C :   -0.055976
   7 C :    0.131187
   8 N :    0.407248
   9 C :   -0.456667
  10 S :   -0.036216
  11 N :    0.394696
  12 C :   -0.054658
  13 C :   -0.039439
  14 C :    0.017205
  15 C :    0.038568
  16 C :   -0.000746
  17 C :   -0.189668
  18 O :    0.394970
  19 C :    0.033100
  20 H :   -0.024572
  21 H :   -0.028093
  22 H :   -0.030155
  23 H :   -0.027742
  24 H :   -0.026594
  25 H :   -0.004244
  26 H :   -0.005132
  27 H :   -0.023580
  28 H :   -0.057134
  29 H :   -0.064284
  30 H :   -0.013655
  31 H :   -0.029163
  32 H :   -0.021457
  33 H :   -0.035497
  34 H :   -0.154011
  35 H :   -0.022807

  Mayer bond orders larger than 0.100000
B(  0-C ,  1-C ) :   0.9701 B(  0-C , 20-H ) :   0.9755 B(  0-C , 21-H ) :   0.9767
B(  0-C , 22-H ) :   0.9775 B(  1-C ,  2-O ) :   0.8948 B(  1-C , 23-H ) :   0.9747
B(  1-C , 24-H ) :   0.9819 B(  2-O ,  3-C ) :   1.1555 B(  3-C ,  4-O ) :   1.9492
B(  3-C ,  5-C ) :   1.0793 B(  5-C ,  6-C ) :   1.6365 B(  5-C , 12-C ) :   0.9555
B(  6-C ,  7-C ) :   0.9656 B(  6-C ,  8-N ) :   1.1526 B(  7-C , 25-H ) :   0.9611
B(  7-C , 26-H ) :   0.9587 B(  7-C , 27-H ) :   0.9908 B(  8-N ,  9-C ) :   1.1873
B(  8-N , 28-H ) :   0.9463 B(  9-C , 10-S ) :   1.6066 B(  9-C , 11-N ) :   1.3092
B( 11-N , 12-C ) :   0.9676 B( 11-N , 29-H ) :   0.9483 B( 12-C , 13-C ) :   0.9637
B( 12-C , 30-H ) :   1.0010 B( 13-C , 14-C ) :   1.3541 B( 13-C , 19-C ) :   1.3801
B( 14-C , 15-C ) :   1.3940 B( 14-C , 31-H ) :   0.9717 B( 15-C , 16-C ) :   1.3598
B( 15-C , 32-H ) :   0.9707 B( 16-C , 17-C ) :   1.3340 B( 16-C , 33-H ) :   0.9851
B( 17-C , 18-O ) :   1.1042 B( 17-C , 19-C ) :   1.3647 B( 18-O , 34-H ) :   0.9799
B( 19-C , 35-H ) :   0.9597

MP2 TOTAL ENERGY:    -1274.341898747 Eh
FINAL SINGLE POINT ENERGY     -1274.341898747428

DIPOLE MOMENT
-------------
                                X             Y             Z
Electronic contribution:      8.97443       9.46306      10.78035
Nuclear contribution   :    -10.12306     -11.07733     -11.08828
                        -----------------------------------------
Total Dipole Moment    :     -1.14863      -1.61427      -0.30793
                        -----------------------------------------
Magnitude (a.u.)       :      2.00500
Magnitude (Debye)      :      5.09631

Rotational constants in cm-1:     0.010570     0.008784     0.005794
Rotational constants in MHz :   316.882248   263.324475   173.691071

                             ****ORCA TERMINATED NORMALLY****
TOTAL RUN TIME: 0 days 1 hours 50 minutes 28 seconds 97 msec
