                         Program Version 4.2.0 -  RELEASE  -
|  1> ! ri-mp2 cc-pvtz cc-pvtz/c TightSCF NoKeepInts
|  2>
|  3> %scf
|  4>   MaxCore 4096
|  5> end
|  6> *xyz  0  1
|  7>     C       14.6677084   14.9771208   16.1479807
|  8>     C       15.8925833   14.8542300   15.2193166
|  9>     O       16.8617855   15.8633190   15.5600798
| 10>     C       16.5732613   17.1731670   15.3023320
| 11>     O       15.9628375   17.5049178   14.3004556
| 12>     C       16.9715591   18.0957452   16.4236532
| 13>     C       16.9426794   19.4429601   16.2529258
| 14>     C       16.2882927   20.2106729   15.1227071
| 15>     N       17.5668961   20.2982042   17.1638407
| 16>     C       18.4101525   19.8857110   18.1594300
| 17>     S       19.1994132   20.9585645   19.1401103
| 18>     N       18.5861265   18.5314186   18.2873091
| 19>     C       17.8422542   17.4979772   17.5426136
| 20>     C       17.1132059   16.5297304   18.4643253
| 21>     C       17.5799319   15.2132057   18.6341680
| 22>     C       16.9110303   14.3245632   19.4928481
| 23>     C       15.7691791   14.7576309   20.1888467
| 24>     C       15.3059716   16.0706149   20.0249193
| 25>     O       14.2037991   16.4910536   20.6950512
| 26>     C       15.9737047   16.9526113   19.1695368
| 27>     H       14.9634720   14.8720550   17.1981378
| 28>     H       13.9378965   14.1906894   15.9214543
| 29>     H       14.1689170   15.9460858   16.0214939
| 30>     H       16.3423573   13.8615743   15.3485979
| 31>     H       15.5842291   14.9530267   14.1694146
| 32>     H       16.7990885   20.0101495   14.1722234
| 33>     H       16.2938077   21.2957336   15.2795232
| 34>     H       15.2411549   19.9042909   15.0031016
| 35>     H       17.4654123   21.2956312   17.0646152
| 36>     H       19.1903163   18.2559871   19.0512051
| 37>     H       18.6743621   16.9935412   17.0311590
| 38>     H       18.4603161   14.8767949   18.0929803
| 39>     H       17.2776511   13.3070289   19.6169295
| 40>     H       15.2494793   14.0751869   20.8533561
| 41>     H       13.9099327   15.7612798   21.2607810
| 42>     H       15.6062347   17.9675269   19.0605773
| 43> *
| 44>
| 45>                          ****END OF INPUT****

CARTESIAN COORDINATES (ANGSTROEM)
---------------------------------
  C     14.667708   14.977121   16.147981
  C     15.892583   14.854230   15.219317
  O     16.861785   15.863319   15.560080
  C     16.573261   17.173167   15.302332
  O     15.962837   17.504918   14.300456
  C     16.971559   18.095745   16.423653
  C     16.942679   19.442960   16.252926
  C     16.288293   20.210673   15.122707
  N     17.566896   20.298204   17.163841
  C     18.410152   19.885711   18.159430
  S     19.199413   20.958564   19.140110
  N     18.586126   18.531419   18.287309
  C     17.842254   17.497977   17.542614
  C     17.113206   16.529730   18.464325
  C     17.579932   15.213206   18.634168
  C     16.911030   14.324563   19.492848
  C     15.769179   14.757631   20.188847
  C     15.305972   16.070615   20.024919
  O     14.203799   16.491054   20.695051
  C     15.973705   16.952611   19.169537
  H     14.963472   14.872055   17.198138
  H     13.937897   14.190689   15.921454
  H     14.168917   15.946086   16.021494
  H     16.342357   13.861574   15.348598
  H     15.584229   14.953027   14.169415
  H     16.799088   20.010150   14.172223
  H     16.293808   21.295734   15.279523
  H     15.241155   19.904291   15.003102
  H     17.465412   21.295631   17.064615
  H     19.190316   18.255987   19.051205
  H     18.674362   16.993541   17.031159
  H     18.460316   14.876795   18.092980
  H     17.277651   13.307029   19.616930
  H     15.249479   14.075187   20.853356
  H     13.909933   15.761280   21.260781
  H     15.606235   17.967527   19.060577

 Total Charge           Charge          ....    0
 Multiplicity           Mult            ....    1
 Number of Electrons    NEL             ....  154
 Basis Dimension        Dim             ....  828

ORBITAL ENERGIES
----------------

  NO   OCC          E(Eh)            E(eV)
   0   2.0000     -91.889863     -2500.4503
   1   2.0000     -20.598953      -560.5260
   2   2.0000     -20.592347      -560.3462
   3   2.0000     -20.542015      -558.9766
   4   2.0000     -15.630373      -425.3241
   5   2.0000     -15.607882      -424.7121
   6   2.0000     -11.393575      -310.0349
   7   2.0000     -11.384392      -309.7850
   8   2.0000     -11.338752      -308.5431
   9   2.0000     -11.316475      -307.9369
  10   2.0000     -11.308713      -307.7257
  11   2.0000     -11.295569      -307.3681
  12   2.0000     -11.262976      -306.4812
  13   2.0000     -11.259298      -306.3811
  14   2.0000     -11.257908      -306.3433
  15   2.0000     -11.252406      -306.1935
  16   2.0000     -11.246413      -306.0305
  17   2.0000     -11.241200      -305.8886
  18   2.0000     -11.240982      -305.8827
  19   2.0000     -11.221993      -305.3660
  20   2.0000      -8.894920      -242.0431
  21   2.0000      -6.576489      -178.9554
  22   2.0000      -6.574494      -178.9011
  23   2.0000      -6.573900      -178.8849
  24   2.0000      -1.448812       -39.4242
  25   2.0000      -1.418674       -38.6041
  26   2.0000      -1.352242       -36.7964
  27   2.0000      -1.341541       -36.5052
  28   2.0000      -1.239417       -33.7262
  29   2.0000      -1.159990       -31.5649
  30   2.0000      -1.122065       -30.5329
  31   2.0000      -1.044600       -28.4250
  32   2.0000      -1.032917       -28.1071
  33   2.0000      -1.017565       -27.6893
  34   2.0000      -0.997472       -27.1426
  35   2.0000      -0.985894       -26.8275
  36   2.0000      -0.923252       -25.1230
  37   2.0000      -0.893650       -24.3174
  38   2.0000      -0.847625       -23.0650
  39   2.0000      -0.840215       -22.8634
  40   2.0000      -0.836531       -22.7632
  41   2.0000      -0.814938       -22.1756
  42   2.0000      -0.753669       -20.5084
  43   2.0000      -0.735533       -20.0149
  44   2.0000      -0.722820       -19.6689
  45   2.0000      -0.697742       -18.9865
  46   2.0000      -0.689718       -18.7682
  47   2.0000      -0.676831       -18.4175
  48   2.0000      -0.671466       -18.2715
  49   2.0000      -0.663547       -18.0560
  50   2.0000      -0.647419       -17.6172
  51   2.0000      -0.641112       -17.4455
  52   2.0000      -0.636026       -17.3071
  53   2.0000      -0.609462       -16.5843
  54   2.0000      -0.608463       -16.5571
  55   2.0000      -0.601471       -16.3669
  56   2.0000      -0.600917       -16.3518
  57   2.0000      -0.579186       -15.7605
  58   2.0000      -0.570230       -15.5168
  59   2.0000      -0.566585       -15.4176
  60   2.0000      -0.553580       -15.0637
  61   2.0000      -0.546373       -14.8676
  62   2.0000      -0.536138       -14.5891
  63   2.0000      -0.529916       -14.4198
  64   2.0000      -0.525940       -14.3116
  65   2.0000      -0.514102       -13.9894
  66   2.0000      -0.502212       -13.6659
  67   2.0000      -0.499286       -13.5863
  68   2.0000      -0.478532       -13.0215
  69   2.0000      -0.464741       -12.6462
  70   2.0000      -0.453134       -12.3304
  71   2.0000      -0.445096       -12.1117
  72   2.0000      -0.354089        -9.6352
  73   2.0000      -0.352383        -9.5888
  74   2.0000      -0.329137        -8.9563
  75   2.0000      -0.324138        -8.8203
  76   2.0000      -0.319301        -8.6886
  77   0.0000       0.074035         2.0146
  78   0.0000       0.102557         2.7907
  79   0.0000       0.123615         3.3637
  80   0.0000       0.131072         3.5667
  81   0.0000       0.135413         3.6848

MULLIKEN ATOMIC CHARGES
-----------------------
   0 C :   -0.311406
   1 C :    0.020504
   2 O :   -0.367963
   3 C :    0.442595
   4 O :   -0.428370
   5 C :   -0.232847
   6 C :    0.175050
   7 C :   -0.266123
   8 N :   -0.126121
   9 C :    0.210290
  10 S :   -0.440262
  11 N :   -0.215662
  12 C :    0.064913
  13 C :    0.015139
  14 C :   -0.177615
  15 C :   -0.133478
  16 C :   -0.275481
  17 C :    0.306626
  18 O :   -0.358443
  19 C :   -0.223427
  20 H :    0.109457
  21 H :    0.107323
  22 H :    0.105060
  23 H :    0.111272
  24 H :    0.122262
  25 H :    0.130786
  26 H :    0.094596
  27 H :    0.132705
  28 H :    0.199956
  29 H :    0.200705
  30 H :    0.153562
  31 H :    0.155614
  32 H :    0.161612
  33 H :    0.131776
  34 H :    0.240980
  35 H :    0.164416
Sum of atomic charges:    0.0000000

LOEWDIN ATOMIC CHARGES
----------------------
   0 C :    0.105717
   1 C :   -0.018490
   2 O :    0.300211
   3 C :   -0.418275
   4 O :    0.100429
   5 C :   -0.097964
   6 C :   -0.054496
   7 C :    0.131513
   8 N :    0.407668
   9 C :   -0.456704
  10 S :   -0.035171
  11 N :    0.394856
  12 C :   -0.054011
  13 C :   -0.040382
  14 C :    0.016903
  15 C :    0.039015
  16 C :   -0.001502
  17 C :   -0.190932
  18 O :    0.396215
  19 C :    0.033982
  20 H :   -0.025929
  21 H :   -0.026268
  22 H :   -0.027104
  23 H :   -0.024890
  24 H :   -0.028115
  25 H :   -0.004399
  26 H :   -0.023568
  27 H :   -0.004536
  28 H :   -0.056924
  29 H :   -0.064252
  30 H :   -0.012537
  31 H :   -0.028137
  32 H :   -0.020703
  33 H :   -0.034981
  34 H :   -0.153454
  35 H :   -0.022786

  Mayer bond orders larger than 0.100000
B(  0-C ,  1-C ) :   0.9577 B(  0-C , 20-H ) :   0.9700 B(  0-C , 21-H ) :   0.9783
B(  0-C , 22-H ) :   0.9754 B(  1-C ,  2-O ) :   0.8921 B(  1-C , 23-H ) :   0.9838
B(  1-C , 24-H ) :   0.9816 B(  2-O ,  3-C ) :   1.1310 B(  3-C ,  4-O ) :   1.9819
B(  3-C ,  5-C ) :   1.0676 B(  5-C ,  6-C ) :   1.6298 B(  5-C , 12-C ) :   0.9545
B(  6-C ,  7-C ) :   0.9661 B(  6-C ,  8-N ) :   1.1563 B(  7-C , 25-H ) :   0.9578
B(  7-C , 26-H ) :   0.9903 B(  7-C , 27-H ) :   0.9617 B(  8-N ,  9-C ) :   1.1859
B(  8-N , 28-H ) :   0.9463 B(  9-C , 10-S ) :   1.6076 B(  9-C , 11-N ) :   1.3097
B( 11-N , 12-C ) :   0.9659 B( 11-N , 29-H ) :   0.9485 B( 12-C , 13-C ) :   0.9599
B( 12-C , 30-H ) :   1.0022 B( 13-C , 14-C ) :   1.3550 B( 13-C , 19-C ) :   1.3825
B( 14-C , 15-C ) :   1.3918 B( 14-C , 31-H ) :   0.9708 B( 15-C , 16-C ) :   1.3557
B( 15-C , 32-H ) :   0.9715 B( 16-C , 17-C ) :   1.3341 B( 16-C , 33-H ) :   0.9851
B( 17-C , 18-O ) :   1.1062 B( 17-C , 19-C ) :   1.3645 B( 18-O , 34-H ) :   0.9794
B( 19-C , 35-H ) :   0.9585

MP2 TOTAL ENERGY:    -1274.340033709 Eh
FINAL SINGLE POINT ENERGY     -1274.340033708588

DIPOLE MOMENT
-------------
                                X             Y             Z
Electronic contribution:      8.92395      10.12496       6.35397
Nuclear contribution   :     -9.83915     -11.85863      -6.51365
                        -----------------------------------------
Total Dipole Moment    :     -0.91520      -1.73367      -0.15968
                        -----------------------------------------
Magnitude (a.u.)       :      1.96690
Magnitude (Debye)      :      4.99946

Rotational constants in cm-1:     0.012336     0.008706     0.006150
Rotational constants in MHz :   369.819058   260.984406   184.377583

                             ****ORCA TERMINATED NORMALLY****
TOTAL RUN TIME: 0 days 1 hours 57 minutes 22 seconds 293 msec
