                         Program Version 4.2.0 -  RELEASE  -
|  1> ! ri-mp2 cc-pvtz cc-pvtz/c TightSCF NoKeepInts
|  2>
|  3> %scf
|  4>   MaxCore 4096
|  5> end
|  6> *xyz  0  1
|  7>     C       14.1996831   15.9487032   15.1824499
|  8>     C       15.3428591   15.5607477   16.1374973
|  9>     O       16.5898658   15.7329450   15.4330587
| 10>     C       17.1854532   16.9559113   15.2836579
| 11>     O       17.7576960   17.2516510   14.2511098
| 12>     C       17.0855019   17.8879961   16.4509099
| 13>     C       16.8642062   19.2008578   16.2043110
| 14>     C       16.3135982   19.7831775   14.9200554
| 15>     N       17.1555275   20.1784548   17.1568331
| 16>     C       17.9069614   19.9522451   18.2790454
| 17>     S       18.3258418   21.1723078   19.3136510
| 18>     N       18.3175191   18.6587554   18.4890546
| 19>     C       17.8780185   17.4861892   17.7065695
| 20>     C       17.2907689   16.3711642   18.5589101
| 21>     C       17.7544008   15.0499179   18.4217761
| 22>     C       17.2045544   14.0169232   19.1990525
| 23>     C       16.1869547   14.3085311   20.1235900
| 24>     C       15.7278545   15.6250513   20.2667084
| 25>     O       14.7421660   15.9088204   21.1542264
| 26>     C       16.2747220   16.6511957   19.4895366
| 27>     H       14.2456842   17.0135019   14.9251263
| 28>     H       13.2268322   15.7524927   15.6495034
| 29>     H       14.2576801   15.3655899   14.2544927
| 30>     H       15.2761882   16.1635078   17.0478139
| 31>     H       15.2309124   14.5058439   16.4199825
| 32>     H       15.6049687   19.0967641   14.4413033
| 33>     H       17.1269641   19.9606270   14.2039149
| 34>     H       15.7892147   20.7324967   15.0818720
| 35>     H       16.9015975   21.1387219   16.9865635
| 36>     H       18.8647261   18.5206731   19.3297737
| 37>     H       18.8544242   17.1608896   17.3182661
| 38>     H       18.5359749   14.8206874   17.7010727
| 39>     H       17.5672871   12.9966431   19.0833120
| 40>     H       15.7599843   13.5133130   20.7262367
| 41>     H       14.5345776   15.0921123   21.6333129
| 42>     H       15.9058303   17.6645896   19.6134494
| 43> *
| 44>
| 45>                          ****END OF INPUT****

CARTESIAN COORDINATES (ANGSTROEM)
---------------------------------
  C     14.199683   15.948703   15.182450
  C     15.342859   15.560748   16.137497
  O     16.589866   15.732945   15.433059
  C     17.185453   16.955911   15.283658
  O     17.757696   17.251651   14.251110
  C     17.085502   17.887996   16.450910
  C     16.864206   19.200858   16.204311
  C     16.313598   19.783177   14.920055
  N     17.155528   20.178455   17.156833
  C     17.906961   19.952245   18.279045
  S     18.325842   21.172308   19.313651
  N     18.317519   18.658755   18.489055
  C     17.878018   17.486189   17.706570
  C     17.290769   16.371164   18.558910
  C     17.754401   15.049918   18.421776
  C     17.204554   14.016923   19.199053
  C     16.186955   14.308531   20.123590
  C     15.727854   15.625051   20.266708
  O     14.742166   15.908820   21.154226
  C     16.274722   16.651196   19.489537
  H     14.245684   17.013502   14.925126
  H     13.226832   15.752493   15.649503
  H     14.257680   15.365590   14.254493
  H     15.276188   16.163508   17.047814
  H     15.230912   14.505844   16.419982
  H     15.604969   19.096764   14.441303
  H     17.126964   19.960627   14.203915
  H     15.789215   20.732497   15.081872
  H     16.901598   21.138722   16.986563
  H     18.864726   18.520673   19.329774
  H     18.854424   17.160890   17.318266
  H     18.535975   14.820687   17.701073
  H     17.567287   12.996643   19.083312
  H     15.759984   13.513313   20.726237
  H     14.534578   15.092112   21.633313
  H     15.905830   17.664590   19.613449

 Total Charge           Charge          ....    0
 Multiplicity           Mult            ....    1
 Number of Electrons    NEL             ....  154
 Basis Dimension        Dim             ....  828

ORBITAL ENERGIES
----------------

  NO   OCC          E(Eh)            E(eV)
   0   2.0000     -91.890859     -2500.4774
   1   2.0000     -20.604106      -560.6662
   2   2.0000     -20.595527      -560.4328
   3   2.0000     -20.550997      -559.2211
   4   2.0000     -15.628060      -425.2611
   5   2.0000     -15.611278      -424.8045
   6   2.0000     -11.395473      -310.0866
   7   2.0000     -11.386078      -309.8309
   8   2.0000     -11.331428      -308.3438
   9   2.0000     -11.322451      -308.0996
  10   2.0000     -11.317039      -307.9523
  11   2.0000     -11.299374      -307.4716
  12   2.0000     -11.269590      -306.6611
  13   2.0000     -11.263443      -306.4939
  14   2.0000     -11.257826      -306.3410
  15   2.0000     -11.256814      -306.3135
  16   2.0000     -11.252133      -306.1861
  17   2.0000     -11.246959      -306.0453
  18   2.0000     -11.246679      -306.0377
  19   2.0000     -11.231270      -305.6184
  20   2.0000      -8.895923      -242.0704
  21   2.0000      -6.577493      -178.9827
  22   2.0000      -6.575495      -178.9283
  23   2.0000      -6.574903      -178.9122
  24   2.0000      -1.446644       -39.3652
  25   2.0000      -1.423872       -38.7455
  26   2.0000      -1.359472       -36.9931
  27   2.0000      -1.341078       -36.4926
  28   2.0000      -1.240713       -33.7615
  29   2.0000      -1.165711       -31.7206
  30   2.0000      -1.124990       -30.6125
  31   2.0000      -1.050528       -28.5863
  32   2.0000      -1.035677       -28.1822
  33   2.0000      -1.023830       -27.8598
  34   2.0000      -1.003366       -27.3030
  35   2.0000      -0.989658       -26.9300
  36   2.0000      -0.927159       -25.2293
  37   2.0000      -0.889734       -24.2109
  38   2.0000      -0.852029       -23.1849
  39   2.0000      -0.844400       -22.9773
  40   2.0000      -0.842457       -22.9244
  41   2.0000      -0.834674       -22.7126
  42   2.0000      -0.756719       -20.5914
  43   2.0000      -0.738928       -20.1072
  44   2.0000      -0.720732       -19.6121
  45   2.0000      -0.702437       -19.1143
  46   2.0000      -0.692908       -18.8550
  47   2.0000      -0.679345       -18.4859
  48   2.0000      -0.677095       -18.4247
  49   2.0000      -0.668602       -18.1936
  50   2.0000      -0.650318       -17.6961
  51   2.0000      -0.648141       -17.6368
  52   2.0000      -0.634200       -17.2575
  53   2.0000      -0.615112       -16.7380
  54   2.0000      -0.612624       -16.6703
  55   2.0000      -0.606639       -16.5075
  56   2.0000      -0.603600       -16.4248
  57   2.0000      -0.583532       -15.8787
  58   2.0000      -0.578022       -15.7288
  59   2.0000      -0.567739       -15.4490
  60   2.0000      -0.558396       -15.1947
  61   2.0000      -0.551747       -15.0138
  62   2.0000      -0.548182       -14.9168
  63   2.0000      -0.531043       -14.4504
  64   2.0000      -0.527524       -14.3547
  65   2.0000      -0.517892       -14.0925
  66   2.0000      -0.506082       -13.7712
  67   2.0000      -0.502704       -13.6793
  68   2.0000      -0.486046       -13.2260
  69   2.0000      -0.466993       -12.7075
  70   2.0000      -0.454783       -12.3753
  71   2.0000      -0.449519       -12.2320
  72   2.0000      -0.358395        -9.7524
  73   2.0000      -0.351908        -9.5759
  74   2.0000      -0.331072        -9.0089
  75   2.0000      -0.329132        -8.9561
  76   2.0000      -0.320936        -8.7331
  77   0.0000       0.082262         2.2385
  78   0.0000       0.096157         2.6166
  79   0.0000       0.121440         3.3046
  80   0.0000       0.127575         3.4715
  81   0.0000       0.127940         3.4814

MULLIKEN ATOMIC CHARGES
-----------------------
   0 C :   -0.276473
   1 C :    0.024218
   2 O :   -0.331227
   3 C :    0.401513
   4 O :   -0.371069
   5 C :   -0.213265
   6 C :    0.147358
   7 C :   -0.282187
   8 N :   -0.132731
   9 C :    0.211601
  10 S :   -0.438867
  11 N :   -0.216802
  12 C :    0.031633
  13 C :   -0.002009
  14 C :   -0.168090
  15 C :   -0.145558
  16 C :   -0.269979
  17 C :    0.307981
  18 O :   -0.353825
  19 C :   -0.233327
  20 H :    0.082333
  21 H :    0.098278
  22 H :    0.111649
  23 H :    0.103095
  24 H :    0.122976
  25 H :    0.115781
  26 H :    0.144042
  27 H :    0.098560
  28 H :    0.198520
  29 H :    0.201466
  30 H :    0.160166
  31 H :    0.154274
  32 H :    0.166027
  33 H :    0.135442
  34 H :    0.241646
  35 H :    0.176850
Sum of atomic charges:   -0.0000000

LOEWDIN ATOMIC CHARGES
----------------------
   0 C :    0.105415
   1 C :   -0.021875
   2 O :    0.305221
   3 C :   -0.423773
   4 O :    0.126689
   5 C :   -0.099224
   6 C :   -0.076560
   7 C :    0.129509
   8 N :    0.405717
   9 C :   -0.455681
  10 S :   -0.034630
  11 N :    0.395575
  12 C :   -0.053662
  13 C :   -0.045378
  14 C :    0.021818
  15 C :    0.044354
  16 C :    0.001212
  17 C :   -0.191711
  18 O :    0.396944
  19 C :    0.030342
  20 H :   -0.033385
  21 H :   -0.025432
  22 H :   -0.022676
  23 H :   -0.038903
  24 H :   -0.021409
  25 H :   -0.012050
  26 H :   -0.003560
  27 H :   -0.020713
  28 H :   -0.057156
  29 H :   -0.063658
  30 H :   -0.009802
  31 H :   -0.025693
  32 H :   -0.018388
  33 H :   -0.033636
  34 H :   -0.152293
  35 H :   -0.021548

  Mayer bond orders larger than 0.100000
B(  0-C ,  1-C ) :   0.9809 B(  0-C , 20-H ) :   0.9768 B(  0-C , 21-H ) :   0.9771
B(  0-C , 22-H ) :   0.9778 B(  1-C ,  2-O ) :   0.8814 B(  1-C , 23-H ) :   0.9548
B(  1-C , 24-H ) :   0.9789 B(  2-O ,  3-C ) :   1.1641 B(  3-C ,  4-O ) :   2.1242
B(  3-C ,  5-C ) :   0.9274 B(  5-C ,  6-C ) :   1.6860 B(  5-C , 12-C ) :   0.9560
B(  6-C ,  7-C ) :   0.9513 B(  6-C ,  8-N ) :   1.1315 B(  7-C , 25-H ) :   0.9764
B(  7-C , 26-H ) :   0.9557 B(  7-C , 27-H ) :   0.9841 B(  8-N ,  9-C ) :   1.1960
B(  8-N , 28-H ) :   0.9491 B(  9-C , 10-S ) :   1.6143 B(  9-C , 11-N ) :   1.2884
B( 11-N , 12-C ) :   0.9810 B( 11-N , 29-H ) :   0.9463 B( 12-C , 13-C ) :   0.9639
B( 12-C , 30-H ) :   1.0049 B( 13-C , 14-C ) :   1.3749 B( 13-C , 19-C ) :   1.3485
B( 14-C , 15-C ) :   1.3973 B( 14-C , 31-H ) :   0.9715 B( 15-C , 16-C ) :   1.3604
B( 15-C , 32-H ) :   0.9696 B( 16-C , 17-C ) :   1.3310 B( 16-C , 33-H ) :   0.9830
B( 17-C , 18-O ) :   1.1114 B( 17-C , 19-C ) :   1.3632 B( 18-O , 34-H ) :   0.9788
B( 19-C , 35-H ) :   0.9567

MP2 TOTAL ENERGY:    -1274.324722613 Eh
FINAL SINGLE POINT ENERGY     -1274.324722612600

DIPOLE MOMENT
-------------
                                X             Y             Z
Electronic contribution:     10.00326       7.33881       8.06649
Nuclear contribution   :    -11.46806      -8.99636      -7.86772
                        -----------------------------------------
Total Dipole Moment    :     -1.46479      -1.65755       0.19877
                        -----------------------------------------
Magnitude (a.u.)       :      2.22095
Magnitude (Debye)      :      5.64521

Rotational constants in cm-1:     0.011636     0.009128     0.006149
Rotational constants in MHz :   348.852500   273.651003   184.355111

                             ****ORCA TERMINATED NORMALLY****
TOTAL RUN TIME: 0 days 1 hours 51 minutes 28 seconds 952 msec
