                         Program Version 4.2.0 -  RELEASE  -
|  1> ! ri-mp2 cc-pvtz cc-pvtz/c TightSCF NoKeepInts
|  2>
|  3> %scf
|  4>   MaxCore 4096
|  5> end
|  6> *xyz  0  1
|  7>     C       14.5653702   16.2362885   16.1647233
|  8>     C       15.5309185   15.1444895   15.6530547
|  9>     O       16.9251479   15.5309418   15.5458265
| 10>     C       17.3383413   16.7952024   15.2388218
| 11>     O       17.7479147   17.0579621   14.1230743
| 12>     C       17.1494014   17.8100604   16.3282640
| 13>     C       16.9667942   19.1112562   15.9940828
| 14>     C       16.5220736   19.6416046   14.6472667
| 15>     N       17.1801954   20.1339737   16.9196529
| 16>     C       17.8229920   19.9627939   18.1160540
| 17>     S       18.1626316   21.2335365   19.1183159
| 18>     N       18.1956471   18.6796689   18.4306197
| 19>     C       17.8079522   17.4688571   17.6792055
| 20>     C       17.1292601   16.4163815   18.5488086
| 21>     C       17.5470329   15.0733161   18.5029576
| 22>     C       16.9343398   14.1046883   19.3152989
| 23>     C       15.9028102   14.4835459   20.1910429
| 24>     C       15.4957842   15.8231381   20.2530162
| 25>     O       14.5015785   16.1927763   21.0986589
| 26>     C       16.1073129   16.7849651   19.4426066
| 27>     H       14.8099312   16.5601650   17.1778923
| 28>     H       13.5426510   15.8409180   16.1913787
| 29>     H       14.5592693   17.1084977   15.5003738
| 30>     H       15.4569747   14.2645138   16.3053223
| 31>     H       15.1864551   14.8355296   14.6573374
| 32>     H       17.3862264   19.7639198   13.9811394
| 33>     H       16.0115294   20.6089035   14.7238803
| 34>     H       15.8298383   18.9470082   14.1558403
| 35>     H       16.9513630   21.0852508   16.6787096
| 36>     H       18.6592338   18.5822651   19.3254847
| 37>     H       18.8112989   17.1095689   17.4082047
| 38>     H       18.3437908   14.7768994   17.8249555
| 39>     H       17.2610916   13.0672521   19.2656698
| 40>     H       15.4270051   13.7389200   20.8208807
| 41>     H       14.2387358   15.4076956   21.6024392
| 42>     H       15.7781071   17.8172459   19.5071396
| 43> *
| 44>
| 45>                          ****END OF INPUT****

CARTESIAN COORDINATES (ANGSTROEM)
---------------------------------
  C     14.565370   16.236289   16.164723
  C     15.530919   15.144490   15.653055
  O     16.925148   15.530942   15.545827
  C     17.338341   16.795202   15.238822
  O     17.747915   17.057962   14.123074
  C     17.149401   17.810060   16.328264
  C     16.966794   19.111256   15.994083
  C     16.522074   19.641605   14.647267
  N     17.180195   20.133974   16.919653
  C     17.822992   19.962794   18.116054
  S     18.162632   21.233536   19.118316
  N     18.195647   18.679669   18.430620
  C     17.807952   17.468857   17.679205
  C     17.129260   16.416381   18.548809
  C     17.547033   15.073316   18.502958
  C     16.934340   14.104688   19.315299
  C     15.902810   14.483546   20.191043
  C     15.495784   15.823138   20.253016
  O     14.501579   16.192776   21.098659
  C     16.107313   16.784965   19.442607
  H     14.809931   16.560165   17.177892
  H     13.542651   15.840918   16.191379
  H     14.559269   17.108498   15.500374
  H     15.456975   14.264514   16.305322
  H     15.186455   14.835530   14.657337
  H     17.386226   19.763920   13.981139
  H     16.011529   20.608904   14.723880
  H     15.829838   18.947008   14.155840
  H     16.951363   21.085251   16.678710
  H     18.659234   18.582265   19.325485
  H     18.811299   17.109569   17.408205
  H     18.343791   14.776899   17.824956
  H     17.261092   13.067252   19.265670
  H     15.427005   13.738920   20.820881
  H     14.238736   15.407696   21.602439
  H     15.778107   17.817246   19.507140

 Total Charge           Charge          ....    0
 Multiplicity           Mult            ....    1
 Number of Electrons    NEL             ....  154
 Basis Dimension        Dim             ....  828

ORBITAL ENERGIES
----------------

  NO   OCC          E(Eh)            E(eV)
   0   2.0000     -91.890661     -2500.4720
   1   2.0000     -20.600943      -560.5802
   2   2.0000     -20.583239      -560.0984
   3   2.0000     -20.553971      -559.3020
   4   2.0000     -15.628332      -425.2685
   5   2.0000     -15.610052      -424.7711
   6   2.0000     -11.394659      -310.0644
   7   2.0000     -11.385416      -309.8129
   8   2.0000     -11.332372      -308.3695
   9   2.0000     -11.318502      -307.9921
  10   2.0000     -11.314859      -307.8930
  11   2.0000     -11.305734      -307.6447
  12   2.0000     -11.266898      -306.5879
  13   2.0000     -11.259579      -306.3887
  14   2.0000     -11.257061      -306.3202
  15   2.0000     -11.255355      -306.2738
  16   2.0000     -11.248691      -306.0924
  17   2.0000     -11.244134      -305.9685
  18   2.0000     -11.242958      -305.9364
  19   2.0000     -11.231602      -305.6274
  20   2.0000      -8.895720      -242.0649
  21   2.0000      -6.577290      -178.9772
  22   2.0000      -6.575294      -178.9228
  23   2.0000      -6.574700      -178.9067
  24   2.0000      -1.444372       -39.3033
  25   2.0000      -1.420768       -38.6611
  26   2.0000      -1.355163       -36.8759
  27   2.0000      -1.340992       -36.4903
  28   2.0000      -1.240155       -33.7463
  29   2.0000      -1.161984       -31.6192
  30   2.0000      -1.122867       -30.5548
  31   2.0000      -1.047172       -28.4950
  32   2.0000      -1.035317       -28.1724
  33   2.0000      -1.020386       -27.7661
  34   2.0000      -1.002781       -27.2871
  35   2.0000      -0.988762       -26.9056
  36   2.0000      -0.925257       -25.1775
  37   2.0000      -0.899474       -24.4759
  38   2.0000      -0.849294       -23.1105
  39   2.0000      -0.842661       -22.9300
  40   2.0000      -0.838918       -22.8281
  41   2.0000      -0.822072       -22.3697
  42   2.0000      -0.747973       -20.3534
  43   2.0000      -0.737164       -20.0593
  44   2.0000      -0.724752       -19.7215
  45   2.0000      -0.698980       -19.0202
  46   2.0000      -0.689359       -18.7584
  47   2.0000      -0.674943       -18.3661
  48   2.0000      -0.672087       -18.2884
  49   2.0000      -0.666383       -18.1332
  50   2.0000      -0.652757       -17.7624
  51   2.0000      -0.647832       -17.6284
  52   2.0000      -0.638360       -17.3706
  53   2.0000      -0.617523       -16.8037
  54   2.0000      -0.610352       -16.6085
  55   2.0000      -0.603780       -16.4297
  56   2.0000      -0.601801       -16.3758
  57   2.0000      -0.580704       -15.8018
  58   2.0000      -0.575744       -15.6668
  59   2.0000      -0.565516       -15.3885
  60   2.0000      -0.562308       -15.3012
  61   2.0000      -0.554461       -15.0877
  62   2.0000      -0.542607       -14.7651
  63   2.0000      -0.529260       -14.4019
  64   2.0000      -0.524435       -14.2706
  65   2.0000      -0.514746       -14.0069
  66   2.0000      -0.503383       -13.6977
  67   2.0000      -0.495836       -13.4924
  68   2.0000      -0.482220       -13.1219
  69   2.0000      -0.467197       -12.7131
  70   2.0000      -0.453834       -12.3495
  71   2.0000      -0.450610       -12.2617
  72   2.0000      -0.357120        -9.7177
  73   2.0000      -0.348397        -9.4804
  74   2.0000      -0.329769        -8.9735
  75   2.0000      -0.325785        -8.8651
  76   2.0000      -0.320460        -8.7201
  77   0.0000       0.076903         2.0926
  78   0.0000       0.100307         2.7295
  79   0.0000       0.120684         3.2840
  80   0.0000       0.127921         3.4809
  81   0.0000       0.129504         3.5240

MULLIKEN ATOMIC CHARGES
-----------------------
   0 C :   -0.324670
   1 C :    0.030807
   2 O :   -0.370562
   3 C :    0.439093
   4 O :   -0.368312
   5 C :   -0.246536
   6 C :    0.170307
   7 C :   -0.281955
   8 N :   -0.132397
   9 C :    0.210182
  10 S :   -0.438647
  11 N :   -0.223232
  12 C :    0.054771
  13 C :    0.018527
  14 C :   -0.196594
  15 C :   -0.143514
  16 C :   -0.272384
  17 C :    0.316452
  18 O :   -0.356093
  19 C :   -0.243501
  20 H :    0.121503
  21 H :    0.119718
  22 H :    0.095665
  23 H :    0.113533
  24 H :    0.117306
  25 H :    0.143770
  26 H :    0.097165
  27 H :    0.117658
  28 H :    0.198446
  29 H :    0.203242
  30 H :    0.153006
  31 H :    0.157772
  32 H :    0.166756
  33 H :    0.133894
  34 H :    0.241003
  35 H :    0.177820
Sum of atomic charges:   -0.0000000

LOEWDIN ATOMIC CHARGES
----------------------
   0 C :    0.104651
   1 C :   -0.013612
   2 O :    0.287667
   3 C :   -0.425967
   4 O :    0.131641
   5 C :   -0.095841
   6 C :   -0.069424
   7 C :    0.128526
   8 N :    0.406787
   9 C :   -0.457016
  10 S :   -0.034539
  11 N :    0.395676
  12 C :   -0.051910
  13 C :   -0.042586
  14 C :    0.023107
  15 C :    0.040556
  16 C :   -0.000738
  17 C :   -0.193016
  18 O :    0.396063
  19 C :    0.030333
  20 H :   -0.032421
  21 H :   -0.021185
  22 H :   -0.032163
  23 H :   -0.022747
  24 H :   -0.027558
  25 H :   -0.003977
  26 H :   -0.021620
  27 H :   -0.011330
  28 H :   -0.057095
  29 H :   -0.063773
  30 H :   -0.010982
  31 H :   -0.025990
  32 H :   -0.019534
  33 H :   -0.034424
  34 H :   -0.153092
  35 H :   -0.022466

  Mayer bond orders larger than 0.100000
B(  0-C ,  1-C ) :   0.9624 B(  0-C , 20-H ) :   0.9669 B(  0-C , 21-H ) :   0.9764
B(  0-C , 22-H ) :   0.9721 B(  1-C ,  2-O ) :   0.8965 B(  1-C , 23-H ) :   0.9776
B(  1-C , 24-H ) :   0.9848 B(  2-O ,  3-C ) :   1.1171 B(  3-C ,  4-O ) :   2.1038
B(  3-C ,  5-C ) :   0.9724 B(  5-C ,  6-C ) :   1.6611 B(  5-C , 12-C ) :   0.9590
B(  6-C ,  7-C ) :   0.9541 B(  6-C ,  8-N ) :   1.1387 B(  7-C , 25-H ) :   0.9558
B(  7-C , 26-H ) :   0.9843 B(  7-C , 27-H ) :   0.9741 B(  8-N ,  9-C ) :   1.1939
B(  8-N , 28-H ) :   0.9490 B(  9-C , 10-S ) :   1.6132 B(  9-C , 11-N ) :   1.2915
B( 11-N , 12-C ) :   0.9762 B( 11-N , 29-H ) :   0.9459 B( 12-C , 13-C ) :   0.9628
B( 12-C , 30-H ) :   1.0023 B( 13-C , 14-C ) :   1.3654 B( 13-C , 19-C ) :   1.3448
B( 14-C , 15-C ) :   1.4012 B( 14-C , 31-H ) :   0.9694 B( 15-C , 16-C ) :   1.3543
B( 15-C , 32-H ) :   0.9693 B( 16-C , 17-C ) :   1.3339 B( 16-C , 33-H ) :   0.9838
B( 17-C , 18-O ) :   1.1080 B( 17-C , 19-C ) :   1.3627 B( 18-O , 34-H ) :   0.9794
B( 19-C , 35-H ) :   0.9589

MP2 TOTAL ENERGY:    -1274.314327432 Eh
FINAL SINGLE POINT ENERGY     -1274.314327431531

DIPOLE MOMENT
-------------
                                X             Y             Z
Electronic contribution:      9.02973       7.35389       6.52980
Nuclear contribution   :    -10.44341      -9.01350      -6.54952
                        -----------------------------------------
Total Dipole Moment    :     -1.41368      -1.65961      -0.01972
                        -----------------------------------------
Magnitude (a.u.)       :      2.18018
Magnitude (Debye)      :      5.54159

Rotational constants in cm-1:     0.012138     0.009256     0.006230
Rotational constants in MHz :   363.898762   277.495131   186.772433

                             ****ORCA TERMINATED NORMALLY****
TOTAL RUN TIME: 0 days 2 hours 11 minutes 14 seconds 359 msec
