                         Program Version 4.2.0 -  RELEASE  -
|  1> ! ri-mp2 cc-pvtz cc-pvtz/c TightSCF NoKeepInts
|  2>
|  3> %scf
|  4>   MaxCore 4096
|  5> end
|  6> *xyz  0  1
|  7>     C       13.9837589   15.1681339   14.6154918
|  8>     C       15.2931755   15.7276297   14.0328050
|  9>     O       15.7248028   16.8051470   14.8848852
| 10>     C       16.7095589   16.6015015   15.8098444
| 11>     O       17.2938227   15.5358235   15.9193803
| 12>     C       16.9882793   17.7711816   16.7141735
| 13>     C       16.7530485   19.0622406   16.3557578
| 14>     C       15.9795266   19.5767059   15.1572116
| 15>     N       17.2768236   20.1175231   17.1073804
| 16>     C       18.2158720   19.9776803   18.0929188
| 17>     S       18.8724681   21.2847787   18.8649282
| 18>     N       18.6002675   18.6953736   18.3902984
| 19>     C       17.9815407   17.4715890   17.8454236
| 20>     C       17.4181220   16.5567216   18.9251101
| 21>     C       17.8388264   15.2181689   19.0232477
| 22>     C       17.3199884   14.3772821   20.0221196
| 23>     C       16.3736653   14.8799134   20.9316269
| 24>     C       15.9515677   16.2130855   20.8350015
| 25>     O       15.0352475   16.6998679   21.7095377
| 26>     C       16.4695671   17.0474344   19.8392954
| 27>     H       14.1568779   14.7455213   15.6134876
| 28>     H       13.5849862   14.3739261   13.9728094
| 29>     H       13.2262315   15.9572161   14.6990832
| 30>     H       16.0501955   14.9369777   13.9393936
| 31>     H       15.0919281   16.1208074   13.0281124
| 32>     H       16.4225095   19.2129517   14.2217886
| 33>     H       15.9609147   20.6718156   15.0991157
| 34>     H       14.9366257   19.2375157   15.1945132
| 35>     H       17.0200186   21.0662722   16.8867531
| 36>     H       19.2766728   18.6174072   19.1392528
| 37>     H       18.8550276   17.0095730   17.3627556
| 38>     H       18.5588972   14.8248209   18.3096213
| 39>     H       17.6475342   13.3410941   20.0835818
| 40>     H       15.9691497   14.2334930   21.7032271
| 41>     H       14.8159450   15.9855147   22.3262218
| 42>     H       16.1335564   18.0773111   19.7818450
| 43> *
| 44>
| 45>                          ****END OF INPUT****

CARTESIAN COORDINATES (ANGSTROEM)
---------------------------------
  C     13.983759   15.168134   14.615492
  C     15.293176   15.727630   14.032805
  O     15.724803   16.805147   14.884885
  C     16.709559   16.601502   15.809844
  O     17.293823   15.535823   15.919380
  C     16.988279   17.771182   16.714174
  C     16.753048   19.062241   16.355758
  C     15.979527   19.576706   15.157212
  N     17.276824   20.117523   17.107380
  C     18.215872   19.977680   18.092919
  S     18.872468   21.284779   18.864928
  N     18.600268   18.695374   18.390298
  C     17.981541   17.471589   17.845424
  C     17.418122   16.556722   18.925110
  C     17.838826   15.218169   19.023248
  C     17.319988   14.377282   20.022120
  C     16.373665   14.879913   20.931627
  C     15.951568   16.213085   20.835001
  O     15.035248   16.699868   21.709538
  C     16.469567   17.047434   19.839295
  H     14.156878   14.745521   15.613488
  H     13.584986   14.373926   13.972809
  H     13.226231   15.957216   14.699083
  H     16.050196   14.936978   13.939394
  H     15.091928   16.120807   13.028112
  H     16.422510   19.212952   14.221789
  H     15.960915   20.671816   15.099116
  H     14.936626   19.237516   15.194513
  H     17.020019   21.066272   16.886753
  H     19.276673   18.617407   19.139253
  H     18.855028   17.009573   17.362756
  H     18.558897   14.824821   18.309621
  H     17.647534   13.341094   20.083582
  H     15.969150   14.233493   21.703227
  H     14.815945   15.985515   22.326222
  H     16.133556   18.077311   19.781845

 Total Charge           Charge          ....    0
 Multiplicity           Mult            ....    1
 Number of Electrons    NEL             ....  154
 Basis Dimension        Dim             ....  828

ORBITAL ENERGIES
----------------

  NO   OCC          E(Eh)            E(eV)
   0   2.0000     -91.887754     -2500.3929
   1   2.0000     -20.605104      -560.6934
   2   2.0000     -20.590979      -560.3090
   3   2.0000     -20.544390      -559.0413
   4   2.0000     -15.628367      -425.2695
   5   2.0000     -15.605382      -424.6440
   6   2.0000     -11.396875      -310.1247
   7   2.0000     -11.382216      -309.7259
   8   2.0000     -11.338403      -308.5336
   9   2.0000     -11.306928      -307.6772
  10   2.0000     -11.303837      -307.5930
  11   2.0000     -11.299190      -307.4666
  12   2.0000     -11.261534      -306.4419
  13   2.0000     -11.259009      -306.3732
  14   2.0000     -11.254225      -306.2430
  15   2.0000     -11.247002      -306.0465
  16   2.0000     -11.237243      -305.7809
  17   2.0000     -11.233384      -305.6759
  18   2.0000     -11.230139      -305.5876
  19   2.0000     -11.229560      -305.5719
  20   2.0000      -8.892840      -241.9865
  21   2.0000      -6.574418      -178.8990
  22   2.0000      -6.572414      -178.8445
  23   2.0000      -6.571827      -178.8285
  24   2.0000      -1.454203       -39.5709
  25   2.0000      -1.410726       -38.3878
  26   2.0000      -1.357337       -36.9350
  27   2.0000      -1.339752       -36.4565
  28   2.0000      -1.236863       -33.6568
  29   2.0000      -1.151661       -31.3383
  30   2.0000      -1.120324       -30.4856
  31   2.0000      -1.043293       -28.3895
  32   2.0000      -1.035439       -28.1757
  33   2.0000      -1.009179       -27.4612
  34   2.0000      -0.998368       -27.1670
  35   2.0000      -0.983208       -26.7545
  36   2.0000      -0.920420       -25.0459
  37   2.0000      -0.892127       -24.2760
  38   2.0000      -0.847372       -23.0582
  39   2.0000      -0.834251       -22.7011
  40   2.0000      -0.827258       -22.5108
  41   2.0000      -0.815835       -22.2000
  42   2.0000      -0.759185       -20.6585
  43   2.0000      -0.736420       -20.0390
  44   2.0000      -0.725537       -19.7429
  45   2.0000      -0.690609       -18.7924
  46   2.0000      -0.685608       -18.6563
  47   2.0000      -0.679589       -18.4926
  48   2.0000      -0.669080       -18.2066
  49   2.0000      -0.656099       -17.8534
  50   2.0000      -0.647867       -17.6293
  51   2.0000      -0.644336       -17.5333
  52   2.0000      -0.630965       -17.1694
  53   2.0000      -0.608062       -16.5462
  54   2.0000      -0.601743       -16.3743
  55   2.0000      -0.597594       -16.2614
  56   2.0000      -0.594122       -16.1669
  57   2.0000      -0.582220       -15.8430
  58   2.0000      -0.573160       -15.5965
  59   2.0000      -0.562668       -15.3110
  60   2.0000      -0.559355       -15.2208
  61   2.0000      -0.551555       -15.0086
  62   2.0000      -0.534284       -14.5386
  63   2.0000      -0.532989       -14.5034
  64   2.0000      -0.514955       -14.0126
  65   2.0000      -0.508044       -13.8246
  66   2.0000      -0.498724       -13.5710
  67   2.0000      -0.493671       -13.4335
  68   2.0000      -0.481745       -13.1090
  69   2.0000      -0.465008       -12.6535
  70   2.0000      -0.457316       -12.4442
  71   2.0000      -0.452197       -12.3049
  72   2.0000      -0.353079        -9.6078
  73   2.0000      -0.343888        -9.3577
  74   2.0000      -0.326829        -8.8935
  75   2.0000      -0.316917        -8.6238
  76   2.0000      -0.313517        -8.5312
  77   0.0000       0.077889         2.1195
  78   0.0000       0.112508         3.0615
  79   0.0000       0.120316         3.2740
  80   0.0000       0.136570         3.7163
  81   0.0000       0.140800         3.8314

MULLIKEN ATOMIC CHARGES
-----------------------
   0 C :   -0.273748
   1 C :    0.020223
   2 O :   -0.346127
   3 C :    0.429339
   4 O :   -0.429121
   5 C :   -0.180583
   6 C :    0.164509
   7 C :   -0.280462
   8 N :   -0.128899
   9 C :    0.207286
  10 S :   -0.442909
  11 N :   -0.210657
  12 C :    0.041994
  13 C :    0.031742
  14 C :   -0.164600
  15 C :   -0.134577
  16 C :   -0.276890
  17 C :    0.314306
  18 O :   -0.359196
  19 C :   -0.250939
  20 H :    0.106192
  21 H :    0.093287
  22 H :    0.092515
  23 H :    0.119010
  24 H :    0.100345
  25 H :    0.124163
  26 H :    0.101904
  27 H :    0.130275
  28 H :    0.198805
  29 H :    0.199945
  30 H :    0.154715
  31 H :    0.157916
  32 H :    0.159569
  33 H :    0.127962
  34 H :    0.239819
  35 H :    0.162888
Sum of atomic charges:   -0.0000000

LOEWDIN ATOMIC CHARGES
----------------------
   0 C :    0.105222
   1 C :   -0.015389
   2 O :    0.308922
   3 C :   -0.414932
   4 O :    0.100869
   5 C :   -0.090701
   6 C :   -0.063533
   7 C :    0.124706
   8 N :    0.405421
   9 C :   -0.458892
  10 S :   -0.037949
  11 N :    0.396653
  12 C :   -0.048322
  13 C :   -0.040392
  14 C :    0.025179
  15 C :    0.040864
  16 C :   -0.001137
  17 C :   -0.192442
  18 O :    0.393023
  19 C :    0.029857
  20 H :   -0.023639
  21 H :   -0.026047
  22 H :   -0.028775
  23 H :   -0.027753
  24 H :   -0.029331
  25 H :   -0.009771
  26 H :   -0.021384
  27 H :   -0.009345
  28 H :   -0.058849
  29 H :   -0.062981
  30 H :   -0.008625
  31 H :   -0.024160
  32 H :   -0.021190
  33 H :   -0.036245
  34 H :   -0.154984
  35 H :   -0.023949

  Mayer bond orders larger than 0.100000
B(  0-C ,  1-C ) :   0.9699 B(  0-C , 20-H ) :   0.9777 B(  0-C , 21-H ) :   0.9753
B(  0-C , 22-H ) :   0.9782 B(  1-C ,  2-O ) :   0.8850 B(  1-C , 23-H ) :   0.9733
B(  1-C , 24-H ) :   0.9835 B(  2-O ,  3-C ) :   1.1609 B(  3-C ,  4-O ) :   1.9726
B(  3-C ,  5-C ) :   1.0501 B(  5-C ,  6-C ) :   1.6529 B(  5-C , 12-C ) :   0.9524
B(  6-C ,  7-C ) :   0.9534 B(  6-C ,  8-N ) :   1.1365 B(  7-C , 25-H ) :   0.9655
B(  7-C , 26-H ) :   0.9914 B(  7-C , 27-H ) :   0.9634 B(  8-N ,  9-C ) :   1.1852
B(  8-N , 28-H ) :   0.9468 B(  9-C , 10-S ) :   1.6074 B(  9-C , 11-N ) :   1.3073
B( 11-N , 12-C ) :   0.9765 B( 11-N , 29-H ) :   0.9485 B( 12-C , 13-C ) :   0.9745
B( 12-C , 30-H ) :   0.9977 B( 13-C , 14-C ) :   1.3752 B( 13-C , 19-C ) :   1.3669
B( 14-C , 15-C ) :   1.3974 B( 14-C , 31-H ) :   0.9641 B( 15-C , 16-C ) :   1.3585
B( 15-C , 32-H ) :   0.9713 B( 16-C , 17-C ) :   1.3335 B( 16-C , 33-H ) :   0.9861
B( 17-C , 18-O ) :   1.1030 B( 17-C , 19-C ) :   1.3676 B( 18-O , 34-H ) :   0.9808
B( 19-C , 35-H ) :   0.9603

MP2 TOTAL ENERGY:    -1274.342399356 Eh
FINAL SINGLE POINT ENERGY     -1274.342399356332

DIPOLE MOMENT
-------------
                                X             Y             Z
Electronic contribution:     10.48099       9.52328      11.08773
Nuclear contribution   :    -11.85324     -10.77513     -12.29071
                        -----------------------------------------
Total Dipole Moment    :     -1.37225      -1.25185      -1.20299
                        -----------------------------------------
Magnitude (a.u.)       :      2.21300
Magnitude (Debye)      :      5.62500

Rotational constants in cm-1:     0.009773     0.009134     0.005577
Rotational constants in MHz :   292.984099   273.842725   167.199342

                             ****ORCA TERMINATED NORMALLY****
TOTAL RUN TIME: 0 days 1 hours 51 minutes 26 seconds 794 msec
