                         Program Version 4.2.0 -  RELEASE  -
|  1> ! ri-mp2 cc-pvtz cc-pvtz/c TightSCF NoKeepInts
|  2>
|  3> %scf
|  4>   MaxCore 4096
|  5> end
|  6> *xyz  0  1
|  7>     C       13.6848054   15.9281518   14.4332670
|  8>     C       15.1459282   15.4790257   14.6025636
|  9>     O       15.9318529   16.6576886   14.8415339
| 10>     C       16.9621628   16.5746475   15.7292954
| 11>     O       17.6398875   15.5658423   15.8331895
| 12>     C       17.0775490   17.7352571   16.6764827
| 13>     C       16.7192716   19.0012944   16.3342444
| 14>     C       15.9534977   19.4540973   15.1064479
| 15>     N       17.0933839   20.0875042   17.1295726
| 16>     C       18.0022930   20.0235577   18.1509518
| 17>     S       18.4805209   21.3727554   18.9794604
| 18>     N       18.5128055   18.7827016   18.4360216
| 19>     C       18.0524092   17.5135946   17.8399488
| 20>     C       17.5486732   16.5138915   18.8726703
| 21>     C       18.1024841   15.2234420   18.9519363
| 22>     C       17.6371880   14.3034266   19.9064378
| 23>     C       16.6101993   14.6777195   20.7899512
| 24>     C       16.0552157   15.9625159   20.7116769
| 25>     O       15.0605487   16.3250561   21.5605131
| 26>     C       16.5200871   16.8757858   19.7599655
| 27>     H       13.3290605   16.4374252   15.3376241
| 28>     H       13.0361326   15.0630117   14.2492654
| 29>     H       13.5876114   16.6168287   13.5848137
| 30>     H       15.2066723   14.7879369   15.4552900
| 31>     H       15.5033028   14.9567240   13.7054021
| 32>     H       16.4531239   19.1183027   14.1890134
| 33>     H       15.8612404   20.5449643   15.0396104
| 34>     H       14.9371697   19.0407873   15.1090071
| 35>     H       16.7446034   21.0085547   16.9176854
| 36>     H       19.1650048   18.7591509   19.2097698
| 37>     H       18.9885195   17.1605722   17.3831829
| 38>     H       18.8861664   14.9285748   18.2579856
| 39>     H       18.0690128   13.3053674   19.9540323
| 40>     H       16.2469879   13.9698248   21.5274475
| 41>     H       14.9006552   15.5771715   22.1554161
| 42>     H       16.0809730   17.8668473   19.7163235
| 43> *
| 44>
| 45>                          ****END OF INPUT****

CARTESIAN COORDINATES (ANGSTROEM)
---------------------------------
  C     13.684805   15.928152   14.433267
  C     15.145928   15.479026   14.602564
  O     15.931853   16.657689   14.841534
  C     16.962163   16.574648   15.729295
  O     17.639888   15.565842   15.833189
  C     17.077549   17.735257   16.676483
  C     16.719272   19.001294   16.334244
  C     15.953498   19.454097   15.106448
  N     17.093384   20.087504   17.129573
  C     18.002293   20.023558   18.150952
  S     18.480521   21.372755   18.979460
  N     18.512805   18.782702   18.436022
  C     18.052409   17.513595   17.839949
  C     17.548673   16.513891   18.872670
  C     18.102484   15.223442   18.951936
  C     17.637188   14.303427   19.906438
  C     16.610199   14.677720   20.789951
  C     16.055216   15.962516   20.711677
  O     15.060549   16.325056   21.560513
  C     16.520087   16.875786   19.759965
  H     13.329061   16.437425   15.337624
  H     13.036133   15.063012   14.249265
  H     13.587611   16.616829   13.584814
  H     15.206672   14.787937   15.455290
  H     15.503303   14.956724   13.705402
  H     16.453124   19.118303   14.189013
  H     15.861240   20.544964   15.039610
  H     14.937170   19.040787   15.109007
  H     16.744603   21.008555   16.917685
  H     19.165005   18.759151   19.209770
  H     18.988519   17.160572   17.383183
  H     18.886166   14.928575   18.257986
  H     18.069013   13.305367   19.954032
  H     16.246988   13.969825   21.527448
  H     14.900655   15.577171   22.155416
  H     16.080973   17.866847   19.716324

 Total Charge           Charge          ....    0
 Multiplicity           Mult            ....    1
 Number of Electrons    NEL             ....  154
 Basis Dimension        Dim             ....  828

ORBITAL ENERGIES
----------------

  NO   OCC          E(Eh)            E(eV)
   0   2.0000     -91.888407     -2500.4107
   1   2.0000     -20.598067      -560.5019
   2   2.0000     -20.592408      -560.3479
   3   2.0000     -20.546845      -559.1081
   4   2.0000     -15.629121      -425.2900
   5   2.0000     -15.606014      -424.6612
   6   2.0000     -11.394373      -310.0566
   7   2.0000     -11.382975      -309.7465
   8   2.0000     -11.338642      -308.5401
   9   2.0000     -11.308379      -307.7166
  10   2.0000     -11.304508      -307.6113
  11   2.0000     -11.300889      -307.5128
  12   2.0000     -11.260737      -306.4202
  13   2.0000     -11.259430      -306.3847
  14   2.0000     -11.255564      -306.2795
  15   2.0000     -11.248375      -306.0838
  16   2.0000     -11.238611      -305.8182
  17   2.0000     -11.235055      -305.7214
  18   2.0000     -11.234776      -305.7138
  19   2.0000     -11.231425      -305.6226
  20   2.0000      -8.893487      -242.0041
  21   2.0000      -6.575063      -178.9166
  22   2.0000      -6.573061      -178.8621
  23   2.0000      -6.572472      -178.8461
  24   2.0000      -1.454685       -39.5840
  25   2.0000      -1.412156       -38.4267
  26   2.0000      -1.357142       -36.9297
  27   2.0000      -1.340296       -36.4713
  28   2.0000      -1.237399       -33.6713
  29   2.0000      -1.152939       -31.3731
  30   2.0000      -1.121175       -30.5087
  31   2.0000      -1.044813       -28.4308
  32   2.0000      -1.037146       -28.2222
  33   2.0000      -1.010485       -27.4967
  34   2.0000      -0.999372       -27.1943
  35   2.0000      -0.984546       -26.7908
  36   2.0000      -0.921075       -25.0637
  37   2.0000      -0.888279       -24.1713
  38   2.0000      -0.847462       -23.0606
  39   2.0000      -0.835487       -22.7347
  40   2.0000      -0.828606       -22.5475
  41   2.0000      -0.820011       -22.3136
  42   2.0000      -0.762056       -20.7366
  43   2.0000      -0.736299       -20.0357
  44   2.0000      -0.726596       -19.7717
  45   2.0000      -0.690989       -18.8028
  46   2.0000      -0.683962       -18.6116
  47   2.0000      -0.681662       -18.5490
  48   2.0000      -0.675877       -18.3916
  49   2.0000      -0.659658       -17.9502
  50   2.0000      -0.650392       -17.6981
  51   2.0000      -0.642286       -17.4775
  52   2.0000      -0.633922       -17.2499
  53   2.0000      -0.603943       -16.4341
  54   2.0000      -0.599536       -16.3142
  55   2.0000      -0.597799       -16.2669
  56   2.0000      -0.595736       -16.2108
  57   2.0000      -0.577410       -15.7121
  58   2.0000      -0.573614       -15.6088
  59   2.0000      -0.566753       -15.4221
  60   2.0000      -0.560231       -15.2447
  61   2.0000      -0.557221       -15.1628
  62   2.0000      -0.543499       -14.7894
  63   2.0000      -0.519023       -14.1233
  64   2.0000      -0.516533       -14.0556
  65   2.0000      -0.510918       -13.9028
  66   2.0000      -0.504242       -13.7211
  67   2.0000      -0.494686       -13.4611
  68   2.0000      -0.480831       -13.0841
  69   2.0000      -0.464271       -12.6334
  70   2.0000      -0.459092       -12.4925
  71   2.0000      -0.454341       -12.3633
  72   2.0000      -0.353433        -9.6174
  73   2.0000      -0.345108        -9.3909
  74   2.0000      -0.327459        -8.9106
  75   2.0000      -0.317553        -8.6411
  76   2.0000      -0.314993        -8.5714
  77   0.0000       0.075513         2.0548
  78   0.0000       0.110564         3.0086
  79   0.0000       0.120363         3.2752
  80   0.0000       0.135374         3.6837
  81   0.0000       0.138551         3.7702

MULLIKEN ATOMIC CHARGES
-----------------------
   0 C :   -0.280351
   1 C :    0.044185
   2 O :   -0.347948
   3 C :    0.422036
   4 O :   -0.410521
   5 C :   -0.179099
   6 C :    0.155732
   7 C :   -0.282876
   8 N :   -0.128274
   9 C :    0.207335
  10 S :   -0.441805
  11 N :   -0.210569
  12 C :    0.042465
  13 C :    0.032162
  14 C :   -0.168046
  15 C :   -0.134595
  16 C :   -0.277460
  17 C :    0.313816
  18 O :   -0.359147
  19 C :   -0.252514
  20 H :    0.097138
  21 H :    0.104547
  22 H :    0.095084
  23 H :    0.093428
  24 H :    0.100534
  25 H :    0.127486
  26 H :    0.104217
  27 H :    0.126939
  28 H :    0.198884
  29 H :    0.199948
  30 H :    0.155516
  31 H :    0.159340
  32 H :    0.160392
  33 H :    0.128466
  34 H :    0.240052
  35 H :    0.163502
Sum of atomic charges:   -0.0000000

LOEWDIN ATOMIC CHARGES
----------------------
   0 C :    0.105189
   1 C :   -0.015826
   2 O :    0.304368
   3 C :   -0.419265
   4 O :    0.109853
   5 C :   -0.094051
   6 C :   -0.064399
   7 C :    0.125497
   8 N :    0.405608
   9 C :   -0.458511
  10 S :   -0.037200
  11 N :    0.396367
  12 C :   -0.048302
  13 C :   -0.040742
  14 C :    0.025032
  15 C :    0.040990
  16 C :   -0.001298
  17 C :   -0.192824
  18 O :    0.392968
  19 C :    0.029099
  20 H :   -0.027225
  21 H :   -0.023185
  22 H :   -0.028786
  23 H :   -0.025516
  24 H :   -0.028914
  25 H :   -0.008603
  26 H :   -0.021029
  27 H :   -0.010002
  28 H :   -0.058620
  29 H :   -0.063154
  30 H :   -0.007969
  31 H :   -0.023757
  32 H :   -0.020909
  33 H :   -0.036125
  34 H :   -0.154795
  35 H :   -0.023965

  Mayer bond orders larger than 0.100000
B(  0-C ,  1-C ) :   0.9710 B(  0-C , 20-H ) :   0.9767 B(  0-C , 21-H ) :   0.9786
B(  0-C , 22-H ) :   0.9774 B(  1-C ,  2-O ) :   0.9048 B(  1-C , 23-H ) :   0.9722
B(  1-C , 24-H ) :   0.9828 B(  2-O ,  3-C ) :   1.1208 B(  3-C ,  4-O ) :   2.0096
B(  3-C ,  5-C ) :   1.0358 B(  5-C ,  6-C ) :   1.6563 B(  5-C , 12-C ) :   0.9492
B(  6-C ,  7-C ) :   0.9550 B(  6-C ,  8-N ) :   1.1368 B(  7-C , 25-H ) :   0.9649
B(  7-C , 26-H ) :   0.9908 B(  7-C , 27-H ) :   0.9643 B(  8-N ,  9-C ) :   1.1849
B(  8-N , 28-H ) :   0.9468 B(  9-C , 10-S ) :   1.6089 B(  9-C , 11-N ) :   1.3062
B( 11-N , 12-C ) :   0.9766 B( 11-N , 29-H ) :   0.9485 B( 12-C , 13-C ) :   0.9721
B( 12-C , 30-H ) :   0.9966 B( 13-C , 14-C ) :   1.3766 B( 13-C , 19-C ) :   1.3649
B( 14-C , 15-C ) :   1.3975 B( 14-C , 31-H ) :   0.9636 B( 15-C , 16-C ) :   1.3586
B( 15-C , 32-H ) :   0.9711 B( 16-C , 17-C ) :   1.3333 B( 16-C , 33-H ) :   0.9859
B( 17-C , 18-O ) :   1.1036 B( 17-C , 19-C ) :   1.3675 B( 18-O , 34-H ) :   0.9805
B( 19-C , 35-H ) :   0.9604

MP2 TOTAL ENERGY:    -1274.335924921 Eh
FINAL SINGLE POINT ENERGY     -1274.335924920641

DIPOLE MOMENT
-------------
                                X             Y             Z
Electronic contribution:     11.17597       8.34260      10.76262
Nuclear contribution   :    -12.59066      -9.68253     -11.71848
                        -----------------------------------------
Total Dipole Moment    :     -1.41469      -1.33993      -0.95586
                        -----------------------------------------
Magnitude (a.u.)       :      2.17035
Magnitude (Debye)      :      5.51658

Rotational constants in cm-1:     0.009573     0.009336     0.005753
Rotational constants in MHz :   286.993416   279.876673   172.479681

                             ****ORCA TERMINATED NORMALLY****
TOTAL RUN TIME: 0 days 1 hours 43 minutes 1 seconds 156 msec
