                         Program Version 4.2.0 -  RELEASE  -
|  1> ! ri-mp2 cc-pvtz cc-pvtz/c TightSCF NoKeepInts
|  2>
|  3> %scf
|  4>   MaxCore 4096
|  5> end
|  6> *xyz  0  1
|  7>     C       14.0927808   16.6258601   15.4473367
|  8>     C       15.2078137   15.6759041   15.9226815
|  9>     O       16.3862988   15.8519186   15.1082257
| 10>     C       17.4026549   16.7281870   15.3928039
| 11>     O       18.4667136   16.6897600   14.8052487
| 12>     C       17.1409938   17.7179678   16.4718828
| 13>     C       16.7730010   18.9675263   16.1094365
| 14>     C       16.3058286   19.3953888   14.7340717
| 15>     N       16.8947634   20.0404323   16.9935740
| 16>     C       17.6052939   19.9882113   18.1643990
| 17>     S       17.8143746   21.3219131   19.1193626
| 18>     N       18.1607901   18.7743875   18.4906105
| 19>     C       17.9177085   17.5075828   17.7714385
| 20>     C       17.3890440   16.3674229   18.6265351
| 21>     C       17.9135906   15.0710990   18.4761133
| 22>     C       17.4095802   14.0051347   19.2397468
| 23>     C       16.3716051   14.2377962   20.1584283
| 24>     C       15.8446966   15.5281628   20.3068415
| 25>     O       14.8355208   15.7534785   21.1847986
| 26>     C       16.3464711   16.5873346   19.5435878
| 27>     H       14.2856926   17.6568581   15.7610878
| 28>     H       13.1307528   16.3243427   15.8796541
| 29>     H       13.9972480   16.5989880   14.3544836
| 30>     H       15.4107796   15.8080803   16.9912670
| 31>     H       14.8532269   14.6459513   15.7863446
| 32>     H       15.9421544   18.5516447   14.1352212
| 33>     H       17.1336878   19.8522863   14.1763849
| 34>     H       15.4900221   20.1261241   14.7924032
| 35>     H       16.5395641   20.9483008   16.7377733
| 36>     H       18.6815094   18.7642580   19.3588547
| 37>     H       18.9450686   17.2771043   17.4507877
| 38>     H       18.7109138   14.8882276   17.7586929
| 39>     H       17.8227100   13.0050192   19.1171757
| 40>     H       15.9794800   13.4168507   20.7500683
| 41>     H       14.6635414   14.9222735   21.6528732
| 42>     H       15.9211247   17.5782219   19.6678046
| 43> *
| 44>
| 45>                          ****END OF INPUT****

CARTESIAN COORDINATES (ANGSTROEM)
---------------------------------
  C     14.092781   16.625860   15.447337
  C     15.207814   15.675904   15.922681
  O     16.386299   15.851919   15.108226
  C     17.402655   16.728187   15.392804
  O     18.466714   16.689760   14.805249
  C     17.140994   17.717968   16.471883
  C     16.773001   18.967526   16.109437
  C     16.305829   19.395389   14.734072
  N     16.894763   20.040432   16.993574
  C     17.605294   19.988211   18.164399
  S     17.814375   21.321913   19.119363
  N     18.160790   18.774387   18.490610
  C     17.917708   17.507583   17.771438
  C     17.389044   16.367423   18.626535
  C     17.913591   15.071099   18.476113
  C     17.409580   14.005135   19.239747
  C     16.371605   14.237796   20.158428
  C     15.844697   15.528163   20.306842
  O     14.835521   15.753478   21.184799
  C     16.346471   16.587335   19.543588
  H     14.285693   17.656858   15.761088
  H     13.130753   16.324343   15.879654
  H     13.997248   16.598988   14.354484
  H     15.410780   15.808080   16.991267
  H     14.853227   14.645951   15.786345
  H     15.942154   18.551645   14.135221
  H     17.133688   19.852286   14.176385
  H     15.490022   20.126124   14.792403
  H     16.539564   20.948301   16.737773
  H     18.681509   18.764258   19.358855
  H     18.945069   17.277104   17.450788
  H     18.710914   14.888228   17.758693
  H     17.822710   13.005019   19.117176
  H     15.979480   13.416851   20.750068
  H     14.663541   14.922273   21.652873
  H     15.921125   17.578222   19.667805

 Total Charge           Charge          ....    0
 Multiplicity           Mult            ....    1
 Number of Electrons    NEL             ....  154
 Basis Dimension        Dim             ....  828

ORBITAL ENERGIES
----------------

  NO   OCC          E(Eh)            E(eV)
   0   2.0000     -91.889249     -2500.4336
   1   2.0000     -20.604825      -560.6858
   2   2.0000     -20.601809      -560.6037
   3   2.0000     -20.552682      -559.2669
   4   2.0000     -15.625245      -425.1845
   5   2.0000     -15.610669      -424.7879
   6   2.0000     -11.399010      -310.1828
   7   2.0000     -11.385344      -309.8110
   8   2.0000     -11.327108      -308.2263
   9   2.0000     -11.323496      -308.1280
  10   2.0000     -11.315123      -307.9002
  11   2.0000     -11.303310      -307.5787
  12   2.0000     -11.270910      -306.6970
  13   2.0000     -11.264602      -306.5254
  14   2.0000     -11.262006      -306.4548
  15   2.0000     -11.259458      -306.3854
  16   2.0000     -11.252314      -306.1910
  17   2.0000     -11.247510      -306.0603
  18   2.0000     -11.247336      -306.0556
  19   2.0000     -11.234260      -305.6997
  20   2.0000      -8.894347      -242.0275
  21   2.0000      -6.575928      -178.9401
  22   2.0000      -6.573917      -178.8854
  23   2.0000      -6.573336      -178.8696
  24   2.0000      -1.447701       -39.3939
  25   2.0000      -1.424526       -38.7633
  26   2.0000      -1.362649       -37.0796
  27   2.0000      -1.339206       -36.4417
  28   2.0000      -1.239078       -33.7170
  29   2.0000      -1.167115       -31.7588
  30   2.0000      -1.127417       -30.6786
  31   2.0000      -1.052160       -28.6307
  32   2.0000      -1.038714       -28.2648
  33   2.0000      -1.024976       -27.8910
  34   2.0000      -1.005746       -27.3677
  35   2.0000      -0.990495       -26.9527
  36   2.0000      -0.927976       -25.2515
  37   2.0000      -0.892864       -24.2961
  38   2.0000      -0.852828       -23.2066
  39   2.0000      -0.844491       -22.9798
  40   2.0000      -0.842723       -22.9317
  41   2.0000      -0.835692       -22.7403
  42   2.0000      -0.757204       -20.6046
  43   2.0000      -0.739105       -20.1121
  44   2.0000      -0.728255       -19.8168
  45   2.0000      -0.702853       -19.1256
  46   2.0000      -0.693949       -18.8833
  47   2.0000      -0.681177       -18.5358
  48   2.0000      -0.677011       -18.4224
  49   2.0000      -0.666590       -18.1388
  50   2.0000      -0.653069       -17.7709
  51   2.0000      -0.641134       -17.4462
  52   2.0000      -0.632751       -17.2180
  53   2.0000      -0.621968       -16.9246
  54   2.0000      -0.613895       -16.7049
  55   2.0000      -0.608315       -16.5531
  56   2.0000      -0.606892       -16.5144
  57   2.0000      -0.584909       -15.9162
  58   2.0000      -0.580169       -15.7872
  59   2.0000      -0.573972       -15.6186
  60   2.0000      -0.566667       -15.4198
  61   2.0000      -0.556471       -15.1423
  62   2.0000      -0.539582       -14.6828
  63   2.0000      -0.537941       -14.6381
  64   2.0000      -0.527550       -14.3554
  65   2.0000      -0.517710       -14.0876
  66   2.0000      -0.505012       -13.7421
  67   2.0000      -0.502299       -13.6683
  68   2.0000      -0.490672       -13.3519
  69   2.0000      -0.466330       -12.6895
  70   2.0000      -0.454606       -12.3705
  71   2.0000      -0.452708       -12.3188
  72   2.0000      -0.357549        -9.7294
  73   2.0000      -0.353899        -9.6301
  74   2.0000      -0.331895        -9.0313
  75   2.0000      -0.328453        -8.9377
  76   2.0000      -0.319348        -8.6899
  77   0.0000       0.090807         2.4710
  78   0.0000       0.099343         2.7033
  79   0.0000       0.119843         3.2611
  80   0.0000       0.125936         3.4269
  81   0.0000       0.126635         3.4459

MULLIKEN ATOMIC CHARGES
-----------------------
   0 C :   -0.316348
   1 C :    0.036045
   2 O :   -0.314863
   3 C :    0.420754
   4 O :   -0.381959
   5 C :   -0.196487
   6 C :    0.125734
   7 C :   -0.318262
   8 N :   -0.137551
   9 C :    0.212560
  10 S :   -0.443584
  11 N :   -0.225726
  12 C :    0.043243
  13 C :    0.007842
  14 C :   -0.215206
  15 C :   -0.133180
  16 C :   -0.271872
  17 C :    0.311277
  18 O :   -0.353417
  19 C :   -0.234467
  20 H :    0.098418
  21 H :    0.112876
  22 H :    0.109536
  23 H :    0.106413
  24 H :    0.121737
  25 H :    0.120623
  26 H :    0.150549
  27 H :    0.108852
  28 H :    0.196711
  29 H :    0.202714
  30 H :    0.168227
  31 H :    0.169230
  32 H :    0.165907
  33 H :    0.134984
  34 H :    0.241889
  35 H :    0.176800
Sum of atomic charges:   -0.0000000

LOEWDIN ATOMIC CHARGES
----------------------
   0 C :    0.102729
   1 C :   -0.017388
   2 O :    0.304752
   3 C :   -0.417394
   4 O :    0.123628
   5 C :   -0.086803
   6 C :   -0.096315
   7 C :    0.126299
   8 N :    0.403586
   9 C :   -0.454314
  10 S :   -0.038510
  11 N :    0.395777
  12 C :   -0.053452
  13 C :   -0.046437
  14 C :    0.016066
  15 C :    0.046417
  16 C :    0.001454
  17 C :   -0.190453
  18 O :    0.397373
  19 C :    0.028308
  20 H :   -0.033894
  21 H :   -0.023283
  22 H :   -0.025773
  23 H :   -0.033335
  24 H :   -0.020969
  25 H :   -0.009847
  26 H :   -0.005729
  27 H :   -0.017599
  28 H :   -0.057743
  29 H :   -0.064423
  30 H :   -0.004690
  31 H :   -0.023341
  32 H :   -0.017477
  33 H :   -0.033572
  34 H :   -0.152116
  35 H :   -0.021532

  Mayer bond orders larger than 0.100000
B(  0-C ,  1-C ) :   0.9606 B(  0-C , 20-H ) :   0.9762 B(  0-C , 21-H ) :   0.9781
B(  0-C , 22-H ) :   0.9748 B(  1-C ,  2-O ) :   0.8989 B(  1-C , 23-H ) :   0.9601
B(  1-C , 24-H ) :   0.9848 B(  2-O ,  3-C ) :   1.1881 B(  3-C ,  4-O ) :   2.1177
B(  3-C ,  5-C ) :   0.8922 B(  5-C ,  6-C ) :   1.7350 B(  5-C , 12-C ) :   0.9490
B(  6-C ,  7-C ) :   0.9463 B(  6-C ,  8-N ) :   1.1054 B(  7-C , 25-H ) :   0.9786
B(  7-C , 26-H ) :   0.9621 B(  7-C , 27-H ) :   0.9752 B(  8-N ,  9-C ) :   1.2028
B(  8-N , 28-H ) :   0.9498 B(  9-C , 10-S ) :   1.6096 B(  9-C , 11-N ) :   1.2856
B( 11-N , 12-C ) :   0.9796 B( 11-N , 29-H ) :   0.9464 B( 12-C , 13-C ) :   0.9685
B( 12-C , 30-H ) :   0.9946 B( 13-C , 14-C ) :   1.3810 B( 13-C , 19-C ) :   1.3503
B( 14-C , 15-C ) :   1.3969 B( 14-C , 31-H ) :   0.9648 B( 15-C , 16-C ) :   1.3646
B( 15-C , 32-H ) :   0.9690 B( 16-C , 17-C ) :   1.3301 B( 16-C , 33-H ) :   0.9834
B( 17-C , 18-O ) :   1.1132 B( 17-C , 19-C ) :   1.3611 B( 18-O , 34-H ) :   0.9785
B( 19-C , 35-H ) :   0.9566

MP2 TOTAL ENERGY:    -1274.327411776 Eh
FINAL SINGLE POINT ENERGY     -1274.327411775845

DIPOLE MOMENT
-------------
                                X             Y             Z
Electronic contribution:      9.71019       6.07252       7.78769
Nuclear contribution   :    -11.26300      -7.73624      -7.76336
                        -----------------------------------------
Total Dipole Moment    :     -1.55281      -1.66372       0.02433
                        -----------------------------------------
Magnitude (a.u.)       :      2.27591
Magnitude (Debye)      :      5.78491

Rotational constants in cm-1:     0.011576     0.009061     0.006426
Rotational constants in MHz :   347.033557   271.637165   192.634683

                             ****ORCA TERMINATED NORMALLY****
TOTAL RUN TIME: 0 days 1 hours 59 minutes 11 seconds 636 msec
