                         Program Version 4.2.0 -  RELEASE  -
|  1> ! ri-mp2 cc-pvtz cc-pvtz/c TightSCF NoKeepInts
|  2>
|  3> %scf
|  4>   MaxCore 4096
|  5> end
|  6> *xyz  0  1
|  7>     C       13.7815827   15.7963057   13.7791908
|  8>     C       15.1495180   15.4407708   14.3853497
|  9>     O       15.6506960   16.6190546   15.0371324
| 10>     C       16.6923136   16.4954755   15.9095590
| 11>     O       17.3336486   15.4618827   16.0079941
| 12>     C       16.9408645   17.6928727   16.7852574
| 13>     C       16.6092124   18.9608275   16.4209337
| 14>     C       15.7489790   19.4058654   15.2540409
| 15>     N       17.1024078   20.0586036   17.1311613
| 16>     C       18.0955447   19.9927760   18.0703850
| 17>     S       18.7069600   21.3501286   18.7910448
| 18>     N       18.5728916   18.7414590   18.3654663
| 19>     C       18.0048316   17.4731474   17.8693486
| 20>     C       17.5536026   16.5434049   18.9882641
| 21>     C       18.0620107   15.2354405   19.0836842
| 22>     C       17.6472289   14.3811827   20.1191778
| 23>     C       16.7174257   14.8395792   21.0682429
| 24>     C       16.2080893   16.1421318   20.9744926
| 25>     O       15.3075608   16.5860368   21.8873951
| 26>     C       16.6225774   16.9898593   19.9422776
| 27>     H       13.0843360   16.1207799   14.5616881
| 28>     H       13.3479014   14.9254146   13.2727011
| 29>     H       13.8820303   16.6057496   13.0455589
| 30>     H       15.0213068   14.6261105   15.1116653
| 31>     H       15.8463711   15.1072249   13.6048610
| 32>     H       16.1664562   19.0501978   14.3037754
| 33>     H       15.6627366   20.4966477   15.1786177
| 34>     H       14.7312262   19.0066683   15.3482647
| 35>     H       16.7771112   20.9860750   16.9103479
| 36>     H       19.2889771   18.7176473   19.0804607
| 37>     H       18.8803061   17.0574777   17.3495440
| 38>     H       18.7694304   14.8755210   18.3403710
| 39>     H       18.0420979   13.3686061   20.1786718
| 40>     H       16.3931955   14.1826285   21.8683499
| 41>     H       15.1652632   15.8705668   22.5250224
| 42>     H       16.2203079   17.9958794   19.8877018
| 43> *
| 44>
| 45>                          ****END OF INPUT****

CARTESIAN COORDINATES (ANGSTROEM)
---------------------------------
  C     13.781583   15.796306   13.779191
  C     15.149518   15.440771   14.385350
  O     15.650696   16.619055   15.037132
  C     16.692314   16.495476   15.909559
  O     17.333649   15.461883   16.007994
  C     16.940864   17.692873   16.785257
  C     16.609212   18.960828   16.420934
  C     15.748979   19.405865   15.254041
  N     17.102408   20.058604   17.131161
  C     18.095545   19.992776   18.070385
  S     18.706960   21.350129   18.791045
  N     18.572892   18.741459   18.365466
  C     18.004832   17.473147   17.869349
  C     17.553603   16.543405   18.988264
  C     18.062011   15.235440   19.083684
  C     17.647229   14.381183   20.119178
  C     16.717426   14.839579   21.068243
  C     16.208089   16.142132   20.974493
  O     15.307561   16.586037   21.887395
  C     16.622577   16.989859   19.942278
  H     13.084336   16.120780   14.561688
  H     13.347901   14.925415   13.272701
  H     13.882030   16.605750   13.045559
  H     15.021307   14.626110   15.111665
  H     15.846371   15.107225   13.604861
  H     16.166456   19.050198   14.303775
  H     15.662737   20.496648   15.178618
  H     14.731226   19.006668   15.348265
  H     16.777111   20.986075   16.910348
  H     19.288977   18.717647   19.080461
  H     18.880306   17.057478   17.349544
  H     18.769430   14.875521   18.340371
  H     18.042098   13.368606   20.178672
  H     16.393196   14.182628   21.868350
  H     15.165263   15.870567   22.525022
  H     16.220308   17.995879   19.887702

 Total Charge           Charge          ....    0
 Multiplicity           Mult            ....    1
 Number of Electrons    NEL             ....  154
 Basis Dimension        Dim             ....  828

ORBITAL ENERGIES
----------------

  NO   OCC          E(Eh)            E(eV)
   0   2.0000     -91.887753     -2500.3929
   1   2.0000     -20.604981      -560.6900
   2   2.0000     -20.591009      -560.3098
   3   2.0000     -20.544747      -559.0510
   4   2.0000     -15.628370      -425.2696
   5   2.0000     -15.605361      -424.6435
   6   2.0000     -11.395069      -310.0756
   7   2.0000     -11.382227      -309.7261
   8   2.0000     -11.338297      -308.5307
   9   2.0000     -11.306911      -307.6767
  10   2.0000     -11.303859      -307.5936
  11   2.0000     -11.299772      -307.4824
  12   2.0000     -11.261285      -306.4351
  13   2.0000     -11.259042      -306.3741
  14   2.0000     -11.254194      -306.2422
  15   2.0000     -11.246947      -306.0450
  16   2.0000     -11.237213      -305.7801
  17   2.0000     -11.235606      -305.7364
  18   2.0000     -11.233370      -305.6755
  19   2.0000     -11.230086      -305.5862
  20   2.0000      -8.892839      -241.9865
  21   2.0000      -6.574418      -178.8990
  22   2.0000      -6.572414      -178.8445
  23   2.0000      -6.571827      -178.8285
  24   2.0000      -1.455863       -39.6160
  25   2.0000      -1.410753       -38.3885
  26   2.0000      -1.357113       -36.9289
  27   2.0000      -1.339717       -36.4556
  28   2.0000      -1.236832       -33.6559
  29   2.0000      -1.151637       -31.3376
  30   2.0000      -1.120417       -30.4881
  31   2.0000      -1.045289       -28.4438
  32   2.0000      -1.036800       -28.2128
  33   2.0000      -1.009172       -27.4610
  34   2.0000      -0.998529       -27.1714
  35   2.0000      -0.983581       -26.7646
  36   2.0000      -0.920230       -25.0407
  37   2.0000      -0.888743       -24.1839
  38   2.0000      -0.846810       -23.0429
  39   2.0000      -0.834124       -22.6977
  40   2.0000      -0.827219       -22.5098
  41   2.0000      -0.817565       -22.2471
  42   2.0000      -0.762776       -20.7562
  43   2.0000      -0.736023       -20.0282
  44   2.0000      -0.725499       -19.7418
  45   2.0000      -0.690380       -18.7862
  46   2.0000      -0.684602       -18.6290
  47   2.0000      -0.680710       -18.5231
  48   2.0000      -0.675642       -18.3851
  49   2.0000      -0.660507       -17.9733
  50   2.0000      -0.649103       -17.6630
  51   2.0000      -0.641781       -17.4638
  52   2.0000      -0.633161       -17.2292
  53   2.0000      -0.603059       -16.4101
  54   2.0000      -0.598420       -16.2838
  55   2.0000      -0.594557       -16.1787
  56   2.0000      -0.593295       -16.1444
  57   2.0000      -0.581637       -15.8271
  58   2.0000      -0.572252       -15.5718
  59   2.0000      -0.564534       -15.3618
  60   2.0000      -0.562165       -15.2973
  61   2.0000      -0.555249       -15.1091
  62   2.0000      -0.541518       -14.7355
  63   2.0000      -0.520219       -14.1559
  64   2.0000      -0.515212       -14.0196
  65   2.0000      -0.510786       -13.8992
  66   2.0000      -0.504075       -13.7166
  67   2.0000      -0.493703       -13.4343
  68   2.0000      -0.480962       -13.0876
  69   2.0000      -0.466324       -12.6893
  70   2.0000      -0.459095       -12.4926
  71   2.0000      -0.453996       -12.3538
  72   2.0000      -0.352948        -9.6042
  73   2.0000      -0.343834        -9.3562
  74   2.0000      -0.326827        -8.8934
  75   2.0000      -0.316875        -8.6226
  76   2.0000      -0.313478        -8.5302
  77   0.0000       0.077858         2.1186
  78   0.0000       0.112494         3.0611
  79   0.0000       0.119889         3.2623
  80   0.0000       0.136030         3.7016
  81   0.0000       0.138564         3.7705

MULLIKEN ATOMIC CHARGES
-----------------------
   0 C :   -0.271791
   1 C :    0.042405
   2 O :   -0.332644
   3 C :    0.406654
   4 O :   -0.423830
   5 C :   -0.170564
   6 C :    0.164757
   7 C :   -0.283231
   8 N :   -0.128846
   9 C :    0.207377
  10 S :   -0.442895
  11 N :   -0.210829
  12 C :    0.042596
  13 C :    0.032308
  14 C :   -0.164458
  15 C :   -0.134576
  16 C :   -0.276958
  17 C :    0.314301
  18 O :   -0.359303
  19 C :   -0.251288
  20 H :    0.097232
  21 H :    0.100820
  22 H :    0.092947
  23 H :    0.096168
  24 H :    0.093837
  25 H :    0.124729
  26 H :    0.103408
  27 H :    0.130138
  28 H :    0.198807
  29 H :    0.199987
  30 H :    0.154699
  31 H :    0.157866
  32 H :    0.159595
  33 H :    0.127934
  34 H :    0.239832
  35 H :    0.162821
Sum of atomic charges:    0.0000000

LOEWDIN ATOMIC CHARGES
----------------------
   0 C :    0.106924
   1 C :   -0.017846
   2 O :    0.307633
   3 C :   -0.415256
   4 O :    0.103136
   5 C :   -0.091371
   6 C :   -0.064020
   7 C :    0.124692
   8 N :    0.405393
   9 C :   -0.458807
  10 S :   -0.037943
  11 N :    0.396596
  12 C :   -0.048275
  13 C :   -0.040352
  14 C :    0.025409
  15 C :    0.040986
  16 C :   -0.001159
  17 C :   -0.192527
  18 O :    0.392948
  19 C :    0.029720
  20 H :   -0.026692
  21 H :   -0.022850
  22 H :   -0.028916
  23 H :   -0.026154
  24 H :   -0.029626
  25 H :   -0.010013
  26 H :   -0.021312
  27 H :   -0.009462
  28 H :   -0.058852
  29 H :   -0.063010
  30 H :   -0.008488
  31 H :   -0.024105
  32 H :   -0.021159
  33 H :   -0.036258
  34 H :   -0.154982
  35 H :   -0.024002

  Mayer bond orders larger than 0.100000
B(  0-C ,  1-C ) :   0.9706 B(  0-C , 20-H ) :   0.9765 B(  0-C , 21-H ) :   0.9789
B(  0-C , 22-H ) :   0.9781 B(  1-C ,  2-O ) :   0.9069 B(  1-C , 23-H ) :   0.9751
B(  1-C , 24-H ) :   0.9798 B(  2-O ,  3-C ) :   1.1644 B(  3-C ,  4-O ) :   1.9806
B(  3-C ,  5-C ) :   1.0509 B(  5-C ,  6-C ) :   1.6523 B(  5-C , 12-C ) :   0.9510
B(  6-C ,  7-C ) :   0.9530 B(  6-C ,  8-N ) :   1.1354 B(  7-C , 25-H ) :   0.9652
B(  7-C , 26-H ) :   0.9918 B(  7-C , 27-H ) :   0.9633 B(  8-N ,  9-C ) :   1.1852
B(  8-N , 28-H ) :   0.9469 B(  9-C , 10-S ) :   1.6075 B(  9-C , 11-N ) :   1.3073
B( 11-N , 12-C ) :   0.9761 B( 11-N , 29-H ) :   0.9485 B( 12-C , 13-C ) :   0.9749
B( 12-C , 30-H ) :   0.9975 B( 13-C , 14-C ) :   1.3753 B( 13-C , 19-C ) :   1.3665
B( 14-C , 15-C ) :   1.3975 B( 14-C , 31-H ) :   0.9642 B( 15-C , 16-C ) :   1.3584
B( 15-C , 32-H ) :   0.9713 B( 16-C , 17-C ) :   1.3335 B( 16-C , 33-H ) :   0.9861
B( 17-C , 18-O ) :   1.1029 B( 17-C , 19-C ) :   1.3676 B( 18-O , 34-H ) :   0.9807
B( 19-C , 35-H ) :   0.9604

MP2 TOTAL ENERGY:    -1274.343033413 Eh
FINAL SINGLE POINT ENERGY     -1274.343033413014

DIPOLE MOMENT
-------------
                                X             Y             Z
Electronic contribution:     10.92933       8.56064      12.40476
Nuclear contribution   :    -12.34726      -9.89815     -13.48619
                        -----------------------------------------
Total Dipole Moment    :     -1.41793      -1.33751      -1.08143
                        -----------------------------------------
Magnitude (a.u.)       :      2.22911
Magnitude (Debye)      :      5.66594

Rotational constants in cm-1:     0.009845     0.008711     0.005467
Rotational constants in MHz :   295.148540   261.141266   163.883844

                             ****ORCA TERMINATED NORMALLY****
TOTAL RUN TIME: 0 days 1 hours 35 minutes 7 seconds 543 msec
