                         Program Version 4.2.0 -  RELEASE  -
|  1> ! ri-mp2 cc-pvtz cc-pvtz/c TightSCF NoKeepInts
|  2>
|  3> %scf
|  4>   MaxCore 4096
|  5> end
|  6> *xyz  0  1
|  7>     C       14.5610225   15.4443590   16.0410239
|  8>     C       15.8770667   14.8251499   15.5178027
|  9>     O       16.9827954   15.7550388   15.5542538
| 10>     C       16.7933235   17.0672667   15.2354444
| 11>     O       16.3458919   17.3842732   14.1473178
| 12>     C       17.0532990   18.0064786   16.3850834
| 13>     C       17.0070713   19.3507451   16.1927650
| 14>     C       16.4187624   20.0899121   15.0083381
| 15>     N       17.5378356   20.2334186   17.1360964
| 16>     C       18.3274914   19.8570374   18.1879869
| 17>     S       19.0208680   20.9626586   19.2039223
| 18>     N       18.5344815   18.5101214   18.3422591
| 19>     C       17.8583396   17.4477436   17.5735377
| 20>     C       17.1016302   16.4783158   18.4715368
| 21>     C       17.5021359   15.1336566   18.5783818
| 22>     C       16.8035080   14.2452857   19.4131024
| 23>     C       15.7017149   14.7079288   20.1530328
| 24>     C       15.3091725   16.0503037   20.0582474
| 25>     O       14.2465689   16.4998395   20.7718154
| 26>     C       16.0054307   16.9315938   19.2251233
| 27>     H       14.6860057   15.8449035   17.0523201
| 28>     H       13.7759738   14.6797106   16.0800092
| 29>     H       14.2052228   16.2484098   15.3847084
| 30>     H       16.1299169   13.9385715   16.1133390
| 31>     H       15.7188793   14.4976481   14.4816532
| 32>     H       17.0323355   19.9335929   14.1117724
| 33>     H       16.3391220   21.1709827   15.1724288
| 34>     H       15.4099235   19.7207933   14.7835700
| 35>     H       17.4165822   21.2263920   17.0162276
| 36>     H       19.1004436   18.2606804   19.1435875
| 37>     H       18.7353555   16.9576695   17.1271807
| 38>     H       18.3522822   14.7749444   18.0038024
| 39>     H       17.1175357   13.2054265   19.4864237
| 40>     H       15.1595196   14.0258521   20.7997848
| 41>     H       13.9280327   15.7646249   21.3168643
| 42>     H       15.6914590   17.9686709   19.1672565
| 43> *
| 44>
| 45>                          ****END OF INPUT****

CARTESIAN COORDINATES (ANGSTROEM)
---------------------------------
  C     14.561022   15.444359   16.041024
  C     15.877067   14.825150   15.517803
  O     16.982795   15.755039   15.554254
  C     16.793323   17.067267   15.235444
  O     16.345892   17.384273   14.147318
  C     17.053299   18.006479   16.385083
  C     17.007071   19.350745   16.192765
  C     16.418762   20.089912   15.008338
  N     17.537836   20.233419   17.136096
  C     18.327491   19.857037   18.187987
  S     19.020868   20.962659   19.203922
  N     18.534481   18.510121   18.342259
  C     17.858340   17.447744   17.573538
  C     17.101630   16.478316   18.471537
  C     17.502136   15.133657   18.578382
  C     16.803508   14.245286   19.413102
  C     15.701715   14.707929   20.153033
  C     15.309173   16.050304   20.058247
  O     14.246569   16.499840   20.771815
  C     16.005431   16.931594   19.225123
  H     14.686006   15.844903   17.052320
  H     13.775974   14.679711   16.080009
  H     14.205223   16.248410   15.384708
  H     16.129917   13.938572   16.113339
  H     15.718879   14.497648   14.481653
  H     17.032335   19.933593   14.111772
  H     16.339122   21.170983   15.172429
  H     15.409923   19.720793   14.783570
  H     17.416582   21.226392   17.016228
  H     19.100444   18.260680   19.143587
  H     18.735356   16.957670   17.127181
  H     18.352282   14.774944   18.003802
  H     17.117536   13.205426   19.486424
  H     15.159520   14.025852   20.799785
  H     13.928033   15.764625   21.316864
  H     15.691459   17.968671   19.167257

 Total Charge           Charge          ....    0
 Multiplicity           Mult            ....    1
 Number of Electrons    NEL             ....  154
 Basis Dimension        Dim             ....  828

ORBITAL ENERGIES
----------------

  NO   OCC          E(Eh)            E(eV)
   0   2.0000     -91.890740     -2500.4742
   1   2.0000     -20.599978      -560.5539
   2   2.0000     -20.583848      -560.1150
   3   2.0000     -20.543767      -559.0243
   4   2.0000     -15.631095      -425.3437
   5   2.0000     -15.608621      -424.7322
   6   2.0000     -11.392918      -310.0170
   7   2.0000     -11.385028      -309.8024
   8   2.0000     -11.339502      -308.5635
   9   2.0000     -11.317503      -307.9649
  10   2.0000     -11.310051      -307.7621
  11   2.0000     -11.298889      -307.4584
  12   2.0000     -11.264206      -306.5146
  13   2.0000     -11.259436      -306.3848
  14   2.0000     -11.259110      -306.3760
  15   2.0000     -11.252969      -306.2089
  16   2.0000     -11.247705      -306.0656
  17   2.0000     -11.242447      -305.9225
  18   2.0000     -11.242131      -305.9139
  19   2.0000     -11.224118      -305.4238
  20   2.0000      -8.895789      -242.0667
  21   2.0000      -6.577355      -178.9789
  22   2.0000      -6.575364      -178.9247
  23   2.0000      -6.574766      -178.9085
  24   2.0000      -1.445528       -39.3348
  25   2.0000      -1.419744       -38.6332
  26   2.0000      -1.350598       -36.7516
  27   2.0000      -1.342483       -36.5308
  28   2.0000      -1.240374       -33.7523
  29   2.0000      -1.160986       -31.5920
  30   2.0000      -1.122269       -30.5385
  31   2.0000      -1.045543       -28.4507
  32   2.0000      -1.031657       -28.0728
  33   2.0000      -1.018900       -27.7257
  34   2.0000      -0.999007       -27.1844
  35   2.0000      -0.987064       -26.8594
  36   2.0000      -0.924132       -25.1469
  37   2.0000      -0.896327       -24.3903
  38   2.0000      -0.848549       -23.0902
  39   2.0000      -0.841604       -22.9012
  40   2.0000      -0.838030       -22.8040
  41   2.0000      -0.816978       -22.2311
  42   2.0000      -0.747223       -20.3330
  43   2.0000      -0.736123       -20.0309
  44   2.0000      -0.722651       -19.6643
  45   2.0000      -0.698423       -19.0051
  46   2.0000      -0.690441       -18.7878
  47   2.0000      -0.674362       -18.3503
  48   2.0000      -0.672192       -18.2913
  49   2.0000      -0.662124       -18.0173
  50   2.0000      -0.649147       -17.6642
  51   2.0000      -0.641954       -17.4685
  52   2.0000      -0.636940       -17.3320
  53   2.0000      -0.620262       -16.8782
  54   2.0000      -0.610207       -16.6046
  55   2.0000      -0.602977       -16.4078
  56   2.0000      -0.601402       -16.3650
  57   2.0000      -0.579876       -15.7792
  58   2.0000      -0.570619       -15.5273
  59   2.0000      -0.566599       -15.4179
  60   2.0000      -0.549013       -14.9394
  61   2.0000      -0.545775       -14.8513
  62   2.0000      -0.534834       -14.5536
  63   2.0000      -0.531596       -14.4655
  64   2.0000      -0.526210       -14.3189
  65   2.0000      -0.514946       -14.0124
  66   2.0000      -0.501695       -13.6518
  67   2.0000      -0.498255       -13.5582
  68   2.0000      -0.481459       -13.1012
  69   2.0000      -0.464610       -12.6427
  70   2.0000      -0.453856       -12.3501
  71   2.0000      -0.443872       -12.0784
  72   2.0000      -0.354500        -9.6464
  73   2.0000      -0.352792        -9.6000
  74   2.0000      -0.329884        -8.9766
  75   2.0000      -0.325268        -8.8510
  76   2.0000      -0.320222        -8.7137
  77   0.0000       0.071401         1.9429
  78   0.0000       0.100825         2.7436
  79   0.0000       0.122859         3.3432
  80   0.0000       0.129770         3.5312
  81   0.0000       0.133941         3.6447

MULLIKEN ATOMIC CHARGES
-----------------------
   0 C :   -0.332594
   1 C :    0.028798
   2 O :   -0.385260
   3 C :    0.475689
   4 O :   -0.419321
   5 C :   -0.243547
   6 C :    0.166220
   7 C :   -0.266943
   8 N :   -0.125371
   9 C :    0.206964
  10 S :   -0.438106
  11 N :   -0.211999
  12 C :    0.053959
  13 C :    0.008444
  14 C :   -0.174654
  15 C :   -0.136843
  16 C :   -0.270855
  17 C :    0.312345
  18 O :   -0.359212
  19 C :   -0.242649
  20 H :    0.114736
  21 H :    0.108118
  22 H :    0.115935
  23 H :    0.112826
  24 H :    0.122134
  25 H :    0.132877
  26 H :    0.094554
  27 H :    0.130984
  28 H :    0.200301
  29 H :    0.199990
  30 H :    0.154316
  31 H :    0.162277
  32 H :    0.165004
  33 H :    0.133244
  34 H :    0.240806
  35 H :    0.166831
Sum of atomic charges:   -0.0000000

LOEWDIN ATOMIC CHARGES
----------------------
   0 C :    0.106662
   1 C :   -0.015301
   2 O :    0.290051
   3 C :   -0.422823
   4 O :    0.108502
   5 C :   -0.100445
   6 C :   -0.053475
   7 C :    0.131451
   8 N :    0.407918
   9 C :   -0.458216
  10 S :   -0.033757
  11 N :    0.395277
  12 C :   -0.053730
  13 C :   -0.042070
  14 C :    0.021029
  15 C :    0.039396
  16 C :   -0.000616
  17 C :   -0.191775
  18 O :    0.396202
  19 C :    0.032779
  20 H :   -0.029772
  21 H :   -0.023722
  22 H :   -0.026737
  23 H :   -0.025997
  24 H :   -0.028342
  25 H :   -0.004051
  26 H :   -0.023467
  27 H :   -0.005014
  28 H :   -0.056754
  29 H :   -0.063760
  30 H :   -0.011727
  31 H :   -0.026850
  32 H :   -0.020544
  33 H :   -0.034666
  34 H :   -0.153269
  35 H :   -0.022388

  Mayer bond orders larger than 0.100000
B(  0-C ,  1-C ) :   0.9535 B(  0-C , 20-H ) :   0.9681 B(  0-C , 21-H ) :   0.9777
B(  0-C , 22-H ) :   0.9736 B(  1-C ,  2-O ) :   0.8903 B(  1-C , 23-H ) :   0.9790
B(  1-C , 24-H ) :   0.9868 B(  2-O ,  3-C ) :   1.1105 B(  3-C ,  4-O ) :   2.0050
B(  3-C ,  5-C ) :   1.0635 B(  5-C ,  6-C ) :   1.6309 B(  5-C , 12-C ) :   0.9559
B(  6-C ,  7-C ) :   0.9667 B(  6-C ,  8-N ) :   1.1528 B(  7-C , 25-H ) :   0.9565
B(  7-C , 26-H ) :   0.9896 B(  7-C , 27-H ) :   0.9633 B(  8-N ,  9-C ) :   1.1851
B(  8-N , 28-H ) :   0.9465 B(  9-C , 10-S ) :   1.6129 B(  9-C , 11-N ) :   1.3055
B( 11-N , 12-C ) :   0.9722 B( 11-N , 29-H ) :   0.9487 B( 12-C , 13-C ) :   0.9580
B( 12-C , 30-H ) :   1.0023 B( 13-C , 14-C ) :   1.3576 B( 13-C , 19-C ) :   1.3729
B( 14-C , 15-C ) :   1.3873 B( 14-C , 31-H ) :   0.9685 B( 15-C , 16-C ) :   1.3606
B( 15-C , 32-H ) :   0.9696 B( 16-C , 17-C ) :   1.3332 B( 16-C , 33-H ) :   0.9837
B( 17-C , 18-O ) :   1.1055 B( 17-C , 19-C ) :   1.3621 B( 18-O , 34-H ) :   0.9795
B( 19-C , 35-H ) :   0.9616

MP2 TOTAL ENERGY:    -1274.330129002 Eh
FINAL SINGLE POINT ENERGY     -1274.330129001687

DIPOLE MOMENT
-------------
                                X             Y             Z
Electronic contribution:      9.24723       9.15833       6.41428
Nuclear contribution   :    -10.29667     -10.83158      -6.42484
                        -----------------------------------------
Total Dipole Moment    :     -1.04944      -1.67325      -0.01056
                        -----------------------------------------
Magnitude (a.u.)       :      1.97515
Magnitude (Debye)      :      5.02043

Rotational constants in cm-1:     0.012254     0.008957     0.006209
Rotational constants in MHz :   367.362099   268.529706   186.130288

                             ****ORCA TERMINATED NORMALLY****
TOTAL RUN TIME: 0 days 2 hours 12 minutes 42 seconds 63 msec
