                         Program Version 4.2.0 -  RELEASE  -
|  1> ! ri-mp2 cc-pvtz cc-pvtz/c TightSCF NoKeepInts
|  2>
|  3> %scf
|  4>   MaxCore 4096
|  5> end
|  6> *xyz  0  1
|  7>     C       14.5471350   16.1107519   16.4379455
|  8>     C       15.1737065   16.0197585   15.0299858
|  9>     O       16.5806180   15.7009690   15.0943967
| 10>     C       17.5943370   16.5394624   15.4874363
| 11>     O       18.7554122   16.2935617   15.2206394
| 12>     C       17.2362769   17.6354805   16.4269895
| 13>     C       16.8819946   18.8423068   15.9275715
| 14>     C       16.5286153   19.1608828   14.4893128
| 15>     N       16.8827139   19.9804745   16.7355592
| 16>     C       17.4764647   20.0422973   17.9691325
| 17>     S       17.5530619   21.4522029   18.8297601
| 18>     N       18.0291508   18.8766373   18.4416349
| 19>     C       17.8798944   17.5495623   17.8104327
| 20>     C       17.2670608   16.4730779   18.6935238
| 21>     C       17.7583052   15.1563566   18.6384293
| 22>     C       17.1846841   14.1465978   19.4287788
| 23>     C       16.1092668   14.4560286   20.2790383
| 24>     C       15.6149470   15.7665205   20.3323457
| 25>     O       14.5697217   16.0654835   21.1439015
| 26>     C       16.1876293   16.7701683   19.5444711
| 27>     H       14.9279679   15.3104247   17.0856065
| 28>     H       13.4580997   15.9984449   16.3729846
| 29>     H       14.7435782   17.0750342   16.9183470
| 30>     H       14.6715468   15.2064042   14.4899828
| 31>     H       14.9946160   16.9413282   14.4652085
| 32>     H       16.8547675   18.3793618   13.7920557
| 33>     H       17.0177348   20.0872926   14.1613061
| 34>     H       15.4464391   19.2929724   14.3702352
| 35>     H       16.5192943   20.8516110   16.3821333
| 36>     H       18.4631101   18.9485426   19.3534935
| 37>     H       18.9377241   17.3114414   17.6219918
| 38>     H       18.5829597   14.9137256   17.9710890
| 39>     H       17.5717005   13.1302395   19.3767757
| 40>     H       15.6620959   13.6784078   20.8894924
| 41>     H       14.3398186   15.2598252   21.6310309
| 42>     H       15.7845508   17.7763628   19.5949813
| 43> *
| 44>
| 45>                          ****END OF INPUT****

CARTESIAN COORDINATES (ANGSTROEM)
---------------------------------
  C     14.547135   16.110752   16.437946
  C     15.173706   16.019758   15.029986
  O     16.580618   15.700969   15.094397
  C     17.594337   16.539462   15.487436
  O     18.755412   16.293562   15.220639
  C     17.236277   17.635480   16.426990
  C     16.881995   18.842307   15.927572
  C     16.528615   19.160883   14.489313
  N     16.882714   19.980474   16.735559
  C     17.476465   20.042297   17.969133
  S     17.553062   21.452203   18.829760
  N     18.029151   18.876637   18.441635
  C     17.879894   17.549562   17.810433
  C     17.267061   16.473078   18.693524
  C     17.758305   15.156357   18.638429
  C     17.184684   14.146598   19.428779
  C     16.109267   14.456029   20.279038
  C     15.614947   15.766521   20.332346
  O     14.569722   16.065483   21.143901
  C     16.187629   16.770168   19.544471
  H     14.927968   15.310425   17.085606
  H     13.458100   15.998445   16.372985
  H     14.743578   17.075034   16.918347
  H     14.671547   15.206404   14.489983
  H     14.994616   16.941328   14.465208
  H     16.854768   18.379362   13.792056
  H     17.017735   20.087293   14.161306
  H     15.446439   19.292972   14.370235
  H     16.519294   20.851611   16.382133
  H     18.463110   18.948543   19.353493
  H     18.937724   17.311441   17.621992
  H     18.582960   14.913726   17.971089
  H     17.571700   13.130240   19.376776
  H     15.662096   13.678408   20.889492
  H     14.339819   15.259825   21.631031
  H     15.784551   17.776363   19.594981

 Total Charge           Charge          ....    0
 Multiplicity           Mult            ....    1
 Number of Electrons    NEL             ....  154
 Basis Dimension        Dim             ....  828

ORBITAL ENERGIES
----------------

  NO   OCC          E(Eh)            E(eV)
   0   2.0000     -91.888828     -2500.4221
   1   2.0000     -20.601243      -560.5883
   2   2.0000     -20.600107      -560.5574
   3   2.0000     -20.554176      -559.3076
   4   2.0000     -15.625232      -425.1842
   5   2.0000     -15.609787      -424.7639
   6   2.0000     -11.400884      -310.2338
   7   2.0000     -11.385028      -309.8024
   8   2.0000     -11.327548      -308.2383
   9   2.0000     -11.317696      -307.9702
  10   2.0000     -11.313052      -307.8438
  11   2.0000     -11.310089      -307.7632
  12   2.0000     -11.268516      -306.6319
  13   2.0000     -11.265892      -306.5605
  14   2.0000     -11.262540      -306.4693
  15   2.0000     -11.258748      -306.3661
  16   2.0000     -11.246888      -306.0434
  17   2.0000     -11.242187      -305.9155
  18   2.0000     -11.241164      -305.8876
  19   2.0000     -11.229379      -305.5670
  20   2.0000      -8.893944      -242.0165
  21   2.0000      -6.575531      -178.9293
  22   2.0000      -6.573513      -178.8744
  23   2.0000      -6.572936      -178.8587
  24   2.0000      -1.448050       -39.4034
  25   2.0000      -1.419831       -38.6356
  26   2.0000      -1.362931       -37.0872
  27   2.0000      -1.339346       -36.4455
  28   2.0000      -1.238605       -33.7041
  29   2.0000      -1.162253       -31.6265
  30   2.0000      -1.126830       -30.6626
  31   2.0000      -1.049297       -28.5528
  32   2.0000      -1.038247       -28.2521
  33   2.0000      -1.020221       -27.7616
  34   2.0000      -1.006970       -27.4011
  35   2.0000      -0.990190       -26.9444
  36   2.0000      -0.927181       -25.2299
  37   2.0000      -0.896563       -24.3967
  38   2.0000      -0.853185       -23.2163
  39   2.0000      -0.841842       -22.9077
  40   2.0000      -0.837638       -22.7933
  41   2.0000      -0.831311       -22.6211
  42   2.0000      -0.751195       -20.4411
  43   2.0000      -0.739426       -20.1208
  44   2.0000      -0.732689       -19.9375
  45   2.0000      -0.697826       -18.9888
  46   2.0000      -0.690551       -18.7908
  47   2.0000      -0.680687       -18.5224
  48   2.0000      -0.674540       -18.3552
  49   2.0000      -0.665574       -18.1112
  50   2.0000      -0.651820       -17.7369
  51   2.0000      -0.646153       -17.5827
  52   2.0000      -0.638416       -17.3722
  53   2.0000      -0.615238       -16.7415
  54   2.0000      -0.610562       -16.6142
  55   2.0000      -0.608091       -16.5470
  56   2.0000      -0.603772       -16.4295
  57   2.0000      -0.589339       -16.0367
  58   2.0000      -0.579864       -15.7789
  59   2.0000      -0.576191       -15.6789
  60   2.0000      -0.563800       -15.3418
  61   2.0000      -0.559079       -15.2133
  62   2.0000      -0.540571       -14.7097
  63   2.0000      -0.530235       -14.4284
  64   2.0000      -0.519755       -14.1433
  65   2.0000      -0.512849       -13.9553
  66   2.0000      -0.506667       -13.7871
  67   2.0000      -0.502218       -13.6660
  68   2.0000      -0.488574       -13.2948
  69   2.0000      -0.462412       -12.5829
  70   2.0000      -0.455535       -12.3957
  71   2.0000      -0.454530       -12.3684
  72   2.0000      -0.355812        -9.6821
  73   2.0000      -0.350248        -9.5307
  74   2.0000      -0.328541        -8.9400
  75   2.0000      -0.325833        -8.8664
  76   2.0000      -0.318754        -8.6737
  77   0.0000       0.092195         2.5088
  78   0.0000       0.105646         2.8748
  79   0.0000       0.112957         3.0737
  80   0.0000       0.127207         3.4615
  81   0.0000       0.129262         3.5174

MULLIKEN ATOMIC CHARGES
-----------------------
   0 C :   -0.317272
   1 C :    0.023100
   2 O :   -0.319202
   3 C :    0.418111
   4 O :   -0.377425
   5 C :   -0.209124
   6 C :    0.155094
   7 C :   -0.338567
   8 N :   -0.141380
   9 C :    0.212613
  10 S :   -0.444800
  11 N :   -0.232694
  12 C :    0.070750
  13 C :    0.020153
  14 C :   -0.220090
  15 C :   -0.131786
  16 C :   -0.278281
  17 C :    0.316809
  18 O :   -0.355962
  19 C :   -0.250935
  20 H :    0.123491
  21 H :    0.111715
  22 H :    0.107264
  23 H :    0.130446
  24 H :    0.086237
  25 H :    0.125913
  26 H :    0.133048
  27 H :    0.124142
  28 H :    0.196888
  29 H :    0.204652
  30 H :    0.171172
  31 H :    0.169785
  32 H :    0.164488
  33 H :    0.132661
  34 H :    0.241355
  35 H :    0.177633
Sum of atomic charges:   -0.0000000

LOEWDIN ATOMIC CHARGES
----------------------
   0 C :    0.102313
   1 C :   -0.018530
   2 O :    0.302730
   3 C :   -0.417309
   4 O :    0.125446
   5 C :   -0.076407
   6 C :   -0.099710
   7 C :    0.122987
   8 N :    0.401635
   9 C :   -0.455727
  10 S :   -0.039925
  11 N :    0.396734
  12 C :   -0.048957
  13 C :   -0.042520
  14 C :    0.018528
  15 C :    0.045056
  16 C :   -0.000579
  17 C :   -0.190841
  18 O :    0.396289
  19 C :    0.030372
  20 H :   -0.019609
  21 H :   -0.026287
  22 H :   -0.036075
  23 H :   -0.018462
  24 H :   -0.037816
  25 H :   -0.008904
  26 H :   -0.009762
  27 H :   -0.018105
  28 H :   -0.058090
  29 H :   -0.063965
  30 H :   -0.002676
  31 H :   -0.022153
  32 H :   -0.018228
  33 H :   -0.034583
  34 H :   -0.153097
  35 H :   -0.023770

  Mayer bond orders larger than 0.100000
B(  0-C ,  1-C ) :   0.9528 B(  0-C , 20-H ) :   0.9693 B(  0-C , 21-H ) :   0.9771
B(  0-C , 22-H ) :   0.9722 B(  1-C ,  2-O ) :   0.9071 B(  1-C , 23-H ) :   0.9844
B(  1-C , 24-H ) :   0.9756 B(  2-O ,  3-C ) :   1.1653 B(  3-C ,  4-O ) :   2.1083
B(  3-C ,  5-C ) :   0.9060 B(  5-C ,  6-C ) :   1.7308 B(  5-C , 12-C ) :   0.9335
B(  6-C ,  7-C ) :   0.9330 B(  6-C ,  8-N ) :   1.0978 B(  7-C , 25-H ) :   0.9786
B(  7-C , 26-H ) :   0.9742 B(  7-C , 27-H ) :   0.9673 B(  8-N ,  9-C ) :   1.2034
B(  8-N , 28-H ) :   0.9521 B(  9-C , 10-S ) :   1.6066 B(  9-C , 11-N ) :   1.2868
B( 11-N , 12-C ) :   0.9761 B( 11-N , 29-H ) :   0.9463 B( 12-C , 13-C ) :   0.9665
B( 12-C , 30-H ) :   0.9892 B( 13-C , 14-C ) :   1.3837 B( 13-C , 19-C ) :   1.3467
B( 14-C , 15-C ) :   1.4002 B( 14-C , 31-H ) :   0.9632 B( 15-C , 16-C ) :   1.3597
B( 15-C , 32-H ) :   0.9696 B( 16-C , 17-C ) :   1.3306 B( 16-C , 33-H ) :   0.9847
B( 17-C , 18-O ) :   1.1104 B( 17-C , 19-C ) :   1.3659 B( 18-O , 34-H ) :   0.9792
B( 19-C , 35-H ) :   0.9556

MP2 TOTAL ENERGY:    -1274.322697458 Eh
FINAL SINGLE POINT ENERGY     -1274.322697458056

DIPOLE MOMENT
-------------
                                X             Y             Z
Electronic contribution:      8.67132       6.77266       6.78163
Nuclear contribution   :    -10.30863      -8.13923      -7.33596
                        -----------------------------------------
Total Dipole Moment    :     -1.63731      -1.36657      -0.55433
                        -----------------------------------------
Magnitude (a.u.)       :      2.20354
Magnitude (Debye)      :      5.60095

Rotational constants in cm-1:     0.011824     0.009224     0.006501
Rotational constants in MHz :   354.474025   276.539117   194.884562

                             ****ORCA TERMINATED NORMALLY****
TOTAL RUN TIME: 0 days 1 hours 46 minutes 29 seconds 899 msec
