                         Program Version 4.2.0 -  RELEASE  -
|  1> ! ri-mp2 cc-pvtz cc-pvtz/c TightSCF NoKeepInts
|  2>
|  3> %scf
|  4>   MaxCore 4096
|  5> end
|  6> *xyz  0  1
|  7>     C       14.7803369   14.6009001   14.4029779
|  8>     C       14.5894425   15.9970557   15.0283741
|  9>     O       15.7847262   16.7803890   14.8558965
| 10>     C       16.8212115   16.5985671   15.7237103
| 11>     O       17.3665707   15.5189776   15.8724160
| 12>     C       17.0933897   17.7720790   16.6198625
| 13>     C       16.9526971   19.0571602   16.2009954
| 14>     C       16.3160920   19.5510457   14.9167732
| 15>     N       17.4700343   20.1133871   16.9552114
| 16>     C       18.3262174   19.9629423   18.0126875
| 17>     S       18.9866488   21.2633916   18.7923778
| 18>     N       18.6247261   18.6745120   18.3775087
| 19>     C       17.9863083   17.4628345   17.8274375
| 20>     C       17.2968926   16.6104966   18.8846333
| 21>     C       17.6151757   15.2478969   19.0264807
| 22>     C       16.9763451   14.4623113   20.0004622
| 23>     C       16.0115512   15.0447277   20.8402966
| 24>     C       15.6906338   16.4018812   20.6992707
| 25>     O       14.7554626   16.9655156   21.5048526
| 26>     C       16.3274856   17.1809583   19.7279531
| 27>     H       15.1420621   14.6846240   13.3706733
| 28>     H       13.8296802   14.0544939   14.3896881
| 29>     H       15.5011315   14.0032608   14.9741938
| 30>     H       13.7586855   16.4988080   14.5158328
| 31>     H       14.3298262   15.9086140   16.0923082
| 32>     H       16.7604066   19.0548039   14.0445626
| 33>     H       16.4421419   20.6303571   14.7672662
| 34>     H       15.2390059   19.3434221   14.9118484
| 35>     H       17.2796988   21.0648765   16.6841950
| 36>     H       19.2435480   18.5908163   19.1742052
| 37>     H       18.8671944   16.9422274   17.4239475
| 38>     H       18.3502459   14.7934182   18.3661041
| 39>     H       17.2268485   13.4073534   20.0967785
| 40>     H       15.5149451   14.4412183   21.5927402
| 41>     H       14.4613779   16.2843176   22.1280991
| 42>     H       16.0682533   18.2303588   19.6353794
| 43> *
| 44>
| 45>                          ****END OF INPUT****

CARTESIAN COORDINATES (ANGSTROEM)
---------------------------------
  C     14.780337   14.600900   14.402978
  C     14.589442   15.997056   15.028374
  O     15.784726   16.780389   14.855897
  C     16.821212   16.598567   15.723710
  O     17.366571   15.518978   15.872416
  C     17.093390   17.772079   16.619862
  C     16.952697   19.057160   16.200995
  C     16.316092   19.551046   14.916773
  N     17.470034   20.113387   16.955211
  C     18.326217   19.962942   18.012687
  S     18.986649   21.263392   18.792378
  N     18.624726   18.674512   18.377509
  C     17.986308   17.462834   17.827437
  C     17.296893   16.610497   18.884633
  C     17.615176   15.247897   19.026481
  C     16.976345   14.462311   20.000462
  C     16.011551   15.044728   20.840297
  C     15.690634   16.401881   20.699271
  O     14.755463   16.965516   21.504853
  C     16.327486   17.180958   19.727953
  H     15.142062   14.684624   13.370673
  H     13.829680   14.054494   14.389688
  H     15.501131   14.003261   14.974194
  H     13.758685   16.498808   14.515833
  H     14.329826   15.908614   16.092308
  H     16.760407   19.054804   14.044563
  H     16.442142   20.630357   14.767266
  H     15.239006   19.343422   14.911848
  H     17.279699   21.064877   16.684195
  H     19.243548   18.590816   19.174205
  H     18.867194   16.942227   17.423948
  H     18.350246   14.793418   18.366104
  H     17.226848   13.407353   20.096778
  H     15.514945   14.441218   21.592740
  H     14.461378   16.284318   22.128099
  H     16.068253   18.230359   19.635379

 Total Charge           Charge          ....    0
 Multiplicity           Mult            ....    1
 Number of Electrons    NEL             ....  154
 Basis Dimension        Dim             ....  828

ORBITAL ENERGIES
----------------

  NO   OCC          E(Eh)            E(eV)
   0   2.0000     -91.889028     -2500.4276
   1   2.0000     -20.593769      -560.3849
   2   2.0000     -20.589800      -560.2769
   3   2.0000     -20.551972      -559.2476
   4   2.0000     -15.629780      -425.3079
   5   2.0000     -15.606645      -424.6784
   6   2.0000     -11.395808      -310.0957
   7   2.0000     -11.383679      -309.7657
   8   2.0000     -11.339039      -308.5509
   9   2.0000     -11.309952      -307.7594
  10   2.0000     -11.304984      -307.6243
  11   2.0000     -11.304927      -307.6227
  12   2.0000     -11.260063      -306.4019
  13   2.0000     -11.259927      -306.3982
  14   2.0000     -11.257102      -306.3213
  15   2.0000     -11.249961      -306.1270
  16   2.0000     -11.240074      -305.8580
  17   2.0000     -11.236238      -305.7536
  18   2.0000     -11.232881      -305.6622
  19   2.0000     -11.221256      -305.3459
  20   2.0000      -8.894105      -242.0209
  21   2.0000      -6.575680      -178.9333
  22   2.0000      -6.573679      -178.8789
  23   2.0000      -6.573089      -178.8628
  24   2.0000      -1.451583       -39.4996
  25   2.0000      -1.413520       -38.4638
  26   2.0000      -1.359256       -36.9872
  27   2.0000      -1.340841       -36.4861
  28   2.0000      -1.237933       -33.6859
  29   2.0000      -1.154329       -31.4109
  30   2.0000      -1.121698       -30.5229
  31   2.0000      -1.043254       -28.3884
  32   2.0000      -1.032515       -28.0962
  33   2.0000      -1.011891       -27.5350
  34   2.0000      -0.999607       -27.2007
  35   2.0000      -0.984477       -26.7890
  36   2.0000      -0.922025       -25.0896
  37   2.0000      -0.886973       -24.1358
  38   2.0000      -0.849543       -23.1172
  39   2.0000      -0.837687       -22.7946
  40   2.0000      -0.830156       -22.5897
  41   2.0000      -0.825468       -22.4621
  42   2.0000      -0.751604       -20.4522
  43   2.0000      -0.733337       -19.9551
  44   2.0000      -0.727817       -19.8049
  45   2.0000      -0.692283       -18.8380
  46   2.0000      -0.686323       -18.6758
  47   2.0000      -0.680569       -18.5192
  48   2.0000      -0.670242       -18.2382
  49   2.0000      -0.665859       -18.1190
  50   2.0000      -0.646254       -17.5855
  51   2.0000      -0.643746       -17.5172
  52   2.0000      -0.634558       -17.2672
  53   2.0000      -0.605787       -16.4843
  54   2.0000      -0.600221       -16.3329
  55   2.0000      -0.597365       -16.2551
  56   2.0000      -0.594866       -16.1871
  57   2.0000      -0.585229       -15.9249
  58   2.0000      -0.574708       -15.6386
  59   2.0000      -0.570325       -15.5193
  60   2.0000      -0.560869       -15.2620
  61   2.0000      -0.549702       -14.9581
  62   2.0000      -0.537236       -14.6189
  63   2.0000      -0.519357       -14.1324
  64   2.0000      -0.518041       -14.0966
  65   2.0000      -0.511162       -13.9094
  66   2.0000      -0.501277       -13.6404
  67   2.0000      -0.495329       -13.4786
  68   2.0000      -0.480232       -13.0678
  69   2.0000      -0.463229       -12.6051
  70   2.0000      -0.457386       -12.4461
  71   2.0000      -0.449421       -12.2294
  72   2.0000      -0.354032        -9.6337
  73   2.0000      -0.346461        -9.4277
  74   2.0000      -0.328079        -8.9275
  75   2.0000      -0.318251        -8.6600
  76   2.0000      -0.316687        -8.6175
  77   0.0000       0.072862         1.9827
  78   0.0000       0.108769         2.9598
  79   0.0000       0.121035         3.2935
  80   0.0000       0.134479         3.6594
  81   0.0000       0.138828         3.7777

MULLIKEN ATOMIC CHARGES
-----------------------
   0 C :   -0.273174
   1 C :    0.039102
   2 O :   -0.372240
   3 C :    0.439658
   4 O :   -0.401830
   5 C :   -0.178061
   6 C :    0.151076
   7 C :   -0.279098
   8 N :   -0.127547
   9 C :    0.206944
  10 S :   -0.440917
  11 N :   -0.211252
  12 C :    0.041541
  13 C :    0.033963
  14 C :   -0.175588
  15 C :   -0.133536
  16 C :   -0.277724
  17 C :    0.314031
  18 O :   -0.358630
  19 C :   -0.254678
  20 H :    0.094279
  21 H :    0.088586
  22 H :    0.118485
  23 H :    0.099397
  24 H :    0.089356
  25 H :    0.127922
  26 H :    0.102430
  27 H :    0.124791
  28 H :    0.198967
  29 H :    0.199795
  30 H :    0.156911
  31 H :    0.161817
  32 H :    0.161002
  33 H :    0.129089
  34 H :    0.240276
  35 H :    0.164860
Sum of atomic charges:   -0.0000000

LOEWDIN ATOMIC CHARGES
----------------------
   0 C :    0.106494
   1 C :   -0.018526
   2 O :    0.293462
   3 C :   -0.417095
   4 O :    0.124345
   5 C :   -0.096014
   6 C :   -0.064394
   7 C :    0.125915
   8 N :    0.405776
   9 C :   -0.458370
  10 S :   -0.036580
  11 N :    0.396174
  12 C :   -0.048632
  13 C :   -0.041342
  14 C :    0.023840
  15 C :    0.041117
  16 C :   -0.001210
  17 C :   -0.192966
  18 O :    0.393208
  19 C :    0.028649
  20 H :   -0.026505
  21 H :   -0.030159
  22 H :   -0.025851
  23 H :   -0.025359
  24 H :   -0.029699
  25 H :   -0.007701
  26 H :   -0.020743
  27 H :   -0.009863
  28 H :   -0.058365
  29 H :   -0.063312
  30 H :   -0.007843
  31 H :   -0.023631
  32 H :   -0.020659
  33 H :   -0.035901
  34 H :   -0.154505
  35 H :   -0.023758

  Mayer bond orders larger than 0.100000
B(  0-C ,  1-C ) :   0.9821 B(  0-C , 20-H ) :   0.9760 B(  0-C , 21-H ) :   0.9753
B(  0-C , 22-H ) :   0.9712 B(  1-C ,  2-O ) :   0.9014 B(  1-C , 23-H ) :   0.9827
B(  1-C , 24-H ) :   0.9731 B(  2-O ,  3-C ) :   1.0592 B(  3-C ,  4-O ) :   2.0141
B(  3-C ,  5-C ) :   1.0388 B(  5-C ,  6-C ) :   1.6626 B(  5-C , 12-C ) :   0.9477
B(  6-C ,  7-C ) :   0.9537 B(  6-C ,  8-N ) :   1.1379 B(  7-C , 25-H ) :   0.9654
B(  7-C , 26-H ) :   0.9901 B(  7-C , 27-H ) :   0.9647 B(  8-N ,  9-C ) :   1.1846
B(  8-N , 28-H ) :   0.9469 B(  9-C , 10-S ) :   1.6102 B(  9-C , 11-N ) :   1.3047
B( 11-N , 12-C ) :   0.9773 B( 11-N , 29-H ) :   0.9485 B( 12-C , 13-C ) :   0.9702
B( 12-C , 30-H ) :   0.9964 B( 13-C , 14-C ) :   1.3787 B( 13-C , 19-C ) :   1.3631
B( 14-C , 15-C ) :   1.3969 B( 14-C , 31-H ) :   0.9628 B( 15-C , 16-C ) :   1.3593
B( 15-C , 32-H ) :   0.9708 B( 16-C , 17-C ) :   1.3330 B( 16-C , 33-H ) :   0.9857
B( 17-C , 18-O ) :   1.1045 B( 17-C , 19-C ) :   1.3667 B( 18-O , 34-H ) :   0.9803
B( 19-C , 35-H ) :   0.9599

MP2 TOTAL ENERGY:    -1274.327530880 Eh
FINAL SINGLE POINT ENERGY     -1274.327530880042

DIPOLE MOMENT
-------------
                                X             Y             Z
Electronic contribution:      9.91197      10.40785      10.21242
Nuclear contribution   :    -11.50420     -11.51351     -10.93165
                        -----------------------------------------
Total Dipole Moment    :     -1.59223      -1.10566      -0.71923
                        -----------------------------------------
Magnitude (a.u.)       :      2.06760
Magnitude (Debye)      :      5.25542

Rotational constants in cm-1:     0.010241     0.009156     0.005725
Rotational constants in MHz :   307.018229   274.488265   171.626537

                             ****ORCA TERMINATED NORMALLY****
TOTAL RUN TIME: 0 days 1 hours 36 minutes 29 seconds 370 msec
