                         Program Version 4.2.0 -  RELEASE  -
|  1> ! ri-mp2 cc-pvtz cc-pvtz/c TightSCF NoKeepInts
|  2>
|  3> %scf
|  4>   MaxCore 4096
|  5> end
|  6> *xyz  0  1
|  7>     C       14.6418697   15.8817364   16.3738308
|  8>     C       15.0738503   16.2198512   14.9308047
|  9>     O       16.4892558   15.9951815   14.7295915
| 10>     C       17.5190091   16.4827481   15.4985087
| 11>     O       18.6124597   15.9485052   15.4784848
| 12>     C       17.2209829   17.6173010   16.4244171
| 13>     C       16.8775593   18.8314348   15.9273372
| 14>     C       16.5576550   19.1850184   14.4881827
| 15>     N       16.9115565   19.9704582   16.7339421
| 16>     C       17.5270846   20.0285679   17.9561721
| 17>     S       17.6449623   21.4418519   18.8064105
| 18>     N       18.0694789   18.8569072   18.4227313
| 19>     C       17.8844539   17.5298662   17.8022391
| 20>     C       17.2600107   16.4791624   18.7095661
| 21>     C       17.7330418   15.1548610   18.6826994
| 22>     C       17.1492231   14.1706027   19.4973100
| 23>     C       16.0820568   14.5132544   20.3450827
| 24>     C       15.6068509   15.8315180   20.3722573
| 25>     O       14.5704300   16.1630593   21.1824709
| 26>     C       16.1898561   16.8096774   19.5602179
| 27>     H       15.1662201   14.9914451   16.7450057
| 28>     H       13.5652677   15.6749696   16.4061466
| 29>     H       14.8298413   16.7143083   17.0598216
| 30>     H       14.5259909   15.5660932   14.2396192
| 31>     H       14.7887881   17.2497003   14.6934737
| 32>     H       16.8220370   18.3869166   13.7845074
| 33>     H       17.1246748   20.0693771   14.1694359
| 34>     H       15.4920709   19.4113925   14.3626586
| 35>     H       16.5581810   20.8469090   16.3834087
| 36>     H       18.5206730   18.9248948   19.3265248
| 37>     H       18.9349548   17.2680402   17.6053405
| 38>     H       18.5521766   14.8861999   18.0183098
| 39>     H       17.5227554   13.1483720   19.4661110
| 40>     H       15.6271498   13.7554631   20.9744428
| 41>     H       14.3325038   15.3717293   21.6888686
| 42>     H       15.8020671   17.8226256   19.5920682
| 43> *
| 44>
| 45>                          ****END OF INPUT****

CARTESIAN COORDINATES (ANGSTROEM)
---------------------------------
  C     14.641870   15.881736   16.373831
  C     15.073850   16.219851   14.930805
  O     16.489256   15.995181   14.729591
  C     17.519009   16.482748   15.498509
  O     18.612460   15.948505   15.478485
  C     17.220983   17.617301   16.424417
  C     16.877559   18.831435   15.927337
  C     16.557655   19.185018   14.488183
  N     16.911556   19.970458   16.733942
  C     17.527085   20.028568   17.956172
  S     17.644962   21.441852   18.806410
  N     18.069479   18.856907   18.422731
  C     17.884454   17.529866   17.802239
  C     17.260011   16.479162   18.709566
  C     17.733042   15.154861   18.682699
  C     17.149223   14.170603   19.497310
  C     16.082057   14.513254   20.345083
  C     15.606851   15.831518   20.372257
  O     14.570430   16.163059   21.182471
  C     16.189856   16.809677   19.560218
  H     15.166220   14.991445   16.745006
  H     13.565268   15.674970   16.406147
  H     14.829841   16.714308   17.059822
  H     14.525991   15.566093   14.239619
  H     14.788788   17.249700   14.693474
  H     16.822037   18.386917   13.784507
  H     17.124675   20.069377   14.169436
  H     15.492071   19.411393   14.362659
  H     16.558181   20.846909   16.383409
  H     18.520673   18.924895   19.326525
  H     18.934955   17.268040   17.605341
  H     18.552177   14.886200   18.018310
  H     17.522755   13.148372   19.466111
  H     15.627150   13.755463   20.974443
  H     14.332504   15.371729   21.688869
  H     15.802067   17.822626   19.592068

 Total Charge           Charge          ....    0
 Multiplicity           Mult            ....    1
 Number of Electrons    NEL             ....  154
 Basis Dimension        Dim             ....  828

ORBITAL ENERGIES
----------------

  NO   OCC          E(Eh)            E(eV)
   0   2.0000     -91.889996     -2500.4539
   1   2.0000     -20.601368      -560.5917
   2   2.0000     -20.599061      -560.5290
   3   2.0000     -20.550162      -559.1983
   4   2.0000     -15.627797      -425.2540
   5   2.0000     -15.609712      -424.7619
   6   2.0000     -11.400972      -310.2362
   7   2.0000     -11.385814      -309.8238
   8   2.0000     -11.334362      -308.4237
   9   2.0000     -11.316339      -307.9333
  10   2.0000     -11.310641      -307.7782
  11   2.0000     -11.309937      -307.7590
  12   2.0000     -11.267776      -306.6118
  13   2.0000     -11.265965      -306.5625
  14   2.0000     -11.264178      -306.5139
  15   2.0000     -11.256724      -306.3110
  16   2.0000     -11.245428      -306.0036
  17   2.0000     -11.241103      -305.8860
  18   2.0000     -11.238190      -305.8067
  19   2.0000     -11.230517      -305.5979
  20   2.0000      -8.895103      -242.0481
  21   2.0000      -6.576686      -178.9607
  22   2.0000      -6.574672      -178.9059
  23   2.0000      -6.574090      -178.8901
  24   2.0000      -1.446466       -39.3603
  25   2.0000      -1.418796       -38.6074
  26   2.0000      -1.360362       -37.0173
  27   2.0000      -1.341508       -36.5043
  28   2.0000      -1.239794       -33.7365
  29   2.0000      -1.160612       -31.5819
  30   2.0000      -1.126254       -30.6469
  31   2.0000      -1.048083       -28.5198
  32   2.0000      -1.037622       -28.2351
  33   2.0000      -1.018904       -27.7258
  34   2.0000      -1.006878       -27.3986
  35   2.0000      -0.990316       -26.9479
  36   2.0000      -0.927018       -25.2255
  37   2.0000      -0.898064       -24.4376
  38   2.0000      -0.854082       -23.2407
  39   2.0000      -0.841653       -22.9025
  40   2.0000      -0.836016       -22.7491
  41   2.0000      -0.830399       -22.5963
  42   2.0000      -0.746448       -20.3119
  43   2.0000      -0.739248       -20.1160
  44   2.0000      -0.731949       -19.9173
  45   2.0000      -0.696340       -18.9484
  46   2.0000      -0.688601       -18.7378
  47   2.0000      -0.681007       -18.5311
  48   2.0000      -0.674761       -18.3612
  49   2.0000      -0.662698       -18.0329
  50   2.0000      -0.654812       -17.8183
  51   2.0000      -0.649355       -17.6698
  52   2.0000      -0.638388       -17.3714
  53   2.0000      -0.619786       -16.8652
  54   2.0000      -0.611952       -16.6520
  55   2.0000      -0.606779       -16.5113
  56   2.0000      -0.602515       -16.3953
  57   2.0000      -0.588190       -16.0055
  58   2.0000      -0.577008       -15.7012
  59   2.0000      -0.568380       -15.4664
  60   2.0000      -0.564147       -15.3512
  61   2.0000      -0.554670       -15.0933
  62   2.0000      -0.539779       -14.6881
  63   2.0000      -0.535577       -14.5738
  64   2.0000      -0.521563       -14.1924
  65   2.0000      -0.512494       -13.9457
  66   2.0000      -0.502786       -13.6815
  67   2.0000      -0.501474       -13.6458
  68   2.0000      -0.485083       -13.1998
  69   2.0000      -0.467206       -12.7133
  70   2.0000      -0.455956       -12.4072
  71   2.0000      -0.451127       -12.2758
  72   2.0000      -0.357666        -9.7326
  73   2.0000      -0.349554        -9.5119
  74   2.0000      -0.329542        -8.9673
  75   2.0000      -0.324281        -8.8241
  76   2.0000      -0.320261        -8.7147
  77   0.0000       0.084723         2.3054
  78   0.0000       0.104891         2.8542
  79   0.0000       0.114742         3.1223
  80   0.0000       0.127264         3.4630
  81   0.0000       0.130186         3.5425

MULLIKEN ATOMIC CHARGES
-----------------------
   0 C :   -0.324219
   1 C :    0.032950
   2 O :   -0.328371
   3 C :    0.432389
   4 O :   -0.382619
   5 C :   -0.244807
   6 C :    0.169586
   7 C :   -0.339986
   8 N :   -0.140800
   9 C :    0.208079
  10 S :   -0.442850
  11 N :   -0.229733
  12 C :    0.082280
  13 C :    0.021916
  14 C :   -0.232695
  15 C :   -0.129852
  16 C :   -0.276956
  17 C :    0.321732
  18 O :   -0.356123
  19 C :   -0.260503
  20 H :    0.122972
  21 H :    0.112710
  22 H :    0.110350
  23 H :    0.128633
  24 H :    0.083364
  25 H :    0.135847
  26 H :    0.135513
  27 H :    0.122891
  28 H :    0.197475
  29 H :    0.204674
  30 H :    0.168930
  31 H :    0.180111
  32 H :    0.165222
  33 H :    0.132017
  34 H :    0.241193
  35 H :    0.178680
Sum of atomic charges:   -0.0000000

LOEWDIN ATOMIC CHARGES
----------------------
   0 C :    0.104645
   1 C :   -0.017688
   2 O :    0.297799
   3 C :   -0.415155
   4 O :    0.120540
   5 C :   -0.080752
   6 C :   -0.090813
   7 C :    0.122842
   8 N :    0.402786
   9 C :   -0.457846
  10 S :   -0.038212
  11 N :    0.396630
  12 C :   -0.047524
  13 C :   -0.042476
  14 C :    0.019746
  15 C :    0.043929
  16 C :   -0.000633
  17 C :   -0.191203
  18 O :    0.395588
  19 C :    0.028347
  20 H :   -0.020289
  21 H :   -0.024991
  22 H :   -0.034337
  23 H :   -0.019312
  24 H :   -0.038355
  25 H :   -0.008249
  26 H :   -0.009740
  27 H :   -0.018967
  28 H :   -0.056886
  29 H :   -0.063357
  30 H :   -0.003462
  31 H :   -0.021540
  32 H :   -0.018586
  33 H :   -0.034888
  34 H :   -0.153264
  35 H :   -0.024329

  Mayer bond orders larger than 0.100000
B(  0-C ,  1-C ) :   0.9525 B(  0-C , 20-H ) :   0.9692 B(  0-C , 21-H ) :   0.9774
B(  0-C , 22-H ) :   0.9719 B(  1-C ,  2-O ) :   0.9038 B(  1-C , 23-H ) :   0.9829
B(  1-C , 24-H ) :   0.9726 B(  2-O ,  3-C ) :   1.1721 B(  3-C ,  4-O ) :   2.0871
B(  3-C ,  5-C ) :   0.9245 B(  5-C ,  6-C ) :   1.7077 B(  5-C , 12-C ) :   0.9325
B(  6-C ,  7-C ) :   0.9365 B(  6-C ,  8-N ) :   1.1081 B(  7-C , 25-H ) :   0.9754
B(  7-C , 26-H ) :   0.9731 B(  7-C , 27-H ) :   0.9664 B(  8-N ,  9-C ) :   1.1982
B(  8-N , 28-H ) :   0.9514 B(  9-C , 10-S ) :   1.6087 B(  9-C , 11-N ) :   1.2915
B( 11-N , 12-C ) :   0.9778 B( 11-N , 29-H ) :   0.9469 B( 12-C , 13-C ) :   0.9710
B( 12-C , 30-H ) :   0.9888 B( 13-C , 14-C ) :   1.3867 B( 13-C , 19-C ) :   1.3414
B( 14-C , 15-C ) :   1.3964 B( 14-C , 31-H ) :   0.9577 B( 15-C , 16-C ) :   1.3592
B( 15-C , 32-H ) :   0.9697 B( 16-C , 17-C ) :   1.3318 B( 16-C , 33-H ) :   0.9847
B( 17-C , 18-O ) :   1.1092 B( 17-C , 19-C ) :   1.3617 B( 18-O , 34-H ) :   0.9795
B( 19-C , 35-H ) :   0.9561

MP2 TOTAL ENERGY:    -1274.327626779 Eh
FINAL SINGLE POINT ENERGY     -1274.327626779067

DIPOLE MOMENT
-------------
                                X             Y             Z
Electronic contribution:      8.46686       7.07264       6.68603
Nuclear contribution   :    -10.08351      -8.24404      -7.23749
                        -----------------------------------------
Total Dipole Moment    :     -1.61665      -1.17139      -0.55146
                        -----------------------------------------
Magnitude (a.u.)       :      2.07119
Magnitude (Debye)      :      5.26454

Rotational constants in cm-1:     0.011628     0.009281     0.006445
Rotational constants in MHz :   348.593096   278.230704   193.224838

                             ****ORCA TERMINATED NORMALLY****
TOTAL RUN TIME: 0 days 1 hours 54 minutes 27 seconds 377 msec
