                         Program Version 4.2.0 -  RELEASE  -
|  1> ! ri-mp2 cc-pvtz cc-pvtz/c TightSCF NoKeepInts
|  2>
|  3> %scf
|  4>   MaxCore 4096
|  5> end
|  6> *xyz  0  1
|  7>     C       13.7311010   16.2200244   14.4819784
|  8>     C       14.8303233   16.1676493   15.5565698
|  9>     O       16.0974269   16.2833613   14.8818890
| 10>     C       17.2306012   16.5584592   15.5961889
| 11>     O       18.2408909   15.8950214   15.4522440
| 12>     C       17.1324439   17.6630946   16.6028352
| 13>     C       16.6509337   18.8844004   16.2603160
| 14>     C       15.9738912   19.2749781   14.9616593
| 15>     N       16.8248647   19.9822873   17.1055613
| 16>     C       17.6712195   19.9983066   18.1823817
| 17>     S       17.9171090   21.3670874   19.0769124
| 18>     N       18.3221461   18.8231752   18.4659026
| 19>     C       18.0605542   17.5258792   17.8112137
| 20>     C       17.6290030   16.4183585   18.7613547
| 21>     C       18.2264715   15.1473914   18.6885838
| 22>     C       17.8193441   14.1163617   19.5516224
| 23>     C       16.8044099   14.3580906   20.4933681
| 24>     C       16.2031079   15.6222639   20.5635972
| 25>     O       15.2163976   15.8559097   21.4650239
| 26>     C       16.6093998   16.6464877   19.7021086
| 27>     H       12.7384511   16.1388085   14.9414814
| 28>     H       13.8484811   15.3906275   13.7729981
| 29>     H       13.7750126   17.1604777   13.9197430
| 30>     H       14.6677568   16.9848643   16.2700686
| 31>     H       14.7815556   15.2174175   16.1054018
| 32>     H       14.8936043   19.0977322   15.0108436
| 33>     H       16.3740985   18.7125505   14.1086951
| 34>     H       16.1254765   20.3357617   14.7250103
| 35>     H       16.3798473   20.8604432   16.8897340
| 36>     H       18.9351582   18.8589333   19.2708914
| 37>     H       19.0581067   17.3090955   17.4005823
| 38>     H       19.0023241   14.9558641   17.9499406
| 39>     H       18.2874658   13.1356654   19.4844847
| 40>     H       16.4862870   13.5638655   21.1606716
| 41>     H       15.1103434   15.0512054   21.9947006
| 42>     H       16.1313915   17.6180998   19.7714417
| 43> *
| 44>
| 45>                          ****END OF INPUT****

CARTESIAN COORDINATES (ANGSTROEM)
---------------------------------
  C     13.731101   16.220024   14.481978
  C     14.830323   16.167649   15.556570
  O     16.097427   16.283361   14.881889
  C     17.230601   16.558459   15.596189
  O     18.240891   15.895021   15.452244
  C     17.132444   17.663095   16.602835
  C     16.650934   18.884400   16.260316
  C     15.973891   19.274978   14.961659
  N     16.824865   19.982287   17.105561
  C     17.671219   19.998307   18.182382
  S     17.917109   21.367087   19.076912
  N     18.322146   18.823175   18.465903
  C     18.060554   17.525879   17.811214
  C     17.629003   16.418359   18.761355
  C     18.226471   15.147391   18.688584
  C     17.819344   14.116362   19.551622
  C     16.804410   14.358091   20.493368
  C     16.203108   15.622264   20.563597
  O     15.216398   15.855910   21.465024
  C     16.609400   16.646488   19.702109
  H     12.738451   16.138808   14.941481
  H     13.848481   15.390627   13.772998
  H     13.775013   17.160478   13.919743
  H     14.667757   16.984864   16.270069
  H     14.781556   15.217417   16.105402
  H     14.893604   19.097732   15.010844
  H     16.374098   18.712550   14.108695
  H     16.125477   20.335762   14.725010
  H     16.379847   20.860443   16.889734
  H     18.935158   18.858933   19.270891
  H     19.058107   17.309096   17.400582
  H     19.002324   14.955864   17.949941
  H     18.287466   13.135665   19.484485
  H     16.486287   13.563866   21.160672
  H     15.110343   15.051205   21.994701
  H     16.131391   17.618100   19.771442

 Total Charge           Charge          ....    0
 Multiplicity           Mult            ....    1
 Number of Electrons    NEL             ....  154
 Basis Dimension        Dim             ....  828

ORBITAL ENERGIES
----------------

  NO   OCC          E(Eh)            E(eV)
   0   2.0000     -91.890149     -2500.4581
   1   2.0000     -20.599401      -560.5382
   2   2.0000     -20.597338      -560.4821
   3   2.0000     -20.551982      -559.2479
   4   2.0000     -15.629643      -425.3042
   5   2.0000     -15.608828      -424.7378
   6   2.0000     -11.396789      -310.1224
   7   2.0000     -11.385581      -309.8174
   8   2.0000     -11.337206      -308.5011
   9   2.0000     -11.314096      -307.8722
  10   2.0000     -11.307909      -307.7039
  11   2.0000     -11.307169      -307.6837
  12   2.0000     -11.266133      -306.5671
  13   2.0000     -11.263190      -306.4870
  14   2.0000     -11.261576      -306.4431
  15   2.0000     -11.254103      -306.2397
  16   2.0000     -11.243586      -305.9535
  17   2.0000     -11.239885      -305.8528
  18   2.0000     -11.238579      -305.8173
  19   2.0000     -11.236448      -305.7593
  20   2.0000      -8.895245      -242.0519
  21   2.0000      -6.576823      -178.9645
  22   2.0000      -6.574815      -178.9098
  23   2.0000      -6.574228      -178.8939
  24   2.0000      -1.451320       -39.4924
  25   2.0000      -1.417059       -38.5601
  26   2.0000      -1.362633       -37.0791
  27   2.0000      -1.341781       -36.5117
  28   2.0000      -1.239390       -33.7255
  29   2.0000      -1.158566       -31.5262
  30   2.0000      -1.125043       -30.6140
  31   2.0000      -1.046650       -28.4808
  32   2.0000      -1.043112       -28.3845
  33   2.0000      -1.016343       -27.6561
  34   2.0000      -1.004508       -27.3341
  35   2.0000      -0.988963       -26.9111
  36   2.0000      -0.925158       -25.1748
  37   2.0000      -0.882958       -24.0265
  38   2.0000      -0.854681       -23.2571
  39   2.0000      -0.842734       -22.9320
  40   2.0000      -0.835799       -22.7432
  41   2.0000      -0.833606       -22.6836
  42   2.0000      -0.760082       -20.6829
  43   2.0000      -0.739184       -20.1142
  44   2.0000      -0.731147       -19.8955
  45   2.0000      -0.694795       -18.9063
  46   2.0000      -0.688302       -18.7296
  47   2.0000      -0.684966       -18.6389
  48   2.0000      -0.673980       -18.3399
  49   2.0000      -0.661480       -17.9998
  50   2.0000      -0.652305       -17.7501
  51   2.0000      -0.645574       -17.5670
  52   2.0000      -0.640027       -17.4160
  53   2.0000      -0.616247       -16.7689
  54   2.0000      -0.606423       -16.5016
  55   2.0000      -0.604848       -16.4588
  56   2.0000      -0.600579       -16.3426
  57   2.0000      -0.583038       -15.8653
  58   2.0000      -0.576396       -15.6845
  59   2.0000      -0.567762       -15.4496
  60   2.0000      -0.560793       -15.2600
  61   2.0000      -0.557114       -15.1598
  62   2.0000      -0.543525       -14.7901
  63   2.0000      -0.533930       -14.5290
  64   2.0000      -0.522391       -14.2150
  65   2.0000      -0.514159       -13.9910
  66   2.0000      -0.501832       -13.6555
  67   2.0000      -0.499828       -13.6010
  68   2.0000      -0.487873       -13.2757
  69   2.0000      -0.468059       -12.7365
  70   2.0000      -0.463500       -12.6125
  71   2.0000      -0.451074       -12.2743
  72   2.0000      -0.356243        -9.6939
  73   2.0000      -0.349730        -9.5166
  74   2.0000      -0.329438        -8.9645
  75   2.0000      -0.321591        -8.7509
  76   2.0000      -0.319572        -8.6960
  77   0.0000       0.078087         2.1249
  78   0.0000       0.105425         2.8688
  79   0.0000       0.117504         3.1975
  80   0.0000       0.131864         3.5882
  81   0.0000       0.133807         3.6411

MULLIKEN ATOMIC CHARGES
-----------------------
   0 C :   -0.266960
   1 C :    0.012138
   2 O :   -0.333413
   3 C :    0.435327
   4 O :   -0.377834
   5 C :   -0.248062
   6 C :    0.169726
   7 C :   -0.322666
   8 N :   -0.135241
   9 C :    0.206354
  10 S :   -0.441300
  11 N :   -0.217519
  12 C :    0.056052
  13 C :    0.025559
  14 C :   -0.206079
  15 C :   -0.129155
  16 C :   -0.277554
  17 C :    0.313365
  18 O :   -0.357342
  19 C :   -0.250377
  20 H :    0.094463
  21 H :    0.109483
  22 H :    0.093596
  23 H :    0.100380
  24 H :    0.119065
  25 H :    0.119256
  26 H :    0.142892
  27 H :    0.124251
  28 H :    0.198551
  29 H :    0.201456
  30 H :    0.163964
  31 H :    0.172847
  32 H :    0.163582
  33 H :    0.130527
  34 H :    0.241011
  35 H :    0.169657
Sum of atomic charges:   -0.0000000

LOEWDIN ATOMIC CHARGES
----------------------
   0 C :    0.109288
   1 C :   -0.022663
   2 O :    0.303526
   3 C :   -0.417524
   4 O :    0.125355
   5 C :   -0.091423
   6 C :   -0.080400
   7 C :    0.127922
   8 N :    0.403860
   9 C :   -0.457773
  10 S :   -0.036948
  11 N :    0.396160
  12 C :   -0.049458
  13 C :   -0.043504
  14 C :    0.021886
  15 C :    0.043413
  16 C :   -0.000524
  17 C :   -0.192220
  18 O :    0.393970
  19 C :    0.026993
  20 H :   -0.023643
  21 H :   -0.022552
  22 H :   -0.030574
  23 H :   -0.038908
  24 H :   -0.026846
  25 H :   -0.016349
  26 H :   -0.006733
  27 H :   -0.014281
  28 H :   -0.057779
  29 H :   -0.063310
  30 H :   -0.005370
  31 H :   -0.021663
  32 H :   -0.019264
  33 H :   -0.035236
  34 H :   -0.153603
  35 H :   -0.023824

  Mayer bond orders larger than 0.100000
B(  0-C ,  1-C ) :   0.9756 B(  0-C , 20-H ) :   0.9753 B(  0-C , 21-H ) :   0.9774
B(  0-C , 22-H ) :   0.9778 B(  1-C ,  2-O ) :   0.8976 B(  1-C , 23-H ) :   0.9651
B(  1-C , 24-H ) :   0.9789 B(  2-O ,  3-C ) :   1.1461 B(  3-C ,  4-O ) :   2.0959
B(  3-C ,  5-C ) :   0.9494 B(  5-C ,  6-C ) :   1.6985 B(  5-C , 12-C ) :   0.9456
B(  6-C ,  7-C ) :   0.9357 B(  6-C ,  8-N ) :   1.1191 B(  7-C , 25-H ) :   0.9648
B(  7-C , 26-H ) :   0.9688 B(  7-C , 27-H ) :   0.9863 B(  8-N ,  9-C ) :   1.1908
B(  8-N , 28-H ) :   0.9492 B(  9-C , 10-S ) :   1.6111 B(  9-C , 11-N ) :   1.2963
B( 11-N , 12-C ) :   0.9845 B( 11-N , 29-H ) :   0.9482 B( 12-C , 13-C ) :   0.9705
B( 12-C , 30-H ) :   0.9913 B( 13-C , 14-C ) :   1.3839 B( 13-C , 19-C ) :   1.3572
B( 14-C , 15-C ) :   1.3940 B( 14-C , 31-H ) :   0.9598 B( 15-C , 16-C ) :   1.3610
B( 15-C , 32-H ) :   0.9701 B( 16-C , 17-C ) :   1.3313 B( 16-C , 33-H ) :   0.9853
B( 17-C , 18-O ) :   1.1069 B( 17-C , 19-C ) :   1.3676 B( 18-O , 34-H ) :   0.9797
B( 19-C , 35-H ) :   0.9575

MP2 TOTAL ENERGY:    -1274.330735144 Eh
FINAL SINGLE POINT ENERGY     -1274.330735144265

DIPOLE MOMENT
-------------
                                X             Y             Z
Electronic contribution:     11.15189       6.53477       9.84215
Nuclear contribution   :    -12.72726      -7.69314     -10.25808
                        -----------------------------------------
Total Dipole Moment    :     -1.57537      -1.15837      -0.41594
                        -----------------------------------------
Magnitude (a.u.)       :      1.99916
Magnitude (Debye)      :      5.08145

Rotational constants in cm-1:     0.010123     0.009254     0.006129
Rotational constants in MHz :   303.466983   277.427079   183.733329

                             ****ORCA TERMINATED NORMALLY****
TOTAL RUN TIME: 0 days 1 hours 38 minutes 19 seconds 607 msec
