                         Program Version 4.2.0 -  RELEASE  -
|  1> ! ri-mp2 cc-pvtz cc-pvtz/c TightSCF NoKeepInts
|  2>
|  3> %scf
|  4>   MaxCore 4096
|  5> end
|  6> *xyz  0  1
|  7>     C       14.0173280   15.1455630   15.4572083
|  8>     C       15.1181082   15.9518445   16.1650138
|  9>     O       16.2442459   16.0049262   15.2690517
| 10>     C       17.1682974   17.0163774   15.2799671
| 11>     O       17.9821935   17.1478212   14.3855264
| 12>     C       17.1145204   17.9498571   16.4413784
| 13>     C       16.8739201   19.2540752   16.1825482
| 14>     C       16.2883481   19.7921247   14.8952138
| 15>     N       17.1951999   20.2483218   17.1078299
| 16>     C       17.9844141   20.0382520   18.2082031
| 17>     S       18.4284539   21.2730620   19.2144193
| 18>     N       18.4080623   18.7484049   18.4215831
| 19>     C       17.9562727   17.5657690   17.6609674
| 20>     C       17.3743287   16.4527355   18.5157435
| 21>     C       17.8415203   15.1329282   18.3792818
| 22>     C       17.2896351   14.0987397   19.1536572
| 23>     C       16.2645547   14.3876926   20.0709549
| 24>     C       15.7992801   15.7026028   20.2093867
| 25>     O       14.8040491   15.9831341   21.0871903
| 26>     C       16.3481950   16.7300709   19.4353981
| 27>     H       13.1262581   15.0692175   16.0920924
| 28>     H       14.3675495   14.1301002   15.2330990
| 29>     H       13.7291653   15.6271622   14.5144149
| 30>     H       14.7302788   16.9559451   16.3815978
| 31>     H       15.3883644   15.4600369   17.1063751
| 32>     H       15.4676896   19.1579360   14.5375665
| 33>     H       17.0546697   19.8129774   14.1084311
| 34>     H       15.8928516   20.8089334   15.0060468
| 35>     H       16.9316336   21.2054016   16.9340927
| 36>     H       18.9844164   18.6227556   19.2445443
| 37>     H       18.9200284   17.2396785   17.2420393
| 38>     H       18.6286116   14.9059814   17.6637764
| 39>     H       17.6555193   13.0792982   19.0402594
| 40>     H       15.8354823   13.5911246   20.6703218
| 41>     H       14.5984368   15.1667746   21.5678812
| 42>     H       15.9751174   17.7423738   19.5549383
| 43> *
| 44>
| 45>                          ****END OF INPUT****

CARTESIAN COORDINATES (ANGSTROEM)
---------------------------------
  C     14.017328   15.145563   15.457208
  C     15.118108   15.951844   16.165014
  O     16.244246   16.004926   15.269052
  C     17.168297   17.016377   15.279967
  O     17.982194   17.147821   14.385526
  C     17.114520   17.949857   16.441378
  C     16.873920   19.254075   16.182548
  C     16.288348   19.792125   14.895214
  N     17.195200   20.248322   17.107830
  C     17.984414   20.038252   18.208203
  S     18.428454   21.273062   19.214419
  N     18.408062   18.748405   18.421583
  C     17.956273   17.565769   17.660967
  C     17.374329   16.452735   18.515743
  C     17.841520   15.132928   18.379282
  C     17.289635   14.098740   19.153657
  C     16.264555   14.387693   20.070955
  C     15.799280   15.702603   20.209387
  O     14.804049   15.983134   21.087190
  C     16.348195   16.730071   19.435398
  H     13.126258   15.069218   16.092092
  H     14.367549   14.130100   15.233099
  H     13.729165   15.627162   14.514415
  H     14.730279   16.955945   16.381598
  H     15.388364   15.460037   17.106375
  H     15.467690   19.157936   14.537566
  H     17.054670   19.812977   14.108431
  H     15.892852   20.808933   15.006047
  H     16.931634   21.205402   16.934093
  H     18.984416   18.622756   19.244544
  H     18.920028   17.239679   17.242039
  H     18.628612   14.905981   17.663776
  H     17.655519   13.079298   19.040259
  H     15.835482   13.591125   20.670322
  H     14.598437   15.166775   21.567881
  H     15.975117   17.742374   19.554938

 Total Charge           Charge          ....    0
 Multiplicity           Mult            ....    1
 Number of Electrons    NEL             ....  154
 Basis Dimension        Dim             ....  828

ORBITAL ENERGIES
----------------

  NO   OCC          E(Eh)            E(eV)
   0   2.0000     -91.889470     -2500.4396
   1   2.0000     -20.605503      -560.7043
   2   2.0000     -20.601467      -560.5944
   3   2.0000     -20.551483      -559.2343
   4   2.0000     -15.625828      -425.2004
   5   2.0000     -15.610752      -424.7902
   6   2.0000     -11.396645      -310.1185
   7   2.0000     -11.385144      -309.8055
   8   2.0000     -11.326388      -308.2067
   9   2.0000     -11.324091      -308.1442
  10   2.0000     -11.316578      -307.9397
  11   2.0000     -11.298450      -307.4464
  12   2.0000     -11.270633      -306.6895
  13   2.0000     -11.265430      -306.5479
  14   2.0000     -11.259068      -306.3748
  15   2.0000     -11.255957      -306.2902
  16   2.0000     -11.253939      -306.2353
  17   2.0000     -11.248735      -306.0937
  18   2.0000     -11.248103      -306.0764
  19   2.0000     -11.230970      -305.6102
  20   2.0000      -8.894557      -242.0332
  21   2.0000      -6.576135      -178.9457
  22   2.0000      -6.574129      -178.8911
  23   2.0000      -6.573544      -178.8752
  24   2.0000      -1.447876       -39.3987
  25   2.0000      -1.425253       -38.7831
  26   2.0000      -1.362121       -37.0652
  27   2.0000      -1.339045       -36.4373
  28   2.0000      -1.239110       -33.7179
  29   2.0000      -1.167615       -31.7724
  30   2.0000      -1.126554       -30.6551
  31   2.0000      -1.052380       -28.6367
  32   2.0000      -1.037637       -28.2355
  33   2.0000      -1.025513       -27.9056
  34   2.0000      -1.004091       -27.3227
  35   2.0000      -0.989545       -26.9269
  36   2.0000      -0.927653       -25.2427
  37   2.0000      -0.879085       -23.9211
  38   2.0000      -0.853433       -23.2231
  39   2.0000      -0.844688       -22.9851
  40   2.0000      -0.843888       -22.9634
  41   2.0000      -0.838596       -22.8194
  42   2.0000      -0.759558       -20.6686
  43   2.0000      -0.740030       -20.1372
  44   2.0000      -0.729349       -19.8466
  45   2.0000      -0.703959       -19.1557
  46   2.0000      -0.693218       -18.8634
  47   2.0000      -0.678652       -18.4671
  48   2.0000      -0.677062       -18.4238
  49   2.0000      -0.669853       -18.2276
  50   2.0000      -0.652080       -17.7440
  51   2.0000      -0.651047       -17.7159
  52   2.0000      -0.636523       -17.3207
  53   2.0000      -0.615122       -16.7383
  54   2.0000      -0.609460       -16.5842
  55   2.0000      -0.605758       -16.4835
  56   2.0000      -0.589849       -16.0506
  57   2.0000      -0.582103       -15.8398
  58   2.0000      -0.577025       -15.7016
  59   2.0000      -0.570841       -15.5334
  60   2.0000      -0.563481       -15.3331
  61   2.0000      -0.558853       -15.2072
  62   2.0000      -0.549762       -14.9598
  63   2.0000      -0.530884       -14.4461
  64   2.0000      -0.525097       -14.2886
  65   2.0000      -0.517247       -14.0750
  66   2.0000      -0.507018       -13.7967
  67   2.0000      -0.504606       -13.7310
  68   2.0000      -0.489067       -13.3082
  69   2.0000      -0.469051       -12.7635
  70   2.0000      -0.453949       -12.3526
  71   2.0000      -0.449587       -12.2339
  72   2.0000      -0.358426        -9.7533
  73   2.0000      -0.352285        -9.5862
  74   2.0000      -0.333172        -9.0661
  75   2.0000      -0.328427        -8.9370
  76   2.0000      -0.318632        -8.6704
  77   0.0000       0.086880         2.3641
  78   0.0000       0.096513         2.6262
  79   0.0000       0.117041         3.1848
  80   0.0000       0.125897         3.4258
  81   0.0000       0.130545         3.5523

MULLIKEN ATOMIC CHARGES
-----------------------
   0 C :   -0.257390
   1 C :    0.024271
   2 O :   -0.297659
   3 C :    0.406717
   4 O :   -0.381167
   5 C :   -0.224261
   6 C :    0.157251
   7 C :   -0.293680
   8 N :   -0.134086
   9 C :    0.214574
  10 S :   -0.441818
  11 N :   -0.217030
  12 C :    0.023922
  13 C :   -0.010834
  14 C :   -0.188789
  15 C :   -0.134155
  16 C :   -0.270857
  17 C :    0.303826
  18 O :   -0.354213
  19 C :   -0.214979
  20 H :    0.089528
  21 H :    0.101387
  22 H :    0.097930
  23 H :    0.092845
  24 H :    0.109685
  25 H :    0.113554
  26 H :    0.146753
  27 H :    0.099645
  28 H :    0.197038
  29 H :    0.200084
  30 H :    0.164971
  31 H :    0.160980
  32 H :    0.165164
  33 H :    0.135438
  34 H :    0.242020
  35 H :    0.173334
Sum of atomic charges:   -0.0000000

LOEWDIN ATOMIC CHARGES
----------------------
   0 C :    0.109845
   1 C :   -0.024182
   2 O :    0.310582
   3 C :   -0.417042
   4 O :    0.123808
   5 C :   -0.092178
   6 C :   -0.089968
   7 C :    0.129383
   8 N :    0.403778
   9 C :   -0.454035
  10 S :   -0.037337
  11 N :    0.395533
  12 C :   -0.054874
  13 C :   -0.046131
  14 C :    0.016608
  15 C :    0.044564
  16 C :    0.001641
  17 C :   -0.191526
  18 O :    0.397429
  19 C :    0.032903
  20 H :   -0.025475
  21 H :   -0.024908
  22 H :   -0.026727
  23 H :   -0.036941
  24 H :   -0.031213
  25 H :   -0.011169
  26 H :   -0.002968
  27 H :   -0.019494
  28 H :   -0.058860
  29 H :   -0.064290
  30 H :   -0.007724
  31 H :   -0.025219
  32 H :   -0.017790
  33 H :   -0.033107
  34 H :   -0.151977
  35 H :   -0.020940

  Mayer bond orders larger than 0.100000
B(  0-C ,  1-C ) :   0.9824 B(  0-C , 20-H ) :   0.9778 B(  0-C , 21-H ) :   0.9789
B(  0-C , 22-H ) :   0.9793 B(  1-C ,  2-O ) :   0.9033 B(  1-C , 23-H ) :   0.9646
B(  1-C , 24-H ) :   0.9664 B(  2-O ,  3-C ) :   1.2106 B(  3-C ,  4-O ) :   2.1226
B(  3-C ,  5-C ) :   0.9140 B(  5-C ,  6-C ) :   1.7160 B(  5-C , 12-C ) :   0.9583
B(  6-C ,  7-C ) :   0.9356 B(  6-C ,  8-N ) :   1.1170 B(  7-C , 25-H ) :   0.9782
B(  7-C , 26-H ) :   0.9595 B(  7-C , 27-H ) :   0.9863 B(  8-N ,  9-C ) :   1.2003
B(  8-N , 28-H ) :   0.9492 B(  9-C , 10-S ) :   1.6115 B(  9-C , 11-N ) :   1.2854
B( 11-N , 12-C ) :   0.9806 B( 11-N , 29-H ) :   0.9472 B( 12-C , 13-C ) :   0.9567
B( 12-C , 30-H ) :   1.0022 B( 13-C , 14-C ) :   1.3735 B( 13-C , 19-C ) :   1.3600
B( 14-C , 15-C ) :   1.3965 B( 14-C , 31-H ) :   0.9683 B( 15-C , 16-C ) :   1.3638
B( 15-C , 32-H ) :   0.9698 B( 16-C , 17-C ) :   1.3266 B( 16-C , 33-H ) :   0.9834
B( 17-C , 18-O ) :   1.1121 B( 17-C , 19-C ) :   1.3667 B( 18-O , 34-H ) :   0.9783
B( 19-C , 35-H ) :   0.9573

MP2 TOTAL ENERGY:    -1274.326511207 Eh
FINAL SINGLE POINT ENERGY     -1274.326511206712

DIPOLE MOMENT
-------------
                                X             Y             Z
Electronic contribution:     10.58224       8.93370       7.24797
Nuclear contribution   :    -12.17502     -10.55276      -7.00860
                        -----------------------------------------
Total Dipole Moment    :     -1.59278      -1.61907       0.23936
                        -----------------------------------------
Magnitude (a.u.)       :      2.28377
Magnitude (Debye)      :      5.80488

Rotational constants in cm-1:     0.011793     0.008847     0.006124
Rotational constants in MHz :   353.556149   265.235268   183.605128

                             ****ORCA TERMINATED NORMALLY****
TOTAL RUN TIME: 0 days 1 hours 53 minutes 57 seconds 234 msec
