                         Program Version 4.2.0 -  RELEASE  -
|  1> ! ri-mp2 cc-pvtz cc-pvtz/c TightSCF NoKeepInts
|  2>
|  3> %scf
|  4>   MaxCore 4096
|  5> end
|  6> *xyz  0  1
|  7>     C       14.5687814   15.8528410   16.1392344
|  8>     C       15.6940400   14.9789815   15.5430097
|  9>     O       16.9963666   15.6046162   15.5913724
| 10>     C       17.1373437   16.9004808   15.1991018
| 11>     O       17.1246184   17.1881231   14.0159775
| 12>     C       17.1160465   17.8879741   16.3363301
| 13>     C       16.9801317   19.2132792   16.0719383
| 14>     C       16.4546455   19.8426275   14.7980872
| 15>     N       17.3183252   20.1792511   17.0216575
| 16>     C       18.0330529   19.9224079   18.1595116
| 17>     S       18.5169946   21.1281483   19.1826682
| 18>     N       18.3497680   18.6088144   18.3952083
| 19>     C       17.8389371   17.4554342   17.6283081
| 20>     C       17.1207441   16.4459168   18.5153015
| 21>     C       17.5260877   15.0986938   18.5486078
| 22>     C       16.8729432   14.1760728   19.3828598
| 23>     C       15.8140729   14.6065100   20.2004984
| 24>     C       15.4195033   15.9513139   20.1831511
| 25>     O       14.3990095   16.3703558   20.9726309
| 26>     C       16.0703331   16.8669127   19.3501401
| 27>     H       14.7457958   16.0653321   17.1962389
| 28>     H       13.6103533   15.3245029   16.0682497
| 29>     H       14.4618795   16.8007944   15.5979132
| 30>     H       15.7342808   14.0221253   16.0793826
| 31>     H       15.4460657   14.7605534   14.4956149
| 32>     H       17.2313488   19.8466947   14.0223084
| 33>     H       16.1162962   20.8756113   14.9414340
| 34>     H       15.6019812   19.2753761   14.4042230
| 35>     H       17.1231224   21.1508068   16.8395763
| 36>     H       18.8616465   18.4469016   19.2535635
| 37>     H       18.7975118   17.0383427   17.2879461
| 38>     H       18.3441097   14.7638369   17.9156485
| 39>     H       17.1896267   13.1344924   19.3955858
| 40>     H       15.3072611   13.8976821   20.8471804
| 41>     H       14.1105125   15.6132762   21.5043587
| 42>     H       15.7534628   17.9049160   19.3531812
| 43> *
| 44>
| 45>                          ****END OF INPUT****

CARTESIAN COORDINATES (ANGSTROEM)
---------------------------------
  C     14.568781   15.852841   16.139234
  C     15.694040   14.978981   15.543010
  O     16.996367   15.604616   15.591372
  C     17.137344   16.900481   15.199102
  O     17.124618   17.188123   14.015977
  C     17.116046   17.887974   16.336330
  C     16.980132   19.213279   16.071938
  C     16.454646   19.842627   14.798087
  N     17.318325   20.179251   17.021657
  C     18.033053   19.922408   18.159512
  S     18.516995   21.128148   19.182668
  N     18.349768   18.608814   18.395208
  C     17.838937   17.455434   17.628308
  C     17.120744   16.445917   18.515301
  C     17.526088   15.098694   18.548608
  C     16.872943   14.176073   19.382860
  C     15.814073   14.606510   20.200498
  C     15.419503   15.951314   20.183151
  O     14.399010   16.370356   20.972631
  C     16.070333   16.866913   19.350140
  H     14.745796   16.065332   17.196239
  H     13.610353   15.324503   16.068250
  H     14.461880   16.800794   15.597913
  H     15.734281   14.022125   16.079383
  H     15.446066   14.760553   14.495615
  H     17.231349   19.846695   14.022308
  H     16.116296   20.875611   14.941434
  H     15.601981   19.275376   14.404223
  H     17.123122   21.150807   16.839576
  H     18.861646   18.446902   19.253563
  H     18.797512   17.038343   17.287946
  H     18.344110   14.763837   17.915648
  H     17.189627   13.134492   19.395586
  H     15.307261   13.897682   20.847180
  H     14.110513   15.613276   21.504359
  H     15.753463   17.904916   19.353181

 Total Charge           Charge          ....    0
 Multiplicity           Mult            ....    1
 Number of Electrons    NEL             ....  154
 Basis Dimension        Dim             ....  828

ORBITAL ENERGIES
----------------

  NO   OCC          E(Eh)            E(eV)
   0   2.0000     -91.891188     -2500.4863
   1   2.0000     -20.599689      -560.5460
   2   2.0000     -20.580504      -560.0240
   3   2.0000     -20.550160      -559.1983
   4   2.0000     -15.630533      -425.3284
   5   2.0000     -15.609352      -424.7521
   6   2.0000     -11.393139      -310.0231
   7   2.0000     -11.385389      -309.8122
   8   2.0000     -11.337761      -308.5162
   9   2.0000     -11.317053      -307.9527
  10   2.0000     -11.312616      -307.8319
  11   2.0000     -11.301669      -307.5341
  12   2.0000     -11.264575      -306.5247
  13   2.0000     -11.258900      -306.3702
  14   2.0000     -11.258374      -306.3559
  15   2.0000     -11.254196      -306.2422
  16   2.0000     -11.247432      -306.0582
  17   2.0000     -11.242432      -305.9221
  18   2.0000     -11.241493      -305.8966
  19   2.0000     -11.227304      -305.5105
  20   2.0000      -8.896232      -242.0788
  21   2.0000      -6.577797      -178.9910
  22   2.0000      -6.575807      -178.9368
  23   2.0000      -6.575207      -178.9205
  24   2.0000      -1.446854       -39.3709
  25   2.0000      -1.419512       -38.6269
  26   2.0000      -1.353162       -36.8214
  27   2.0000      -1.342571       -36.5332
  28   2.0000      -1.240813       -33.7642
  29   2.0000      -1.160537       -31.5798
  30   2.0000      -1.122381       -30.5415
  31   2.0000      -1.045666       -28.4540
  32   2.0000      -1.032810       -28.1042
  33   2.0000      -1.018605       -27.7177
  34   2.0000      -1.001177       -27.2434
  35   2.0000      -0.988013       -26.8852
  36   2.0000      -0.924633       -25.1605
  37   2.0000      -0.896791       -24.4029
  38   2.0000      -0.848920       -23.1003
  39   2.0000      -0.841772       -22.9058
  40   2.0000      -0.837665       -22.7940
  41   2.0000      -0.818635       -22.2762
  42   2.0000      -0.749444       -20.3934
  43   2.0000      -0.736340       -20.0368
  44   2.0000      -0.724201       -19.7065
  45   2.0000      -0.697771       -18.9873
  46   2.0000      -0.690171       -18.7805
  47   2.0000      -0.674654       -18.3583
  48   2.0000      -0.671968       -18.2852
  49   2.0000      -0.665620       -18.1124
  50   2.0000      -0.649624       -17.6772
  51   2.0000      -0.646029       -17.5793
  52   2.0000      -0.637401       -17.3446
  53   2.0000      -0.616910       -16.7870
  54   2.0000      -0.609571       -16.5873
  55   2.0000      -0.602504       -16.3950
  56   2.0000      -0.601163       -16.3585
  57   2.0000      -0.579289       -15.7632
  58   2.0000      -0.572898       -15.5894
  59   2.0000      -0.566061       -15.4033
  60   2.0000      -0.554993       -15.1021
  61   2.0000      -0.548719       -14.9314
  62   2.0000      -0.542742       -14.7688
  63   2.0000      -0.528099       -14.3703
  64   2.0000      -0.525079       -14.2881
  65   2.0000      -0.514882       -14.0106
  66   2.0000      -0.502138       -13.6639
  67   2.0000      -0.499724       -13.5982
  68   2.0000      -0.479303       -13.0425
  69   2.0000      -0.464884       -12.6501
  70   2.0000      -0.454654       -12.3718
  71   2.0000      -0.447466       -12.1762
  72   2.0000      -0.356156        -9.6915
  73   2.0000      -0.350121        -9.5273
  74   2.0000      -0.330137        -8.9835
  75   2.0000      -0.324669        -8.8347
  76   2.0000      -0.320853        -8.7309
  77   0.0000       0.071700         1.9511
  78   0.0000       0.101555         2.7634
  79   0.0000       0.121162         3.2970
  80   0.0000       0.129310         3.5187
  81   0.0000       0.131674         3.5830

MULLIKEN ATOMIC CHARGES
-----------------------
   0 C :   -0.330104
   1 C :    0.035191
   2 O :   -0.380381
   3 C :    0.449256
   4 O :   -0.390236
   5 C :   -0.229510
   6 C :    0.163310
   7 C :   -0.270907
   8 N :   -0.126704
   9 C :    0.206059
  10 S :   -0.436749
  11 N :   -0.213088
  12 C :    0.040857
  13 C :    0.010376
  14 C :   -0.175068
  15 C :   -0.144668
  16 C :   -0.270049
  17 C :    0.308477
  18 O :   -0.358529
  19 C :   -0.235210
  20 H :    0.122124
  21 H :    0.114933
  22 H :    0.100335
  23 H :    0.114086
  24 H :    0.118002
  25 H :    0.137684
  26 H :    0.094734
  27 H :    0.123445
  28 H :    0.199714
  29 H :    0.200318
  30 H :    0.151757
  31 H :    0.159745
  32 H :    0.165501
  33 H :    0.133505
  34 H :    0.240678
  35 H :    0.171117
Sum of atomic charges:   -0.0000000

LOEWDIN ATOMIC CHARGES
----------------------
   0 C :    0.106919
   1 C :   -0.016009
   2 O :    0.288688
   3 C :   -0.426908
   4 O :    0.121989
   5 C :   -0.100096
   6 C :   -0.058205
   7 C :    0.129980
   8 N :    0.407841
   9 C :   -0.458908
  10 S :   -0.033005
  11 N :    0.395734
  12 C :   -0.052161
  13 C :   -0.042878
  14 C :    0.022261
  15 C :    0.039324
  16 C :   -0.001116
  17 C :   -0.193301
  18 O :    0.395937
  19 C :    0.031530
  20 H :   -0.030075
  21 H :   -0.022691
  22 H :   -0.030380
  23 H :   -0.022889
  24 H :   -0.028042
  25 H :   -0.004139
  26 H :   -0.022748
  27 H :   -0.007943
  28 H :   -0.056698
  29 H :   -0.063386
  30 H :   -0.011686
  31 H :   -0.026371
  32 H :   -0.020199
  33 H :   -0.034685
  34 H :   -0.153343
  35 H :   -0.022342

  Mayer bond orders larger than 0.100000
B(  0-C ,  1-C ) :   0.9584 B(  0-C , 20-H ) :   0.9671 B(  0-C , 21-H ) :   0.9773
B(  0-C , 22-H ) :   0.9732 B(  1-C ,  2-O ) :   0.8903 B(  1-C , 23-H ) :   0.9796
B(  1-C , 24-H ) :   0.9862 B(  2-O ,  3-C ) :   1.1056 B(  3-C ,  4-O ) :   2.0589
B(  3-C ,  5-C ) :   1.0307 B(  5-C ,  6-C ) :   1.6365 B(  5-C , 12-C ) :   0.9655
B(  6-C ,  7-C ) :   0.9639 B(  6-C ,  8-N ) :   1.1453 B(  7-C , 25-H ) :   0.9551
B(  7-C , 26-H ) :   0.9871 B(  7-C , 27-H ) :   0.9689 B(  8-N ,  9-C ) :   1.1868
B(  8-N , 28-H ) :   0.9476 B(  9-C , 10-S ) :   1.6161 B(  9-C , 11-N ) :   1.2985
B( 11-N , 12-C ) :   0.9778 B( 11-N , 29-H ) :   0.9478 B( 12-C , 13-C ) :   0.9576
B( 12-C , 30-H ) :   1.0025 B( 13-C , 14-C ) :   1.3672 B( 13-C , 19-C ) :   1.3591
B( 14-C , 15-C ) :   1.3951 B( 14-C , 31-H ) :   0.9676 B( 15-C , 16-C ) :   1.3572
B( 15-C , 32-H ) :   0.9694 B( 16-C , 17-C ) :   1.3339 B( 16-C , 33-H ) :   0.9838
B( 17-C , 18-O ) :   1.1066 B( 17-C , 19-C ) :   1.3633 B( 18-O , 34-H ) :   0.9797
B( 19-C , 35-H ) :   0.9609

MP2 TOTAL ENERGY:    -1274.320782734 Eh
FINAL SINGLE POINT ENERGY     -1274.320782734362

DIPOLE MOMENT
-------------
                                X             Y             Z
Electronic contribution:      9.23004       8.22630       6.45340
Nuclear contribution   :    -10.44951      -9.86429      -6.47457
                        -----------------------------------------
Total Dipole Moment    :     -1.21947      -1.63799      -0.02116
                        -----------------------------------------
Magnitude (a.u.)       :      2.04220
Magnitude (Debye)      :      5.19086

Rotational constants in cm-1:     0.012023     0.009260     0.006202
Rotational constants in MHz :   360.446082   277.621272   185.925041

                             ****ORCA TERMINATED NORMALLY****
TOTAL RUN TIME: 0 days 2 hours 1 minutes 21 seconds 439 msec
