                         Program Version 4.2.0 -  RELEASE  -
|  1> ! ri-mp2 cc-pvtz cc-pvtz/c TightSCF NoKeepInts
|  2>
|  3> %scf
|  4>   MaxCore 4096
|  5> end
|  6> *xyz  0  1
|  7>     C       14.6955580   15.5375269   16.4242194
|  8>     C       15.6886306   15.1029859   15.3307809
|  9>     O       17.0080971   15.6439830   15.5495370
| 10>     C       17.2210169   16.9411676   15.1930415
| 11>     O       17.3371518   17.2420716   14.0186958
| 12>     C       17.0966650   17.9254425   16.3230715
| 13>     C       16.8933486   19.2390378   16.0458629
| 14>     C       16.3679913   19.8267053   14.7523453
| 15>     N       17.1462415   20.2281037   16.9981199
| 16>     C       17.8412103   20.0181675   18.1577309
| 17>     S       18.2241442   21.2545018   19.1871641
| 18>     N       18.2269511   18.7260891   18.4099809
| 19>     C       17.8069495   17.5417324   17.6349874
| 20>     C       17.1333191   16.4910261   18.5063411
| 21>     C       17.6381374   15.1790200   18.5699471
| 22>     C       17.0396150   14.2237041   19.4087323
| 23>     C       15.9339873   14.5859774   20.1974914
| 24>     C       15.4356124   15.8951319   20.1439782
| 25>     O       14.3682408   16.2475346   20.9034524
| 26>     C       16.0314079   16.8430881   19.3058007
| 27>     H       14.9631168   15.0876654   17.3856390
| 28>     H       13.6848178   15.1947413   16.1721995
| 29>     H       14.6611272   16.6273320   16.5354015
| 30>     H       15.7481008   14.0069777   15.3307222
| 31>     H       15.3167270   15.4122961   14.3441058
| 32>     H       15.5906328   19.1860221   14.3175389
| 33>     H       17.1749188   19.9097715   14.0126209
| 34>     H       15.9283110   20.8221450   14.8862514
| 35>     H       16.9018049   21.1859931   16.8033835
| 36>     H       18.7220271   18.5975791   19.2837236
| 37>     H       18.7977539   17.1831731   17.3212253
| 38>     H       18.4932358   14.8974526   17.9605976
| 39>     H       17.4341729   13.2097039   19.4468257
| 40>     H       15.4697261   13.8517090   20.8476976
| 41>     H       14.1287293   15.4804077   21.4450151
| 42>     H       15.6375217   17.8540328   19.2837716
| 43> *
| 44>
| 45>                          ****END OF INPUT****

CARTESIAN COORDINATES (ANGSTROEM)
---------------------------------
  C     14.695558   15.537527   16.424219
  C     15.688631   15.102986   15.330781
  O     17.008097   15.643983   15.549537
  C     17.221017   16.941168   15.193041
  O     17.337152   17.242072   14.018696
  C     17.096665   17.925442   16.323072
  C     16.893349   19.239038   16.045863
  C     16.367991   19.826705   14.752345
  N     17.146241   20.228104   16.998120
  C     17.841210   20.018167   18.157731
  S     18.224144   21.254502   19.187164
  N     18.226951   18.726089   18.409981
  C     17.806949   17.541732   17.634987
  C     17.133319   16.491026   18.506341
  C     17.638137   15.179020   18.569947
  C     17.039615   14.223704   19.408732
  C     15.933987   14.585977   20.197491
  C     15.435612   15.895132   20.143978
  O     14.368241   16.247535   20.903452
  C     16.031408   16.843088   19.305801
  H     14.963117   15.087665   17.385639
  H     13.684818   15.194741   16.172200
  H     14.661127   16.627332   16.535401
  H     15.748101   14.006978   15.330722
  H     15.316727   15.412296   14.344106
  H     15.590633   19.186022   14.317539
  H     17.174919   19.909772   14.012621
  H     15.928311   20.822145   14.886251
  H     16.901805   21.185993   16.803383
  H     18.722027   18.597579   19.283724
  H     18.797754   17.183173   17.321225
  H     18.493236   14.897453   17.960598
  H     17.434173   13.209704   19.446826
  H     15.469726   13.851709   20.847698
  H     14.128729   15.480408   21.445015
  H     15.637522   17.854033   19.283772

 Total Charge           Charge          ....    0
 Multiplicity           Mult            ....    1
 Number of Electrons    NEL             ....  154
 Basis Dimension        Dim             ....  828

ORBITAL ENERGIES
----------------

  NO   OCC          E(Eh)            E(eV)
   0   2.0000     -91.891144     -2500.4851
   1   2.0000     -20.599150      -560.5314
   2   2.0000     -20.582145      -560.0686
   3   2.0000     -20.552455      -559.2607
   4   2.0000     -15.630431      -425.3257
   5   2.0000     -15.609454      -424.7548
   6   2.0000     -11.393437      -310.0312
   7   2.0000     -11.385444      -309.8137
   8   2.0000     -11.337349      -308.5049
   9   2.0000     -11.316375      -307.9342
  10   2.0000     -11.312878      -307.8390
  11   2.0000     -11.300155      -307.4928
  12   2.0000     -11.263584      -306.4977
  13   2.0000     -11.259091      -306.3754
  14   2.0000     -11.257805      -306.3404
  15   2.0000     -11.254697      -306.2559
  16   2.0000     -11.247143      -306.0503
  17   2.0000     -11.241654      -305.9009
  18   2.0000     -11.241239      -305.8897
  19   2.0000     -11.222980      -305.3928
  20   2.0000      -8.896186      -242.0775
  21   2.0000      -6.577751      -178.9897
  22   2.0000      -6.575761      -178.9355
  23   2.0000      -6.575162      -178.9192
  24   2.0000      -1.449016       -39.4297
  25   2.0000      -1.418957       -38.6118
  26   2.0000      -1.354895       -36.8686
  27   2.0000      -1.342556       -36.5328
  28   2.0000      -1.240809       -33.7641
  29   2.0000      -1.160221       -31.5712
  30   2.0000      -1.122996       -30.5583
  31   2.0000      -1.045600       -28.4522
  32   2.0000      -1.032660       -28.1001
  33   2.0000      -1.017917       -27.6989
  34   2.0000      -1.001279       -27.2462
  35   2.0000      -0.988040       -26.8859
  36   2.0000      -0.924719       -25.1629
  37   2.0000      -0.891028       -24.2461
  38   2.0000      -0.848782       -23.0965
  39   2.0000      -0.841330       -22.8938
  40   2.0000      -0.837113       -22.7790
  41   2.0000      -0.820392       -22.3240
  42   2.0000      -0.756061       -20.5735
  43   2.0000      -0.736045       -20.0288
  44   2.0000      -0.724954       -19.7270
  45   2.0000      -0.697656       -18.9842
  46   2.0000      -0.690216       -18.7817
  47   2.0000      -0.674995       -18.3676
  48   2.0000      -0.673392       -18.3239
  49   2.0000      -0.668431       -18.1889
  50   2.0000      -0.648306       -17.6413
  51   2.0000      -0.646621       -17.5954
  52   2.0000      -0.636207       -17.3121
  53   2.0000      -0.609897       -16.5961
  54   2.0000      -0.605692       -16.4817
  55   2.0000      -0.601647       -16.3716
  56   2.0000      -0.595461       -16.2033
  57   2.0000      -0.579110       -15.7584
  58   2.0000      -0.575254       -15.6535
  59   2.0000      -0.568746       -15.4764
  60   2.0000      -0.565788       -15.3959
  61   2.0000      -0.550817       -14.9885
  62   2.0000      -0.541480       -14.7344
  63   2.0000      -0.525051       -14.2874
  64   2.0000      -0.517841       -14.0912
  65   2.0000      -0.514392       -13.9973
  66   2.0000      -0.505193       -13.7470
  67   2.0000      -0.501751       -13.6533
  68   2.0000      -0.476737       -12.9727
  69   2.0000      -0.463745       -12.6192
  70   2.0000      -0.453596       -12.3430
  71   2.0000      -0.450280       -12.2527
  72   2.0000      -0.356271        -9.6946
  73   2.0000      -0.349695        -9.5157
  74   2.0000      -0.330068        -8.9816
  75   2.0000      -0.324408        -8.8276
  76   2.0000      -0.320798        -8.7294
  77   0.0000       0.071913         1.9569
  78   0.0000       0.102107         2.7785
  79   0.0000       0.119886         3.2623
  80   0.0000       0.129553         3.5253
  81   0.0000       0.130814         3.5596

MULLIKEN ATOMIC CHARGES
-----------------------
   0 C :   -0.317993
   1 C :    0.041722
   2 O :   -0.375562
   3 C :    0.466345
   4 O :   -0.387783
   5 C :   -0.238303
   6 C :    0.157112
   7 C :   -0.271750
   8 N :   -0.127624
   9 C :    0.206602
  10 S :   -0.436827
  11 N :   -0.211684
  12 C :    0.033195
  13 C :    0.023333
  14 C :   -0.181450
  15 C :   -0.133560
  16 C :   -0.275606
  17 C :    0.305823
  18 O :   -0.358498
  19 C :   -0.226966
  20 H :    0.111914
  21 H :    0.118038
  22 H :    0.098180
  23 H :    0.111268
  24 H :    0.102959
  25 H :    0.120876
  26 H :    0.138921
  27 H :    0.095168
  28 H :    0.199963
  29 H :    0.200408
  30 H :    0.152061
  31 H :    0.155666
  32 H :    0.163054
  33 H :    0.132499
  34 H :    0.240894
  35 H :    0.167606
Sum of atomic charges:   -0.0000000

LOEWDIN ATOMIC CHARGES
----------------------
   0 C :    0.104548
   1 C :   -0.018455
   2 O :    0.290039
   3 C :   -0.423368
   4 O :    0.126332
   5 C :   -0.100549
   6 C :   -0.061070
   7 C :    0.129218
   8 N :    0.407637
   9 C :   -0.458466
  10 S :   -0.032957
  11 N :    0.396131
  12 C :   -0.052925
  13 C :   -0.042196
  14 C :    0.020782
  15 C :    0.039077
  16 C :   -0.001453
  17 C :   -0.193226
  18 O :    0.396145
  19 C :    0.034650
  20 H :   -0.025344
  21 H :   -0.025765
  22 H :   -0.034046
  23 H :   -0.021222
  24 H :   -0.029466
  25 H :   -0.007643
  26 H :   -0.004361
  27 H :   -0.022500
  28 H :   -0.056634
  29 H :   -0.063244
  30 H :   -0.011809
  31 H :   -0.026950
  32 H :   -0.020145
  33 H :   -0.034746
  34 H :   -0.153440
  35 H :   -0.022581

  Mayer bond orders larger than 0.100000
B(  0-C ,  1-C ) :   0.9617 B(  0-C , 20-H ) :   0.9729 B(  0-C , 21-H ) :   0.9775
B(  0-C , 22-H ) :   0.9697 B(  1-C ,  2-O ) :   0.8884 B(  1-C , 23-H ) :   0.9854
B(  1-C , 24-H ) :   0.9811 B(  2-O ,  3-C ) :   1.1100 B(  3-C ,  4-O ) :   2.0637
B(  3-C ,  5-C ) :   1.0177 B(  5-C ,  6-C ) :   1.6438 B(  5-C , 12-C ) :   0.9619
B(  6-C ,  7-C ) :   0.9626 B(  6-C ,  8-N ) :   1.1450 B(  7-C , 25-H ) :   0.9703
B(  7-C , 26-H ) :   0.9555 B(  7-C , 27-H ) :   0.9862 B(  8-N ,  9-C ) :   1.1874
B(  8-N , 28-H ) :   0.9478 B(  9-C , 10-S ) :   1.6155 B(  9-C , 11-N ) :   1.2983
B( 11-N , 12-C ) :   0.9787 B( 11-N , 29-H ) :   0.9478 B( 12-C , 13-C ) :   0.9550
B( 12-C , 30-H ) :   1.0048 B( 13-C , 14-C ) :   1.3671 B( 13-C , 19-C ) :   1.3615
B( 14-C , 15-C ) :   1.3960 B( 14-C , 31-H ) :   0.9681 B( 15-C , 16-C ) :   1.3542
B( 15-C , 32-H ) :   0.9705 B( 16-C , 17-C ) :   1.3345 B( 16-C , 33-H ) :   0.9847
B( 17-C , 18-O ) :   1.1074 B( 17-C , 19-C ) :   1.3648 B( 18-O , 34-H ) :   0.9795
B( 19-C , 35-H ) :   0.9601

MP2 TOTAL ENERGY:    -1274.320293935 Eh
FINAL SINGLE POINT ENERGY     -1274.320293935252

DIPOLE MOMENT
-------------
                                X             Y             Z
Electronic contribution:      8.66080       8.96989       6.09093
Nuclear contribution   :     -9.82012     -10.63184      -6.19568
                        -----------------------------------------
Total Dipole Moment    :     -1.15931      -1.66196      -0.10475
                        -----------------------------------------
Magnitude (a.u.)       :      2.02906
Magnitude (Debye)      :      5.15746

Rotational constants in cm-1:     0.012071     0.009226     0.006183
Rotational constants in MHz :   361.870138   276.575219   185.358146

                             ****ORCA TERMINATED NORMALLY****
TOTAL RUN TIME: 0 days 1 hours 47 minutes 25 seconds 407 msec
