                         Program Version 4.2.0 -  RELEASE  -
|  1> ! ri-mp2 cc-pvtz cc-pvtz/c TightSCF NoKeepInts
|  2>
|  3> %scf
|  4>   MaxCore 4096
|  5> end
|  6> *xyz  0  1
|  7>     C       14.9320128   14.2180835   15.9293272
|  8>     C       15.0426485   15.7519272   15.9243227
|  9>     O       16.3125276   16.0963041   15.3455818
| 10>     C       16.5596844   17.4187469   15.1373799
| 11>     O       16.4150195   17.8932801   14.0260962
| 12>     C       16.9205748   18.2037306   16.3718988
| 13>     C       16.9335874   19.5613374   16.3174688
| 14>     C       16.2585825   20.4416554   15.2855895
| 15>     N       17.5953938   20.3200044   17.2847670
| 16>     C       18.4743418   19.8052706   18.1976354
| 17>     S       19.3268506   20.7695514   19.2360016
| 18>     N       18.6312210   18.4429047   18.1882500
| 19>     C       17.8160253   17.4935503   17.4064540
| 20>     C       17.1471398   16.4577279   18.2966774
| 21>     C       17.5592682   15.1131010   18.2676290
| 22>     C       16.9569784   14.1648855   19.1118352
| 23>     C       15.9378781   14.5658445   19.9927783
| 24>     C       15.5347462   15.9076776   20.0318101
| 25>     O       14.5531698   16.2986665   20.8824547
| 26>     C       16.1382582   16.8500339   19.1931651
| 27>     H       13.9788203   13.9025444   16.3702181
| 28>     H       15.7445736   13.7689821   16.5115236
| 29>     H       14.9846453   13.8256977   14.9060706
| 30>     H       14.2297656   16.1695067   15.3147414
| 31>     H       14.9396209   16.1425978   16.9421167
| 32>     H       15.2774055   20.0377398   15.0061105
| 33>     H       16.8630357   20.4939015   14.3705764
| 34>     H       16.0959838   21.4661102   15.6409008
| 35>     H       17.5171413   21.3245550   17.2736880
| 36>     H       19.2717669   18.0893997   18.8880738
| 37>     H       18.6140495   17.0252012   16.8124890
| 38>     H       18.3444514   14.8007708   17.5836710
| 39>     H       17.2794218   13.1253229   19.0805546
| 40>     H       15.4689557   13.8362151   20.6450475
| 41>     H       14.3073463   15.5297784   21.4190946
| 42>     H       15.8241076   17.8873934   19.2460009
| 43> *
| 44>
| 45>                          ****END OF INPUT****

CARTESIAN COORDINATES (ANGSTROEM)
---------------------------------
  C     14.932013   14.218083   15.929327
  C     15.042648   15.751927   15.924323
  O     16.312528   16.096304   15.345582
  C     16.559684   17.418747   15.137380
  O     16.415019   17.893280   14.026096
  C     16.920575   18.203731   16.371899
  C     16.933587   19.561337   16.317469
  C     16.258582   20.441655   15.285589
  N     17.595394   20.320004   17.284767
  C     18.474342   19.805271   18.197635
  S     19.326851   20.769551   19.236002
  N     18.631221   18.442905   18.188250
  C     17.816025   17.493550   17.406454
  C     17.147140   16.457728   18.296677
  C     17.559268   15.113101   18.267629
  C     16.956978   14.164885   19.111835
  C     15.937878   14.565844   19.992778
  C     15.534746   15.907678   20.031810
  O     14.553170   16.298666   20.882455
  C     16.138258   16.850034   19.193165
  H     13.978820   13.902544   16.370218
  H     15.744574   13.768982   16.511524
  H     14.984645   13.825698   14.906071
  H     14.229766   16.169507   15.314741
  H     14.939621   16.142598   16.942117
  H     15.277406   20.037740   15.006110
  H     16.863036   20.493901   14.370576
  H     16.095984   21.466110   15.640901
  H     17.517141   21.324555   17.273688
  H     19.271767   18.089400   18.888074
  H     18.614050   17.025201   16.812489
  H     18.344451   14.800771   17.583671
  H     17.279422   13.125323   19.080555
  H     15.468956   13.836215   20.645047
  H     14.307346   15.529778   21.419095
  H     15.824108   17.887393   19.246001

 Total Charge           Charge          ....    0
 Multiplicity           Mult            ....    1
 Number of Electrons    NEL             ....  154
 Basis Dimension        Dim             ....  828

ORBITAL ENERGIES
----------------

  NO   OCC          E(Eh)            E(eV)
   0   2.0000     -91.891587     -2500.4972
   1   2.0000     -20.603293      -560.6441
   2   2.0000     -20.583748      -560.1123
   3   2.0000     -20.548829      -559.1621
   4   2.0000     -15.631128      -425.3446
   5   2.0000     -15.610162      -424.7741
   6   2.0000     -11.391288      -309.9727
   7   2.0000     -11.385880      -309.8255
   8   2.0000     -11.338660      -308.5406
   9   2.0000     -11.321270      -308.0674
  10   2.0000     -11.313862      -307.8658
  11   2.0000     -11.295712      -307.3720
  12   2.0000     -11.267567      -306.6061
  13   2.0000     -11.262299      -306.4627
  14   2.0000     -11.259284      -306.3807
  15   2.0000     -11.253937      -306.2352
  16   2.0000     -11.251222      -306.1613
  17   2.0000     -11.245702      -306.0111
  18   2.0000     -11.245650      -306.0097
  19   2.0000     -11.225785      -305.4691
  20   2.0000      -8.896633      -242.0897
  21   2.0000      -6.578197      -179.0019
  22   2.0000      -6.576206      -178.9477
  23   2.0000      -6.575608      -178.9314
  24   2.0000      -1.448113       -39.4052
  25   2.0000      -1.423060       -38.7234
  26   2.0000      -1.355212       -36.8772
  27   2.0000      -1.343399       -36.5557
  28   2.0000      -1.241854       -33.7926
  29   2.0000      -1.164418       -31.6854
  30   2.0000      -1.123381       -30.5687
  31   2.0000      -1.048596       -28.5337
  32   2.0000      -1.033706       -28.1286
  33   2.0000      -1.022651       -27.8277
  34   2.0000      -1.000687       -27.2301
  35   2.0000      -0.988109       -26.8878
  36   2.0000      -0.926324       -25.2066
  37   2.0000      -0.875391       -23.8206
  38   2.0000      -0.850789       -23.1511
  39   2.0000      -0.843870       -22.9629
  40   2.0000      -0.841320       -22.8935
  41   2.0000      -0.834054       -22.6958
  42   2.0000      -0.762679       -20.7536
  43   2.0000      -0.739139       -20.1130
  44   2.0000      -0.725743       -19.7485
  45   2.0000      -0.701996       -19.1023
  46   2.0000      -0.691073       -18.8051
  47   2.0000      -0.680472       -18.5166
  48   2.0000      -0.674443       -18.3525
  49   2.0000      -0.656674       -17.8690
  50   2.0000      -0.649054       -17.6617
  51   2.0000      -0.642915       -17.4946
  52   2.0000      -0.637231       -17.3399
  53   2.0000      -0.618643       -16.8341
  54   2.0000      -0.612739       -16.6735
  55   2.0000      -0.605224       -16.4690
  56   2.0000      -0.602436       -16.3931
  57   2.0000      -0.582377       -15.8473
  58   2.0000      -0.573439       -15.6041
  59   2.0000      -0.566876       -15.4255
  60   2.0000      -0.553299       -15.0560
  61   2.0000      -0.544601       -14.8194
  62   2.0000      -0.534819       -14.5532
  63   2.0000      -0.530082       -14.4243
  64   2.0000      -0.520447       -14.1621
  65   2.0000      -0.517221       -14.0743
  66   2.0000      -0.505911       -13.7665
  67   2.0000      -0.500649       -13.6234
  68   2.0000      -0.483734       -13.1631
  69   2.0000      -0.466175       -12.6853
  70   2.0000      -0.461560       -12.5597
  71   2.0000      -0.447054       -12.1650
  72   2.0000      -0.356974        -9.7138
  73   2.0000      -0.354086        -9.6352
  74   2.0000      -0.331204        -9.0125
  75   2.0000      -0.328292        -8.9333
  76   2.0000      -0.321481        -8.7479
  77   0.0000       0.072553         1.9743
  78   0.0000       0.096907         2.6370
  79   0.0000       0.121501         3.3062
  80   0.0000       0.127747         3.4762
  81   0.0000       0.128910         3.5078

MULLIKEN ATOMIC CHARGES
-----------------------
   0 C :   -0.269156
   1 C :    0.013180
   2 O :   -0.355791
   3 C :    0.451614
   4 O :   -0.379979
   5 C :   -0.277603
   6 C :    0.172483
   7 C :   -0.267657
   8 N :   -0.128219
   9 C :    0.207860
  10 S :   -0.437556
  11 N :   -0.209169
  12 C :    0.050599
  13 C :   -0.008129
  14 C :   -0.161905
  15 C :   -0.148582
  16 C :   -0.264870
  17 C :    0.307138
  18 O :   -0.356617
  19 C :   -0.230763
  20 H :    0.088771
  21 H :    0.096379
  22 H :    0.108349
  23 H :    0.107592
  24 H :    0.109600
  25 H :    0.124408
  26 H :    0.137579
  27 H :    0.094247
  28 H :    0.200133
  29 H :    0.200486
  30 H :    0.152347
  31 H :    0.157789
  32 H :    0.169709
  33 H :    0.135060
  34 H :    0.241686
  35 H :    0.168991
Sum of atomic charges:    0.0000000

LOEWDIN ATOMIC CHARGES
----------------------
   0 C :    0.111919
   1 C :   -0.023293
   2 O :    0.296755
   3 C :   -0.427043
   4 O :    0.125361
   5 C :   -0.104894
   6 C :   -0.057037
   7 C :    0.129904
   8 N :    0.407700
   9 C :   -0.457948
  10 S :   -0.032886
  11 N :    0.395363
  12 C :   -0.054103
  13 C :   -0.042673
  14 C :    0.020606
  15 C :    0.044953
  16 C :    0.001513
  17 C :   -0.192066
  18 O :    0.396505
  19 C :    0.032893
  20 H :   -0.025718
  21 H :   -0.030613
  22 H :   -0.025136
  23 H :   -0.031612
  24 H :   -0.038801
  25 H :   -0.006250
  26 H :   -0.004022
  27 H :   -0.022842
  28 H :   -0.056189
  29 H :   -0.063456
  30 H :   -0.011591
  31 H :   -0.027108
  32 H :   -0.019647
  33 H :   -0.033760
  34 H :   -0.152463
  35 H :   -0.022322

  Mayer bond orders larger than 0.100000
B(  0-C ,  1-C ) :   0.9815 B(  0-C , 20-H ) :   0.9758 B(  0-C , 21-H ) :   0.9748
B(  0-C , 22-H ) :   0.9789 B(  1-C ,  2-O ) :   0.8868 B(  1-C , 23-H ) :   0.9797
B(  1-C , 24-H ) :   0.9614 B(  2-O ,  3-C ) :   1.1277 B(  3-C ,  4-O ) :   2.0862
B(  3-C ,  5-C ) :   1.0148 B(  5-C ,  6-C ) :   1.6413 B(  5-C , 12-C ) :   0.9593
B(  6-C ,  7-C ) :   0.9641 B(  6-C ,  8-N ) :   1.1519 B(  7-C , 25-H ) :   0.9687
B(  7-C , 26-H ) :   0.9540 B(  7-C , 27-H ) :   0.9872 B(  8-N ,  9-C ) :   1.1876
B(  8-N , 28-H ) :   0.9473 B(  9-C , 10-S ) :   1.6127 B(  9-C , 11-N ) :   1.3029
B( 11-N , 12-C ) :   0.9709 B( 11-N , 29-H ) :   0.9484 B( 12-C , 13-C ) :   0.9662
B( 12-C , 30-H ) :   1.0055 B( 13-C , 14-C ) :   1.3534 B( 13-C , 19-C ) :   1.3614
B( 14-C , 15-C ) :   1.3832 B( 14-C , 31-H ) :   0.9712 B( 15-C , 16-C ) :   1.3622
B( 15-C , 32-H ) :   0.9688 B( 16-C , 17-C ) :   1.3288 B( 16-C , 33-H ) :   0.9830
B( 17-C , 18-O ) :   1.1078 B( 17-C , 19-C ) :   1.3691 B( 18-O , 34-H ) :   0.9787
B( 19-C , 35-H ) :   0.9606

MP2 TOTAL ENERGY:    -1274.325531440 Eh
FINAL SINGLE POINT ENERGY     -1274.325531440480

DIPOLE MOMENT
-------------
                                X             Y             Z
Electronic contribution:      9.37851      10.46861       5.60350
Nuclear contribution   :    -10.66648     -11.94528      -5.25851
                        -----------------------------------------
Total Dipole Moment    :     -1.28796      -1.47667       0.34500
                        -----------------------------------------
Magnitude (a.u.)       :      1.98958
Magnitude (Debye)      :      5.05710

Rotational constants in cm-1:     0.012535     0.008668     0.006029
Rotational constants in MHz :   375.783280   259.872438   180.742988

                             ****ORCA TERMINATED NORMALLY****
TOTAL RUN TIME: 0 days 1 hours 44 minutes 38 seconds 395 msec
