                         Program Version 4.2.0 -  RELEASE  -
|  1> ! ri-mp2 cc-pvtz cc-pvtz/c TightSCF NoKeepInts
|  2>
|  3> %scf
|  4>   MaxCore 4096
|  5> end
|  6> *xyz  0  1
|  7>     C       13.7409498   16.2196370   14.4574118
|  8>     C       14.8598529   16.0755112   15.5035098
|  9>     O       16.1106348   16.3369169   14.8428310
| 10>     C       17.2200272   16.5455200   15.6103534
| 11>     O       18.1880827   15.8121869   15.5275876
| 12>     C       17.1364472   17.6664974   16.6019998
| 13>     C       16.6559981   18.8882481   16.2583655
| 14>     C       15.9640302   19.2789282   14.9683192
| 15>     N       16.8385168   19.9881995   17.0994245
| 16>     C       17.6873732   20.0048254   18.1739607
| 17>     S       17.9408459   21.3757244   19.0631819
| 18>     N       18.3332669   18.8280099   18.4605118
| 19>     C       18.0658922   17.5297693   17.8104514
| 20>     C       17.6272102   16.4331384   18.7704129
| 21>     C       18.2421894   15.1689044   18.7365442
| 22>     C       17.8290605   14.1499166   19.6109904
| 23>     C       16.7908669   14.3970681   20.5255724
| 24>     C       16.1727001   15.6546171   20.5575592
| 25>     O       15.1640038   15.8935184   21.4329235
| 26>     C       16.5850871   16.6667312   19.6847698
| 27>     H       12.7604081   16.0419713   14.9157617
| 28>     H       13.8769611   15.4898081   13.6492537
| 29>     H       13.7375252   17.2226393   14.0153294
| 30>     H       14.6800867   16.7884073   16.3187688
| 31>     H       14.8599348   15.0612029   15.9251889
| 32>     H       14.8934704   19.0513298   15.0140512
| 33>     H       16.3904934   18.7533862   14.1046353
| 34>     H       16.0657717   20.3503750   14.7545414
| 35>     H       16.3951351   20.8669690   16.8830287
| 36>     H       18.9462728   18.8635748   19.2654850
| 37>     H       19.0620327   17.3055866   17.4005373
| 38>     H       19.0358244   14.9726114   18.0184933
| 39>     H       18.3104564   13.1741168   19.5732996
| 40>     H       16.4680324   13.6121047   21.2014900
| 41>     H       15.0568417   15.0982690   21.9764569
| 42>     H       16.0947169   17.6337793   19.7249979
| 43> *
| 44>
| 45>                          ****END OF INPUT****

CARTESIAN COORDINATES (ANGSTROEM)
---------------------------------
  C     13.740950   16.219637   14.457412
  C     14.859853   16.075511   15.503510
  O     16.110635   16.336917   14.842831
  C     17.220027   16.545520   15.610353
  O     18.188083   15.812187   15.527588
  C     17.136447   17.666497   16.602000
  C     16.655998   18.888248   16.258366
  C     15.964030   19.278928   14.968319
  N     16.838517   19.988200   17.099425
  C     17.687373   20.004825   18.173961
  S     17.940846   21.375724   19.063182
  N     18.333267   18.828010   18.460512
  C     18.065892   17.529769   17.810451
  C     17.627210   16.433138   18.770413
  C     18.242189   15.168904   18.736544
  C     17.829061   14.149917   19.610990
  C     16.790867   14.397068   20.525572
  C     16.172700   15.654617   20.557559
  O     15.164004   15.893518   21.432923
  C     16.585087   16.666731   19.684770
  H     12.760408   16.041971   14.915762
  H     13.876961   15.489808   13.649254
  H     13.737525   17.222639   14.015329
  H     14.680087   16.788407   16.318769
  H     14.859935   15.061203   15.925189
  H     14.893470   19.051330   15.014051
  H     16.390493   18.753386   14.104635
  H     16.065772   20.350375   14.754541
  H     16.395135   20.866969   16.883029
  H     18.946273   18.863575   19.265485
  H     19.062033   17.305587   17.400537
  H     19.035824   14.972611   18.018493
  H     18.310456   13.174117   19.573300
  H     16.468032   13.612105   21.201490
  H     15.056842   15.098269   21.976457
  H     16.094717   17.633779   19.724998

 Total Charge           Charge          ....    0
 Multiplicity           Mult            ....    1
 Number of Electrons    NEL             ....  154
 Basis Dimension        Dim             ....  828

ORBITAL ENERGIES
----------------

  NO   OCC          E(Eh)            E(eV)
   0   2.0000     -91.890125     -2500.4574
   1   2.0000     -20.596716      -560.4651
   2   2.0000     -20.596183      -560.4506
   3   2.0000     -20.552676      -559.2667
   4   2.0000     -15.630018      -425.3144
   5   2.0000     -15.608458      -424.7277
   6   2.0000     -11.395615      -310.0904
   7   2.0000     -11.385365      -309.8115
   8   2.0000     -11.338255      -308.5296
   9   2.0000     -11.313294      -307.8504
  10   2.0000     -11.307198      -307.6845
  11   2.0000     -11.307123      -307.6824
  12   2.0000     -11.265081      -306.5384
  13   2.0000     -11.262733      -306.4745
  14   2.0000     -11.260610      -306.4168
  15   2.0000     -11.253201      -306.2152
  16   2.0000     -11.242922      -305.9355
  17   2.0000     -11.239278      -305.8363
  18   2.0000     -11.238687      -305.8202
  19   2.0000     -11.235656      -305.7377
  20   2.0000      -8.895217      -242.0512
  21   2.0000      -6.576794      -178.9637
  22   2.0000      -6.574787      -178.9091
  23   2.0000      -6.574200      -178.8931
  24   2.0000      -1.452155       -39.5151
  25   2.0000      -1.416448       -38.5435
  26   2.0000      -1.362341       -37.0712
  27   2.0000      -1.341932       -36.5158
  28   2.0000      -1.239335       -33.7240
  29   2.0000      -1.157742       -31.5038
  30   2.0000      -1.124386       -30.5961
  31   2.0000      -1.046141       -28.4670
  32   2.0000      -1.042179       -28.3591
  33   2.0000      -1.015512       -27.6335
  34   2.0000      -1.003987       -27.3199
  35   2.0000      -0.988425       -26.8964
  36   2.0000      -0.924625       -25.1603
  37   2.0000      -0.882679       -24.0189
  38   2.0000      -0.853904       -23.2359
  39   2.0000      -0.842488       -22.9253
  40   2.0000      -0.834974       -22.7208
  41   2.0000      -0.832899       -22.6643
  42   2.0000      -0.760386       -20.6912
  43   2.0000      -0.738574       -20.0976
  44   2.0000      -0.730584       -19.8802
  45   2.0000      -0.694204       -18.8902
  46   2.0000      -0.688746       -18.7417
  47   2.0000      -0.684515       -18.6266
  48   2.0000      -0.674188       -18.3456
  49   2.0000      -0.659672       -17.9506
  50   2.0000      -0.651256       -17.7216
  51   2.0000      -0.643909       -17.5217
  52   2.0000      -0.639485       -17.4013
  53   2.0000      -0.619382       -16.8542
  54   2.0000      -0.607071       -16.5192
  55   2.0000      -0.604267       -16.4429
  56   2.0000      -0.600029       -16.3276
  57   2.0000      -0.581792       -15.8314
  58   2.0000      -0.576006       -15.6739
  59   2.0000      -0.567696       -15.4478
  60   2.0000      -0.560554       -15.2534
  61   2.0000      -0.555118       -15.1055
  62   2.0000      -0.543138       -14.7795
  63   2.0000      -0.532414       -14.4877
  64   2.0000      -0.521759       -14.1978
  65   2.0000      -0.513611       -13.9761
  66   2.0000      -0.501226       -13.6391
  67   2.0000      -0.498766       -13.5721
  68   2.0000      -0.487119       -13.2552
  69   2.0000      -0.467414       -12.7190
  70   2.0000      -0.464711       -12.6454
  71   2.0000      -0.451282       -12.2800
  72   2.0000      -0.356216        -9.6931
  73   2.0000      -0.349188        -9.5019
  74   2.0000      -0.329352        -8.9621
  75   2.0000      -0.320733        -8.7276
  76   2.0000      -0.319410        -8.6916
  77   0.0000       0.076410         2.0792
  78   0.0000       0.105620         2.8741
  79   0.0000       0.118242         3.2175
  80   0.0000       0.132364         3.6018
  81   0.0000       0.136088         3.7031

MULLIKEN ATOMIC CHARGES
-----------------------
   0 C :   -0.267792
   1 C :    0.009928
   2 O :   -0.342161
   3 C :    0.449858
   4 O :   -0.377032
   5 C :   -0.262731
   6 C :    0.180143
   7 C :   -0.320326
   8 N :   -0.133552
   9 C :    0.205242
  10 S :   -0.440968
  11 N :   -0.215486
  12 C :    0.054915
  13 C :    0.024779
  14 C :   -0.196967
  15 C :   -0.130092
  16 C :   -0.277417
  17 C :    0.313269
  18 O :   -0.357807
  19 C :   -0.251883
  20 H :    0.095498
  21 H :    0.108570
  22 H :    0.093262
  23 H :    0.102406
  24 H :    0.117327
  25 H :    0.119094
  26 H :    0.143560
  27 H :    0.121183
  28 H :    0.198588
  29 H :    0.200877
  30 H :    0.162238
  31 H :    0.170652
  32 H :    0.163090
  33 H :    0.130227
  34 H :    0.240933
  35 H :    0.168576
Sum of atomic charges:   -0.0000000

LOEWDIN ATOMIC CHARGES
----------------------
   0 C :    0.109860
   1 C :   -0.023463
   2 O :    0.302052
   3 C :   -0.419101
   4 O :    0.127425
   5 C :   -0.093475
   6 C :   -0.076613
   7 C :    0.127814
   8 N :    0.404459
   9 C :   -0.458142
  10 S :   -0.036651
  11 N :    0.396170
  12 C :   -0.049377
  13 C :   -0.043226
  14 C :    0.022810
  15 C :    0.043077
  16 C :   -0.000588
  17 C :   -0.192614
  18 O :    0.393661
  19 C :    0.027070
  20 H :   -0.023409
  21 H :   -0.022725
  22 H :   -0.031352
  23 H :   -0.037821
  24 H :   -0.026468
  25 H :   -0.015921
  26 H :   -0.006620
  27 H :   -0.015469
  28 H :   -0.057819
  29 H :   -0.063247
  30 H :   -0.005824
  31 H :   -0.021922
  32 H :   -0.019505
  33 H :   -0.035350
  34 H :   -0.153735
  35 H :   -0.023960

  Mayer bond orders larger than 0.100000
B(  0-C ,  1-C ) :   0.9758 B(  0-C , 20-H ) :   0.9754 B(  0-C , 21-H ) :   0.9773
B(  0-C , 22-H ) :   0.9779 B(  1-C ,  2-O ) :   0.8987 B(  1-C , 23-H ) :   0.9646
B(  1-C , 24-H ) :   0.9795 B(  2-O ,  3-C ) :   1.1285 B(  3-C ,  4-O ) :   2.0914
B(  3-C ,  5-C ) :   0.9602 B(  5-C ,  6-C ) :   1.6895 B(  5-C , 12-C ) :   0.9492
B(  6-C ,  7-C ) :   0.9371 B(  6-C ,  8-N ) :   1.1240 B(  7-C , 25-H ) :   0.9653
B(  7-C , 26-H ) :   0.9673 B(  7-C , 27-H ) :   0.9878 B(  8-N ,  9-C ) :   1.1893
B(  8-N , 28-H ) :   0.9488 B(  9-C , 10-S ) :   1.6114 B(  9-C , 11-N ) :   1.2982
B( 11-N , 12-C ) :   0.9847 B( 11-N , 29-H ) :   0.9485 B( 12-C , 13-C ) :   0.9710
B( 12-C , 30-H ) :   0.9926 B( 13-C , 14-C ) :   1.3832 B( 13-C , 19-C ) :   1.3584
B( 14-C , 15-C ) :   1.3946 B( 14-C , 31-H ) :   0.9601 B( 15-C , 16-C ) :   1.3608
B( 15-C , 32-H ) :   0.9703 B( 16-C , 17-C ) :   1.3314 B( 16-C , 33-H ) :   0.9854
B( 17-C , 18-O ) :   1.1063 B( 17-C , 19-C ) :   1.3674 B( 18-O , 34-H ) :   0.9798
B( 19-C , 35-H ) :   0.9581

MP2 TOTAL ENERGY:    -1274.330062117 Eh
FINAL SINGLE POINT ENERGY     -1274.330062117390

DIPOLE MOMENT
-------------
                                X             Y             Z
Electronic contribution:     11.13778       6.69798       9.83733
Nuclear contribution   :    -12.67926      -7.86328     -10.29640
                        -----------------------------------------
Total Dipole Moment    :     -1.54148      -1.16530      -0.45908
                        -----------------------------------------
Magnitude (a.u.)       :      1.98617
Magnitude (Debye)      :      5.04843

Rotational constants in cm-1:     0.010080     0.009283     0.006118
Rotational constants in MHz :   302.199069   278.310807   183.400811

                             ****ORCA TERMINATED NORMALLY****
TOTAL RUN TIME: 0 days 1 hours 40 minutes 29 seconds 213 msec
