                         Program Version 4.2.0 -  RELEASE  -
|  1> ! ri-mp2 cc-pvtz cc-pvtz/c TightSCF NoKeepInts
|  2>
|  3> %scf
|  4>   MaxCore 4096
|  5> end
|  6> *xyz  0  1
|  7>     C       15.0629650   14.9967961   13.8884346
|  8>     C       15.0891494   15.0477117   15.4309570
|  9>     O       16.0687630   16.0003793   15.8888063
| 10>     C       15.8614631   17.3493932   15.7819404
| 11>     O       15.0208821   17.8313133   15.0425577
| 12>     C       16.7020562   18.1360469   16.7530001
| 13>     C       16.8300242   19.4825782   16.6287330
| 14>     C       16.0118047   20.4045812   15.7480819
| 15>     N       17.8057602   20.1822686   17.3424979
| 16>     C       18.8164773   19.5938118   18.0529990
| 17>     S       19.9981988   20.4818167   18.7951400
| 18>     N       18.8117809   18.2229167   18.0994167
| 19>     C       17.7469572   17.3522929   17.5663346
| 20>     C       17.1525962   16.4378950   18.6298195
| 21>     C       17.4092266   15.0544975   18.6107369
| 22>     C       16.8614266   14.2136438   19.5941980
| 23>     C       16.0538323   14.7615860   20.6057115
| 24>     C       15.8006980   16.1402417   20.6289058
| 25>     O       15.0227658   16.6719254   21.6052178
| 26>     C       16.3471613   16.9744197   19.6485976
| 27>     H       14.6433642   15.9142410   13.4591528
| 28>     H       14.4432520   14.1589181   13.5472136
| 29>     H       16.0746568   14.8575929   13.4881455
| 30>     H       14.0939535   15.3045512   15.8184402
| 31>     H       15.3550898   14.0541621   15.8139303
| 32>     H       14.9396901   20.2725996   15.9428602
| 33>     H       16.1824675   20.1793053   14.6876587
| 34>     H       16.2428666   21.4650874   15.9026385
| 35>     H       17.8332091   21.1883670   17.2981490
| 36>     H       19.5515887   17.8181508   18.6591036
| 37>     H       18.3212670   16.7705243   16.8314442
| 38>     H       18.0296663   14.6298869   17.8260207
| 39>     H       17.0633205   13.1441922   19.5709769
| 40>     H       15.6290182   14.1165514   21.3677758
| 41>     H       14.7632912   15.9498325   22.1968633
| 42>     H       16.1463097   18.0399214   19.6855402
| 43> *
| 44>
| 45>                          ****END OF INPUT****

CARTESIAN COORDINATES (ANGSTROEM)
---------------------------------
  C     15.062965   14.996796   13.888435
  C     15.089149   15.047712   15.430957
  O     16.068763   16.000379   15.888806
  C     15.861463   17.349393   15.781940
  O     15.020882   17.831313   15.042558
  C     16.702056   18.136047   16.753000
  C     16.830024   19.482578   16.628733
  C     16.011805   20.404581   15.748082
  N     17.805760   20.182269   17.342498
  C     18.816477   19.593812   18.052999
  S     19.998199   20.481817   18.795140
  N     18.811781   18.222917   18.099417
  C     17.746957   17.352293   17.566335
  C     17.152596   16.437895   18.629819
  C     17.409227   15.054498   18.610737
  C     16.861427   14.213644   19.594198
  C     16.053832   14.761586   20.605711
  C     15.800698   16.140242   20.628906
  O     15.022766   16.671925   21.605218
  C     16.347161   16.974420   19.648598
  H     14.643364   15.914241   13.459153
  H     14.443252   14.158918   13.547214
  H     16.074657   14.857593   13.488145
  H     14.093953   15.304551   15.818440
  H     15.355090   14.054162   15.813930
  H     14.939690   20.272600   15.942860
  H     16.182468   20.179305   14.687659
  H     16.242867   21.465087   15.902639
  H     17.833209   21.188367   17.298149
  H     19.551589   17.818151   18.659104
  H     18.321267   16.770524   16.831444
  H     18.029666   14.629887   17.826021
  H     17.063320   13.144192   19.570977
  H     15.629018   14.116551   21.367776
  H     14.763291   15.949832   22.196863
  H     16.146310   18.039921   19.685540

 Total Charge           Charge          ....    0
 Multiplicity           Mult            ....    1
 Number of Electrons    NEL             ....  154
 Basis Dimension        Dim             ....  828

ORBITAL ENERGIES
----------------

  NO   OCC          E(Eh)            E(eV)
   0   2.0000     -91.888730     -2500.4195
   1   2.0000     -20.598797      -560.5218
   2   2.0000     -20.596118      -560.4489
   3   2.0000     -20.542338      -558.9854
   4   2.0000     -15.629123      -425.2901
   5   2.0000     -15.606734      -424.6808
   6   2.0000     -11.396136      -310.1046
   7   2.0000     -11.383314      -309.7557
   8   2.0000     -11.337336      -308.5046
   9   2.0000     -11.313226      -307.8485
  10   2.0000     -11.307187      -307.6842
  11   2.0000     -11.299412      -307.4726
  12   2.0000     -11.260343      -306.4095
  13   2.0000     -11.258992      -306.3727
  14   2.0000     -11.254724      -306.2566
  15   2.0000     -11.251759      -306.1759
  16   2.0000     -11.243040      -305.9387
  17   2.0000     -11.238379      -305.8119
  18   2.0000     -11.238233      -305.8079
  19   2.0000     -11.220861      -305.3352
  20   2.0000      -8.893800      -242.0126
  21   2.0000      -6.575373      -178.9250
  22   2.0000      -6.573375      -178.8706
  23   2.0000      -6.572785      -178.8546
  24   2.0000      -1.449335       -39.4384
  25   2.0000      -1.415771       -38.5251
  26   2.0000      -1.355129       -36.8749
  27   2.0000      -1.340286       -36.4710
  28   2.0000      -1.238081       -33.6899
  29   2.0000      -1.157062       -31.4853
  30   2.0000      -1.120768       -30.4977
  31   2.0000      -1.042400       -28.3652
  32   2.0000      -1.035504       -28.1775
  33   2.0000      -1.014483       -27.6055
  34   2.0000      -0.995545       -27.0902
  35   2.0000      -0.983934       -26.7742
  36   2.0000      -0.921540       -25.0764
  37   2.0000      -0.892890       -24.2968
  38   2.0000      -0.846663       -23.0389
  39   2.0000      -0.837706       -22.7951
  40   2.0000      -0.833701       -22.6862
  41   2.0000      -0.818896       -22.2833
  42   2.0000      -0.754791       -20.5389
  43   2.0000      -0.732591       -19.9348
  44   2.0000      -0.721449       -19.6316
  45   2.0000      -0.695077       -18.9140
  46   2.0000      -0.688574       -18.7370
  47   2.0000      -0.679885       -18.5006
  48   2.0000      -0.670438       -18.2435
  49   2.0000      -0.650523       -17.7016
  50   2.0000      -0.648043       -17.6341
  51   2.0000      -0.644987       -17.5510
  52   2.0000      -0.632269       -17.2049
  53   2.0000      -0.608040       -16.5456
  54   2.0000      -0.605038       -16.4639
  55   2.0000      -0.599570       -16.3151
  56   2.0000      -0.598516       -16.2865
  57   2.0000      -0.580037       -15.7836
  58   2.0000      -0.573267       -15.5994
  59   2.0000      -0.569661       -15.5013
  60   2.0000      -0.562909       -15.3175
  61   2.0000      -0.540190       -14.6993
  62   2.0000      -0.536249       -14.5921
  63   2.0000      -0.523827       -14.2541
  64   2.0000      -0.520629       -14.1670
  65   2.0000      -0.512822       -13.9546
  66   2.0000      -0.501263       -13.6401
  67   2.0000      -0.497468       -13.5368
  68   2.0000      -0.484727       -13.1901
  69   2.0000      -0.463220       -12.6049
  70   2.0000      -0.455649       -12.3988
  71   2.0000      -0.443617       -12.0714
  72   2.0000      -0.352809        -9.6004
  73   2.0000      -0.349286        -9.5046
  74   2.0000      -0.327872        -8.9219
  75   2.0000      -0.320640        -8.7251
  76   2.0000      -0.317923        -8.6511
  77   0.0000       0.076819         2.0904
  78   0.0000       0.105630         2.8743
  79   0.0000       0.125003         3.4015
  80   0.0000       0.133054         3.6206
  81   0.0000       0.136886         3.7249

MULLIKEN ATOMIC CHARGES
-----------------------
   0 C :   -0.293647
   1 C :    0.043548
   2 O :   -0.350947
   3 C :    0.435883
   4 O :   -0.437403
   5 C :   -0.213332
   6 C :    0.173058
   7 C :   -0.268913
   8 N :   -0.125601
   9 C :    0.210331
  10 S :   -0.442113
  11 N :   -0.215150
  12 C :    0.060011
  13 C :    0.045396
  14 C :   -0.179355
  15 C :   -0.133597
  16 C :   -0.276223
  17 C :    0.316622
  18 O :   -0.356963
  19 C :   -0.249157
  20 H :    0.124903
  21 H :    0.093411
  22 H :    0.089891
  23 H :    0.091179
  24 H :    0.105025
  25 H :    0.133975
  26 H :    0.128214
  27 H :    0.094899
  28 H :    0.199675
  29 H :    0.200452
  30 H :    0.152123
  31 H :    0.150753
  32 H :    0.160376
  33 H :    0.129742
  34 H :    0.240506
  35 H :    0.162429
Sum of atomic charges:   -0.0000000

LOEWDIN ATOMIC CHARGES
----------------------
   0 C :    0.104633
   1 C :   -0.013748
   2 O :    0.304070
   3 C :   -0.412962
   4 O :    0.101067
   5 C :   -0.094567
   6 C :   -0.056190
   7 C :    0.130883
   8 N :    0.407167
   9 C :   -0.456743
  10 S :   -0.036651
  11 N :    0.394634
  12 C :   -0.054742
  13 C :   -0.039084
  14 C :    0.016921
  15 C :    0.038687
  16 C :   -0.000852
  17 C :   -0.189633
  18 O :    0.394956
  19 C :    0.033050
  20 H :   -0.026424
  21 H :   -0.028894
  22 H :   -0.030070
  23 H :   -0.028474
  24 H :   -0.024976
  25 H :   -0.004342
  26 H :   -0.005312
  27 H :   -0.023653
  28 H :   -0.057219
  29 H :   -0.064365
  30 H :   -0.013817
  31 H :   -0.029364
  32 H :   -0.021508
  33 H :   -0.035556
  34 H :   -0.154048
  35 H :   -0.022873

  Mayer bond orders larger than 0.100000
B(  0-C ,  1-C ) :   0.9715 B(  0-C , 20-H ) :   0.9720 B(  0-C , 21-H ) :   0.9776
B(  0-C , 22-H ) :   0.9757 B(  1-C ,  2-O ) :   0.9021 B(  1-C , 23-H ) :   0.9761
B(  1-C , 24-H ) :   0.9833 B(  2-O ,  3-C ) :   1.1528 B(  3-C ,  4-O ) :   1.9511
B(  3-C ,  5-C ) :   1.0759 B(  5-C ,  6-C ) :   1.6363 B(  5-C , 12-C ) :   0.9548
B(  6-C ,  7-C ) :   0.9659 B(  6-C ,  8-N ) :   1.1532 B(  7-C , 25-H ) :   0.9610
B(  7-C , 26-H ) :   0.9588 B(  7-C , 27-H ) :   0.9910 B(  8-N ,  9-C ) :   1.1874
B(  8-N , 28-H ) :   0.9463 B(  9-C , 10-S ) :   1.6059 B(  9-C , 11-N ) :   1.3096
B( 11-N , 12-C ) :   0.9673 B( 11-N , 29-H ) :   0.9484 B( 12-C , 13-C ) :   0.9644
B( 12-C , 30-H ) :   1.0009 B( 13-C , 14-C ) :   1.3540 B( 13-C , 19-C ) :   1.3809
B( 14-C , 15-C ) :   1.3945 B( 14-C , 31-H ) :   0.9718 B( 15-C , 16-C ) :   1.3602
B( 15-C , 32-H ) :   0.9708 B( 16-C , 17-C ) :   1.3341 B( 16-C , 33-H ) :   0.9851
B( 17-C , 18-O ) :   1.1041 B( 17-C , 19-C ) :   1.3647 B( 18-O , 34-H ) :   0.9799
B( 19-C , 35-H ) :   0.9597

MP2 TOTAL ENERGY:    -1274.340046640 Eh
FINAL SINGLE POINT ENERGY     -1274.340046639809

DIPOLE MOMENT
-------------
                                X             Y             Z
Electronic contribution:      9.21024       9.33705      10.78834
Nuclear contribution   :    -10.33360     -10.98741     -11.11109
                        -----------------------------------------
Total Dipole Moment    :     -1.12336      -1.65037      -0.32275
                        -----------------------------------------
Magnitude (a.u.)       :      2.02233
Magnitude (Debye)      :      5.14036

Rotational constants in cm-1:     0.010534     0.008831     0.005778
Rotational constants in MHz :   315.814334   264.744396   173.212445

                             ****ORCA TERMINATED NORMALLY****
TOTAL RUN TIME: 0 days 1 hours 37 minutes 48 seconds 674 msec
