                         Program Version 4.2.0 -  RELEASE  -
|  1> ! ri-mp2 cc-pvtz cc-pvtz/c TightSCF NoKeepInts
|  2>
|  3> %scf
|  4>   MaxCore 4096
|  5> end
|  6> *xyz  0  1
|  7>     C       14.3406563   14.9703507   14.9145940
|  8>     C       15.8720954   14.8086017   15.0436121
|  9>     O       16.4978453   15.8911362   15.7710680
| 10>     C       16.2099803   17.2199365   15.5952992
| 11>     O       15.5227808   17.6364475   14.6794040
| 12>     C       16.8907025   18.0898819   16.6200332
| 13>     C       16.9928725   19.4324383   16.4398849
| 14>     C       16.2708423   20.2787272   15.4114697
| 15>     N       17.8391076   20.2042412   17.2394712
| 16>     C       18.7544097   19.6923817   18.1185179
| 17>     S       19.7916707   20.6618264   18.9671277
| 18>     N       18.7817306   18.3268680   18.2448499
| 19>     C       17.8328281   17.3895452   17.6147915
| 20>     C       17.1179485   16.5104673   18.6328135
| 21>     C       17.4144775   15.1383425   18.7290533
| 22>     C       16.7542293   14.3300448   19.6698358
| 23>     C       15.7927568   14.8995689   20.5223558
| 24>     C       15.4991566   16.2672938   20.4308654
| 25>     O       14.5724532   16.8198369   21.2536698
| 26>     C       16.1580903   17.0691399   19.4937009
| 27>     H       13.8994484   15.2869549   15.8679764
| 28>     H       13.8833962   14.0150893   14.6303499
| 29>     H       14.0727925   15.7007509   14.1418298
| 30>     H       16.0931687   13.8657549   15.5600829
| 31>     H       16.3045789   14.7455602   14.0364534
| 32>     H       16.6074441   20.0264217   14.3978459
| 33>     H       16.4250145   21.3547265   15.5542035
| 34>     H       15.1892387   20.0965847   15.4526033
| 35>     H       17.8439290   21.2067905   17.1405557
| 36>     H       19.4442254   17.9804051   18.9270601
| 37>     H       18.5242713   16.7925647   17.0034910
| 38>     H       18.1540646   14.6966894   18.0666818
| 39>     H       16.9876207   13.2688728   19.7360209
| 40>     H       15.2802379   14.2796015   21.2504990
| 41>     H       14.2478369   16.1192120   21.8389144
| 42>     H       15.9230977   18.1269442   19.4410142
| 43> *
| 44>
| 45>                          ****END OF INPUT****

CARTESIAN COORDINATES (ANGSTROEM)
---------------------------------
  C     14.340656   14.970351   14.914594
  C     15.872095   14.808602   15.043612
  O     16.497845   15.891136   15.771068
  C     16.209980   17.219936   15.595299
  O     15.522781   17.636447   14.679404
  C     16.890702   18.089882   16.620033
  C     16.992873   19.432438   16.439885
  C     16.270842   20.278727   15.411470
  N     17.839108   20.204241   17.239471
  C     18.754410   19.692382   18.118518
  S     19.791671   20.661826   18.967128
  N     18.781731   18.326868   18.244850
  C     17.832828   17.389545   17.614791
  C     17.117949   16.510467   18.632814
  C     17.414478   15.138343   18.729053
  C     16.754229   14.330045   19.669836
  C     15.792757   14.899569   20.522356
  C     15.499157   16.267294   20.430865
  O     14.572453   16.819837   21.253670
  C     16.158090   17.069140   19.493701
  H     13.899448   15.286955   15.867976
  H     13.883396   14.015089   14.630350
  H     14.072792   15.700751   14.141830
  H     16.093169   13.865755   15.560083
  H     16.304579   14.745560   14.036453
  H     16.607444   20.026422   14.397846
  H     16.425014   21.354726   15.554203
  H     15.189239   20.096585   15.452603
  H     17.843929   21.206791   17.140556
  H     19.444225   17.980405   18.927060
  H     18.524271   16.792565   17.003491
  H     18.154065   14.696689   18.066682
  H     16.987621   13.268873   19.736021
  H     15.280238   14.279601   21.250499
  H     14.247837   16.119212   21.838914
  H     15.923098   18.126944   19.441014

 Total Charge           Charge          ....    0
 Multiplicity           Mult            ....    1
 Number of Electrons    NEL             ....  154
 Basis Dimension        Dim             ....  828

ORBITAL ENERGIES
----------------

  NO   OCC          E(Eh)            E(eV)
   0   2.0000     -91.888018     -2500.4001
   1   2.0000     -20.598990      -560.5270
   2   2.0000     -20.596011      -560.4460
   3   2.0000     -20.540672      -558.9401
   4   2.0000     -15.628269      -425.2668
   5   2.0000     -15.606118      -424.6641
   6   2.0000     -11.396892      -310.1252
   7   2.0000     -11.382624      -309.7369
   8   2.0000     -11.336397      -308.4791
   9   2.0000     -11.313081      -307.8446
  10   2.0000     -11.306397      -307.6627
  11   2.0000     -11.301812      -307.5379
  12   2.0000     -11.260062      -306.4019
  13   2.0000     -11.258999      -306.3729
  14   2.0000     -11.254562      -306.2522
  15   2.0000     -11.250985      -306.1549
  16   2.0000     -11.242937      -305.9359
  17   2.0000     -11.238233      -305.8079
  18   2.0000     -11.238122      -305.8048
  19   2.0000     -11.222357      -305.3759
  20   2.0000      -8.893099      -241.9935
  21   2.0000      -6.574675      -178.9060
  22   2.0000      -6.572674      -178.8516
  23   2.0000      -6.572086      -178.8356
  24   2.0000      -1.446286       -39.3554
  25   2.0000      -1.415671       -38.5224
  26   2.0000      -1.354025       -36.8449
  27   2.0000      -1.339532       -36.4505
  28   2.0000      -1.237414       -33.6717
  29   2.0000      -1.156831       -31.4790
  30   2.0000      -1.120033       -30.4776
  31   2.0000      -1.041995       -28.3541
  32   2.0000      -1.035836       -28.1865
  33   2.0000      -1.014315       -27.6009
  34   2.0000      -0.995253       -27.0822
  35   2.0000      -0.983454       -26.7611
  36   2.0000      -0.920988       -25.0614
  37   2.0000      -0.897146       -24.4126
  38   2.0000      -0.846074       -23.0228
  39   2.0000      -0.837515       -22.7899
  40   2.0000      -0.833537       -22.6817
  41   2.0000      -0.816983       -22.2312
  42   2.0000      -0.748319       -20.3628
  43   2.0000      -0.732367       -19.9287
  44   2.0000      -0.720120       -19.5955
  45   2.0000      -0.694704       -18.9039
  46   2.0000      -0.687535       -18.7088
  47   2.0000      -0.678274       -18.4568
  48   2.0000      -0.671440       -18.2708
  49   2.0000      -0.655326       -17.8323
  50   2.0000      -0.648593       -17.6491
  51   2.0000      -0.640061       -17.4169
  52   2.0000      -0.633262       -17.2319
  53   2.0000      -0.613107       -16.6835
  54   2.0000      -0.605964       -16.4891
  55   2.0000      -0.600056       -16.3284
  56   2.0000      -0.598371       -16.2825
  57   2.0000      -0.576749       -15.6941
  58   2.0000      -0.571278       -15.5453
  59   2.0000      -0.568615       -15.4728
  60   2.0000      -0.559619       -15.2280
  61   2.0000      -0.541903       -14.7459
  62   2.0000      -0.535094       -14.5606
  63   2.0000      -0.524315       -14.2673
  64   2.0000      -0.520543       -14.1647
  65   2.0000      -0.512507       -13.9460
  66   2.0000      -0.502403       -13.6711
  67   2.0000      -0.497358       -13.5338
  68   2.0000      -0.483514       -13.1571
  69   2.0000      -0.462108       -12.5746
  70   2.0000      -0.455164       -12.3856
  71   2.0000      -0.442137       -12.0312
  72   2.0000      -0.352113        -9.5815
  73   2.0000      -0.349094        -9.4993
  74   2.0000      -0.327266        -8.9054
  75   2.0000      -0.320485        -8.7208
  76   2.0000      -0.317195        -8.6313
  77   0.0000       0.078673         2.1408
  78   0.0000       0.105712         2.8766
  79   0.0000       0.125332         3.4105
  80   0.0000       0.133464         3.6318
  81   0.0000       0.137554         3.7430

MULLIKEN ATOMIC CHARGES
-----------------------
   0 C :   -0.306917
   1 C :    0.046520
   2 O :   -0.352476
   3 C :    0.443426
   4 O :   -0.437372
   5 C :   -0.222544
   6 C :    0.172276
   7 C :   -0.268375
   8 N :   -0.126006
   9 C :    0.210705
  10 S :   -0.443502
  11 N :   -0.214997
  12 C :    0.060691
  13 C :    0.048541
  14 C :   -0.181045
  15 C :   -0.133153
  16 C :   -0.276213
  17 C :    0.317164
  18 O :   -0.356984
  19 C :   -0.250737
  20 H :    0.099831
  21 H :    0.094395
  22 H :    0.127084
  23 H :    0.102697
  24 H :    0.095757
  25 H :    0.129074
  26 H :    0.094383
  27 H :    0.132549
  28 H :    0.199516
  29 H :    0.200227
  30 H :    0.151871
  31 H :    0.151082
  32 H :    0.159947
  33 H :    0.129622
  34 H :    0.240477
  35 H :    0.162488
Sum of atomic charges:   -0.0000000

LOEWDIN ATOMIC CHARGES
----------------------
   0 C :    0.104367
   1 C :   -0.010878
   2 O :    0.300584
   3 C :   -0.412723
   4 O :    0.101268
   5 C :   -0.093632
   6 C :   -0.057063
   7 C :    0.130433
   8 N :    0.406917
   9 C :   -0.456765
  10 S :   -0.037762
  11 N :    0.394716
  12 C :   -0.054913
  13 C :   -0.039061
  14 C :    0.016851
  15 C :    0.038879
  16 C :   -0.000730
  17 C :   -0.189781
  18 O :    0.394924
  19 C :    0.033001
  20 H :   -0.026397
  21 H :   -0.028388
  22 H :   -0.025837
  23 H :   -0.024980
  24 H :   -0.029551
  25 H :   -0.005315
  26 H :   -0.023821
  27 H :   -0.004637
  28 H :   -0.057296
  29 H :   -0.064483
  30 H :   -0.014276
  31 H :   -0.029548
  32 H :   -0.021581
  33 H :   -0.035551
  34 H :   -0.154088
  35 H :   -0.022882

  Mayer bond orders larger than 0.100000
B(  0-C ,  1-C ) :   0.9628 B(  0-C , 20-H ) :   0.9757 B(  0-C , 21-H ) :   0.9765
B(  0-C , 22-H ) :   0.9721 B(  1-C ,  2-O ) :   0.9048 B(  1-C , 23-H ) :   0.9827
B(  1-C , 24-H ) :   0.9832 B(  2-O ,  3-C ) :   1.1659 B(  3-C ,  4-O ) :   1.9606
B(  3-C ,  5-C ) :   1.0627 B(  5-C ,  6-C ) :   1.6440 B(  5-C , 12-C ) :   0.9561
B(  6-C ,  7-C ) :   0.9655 B(  6-C ,  8-N ) :   1.1531 B(  7-C , 25-H ) :   0.9588
B(  7-C , 26-H ) :   0.9904 B(  7-C , 27-H ) :   0.9619 B(  8-N ,  9-C ) :   1.1883
B(  8-N , 28-H ) :   0.9466 B(  9-C , 10-S ) :   1.6044 B(  9-C , 11-N ) :   1.3098
B( 11-N , 12-C ) :   0.9688 B( 11-N , 29-H ) :   0.9486 B( 12-C , 13-C ) :   0.9644
B( 12-C , 30-H ) :   1.0004 B( 13-C , 14-C ) :   1.3542 B( 13-C , 19-C ) :   1.3800
B( 14-C , 15-C ) :   1.3947 B( 14-C , 31-H ) :   0.9714 B( 15-C , 16-C ) :   1.3604
B( 15-C , 32-H ) :   0.9709 B( 16-C , 17-C ) :   1.3340 B( 16-C , 33-H ) :   0.9852
B( 17-C , 18-O ) :   1.1041 B( 17-C , 19-C ) :   1.3644 B( 18-O , 34-H ) :   0.9800
B( 19-C , 35-H ) :   0.9597

MP2 TOTAL ENERGY:    -1274.338220997 Eh
FINAL SINGLE POINT ENERGY     -1274.338220996921

DIPOLE MOMENT
-------------
                                X             Y             Z
Electronic contribution:      9.83473       9.83753       9.27469
Nuclear contribution   :    -10.85720     -11.61344      -9.71069
                        -----------------------------------------
Total Dipole Moment    :     -1.02247      -1.77591      -0.43601
                        -----------------------------------------
Magnitude (a.u.)       :      2.09509
Magnitude (Debye)      :      5.32530

Rotational constants in cm-1:     0.011124     0.008664     0.005861
Rotational constants in MHz :   333.495233   259.727223   175.719423

                             ****ORCA TERMINATED NORMALLY****
TOTAL RUN TIME: 0 days 1 hours 55 minutes 24 seconds 449 msec
