                         Program Version 4.2.0 -  RELEASE  -
|  1> ! ri-mp2 cc-pvtz cc-pvtz/c TightSCF NoKeepInts
|  2>
|  3> %scf
|  4>   MaxCore 4096
|  5> end
|  6> *xyz  0  1
|  7>     C       14.6051348   15.0194650   16.5476644
|  8>     C       15.1995864   15.8177154   15.3764392
|  9>     O       16.6351015   15.6941737   15.3838675
| 10>     C       17.3965342   16.8187900   15.2548502
| 11>     O       18.1461849   16.9724805   14.3087075
| 12>     C       17.2012725   17.8486659   16.3186256
| 13>     C       17.0798539   19.1411227   15.9353690
| 14>     C       16.7158698   19.6207558   14.5464339
| 15>     N       17.3116414   20.1889677   16.8275986
| 16>     C       17.9211606   20.0338564   18.0440705
| 17>     S       18.2865509   21.3244268   19.0113113
| 18>     N       18.2383647   18.7482695   18.4084921
| 19>     C       17.8243283   17.5291777   17.6841173
| 20>     C       17.0911526   16.5183463   18.5522481
| 21>     C       17.4586928   15.1604769   18.5252786
| 22>     C       16.8120634   14.2293662   19.3554047
| 23>     C       15.7942169   14.6607024   20.2234713
| 24>     C       15.4298484   16.0139027   20.2563884
| 25>     O       14.4454161   16.4322444   21.0906478
| 26>     C       16.0730155   16.9386394   19.4268622
| 27>     H       14.7422268   15.5501259   17.4927816
| 28>     H       15.0756414   14.0314548   16.6271822
| 29>     H       13.5277563   14.8750007   16.4031361
| 30>     H       14.8152745   15.4167978   14.4293222
| 31>     H       14.8786443   16.8652682   15.4517665
| 32>     H       17.6124135   19.6676490   13.9137873
| 33>     H       16.2546056   20.6156078   14.5548452
| 34>     H       16.0095599   18.9373754   14.0598920
| 35>     H       17.1288750   21.1397010   16.5479976
| 36>     H       18.6812923   18.6623360   19.3149430
| 37>     H       18.8195001   17.1288934   17.4405057
| 38>     H       18.2449021   14.8245100   17.8533897
| 39>     H       17.1009772   13.1800790   19.3240204
| 40>     H       15.2927660   13.9447238   20.8664371
| 41>     H       14.1567528   15.6662274   21.6094971
| 42>     H       15.7798223   17.9827048   19.4706481
| 43> *
| 44>
| 45>                          ****END OF INPUT****

CARTESIAN COORDINATES (ANGSTROEM)
---------------------------------
  C     14.605135   15.019465   16.547664
  C     15.199586   15.817715   15.376439
  O     16.635102   15.694174   15.383867
  C     17.396534   16.818790   15.254850
  O     18.146185   16.972480   14.308707
  C     17.201272   17.848666   16.318626
  C     17.079854   19.141123   15.935369
  C     16.715870   19.620756   14.546434
  N     17.311641   20.188968   16.827599
  C     17.921161   20.033856   18.044071
  S     18.286551   21.324427   19.011311
  N     18.238365   18.748269   18.408492
  C     17.824328   17.529178   17.684117
  C     17.091153   16.518346   18.552248
  C     17.458693   15.160477   18.525279
  C     16.812063   14.229366   19.355405
  C     15.794217   14.660702   20.223471
  C     15.429848   16.013903   20.256388
  O     14.445416   16.432244   21.090648
  C     16.073016   16.938639   19.426862
  H     14.742227   15.550126   17.492782
  H     15.075641   14.031455   16.627182
  H     13.527756   14.875001   16.403136
  H     14.815274   15.416798   14.429322
  H     14.878644   16.865268   15.451766
  H     17.612413   19.667649   13.913787
  H     16.254606   20.615608   14.554845
  H     16.009560   18.937375   14.059892
  H     17.128875   21.139701   16.547998
  H     18.681292   18.662336   19.314943
  H     18.819500   17.128893   17.440506
  H     18.244902   14.824510   17.853390
  H     17.100977   13.180079   19.324020
  H     15.292766   13.944724   20.866437
  H     14.156753   15.666227   21.609497
  H     15.779822   17.982705   19.470648

 Total Charge           Charge          ....    0
 Multiplicity           Mult            ....    1
 Number of Electrons    NEL             ....  154
 Basis Dimension        Dim             ....  828

ORBITAL ENERGIES
----------------

  NO   OCC          E(Eh)            E(eV)
   0   2.0000     -91.890377     -2500.4643
   1   2.0000     -20.601515      -560.5957
   2   2.0000     -20.590545      -560.2972
   3   2.0000     -20.558061      -559.4133
   4   2.0000     -15.627558      -425.2475
   5   2.0000     -15.610548      -424.7846
   6   2.0000     -11.395460      -310.0862
   7   2.0000     -11.385562      -309.8169
   8   2.0000     -11.330428      -308.3166
   9   2.0000     -11.319486      -308.0189
  10   2.0000     -11.315702      -307.9159
  11   2.0000     -11.303083      -307.5725
  12   2.0000     -11.267478      -306.6037
  13   2.0000     -11.260197      -306.4055
  14   2.0000     -11.258547      -306.3606
  15   2.0000     -11.256809      -306.3133
  16   2.0000     -11.249110      -306.1038
  17   2.0000     -11.244666      -305.9829
  18   2.0000     -11.243839      -305.9604
  19   2.0000     -11.224043      -305.4217
  20   2.0000      -8.895440      -242.0572
  21   2.0000      -6.577011      -178.9696
  22   2.0000      -6.575012      -178.9152
  23   2.0000      -6.574421      -178.8991
  24   2.0000      -1.450191       -39.4617
  25   2.0000      -1.421310       -38.6758
  26   2.0000      -1.362257       -37.0689
  27   2.0000      -1.340543       -36.4780
  28   2.0000      -1.239886       -33.7390
  29   2.0000      -1.163112       -31.6499
  30   2.0000      -1.125233       -30.6192
  31   2.0000      -1.048749       -28.5379
  32   2.0000      -1.035369       -28.1738
  33   2.0000      -1.021362       -27.7927
  34   2.0000      -1.003053       -27.2945
  35   2.0000      -0.989223       -26.9181
  36   2.0000      -0.926238       -25.2042
  37   2.0000      -0.882109       -24.0034
  38   2.0000      -0.850953       -23.1556
  39   2.0000      -0.842948       -22.9378
  40   2.0000      -0.839398       -22.8412
  41   2.0000      -0.834626       -22.7113
  42   2.0000      -0.760541       -20.6954
  43   2.0000      -0.737757       -20.0754
  44   2.0000      -0.728829       -19.8324
  45   2.0000      -0.699833       -19.0434
  46   2.0000      -0.692269       -18.8376
  47   2.0000      -0.683564       -18.6007
  48   2.0000      -0.675760       -18.3884
  49   2.0000      -0.663234       -18.0475
  50   2.0000      -0.650782       -17.7087
  51   2.0000      -0.640504       -17.4290
  52   2.0000      -0.627054       -17.0630
  53   2.0000      -0.621932       -16.9236
  54   2.0000      -0.611168       -16.6307
  55   2.0000      -0.605037       -16.4639
  56   2.0000      -0.603359       -16.4182
  57   2.0000      -0.581854       -15.8330
  58   2.0000      -0.577512       -15.7149
  59   2.0000      -0.567980       -15.4555
  60   2.0000      -0.564601       -15.3636
  61   2.0000      -0.554070       -15.0770
  62   2.0000      -0.539186       -14.6720
  63   2.0000      -0.526502       -14.3268
  64   2.0000      -0.521650       -14.1948
  65   2.0000      -0.515067       -14.0157
  66   2.0000      -0.503896       -13.7117
  67   2.0000      -0.497022       -13.5247
  68   2.0000      -0.490773       -13.3546
  69   2.0000      -0.464979       -12.6527
  70   2.0000      -0.457408       -12.4467
  71   2.0000      -0.452597       -12.3158
  72   2.0000      -0.356330        -9.6962
  73   2.0000      -0.351696        -9.5701
  74   2.0000      -0.329605        -8.9690
  75   2.0000      -0.326894        -8.8952
  76   2.0000      -0.320063        -8.7094
  77   0.0000       0.082011         2.2316
  78   0.0000       0.100185         2.7262
  79   0.0000       0.122385         3.3303
  80   0.0000       0.127306         3.4642
  81   0.0000       0.129776         3.5314

MULLIKEN ATOMIC CHARGES
-----------------------
   0 C :   -0.295070
   1 C :    0.029401
   2 O :   -0.339055
   3 C :    0.422863
   4 O :   -0.362064
   5 C :   -0.209859
   6 C :    0.154583
   7 C :   -0.285690
   8 N :   -0.132855
   9 C :    0.212998
  10 S :   -0.439522
  11 N :   -0.223791
  12 C :    0.019053
  13 C :    0.007014
  14 C :   -0.174088
  15 C :   -0.149626
  16 C :   -0.263150
  17 C :    0.301954
  18 O :   -0.357564
  19 C :   -0.222059
  20 H :    0.107911
  21 H :    0.103929
  22 H :    0.107754
  23 H :    0.115218
  24 H :    0.084757
  25 H :    0.145279
  26 H :    0.099718
  27 H :    0.112638
  28 H :    0.197781
  29 H :    0.203713
  30 H :    0.160461
  31 H :    0.152653
  32 H :    0.165249
  33 H :    0.133974
  34 H :    0.241138
  35 H :    0.174355
Sum of atomic charges:   -0.0000000

LOEWDIN ATOMIC CHARGES
----------------------
   0 C :    0.108300
   1 C :   -0.021054
   2 O :    0.299059
   3 C :   -0.424165
   4 O :    0.136103
   5 C :   -0.097211
   6 C :   -0.079926
   7 C :    0.128950
   8 N :    0.405552
   9 C :   -0.455670
  10 S :   -0.035256
  11 N :    0.396371
  12 C :   -0.053931
  13 C :   -0.043722
  14 C :    0.022544
  15 C :    0.046309
  16 C :    0.001100
  17 C :   -0.192183
  18 O :    0.396973
  19 C :    0.028778
  20 H :   -0.028881
  21 H :   -0.024965
  22 H :   -0.026668
  23 H :   -0.027801
  24 H :   -0.036617
  25 H :   -0.003579
  26 H :   -0.020208
  27 H :   -0.012215
  28 H :   -0.057788
  29 H :   -0.063764
  30 H :   -0.009764
  31 H :   -0.026400
  32 H :   -0.019205
  33 H :   -0.034255
  34 H :   -0.152742
  35 H :   -0.022072

  Mayer bond orders larger than 0.100000
B(  0-C ,  1-C ) :   0.9762 B(  0-C , 20-H ) :   0.9738 B(  0-C , 21-H ) :   0.9737
B(  0-C , 22-H ) :   0.9805 B(  1-C ,  2-O ) :   0.9037 B(  1-C , 23-H ) :   0.9823
B(  1-C , 24-H ) :   0.9643 B(  2-O ,  3-C ) :   1.1311 B(  3-C ,  4-O ) :   2.1330
B(  3-C ,  5-C ) :   0.9384 B(  5-C ,  6-C ) :   1.6768 B(  5-C , 12-C ) :   0.9681
B(  6-C ,  7-C ) :   0.9467 B(  6-C ,  8-N ) :   1.1273 B(  7-C , 25-H ) :   0.9573
B(  7-C , 26-H ) :   0.9844 B(  7-C , 27-H ) :   0.9775 B(  8-N ,  9-C ) :   1.1969
B(  8-N , 28-H ) :   0.9496 B(  9-C , 10-S ) :   1.6128 B(  9-C , 11-N ) :   1.2887
B( 11-N , 12-C ) :   0.9755 B( 11-N , 29-H ) :   0.9457 B( 12-C , 13-C ) :   0.9510
B( 12-C , 30-H ) :   1.0033 B( 13-C , 14-C ) :   1.3775 B( 13-C , 19-C ) :   1.3546
B( 14-C , 15-C ) :   1.3961 B( 14-C , 31-H ) :   0.9713 B( 15-C , 16-C ) :   1.3548
B( 15-C , 32-H ) :   0.9702 B( 16-C , 17-C ) :   1.3356 B( 16-C , 33-H ) :   0.9839
B( 17-C , 18-O ) :   1.1088 B( 17-C , 19-C ) :   1.3626 B( 18-O , 34-H ) :   0.9791
B( 19-C , 35-H ) :   0.9571

MP2 TOTAL ENERGY:    -1274.318435703 Eh
FINAL SINGLE POINT ENERGY     -1274.318435702627

DIPOLE MOMENT
-------------
                                X             Y             Z
Electronic contribution:      9.23599       9.23530       5.96020
Nuclear contribution   :    -10.80090     -10.72562      -6.07675
                        -----------------------------------------
Total Dipole Moment    :     -1.56491      -1.49032      -0.11655
                        -----------------------------------------
Magnitude (a.u.)       :      2.16416
Magnitude (Debye)      :      5.50085

Rotational constants in cm-1:     0.012183     0.009035     0.006086
Rotational constants in MHz :   365.226736   270.862210   182.447322

                             ****ORCA TERMINATED NORMALLY****
TOTAL RUN TIME: 0 days 1 hours 43 minutes 48 seconds 889 msec
