                         Program Version 4.2.0 -  RELEASE  -
|  1> ! ri-mp2 cc-pvtz cc-pvtz/c TightSCF NoKeepInts
|  2>
|  3> %scf
|  4>   MaxCore 4096
|  5> end
|  6> *xyz  0  1
|  7>     C       15.3151930   14.0913865   14.7994703
|  8>     C       14.9195562   15.3300941   15.6199500
|  9>     O       16.0694285   16.1908013   15.6755512
| 10>     C       15.8915840   17.5427631   15.6168244
| 11>     O       15.0615640   18.0521251   14.8837174
| 12>     C       16.7322072   18.2820825   16.6228415
| 13>     C       16.8831925   19.6292529   16.5466433
| 14>     C       16.0933801   20.5912191   15.6833511
| 15>     N       17.8581401   20.2878008   17.2994728
| 16>     C       18.8444852   19.6580213   18.0092254
| 17>     S       20.0256505   20.4999290   18.8040007
| 18>     N       18.8155246   18.2863919   18.0104184
| 19>     C       17.7485547   17.4522808   17.4256977
| 20>     C       17.1160260   16.5102069   18.4420868
| 21>     C       17.3406477   15.1229835   18.3698409
| 22>     C       16.7500442   14.2549292   19.3034776
| 23>     C       15.9321544   14.7792946   20.3191604
| 24>     C       15.7114447   16.1615644   20.3960216
| 25>     O       14.9226568   16.6703867   21.3756799
| 26>     C       16.2992608   17.0227087   19.4641245
| 27>     H       14.4719093   13.3942093   14.7245543
| 28>     H       16.1550322   13.5669447   15.2716574
| 29>     H       15.6126818   14.3810194   13.7837810
| 30>     H       14.0709807   15.8228191   15.1257892
| 31>     H       14.6121253   15.0427683   16.6341867
| 32>     H       15.0165348   20.4730740   15.8599464
| 33>     H       16.2742681   20.3939802   14.6189796
| 34>     H       16.3416082   21.6422936   15.8720380
| 35>     H       17.9040459   21.2941920   17.2887193
| 36>     H       19.5382355   17.8505024   18.5691268
| 37>     H       18.3264534   16.8868088   16.6807916
| 38>     H       17.9677691   14.7166409   17.5805813
| 39>     H       16.9273332   13.1827412   19.2388252
| 40>     H       15.4747398   14.1132032   21.0433946
| 41>     H       14.6410465   15.9323361   21.9368558
| 42>     H       16.1215410   18.0902444   19.5412168
| 43> *
| 44>
| 45>                          ****END OF INPUT****

CARTESIAN COORDINATES (ANGSTROEM)
---------------------------------
  C     15.315193   14.091386   14.799470
  C     14.919556   15.330094   15.619950
  O     16.069429   16.190801   15.675551
  C     15.891584   17.542763   15.616824
  O     15.061564   18.052125   14.883717
  C     16.732207   18.282082   16.622841
  C     16.883192   19.629253   16.546643
  C     16.093380   20.591219   15.683351
  N     17.858140   20.287801   17.299473
  C     18.844485   19.658021   18.009225
  S     20.025651   20.499929   18.804001
  N     18.815525   18.286392   18.010418
  C     17.748555   17.452281   17.425698
  C     17.116026   16.510207   18.442087
  C     17.340648   15.122984   18.369841
  C     16.750044   14.254929   19.303478
  C     15.932154   14.779295   20.319160
  C     15.711445   16.161564   20.396022
  O     14.922657   16.670387   21.375680
  C     16.299261   17.022709   19.464125
  H     14.471909   13.394209   14.724554
  H     16.155032   13.566945   15.271657
  H     15.612682   14.381019   13.783781
  H     14.070981   15.822819   15.125789
  H     14.612125   15.042768   16.634187
  H     15.016535   20.473074   15.859946
  H     16.274268   20.393980   14.618980
  H     16.341608   21.642294   15.872038
  H     17.904046   21.294192   17.288719
  H     19.538235   17.850502   18.569127
  H     18.326453   16.886809   16.680792
  H     17.967769   14.716641   17.580581
  H     16.927333   13.182741   19.238825
  H     15.474740   14.113203   21.043395
  H     14.641046   15.932336   21.936856
  H     16.121541   18.090244   19.541217

 Total Charge           Charge          ....    0
 Multiplicity           Mult            ....    1
 Number of Electrons    NEL             ....  154
 Basis Dimension        Dim             ....  828

ORBITAL ENERGIES
----------------

  NO   OCC          E(Eh)            E(eV)
   0   2.0000     -91.889646     -2500.4444
   1   2.0000     -20.598296      -560.5081
   2   2.0000     -20.593751      -560.3845
   3   2.0000     -20.542719      -558.9958
   4   2.0000     -15.630046      -425.3152
   5   2.0000     -15.607777      -424.7092
   6   2.0000     -11.393666      -310.0374
   7   2.0000     -11.384312      -309.7829
   8   2.0000     -11.337987      -308.5223
   9   2.0000     -11.315795      -307.9184
  10   2.0000     -11.308371      -307.7164
  11   2.0000     -11.294484      -307.3385
  12   2.0000     -11.262602      -306.4710
  13   2.0000     -11.258465      -306.3584
  14   2.0000     -11.257178      -306.3234
  15   2.0000     -11.252200      -306.1879
  16   2.0000     -11.245601      -306.0084
  17   2.0000     -11.240919      -305.8809
  18   2.0000     -11.240516      -305.8700
  19   2.0000     -11.227852      -305.5254
  20   2.0000      -8.894709      -242.0373
  21   2.0000      -6.576279      -178.9496
  22   2.0000      -6.574283      -178.8953
  23   2.0000      -6.573690      -178.8792
  24   2.0000      -1.450042       -39.4576
  25   2.0000      -1.417973       -38.5850
  26   2.0000      -1.353994       -36.8440
  27   2.0000      -1.341065       -36.4922
  28   2.0000      -1.238994       -33.7147
  29   2.0000      -1.159381       -31.5484
  30   2.0000      -1.121776       -30.5251
  31   2.0000      -1.044270       -28.4160
  32   2.0000      -1.038291       -28.2533
  33   2.0000      -1.017020       -27.6745
  34   2.0000      -0.996914       -27.1274
  35   2.0000      -0.985390       -26.8138
  36   2.0000      -0.922835       -25.1116
  37   2.0000      -0.885098       -24.0847
  38   2.0000      -0.847229       -23.0543
  39   2.0000      -0.839434       -22.8422
  40   2.0000      -0.836032       -22.7496
  41   2.0000      -0.821372       -22.3507
  42   2.0000      -0.763878       -20.7862
  43   2.0000      -0.735219       -20.0063
  44   2.0000      -0.723043       -19.6750
  45   2.0000      -0.696892       -18.9634
  46   2.0000      -0.688503       -18.7351
  47   2.0000      -0.678852       -18.4725
  48   2.0000      -0.674002       -18.3405
  49   2.0000      -0.654693       -17.8151
  50   2.0000      -0.648633       -17.6502
  51   2.0000      -0.640224       -17.4214
  52   2.0000      -0.628643       -17.1062
  53   2.0000      -0.617734       -16.8094
  54   2.0000      -0.608466       -16.5572
  55   2.0000      -0.601577       -16.3697
  56   2.0000      -0.600283       -16.3345
  57   2.0000      -0.578904       -15.7528
  58   2.0000      -0.570574       -15.5261
  59   2.0000      -0.565592       -15.3906
  60   2.0000      -0.561706       -15.2848
  61   2.0000      -0.542357       -14.7583
  62   2.0000      -0.534475       -14.5438
  63   2.0000      -0.525663       -14.3040
  64   2.0000      -0.525220       -14.2920
  65   2.0000      -0.514192       -13.9919
  66   2.0000      -0.501796       -13.6546
  67   2.0000      -0.496663       -13.5149
  68   2.0000      -0.487141       -13.2558
  69   2.0000      -0.464780       -12.6473
  70   2.0000      -0.456483       -12.4215
  71   2.0000      -0.446766       -12.1571
  72   2.0000      -0.353707        -9.6249
  73   2.0000      -0.351545        -9.5660
  74   2.0000      -0.328851        -8.9485
  75   2.0000      -0.323208        -8.7949
  76   2.0000      -0.318870        -8.6769
  77   0.0000       0.074173         2.0184
  78   0.0000       0.102878         2.7995
  79   0.0000       0.124355         3.3839
  80   0.0000       0.131270         3.5720
  81   0.0000       0.134743         3.6665

MULLIKEN ATOMIC CHARGES
-----------------------
   0 C :   -0.263014
   1 C :    0.010012
   2 O :   -0.363906
   3 C :    0.463250
   4 O :   -0.427202
   5 C :   -0.251822
   6 C :    0.174728
   7 C :   -0.266916
   8 N :   -0.126081
   9 C :    0.210086
  10 S :   -0.440522
  11 N :   -0.215804
  12 C :    0.068113
  13 C :    0.032922
  14 C :   -0.185178
  15 C :   -0.132441
  16 C :   -0.277435
  17 C :    0.315514
  18 O :   -0.355991
  19 C :   -0.246712
  20 H :    0.088563
  21 H :    0.089418
  22 H :    0.100747
  23 H :    0.123692
  24 H :    0.111492
  25 H :    0.133734
  26 H :    0.129571
  27 H :    0.094637
  28 H :    0.199847
  29 H :    0.200605
  30 H :    0.152679
  31 H :    0.154970
  32 H :    0.162151
  33 H :    0.131581
  34 H :    0.240801
  35 H :    0.163911
Sum of atomic charges:   -0.0000000

LOEWDIN ATOMIC CHARGES
----------------------
   0 C :    0.106642
   1 C :   -0.016404
   2 O :    0.306749
   3 C :   -0.416632
   4 O :    0.100856
   5 C :   -0.098014
   6 C :   -0.055500
   7 C :    0.131659
   8 N :    0.407402
   9 C :   -0.456401
  10 S :   -0.035495
  11 N :    0.394519
  12 C :   -0.054659
  13 C :   -0.039685
  14 C :    0.017521
  15 C :    0.038393
  16 C :   -0.001240
  17 C :   -0.189907
  18 O :    0.395475
  19 C :    0.032870
  20 H :   -0.026100
  21 H :   -0.030955
  22 H :   -0.024552
  23 H :   -0.027737
  24 H :   -0.030864
  25 H :   -0.004151
  26 H :   -0.004652
  27 H :   -0.023560
  28 H :   -0.057029
  29 H :   -0.064354
  30 H :   -0.013002
  31 H :   -0.029107
  32 H :   -0.021011
  33 H :   -0.035105
  34 H :   -0.153636
  35 H :   -0.022332

  Mayer bond orders larger than 0.100000
B(  0-C ,  1-C ) :   0.9774 B(  0-C , 20-H ) :   0.9763 B(  0-C , 21-H ) :   0.9799
B(  0-C , 22-H ) :   0.9784 B(  1-C ,  2-O ) :   0.8789 B(  1-C , 23-H ) :   0.9747
B(  1-C , 24-H ) :   0.9711 B(  2-O ,  3-C ) :   1.1333 B(  3-C ,  4-O ) :   1.9890
B(  3-C ,  5-C ) :   1.0694 B(  5-C ,  6-C ) :   1.6336 B(  5-C , 12-C ) :   0.9546
B(  6-C ,  7-C ) :   0.9652 B(  6-C ,  8-N ) :   1.1546 B(  7-C , 25-H ) :   0.9607
B(  7-C , 26-H ) :   0.9589 B(  7-C , 27-H ) :   0.9905 B(  8-N ,  9-C ) :   1.1865
B(  8-N , 28-H ) :   0.9463 B(  9-C , 10-S ) :   1.6076 B(  9-C , 11-N ) :   1.3088
B( 11-N , 12-C ) :   0.9694 B( 11-N , 29-H ) :   0.9485 B( 12-C , 13-C ) :   0.9599
B( 12-C , 30-H ) :   1.0010 B( 13-C , 14-C ) :   1.3549 B( 13-C , 19-C ) :   1.3800
B( 14-C , 15-C ) :   1.3912 B( 14-C , 31-H ) :   0.9718 B( 15-C , 16-C ) :   1.3585
B( 15-C , 32-H ) :   0.9703 B( 16-C , 17-C ) :   1.3337 B( 16-C , 33-H ) :   0.9847
B( 17-C , 18-O ) :   1.1061 B( 17-C , 19-C ) :   1.3649 B( 18-O , 34-H ) :   0.9796
B( 19-C , 35-H ) :   0.9592

MP2 TOTAL ENERGY:    -1274.338248943 Eh
FINAL SINGLE POINT ENERGY     -1274.338248942840

DIPOLE MOMENT
-------------
                                X             Y             Z
Electronic contribution:      8.97524      11.13300       8.34036
Nuclear contribution   :    -10.14144     -12.72562      -8.47446
                        -----------------------------------------
Total Dipole Moment    :     -1.16620      -1.59262      -0.13409
                        -----------------------------------------
Magnitude (a.u.)       :      1.97850
Magnitude (Debye)      :      5.02894

Rotational constants in cm-1:     0.011605     0.008383     0.005922
Rotational constants in MHz :   347.919999   251.302703   177.534714

                             ****ORCA TERMINATED NORMALLY****
TOTAL RUN TIME: 0 days 1 hours 41 minutes 37 seconds 975 msec
