                         Program Version 4.2.0 -  RELEASE  -
|  1> ! ri-mp2 cc-pvtz cc-pvtz/c TightSCF NoKeepInts
|  2>
|  3> %scf
|  4>   MaxCore 4096
|  5> end
|  6> *xyz  0  1
|  7>     C       14.3474182   16.4453970   16.0381253
|  8>     C       15.2000388   15.6857754   15.0001406
|  9>     O       16.3680159   16.4235424   14.5775151
| 10>     C       17.3972088   16.6166869   15.4542479
| 11>     O       18.3371868   15.8442032   15.5016126
| 12>     C       17.1889816   17.7023081   16.4623354
| 13>     C       16.7829711   18.9350318   16.0686563
| 14>     C       16.3206219   19.3417467   14.6828156
| 15>     N       16.8690533   20.0252669   16.9372554
| 16>     C       17.5675595   20.0169957   18.1154720
| 17>     S       17.7279977   21.3763315   19.0434561
| 18>     N       18.1505719   18.8263232   18.4728416
| 19>     C       17.9450440   17.5367997   17.7833800
| 20>     C       17.3727973   16.4383063   18.6689151
| 21>     C       17.9297922   15.1470376   18.6511616
| 22>     C       17.3944417   14.1264083   19.4544575
| 23>     C       16.2917021   14.3991239   20.2819537
| 24>     C       15.7327075   15.6842785   20.2996722
| 25>     O       14.6625066   15.9484743   21.0905832
| 26>     C       16.2676453   16.6982327   19.4986364
| 27>     H       14.8591528   16.5172589   17.0040263
| 28>     H       13.4070574   15.9080133   16.2116697
| 29>     H       14.0937579   17.4524952   15.6908967
| 30>     H       15.5037597   14.7140277   15.4133792
| 31>     H       14.5774365   15.4869682   14.1182290
| 32>     H       15.3240732   18.9451885   14.4607261
| 33>     H       17.0074496   18.9627331   13.9151366
| 34>     H       16.2773140   20.4305819   14.5568396
| 35>     H       16.4751613   20.9138583   16.6716058
| 36>     H       18.6534243   18.8452036   19.3512804
| 37>     H       18.9826631   17.2994279   17.5052687
| 38>     H       18.7757260   14.9318522   18.0015544
| 39>     H       17.8327492   13.1301261   19.4298965
| 40>     H       15.8743319   13.6131798   20.9026986
| 41>     H       14.4696522   15.1448764   21.5967704
| 42>     H       15.8190288   17.6859387   19.5247885
| 43> *
| 44>
| 45>                          ****END OF INPUT****

CARTESIAN COORDINATES (ANGSTROEM)
---------------------------------
  C     14.347418   16.445397   16.038125
  C     15.200039   15.685775   15.000141
  O     16.368016   16.423542   14.577515
  C     17.397209   16.616687   15.454248
  O     18.337187   15.844203   15.501613
  C     17.188982   17.702308   16.462335
  C     16.782971   18.935032   16.068656
  C     16.320622   19.341747   14.682816
  N     16.869053   20.025267   16.937255
  C     17.567560   20.016996   18.115472
  S     17.727998   21.376331   19.043456
  N     18.150572   18.826323   18.472842
  C     17.945044   17.536800   17.783380
  C     17.372797   16.438306   18.668915
  C     17.929792   15.147038   18.651162
  C     17.394442   14.126408   19.454458
  C     16.291702   14.399124   20.281954
  C     15.732707   15.684278   20.299672
  O     14.662507   15.948474   21.090583
  C     16.267645   16.698233   19.498636
  H     14.859153   16.517259   17.004026
  H     13.407057   15.908013   16.211670
  H     14.093758   17.452495   15.690897
  H     15.503760   14.714028   15.413379
  H     14.577436   15.486968   14.118229
  H     15.324073   18.945189   14.460726
  H     17.007450   18.962733   13.915137
  H     16.277314   20.430582   14.556840
  H     16.475161   20.913858   16.671606
  H     18.653424   18.845204   19.351280
  H     18.982663   17.299428   17.505269
  H     18.775726   14.931852   18.001554
  H     17.832749   13.130126   19.429897
  H     15.874332   13.613180   20.902699
  H     14.469652   15.144876   21.596770
  H     15.819029   17.685939   19.524788

 Total Charge           Charge          ....    0
 Multiplicity           Mult            ....    1
 Number of Electrons    NEL             ....  154
 Basis Dimension        Dim             ....  828

ORBITAL ENERGIES
----------------

  NO   OCC          E(Eh)            E(eV)
   0   2.0000     -91.890070     -2500.4559
   1   2.0000     -20.597647      -560.4905
   2   2.0000     -20.586755      -560.1941
   3   2.0000     -20.554690      -559.3215
   4   2.0000     -15.629568      -425.3022
   5   2.0000     -15.608487      -424.7285
   6   2.0000     -11.394751      -310.0669
   7   2.0000     -11.385210      -309.8073
   8   2.0000     -11.336087      -308.4706
   9   2.0000     -11.314542      -307.8844
  10   2.0000     -11.307796      -307.7008
  11   2.0000     -11.307452      -307.6914
  12   2.0000     -11.261986      -306.4542
  13   2.0000     -11.261905      -306.4520
  14   2.0000     -11.258939      -306.3713
  15   2.0000     -11.254644      -306.2544
  16   2.0000     -11.244077      -305.9669
  17   2.0000     -11.240106      -305.8588
  18   2.0000     -11.236670      -305.7653
  19   2.0000     -11.232084      -305.6405
  20   2.0000      -8.895152      -242.0494
  21   2.0000      -6.576727      -178.9618
  22   2.0000      -6.574724      -178.9073
  23   2.0000      -6.574134      -178.8913
  24   2.0000      -1.448366       -39.4120
  25   2.0000      -1.417418       -38.5699
  26   2.0000      -1.358442       -36.9651
  27   2.0000      -1.341163       -36.4949
  28   2.0000      -1.238861       -33.7111
  29   2.0000      -1.158599       -31.5271
  30   2.0000      -1.124107       -30.5885
  31   2.0000      -1.046244       -28.4698
  32   2.0000      -1.035476       -28.1767
  33   2.0000      -1.016404       -27.6577
  34   2.0000      -1.003131       -27.2966
  35   2.0000      -0.989167       -26.9166
  36   2.0000      -0.924872       -25.1671
  37   2.0000      -0.894031       -24.3278
  38   2.0000      -0.850264       -23.1369
  39   2.0000      -0.840313       -22.8661
  40   2.0000      -0.834394       -22.7050
  41   2.0000      -0.824356       -22.4319
  42   2.0000      -0.753531       -20.5046
  43   2.0000      -0.735939       -20.0259
  44   2.0000      -0.729369       -19.8471
  45   2.0000      -0.695466       -18.9246
  46   2.0000      -0.687586       -18.7102
  47   2.0000      -0.676636       -18.4122
  48   2.0000      -0.674761       -18.3612
  49   2.0000      -0.663604       -18.0576
  50   2.0000      -0.653395       -17.7798
  51   2.0000      -0.646917       -17.6035
  52   2.0000      -0.638038       -17.3619
  53   2.0000      -0.611844       -16.6491
  54   2.0000      -0.603165       -16.4130
  55   2.0000      -0.601313       -16.3626
  56   2.0000      -0.599671       -16.3179
  57   2.0000      -0.588313       -16.0088
  58   2.0000      -0.576577       -15.6895
  59   2.0000      -0.571118       -15.5409
  60   2.0000      -0.563082       -15.3222
  61   2.0000      -0.553668       -15.0661
  62   2.0000      -0.547247       -14.8914
  63   2.0000      -0.526419       -14.3246
  64   2.0000      -0.521069       -14.1790
  65   2.0000      -0.512383       -13.9426
  66   2.0000      -0.500255       -13.6126
  67   2.0000      -0.491884       -13.3848
  68   2.0000      -0.486280       -13.2323
  69   2.0000      -0.465602       -12.6697
  70   2.0000      -0.458659       -12.4807
  71   2.0000      -0.452693       -12.3184
  72   2.0000      -0.354565        -9.6482
  73   2.0000      -0.349047        -9.4981
  74   2.0000      -0.329287        -8.9603
  75   2.0000      -0.322004        -8.7622
  76   2.0000      -0.319389        -8.6910
  77   0.0000       0.074191         2.0188
  78   0.0000       0.104761         2.8507
  79   0.0000       0.119939         3.2637
  80   0.0000       0.130869         3.5611
  81   0.0000       0.131617         3.5815

MULLIKEN ATOMIC CHARGES
-----------------------
   0 C :   -0.324582
   1 C :    0.041680
   2 O :   -0.373107
   3 C :    0.463457
   4 O :   -0.382086
   5 C :   -0.254835
   6 C :    0.167115
   7 C :   -0.284846
   8 N :   -0.134339
   9 C :    0.206428
  10 S :   -0.440241
  11 N :   -0.220588
  12 C :    0.079984
  13 C :    0.026979
  14 C :   -0.209509
  15 C :   -0.130942
  16 C :   -0.277231
  17 C :    0.326500
  18 O :   -0.357851
  19 C :   -0.278431
  20 H :    0.121631
  21 H :    0.120904
  22 H :    0.094839
  23 H :    0.100172
  24 H :    0.112171
  25 H :    0.122397
  26 H :    0.130205
  27 H :    0.106215
  28 H :    0.197944
  29 H :    0.201652
  30 H :    0.161653
  31 H :    0.174894
  32 H :    0.163755
  33 H :    0.131335
  34 H :    0.240762
  35 H :    0.175917
Sum of atomic charges:    0.0000000

LOEWDIN ATOMIC CHARGES
----------------------
   0 C :    0.104015
   1 C :   -0.015969
   2 O :    0.285277
   3 C :   -0.418473
   4 O :    0.128725
   5 C :   -0.092056
   6 C :   -0.071994
   7 C :    0.127567
   8 N :    0.405359
   9 C :   -0.457519
  10 S :   -0.036332
  11 N :    0.395993
  12 C :   -0.048607
  13 C :   -0.043591
  14 C :    0.021904
  15 C :    0.042826
  16 C :   -0.000790
  17 C :   -0.193021
  18 O :    0.394666
  19 C :    0.027955
  20 H :   -0.030743
  21 H :   -0.022607
  22 H :   -0.032782
  23 H :   -0.026589
  24 H :   -0.020850
  25 H :   -0.015902
  26 H :   -0.006016
  27 H :   -0.018757
  28 H :   -0.058550
  29 H :   -0.063681
  30 H :   -0.005617
  31 H :   -0.021927
  32 H :   -0.019345
  33 H :   -0.035219
  34 H :   -0.153642
  35 H :   -0.023708

  Mayer bond orders larger than 0.100000
B(  0-C ,  1-C ) :   0.9635 B(  0-C , 20-H ) :   0.9653 B(  0-C , 21-H ) :   0.9786
B(  0-C , 22-H ) :   0.9762 B(  1-C ,  2-O ) :   0.9017 B(  1-C , 23-H ) :   0.9796
B(  1-C , 24-H ) :   0.9833 B(  2-O ,  3-C ) :   1.0909 B(  3-C ,  4-O ) :   2.0671
B(  3-C ,  5-C ) :   0.9765 B(  5-C ,  6-C ) :   1.6854 B(  5-C , 12-C ) :   0.9318
B(  6-C ,  7-C ) :   0.9467 B(  6-C ,  8-N ) :   1.1271 B(  7-C , 25-H ) :   0.9652
B(  7-C , 26-H ) :   0.9673 B(  7-C , 27-H ) :   0.9882 B(  8-N ,  9-C ) :   1.1897
B(  8-N , 28-H ) :   0.9479 B(  9-C , 10-S ) :   1.6117 B(  9-C , 11-N ) :   1.2959
B( 11-N , 12-C ) :   0.9783 B( 11-N , 29-H ) :   0.9482 B( 12-C , 13-C ) :   0.9690
B( 12-C , 30-H ) :   0.9926 B( 13-C , 14-C ) :   1.3875 B( 13-C , 19-C ) :   1.3466
B( 14-C , 15-C ) :   1.3957 B( 14-C , 31-H ) :   0.9579 B( 15-C , 16-C ) :   1.3600
B( 15-C , 32-H ) :   0.9703 B( 16-C , 17-C ) :   1.3325 B( 16-C , 33-H ) :   0.9847
B( 17-C , 18-O ) :   1.1073 B( 17-C , 19-C ) :   1.3585 B( 18-O , 34-H ) :   0.9800
B( 19-C , 35-H ) :   0.9582

MP2 TOTAL ENERGY:    -1274.322833640 Eh
FINAL SINGLE POINT ENERGY     -1274.322833639543

DIPOLE MOMENT
-------------
                                X             Y             Z
Electronic contribution:      9.07207       7.01587       7.12720
Nuclear contribution   :    -10.46723      -8.35826      -7.71351
                        -----------------------------------------
Total Dipole Moment    :     -1.39516      -1.34240      -0.58632
                        -----------------------------------------
Magnitude (a.u.)       :      2.02294
Magnitude (Debye)      :      5.14189

Rotational constants in cm-1:     0.011322     0.009312     0.006458
Rotational constants in MHz :   339.439023   279.170718   193.594270

                             ****ORCA TERMINATED NORMALLY****
TOTAL RUN TIME: 0 days 1 hours 46 minutes 12 seconds 129 msec
