                         Program Version 4.2.0 -  RELEASE  -
|  1> ! ri-mp2 cc-pvtz cc-pvtz/c TightSCF NoKeepInts
|  2>
|  3> %scf
|  4>   MaxCore 4096
|  5> end
|  6> *xyz  0  1
|  7>     C       14.6352022   14.9440230   15.7327886
|  8>     C       14.7813337   16.3819560   15.1966850
|  9>     O       16.1065893   16.5576888   14.6600138
| 10>     C       17.1542383   16.5550884   15.5323750
| 11>     O       17.9336341   15.6211234   15.5896123
| 12>     C       17.2130314   17.7292366   16.4615350
| 13>     C       16.9697884   18.9951360   16.0374825
| 14>     C       16.4285603   19.4250491   14.6885034
| 15>     N       17.2875433   20.0893358   16.8454182
| 16>     C       18.0445983   20.0138363   17.9843181
| 17>     S       18.4685284   21.3642016   18.8394916
| 18>     N       18.4495853   18.7595088   18.3681701
| 19>     C       18.0155017   17.4945767   17.7429228
| 20>     C       17.3178404   16.5386352   18.7003912
| 21>     C       17.7218371   15.1944149   18.7872054
| 22>     C       17.0632750   14.3048926   19.6524127
| 23>     C       15.9906119   14.7634837   20.4362200
| 24>     C       15.5830757   16.1016536   20.3480684
| 25>     O       14.5415538   16.5450366   21.0960375
| 26>     C       16.2396990   16.9845176   19.4847052
| 27>     H       15.2837100   14.7775832   16.6029090
| 28>     H       14.9033298   14.2134693   14.9590118
| 29>     H       13.6006646   14.7521649   16.0419273
| 30>     H       14.0459466   16.5411126   14.3974406
| 31>     H       14.5770231   17.1056451   15.9970788
| 32>     H       16.9408285   18.8981388   13.8730955
| 33>     H       16.5668173   20.4974899   14.5031079
| 34>     H       15.3563382   19.2118568   14.6077887
| 35>     H       17.0223942   21.0192275   16.5618024
| 36>     H       18.9953667   18.7305755   19.2203500
| 37>     H       18.9847985   17.0840812   17.4230041
| 38>     H       18.5404682   14.8348515   18.1673001
| 39>     H       17.3821723   13.2654046   19.7076315
| 40>     H       15.4781945   14.0790600   21.1042033
| 41>     H       14.2537110   15.8095069   21.6576664
| 42>     H       15.9092091   18.0164379   19.4293260
| 43> *
| 44>
| 45>                          ****END OF INPUT****

CARTESIAN COORDINATES (ANGSTROEM)
---------------------------------
  C     14.635202   14.944023   15.732789
  C     14.781334   16.381956   15.196685
  O     16.106589   16.557689   14.660014
  C     17.154238   16.555088   15.532375
  O     17.933634   15.621123   15.589612
  C     17.213031   17.729237   16.461535
  C     16.969788   18.995136   16.037482
  C     16.428560   19.425049   14.688503
  N     17.287543   20.089336   16.845418
  C     18.044598   20.013836   17.984318
  S     18.468528   21.364202   18.839492
  N     18.449585   18.759509   18.368170
  C     18.015502   17.494577   17.742923
  C     17.317840   16.538635   18.700391
  C     17.721837   15.194415   18.787205
  C     17.063275   14.304893   19.652413
  C     15.990612   14.763484   20.436220
  C     15.583076   16.101654   20.348068
  O     14.541554   16.545037   21.096038
  C     16.239699   16.984518   19.484705
  H     15.283710   14.777583   16.602909
  H     14.903330   14.213469   14.959012
  H     13.600665   14.752165   16.041927
  H     14.045947   16.541113   14.397441
  H     14.577023   17.105645   15.997079
  H     16.940828   18.898139   13.873095
  H     16.566817   20.497490   14.503108
  H     15.356338   19.211857   14.607789
  H     17.022394   21.019227   16.561802
  H     18.995367   18.730576   19.220350
  H     18.984798   17.084081   17.423004
  H     18.540468   14.834851   18.167300
  H     17.382172   13.265405   19.707632
  H     15.478195   14.079060   21.104203
  H     14.253711   15.809507   21.657666
  H     15.909209   18.016438   19.429326

 Total Charge           Charge          ....    0
 Multiplicity           Mult            ....    1
 Number of Electrons    NEL             ....  154
 Basis Dimension        Dim             ....  828

ORBITAL ENERGIES
----------------

  NO   OCC          E(Eh)            E(eV)
   0   2.0000     -91.890376     -2500.4642
   1   2.0000     -20.597145      -560.4768
   2   2.0000     -20.591224      -560.3157
   3   2.0000     -20.553062      -559.2772
   4   2.0000     -15.630719      -425.3335
   5   2.0000     -15.608515      -424.7293
   6   2.0000     -11.394840      -310.0694
   7   2.0000     -11.385517      -309.8157
   8   2.0000     -11.339097      -308.5525
   9   2.0000     -11.313831      -307.8650
  10   2.0000     -11.306918      -307.6769
  11   2.0000     -11.306852      -307.6751
  12   2.0000     -11.263635      -306.4991
  13   2.0000     -11.260852      -306.4234
  14   2.0000     -11.260806      -306.4221
  15   2.0000     -11.253711      -306.2291
  16   2.0000     -11.243579      -305.9533
  17   2.0000     -11.239833      -305.8514
  18   2.0000     -11.236147      -305.7511
  19   2.0000     -11.227238      -305.5087
  20   2.0000      -8.895456      -242.0577
  21   2.0000      -6.577030      -178.9701
  22   2.0000      -6.575028      -178.9156
  23   2.0000      -6.574437      -178.8995
  24   2.0000      -1.451076       -39.4858
  25   2.0000      -1.416901       -38.5558
  26   2.0000      -1.360926       -37.0327
  27   2.0000      -1.341947       -36.5162
  28   2.0000      -1.239329       -33.7239
  29   2.0000      -1.158161       -31.5151
  30   2.0000      -1.124050       -30.5870
  31   2.0000      -1.045948       -28.4617
  32   2.0000      -1.033656       -28.1272
  33   2.0000      -1.015765       -27.6404
  34   2.0000      -1.003399       -27.3039
  35   2.0000      -0.988035       -26.8858
  36   2.0000      -0.924788       -25.1648
  37   2.0000      -0.889583       -24.2068
  38   2.0000      -0.852991       -23.2111
  39   2.0000      -0.840820       -22.8799
  40   2.0000      -0.833857       -22.6904
  41   2.0000      -0.831162       -22.6171
  42   2.0000      -0.747796       -20.3486
  43   2.0000      -0.734494       -19.9866
  44   2.0000      -0.730556       -19.8794
  45   2.0000      -0.694977       -18.9113
  46   2.0000      -0.686119       -18.6702
  47   2.0000      -0.680935       -18.5292
  48   2.0000      -0.678462       -18.4619
  49   2.0000      -0.665453       -18.1079
  50   2.0000      -0.653030       -17.7698
  51   2.0000      -0.645996       -17.5784
  52   2.0000      -0.637076       -17.3357
  53   2.0000      -0.613423       -16.6921
  54   2.0000      -0.607069       -16.5192
  55   2.0000      -0.603253       -16.4154
  56   2.0000      -0.600465       -16.3395
  57   2.0000      -0.579853       -15.7786
  58   2.0000      -0.575645       -15.6641
  59   2.0000      -0.568540       -15.4708
  60   2.0000      -0.557551       -15.1717
  61   2.0000      -0.554806       -15.0970
  62   2.0000      -0.542887       -14.7727
  63   2.0000      -0.528296       -14.3757
  64   2.0000      -0.519433       -14.1345
  65   2.0000      -0.512476       -13.9452
  66   2.0000      -0.499564       -13.5938
  67   2.0000      -0.493170       -13.4198
  68   2.0000      -0.487349       -13.2614
  69   2.0000      -0.467867       -12.7313
  70   2.0000      -0.461516       -12.5585
  71   2.0000      -0.449611       -12.2345
  72   2.0000      -0.356006        -9.6874
  73   2.0000      -0.349895        -9.5211
  74   2.0000      -0.329521        -8.9667
  75   2.0000      -0.321004        -8.7350
  76   2.0000      -0.319615        -8.6972
  77   0.0000       0.073891         2.0107
  78   0.0000       0.104552         2.8450
  79   0.0000       0.119065         3.2399
  80   0.0000       0.131503         3.5784
  81   0.0000       0.136693         3.7196

MULLIKEN ATOMIC CHARGES
-----------------------
   0 C :   -0.270385
   1 C :    0.007331
   2 O :   -0.360374
   3 C :    0.452435
   4 O :   -0.382550
   5 C :   -0.254747
   6 C :    0.179219
   7 C :   -0.294248
   8 N :   -0.129524
   9 C :    0.206399
  10 S :   -0.439706
  11 N :   -0.215444
  12 C :    0.060288
  13 C :    0.022639
  14 C :   -0.198746
  15 C :   -0.129280
  16 C :   -0.277820
  17 C :    0.313119
  18 O :   -0.357688
  19 C :   -0.250384
  20 H :    0.108981
  21 H :    0.107359
  22 H :    0.093574
  23 H :    0.116248
  24 H :    0.094434
  25 H :    0.137179
  26 H :    0.109905
  27 H :    0.120583
  28 H :    0.198215
  29 H :    0.200049
  30 H :    0.159941
  31 H :    0.169099
  32 H :    0.163364
  33 H :    0.131090
  34 H :    0.240955
  35 H :    0.168488
Sum of atomic charges:   -0.0000000

LOEWDIN ATOMIC CHARGES
----------------------
   0 C :    0.110050
   1 C :   -0.027778
   2 O :    0.297273
   3 C :   -0.421845
   4 O :    0.127602
   5 C :   -0.096357
   6 C :   -0.071563
   7 C :    0.127934
   8 N :    0.405055
   9 C :   -0.457556
  10 S :   -0.035825
  11 N :    0.396034
  12 C :   -0.049438
  13 C :   -0.043556
  14 C :    0.022984
  15 C :    0.042077
  16 C :   -0.000631
  17 C :   -0.192683
  18 O :    0.393865
  19 C :    0.027584
  20 H :   -0.024414
  21 H :   -0.021501
  22 H :   -0.026737
  23 H :   -0.023547
  24 H :   -0.038040
  25 H :   -0.005595
  26 H :   -0.018215
  27 H :   -0.012688
  28 H :   -0.058182
  29 H :   -0.063489
  30 H :   -0.006332
  31 H :   -0.022283
  32 H :   -0.019572
  33 H :   -0.035201
  34 H :   -0.153715
  35 H :   -0.023715

  Mayer bond orders larger than 0.100000
B(  0-C ,  1-C ) :   0.9837 B(  0-C , 20-H ) :   0.9678 B(  0-C , 21-H ) :   0.9761
B(  0-C , 22-H ) :   0.9760 B(  1-C ,  2-O ) :   0.8999 B(  1-C , 23-H ) :   0.9777
B(  1-C , 24-H ) :   0.9661 B(  2-O ,  3-C ) :   1.1005 B(  3-C ,  4-O ) :   2.0713
B(  3-C ,  5-C ) :   0.9724 B(  5-C ,  6-C ) :   1.6769 B(  5-C , 12-C ) :   0.9499
B(  6-C ,  7-C ) :   0.9440 B(  6-C ,  8-N ) :   1.1359 B(  7-C , 25-H ) :   0.9656
B(  7-C , 26-H ) :   0.9879 B(  7-C , 27-H ) :   0.9671 B(  8-N ,  9-C ) :   1.1861
B(  8-N , 28-H ) :   0.9476 B(  9-C , 10-S ) :   1.6125 B(  9-C , 11-N ) :   1.2993
B( 11-N , 12-C ) :   0.9847 B( 11-N , 29-H ) :   0.9487 B( 12-C , 13-C ) :   0.9658
B( 12-C , 30-H ) :   0.9939 B( 13-C , 14-C ) :   1.3820 B( 13-C , 19-C ) :   1.3601
B( 14-C , 15-C ) :   1.3931 B( 14-C , 31-H ) :   0.9609 B( 15-C , 16-C ) :   1.3606
B( 15-C , 32-H ) :   0.9704 B( 16-C , 17-C ) :   1.3316 B( 16-C , 33-H ) :   0.9851
B( 17-C , 18-O ) :   1.1070 B( 17-C , 19-C ) :   1.3662 B( 18-O , 34-H ) :   0.9797
B( 19-C , 35-H ) :   0.9585

MP2 TOTAL ENERGY:    -1274.330540446 Eh
FINAL SINGLE POINT ENERGY     -1274.330540445918

DIPOLE MOMENT
-------------
                                X             Y             Z
Electronic contribution:      9.70720       9.14904       7.17224
Nuclear contribution   :    -11.31047     -10.16416      -7.66378
                        -----------------------------------------
Total Dipole Moment    :     -1.60327      -1.01512      -0.49153
                        -----------------------------------------
Magnitude (a.u.)       :      1.96024
Magnitude (Debye)      :      4.98253

Rotational constants in cm-1:     0.011391     0.009174     0.006244
Rotational constants in MHz :   341.507428   275.015823   187.179281

                             ****ORCA TERMINATED NORMALLY****
TOTAL RUN TIME: 0 days 1 hours 43 minutes 19 seconds 422 msec
