                         Program Version 4.2.0 -  RELEASE  -
|  1> ! ri-mp2 cc-pvtz cc-pvtz/c TightSCF NoKeepInts
|  2>
|  3> %scf
|  4>   MaxCore 4096
|  5> end
|  6> *xyz  0  1
|  7>     C       14.4418319   15.3342593   15.8289260
|  8>     C       15.8795164   14.8118389   15.6029186
|  9>     O       16.8795111   15.8579426   15.5550750
| 10>     C       16.5716208   17.1708079   15.3335281
| 11>     O       15.9492353   17.5219256   14.3463741
| 12>     C       17.0260551   18.0774116   16.4460318
| 13>     C       17.0256434   19.4260705   16.2884846
| 14>     C       16.3718661   20.2175935   15.1747318
| 15>     N       17.6826689   20.2573228   17.1985208
| 16>     C       18.5172735   19.8144841   18.1886468
| 17>     S       19.3372716   20.8581468   19.1755894
| 18>     N       18.6560413   18.4548880   18.3078616
| 19>     C       17.8908031   17.4466239   17.5507529
| 20>     C       17.1395698   16.4812945   18.4581161
| 21>     C       17.6225813   15.1765694   18.6681634
| 22>     C       16.9231631   14.2815505   19.4951402
| 23>     C       15.7340058   14.6964855   20.1189593
| 24>     C       15.2558907   15.9987544   19.9176973
| 25>     O       14.1079631   16.4019184   20.5178476
| 26>     C       15.9544099   16.8873695   19.0945458
| 27>     H       14.3909208   15.9813882   16.7132789
| 28>     H       13.7578125   14.4926462   15.9909259
| 29>     H       14.0745742   15.8920893   14.9586272
| 30>     H       16.1393157   14.1057019   16.4019639
| 31>     H       15.8995522   14.2580769   14.6552793
| 32>     H       16.8565844   20.0047374   14.2132874
| 33>     H       16.4140166   21.3013964   15.3344958
| 34>     H       15.3137841   19.9431756   15.0755076
| 35>     H       17.6078199   21.2578541   17.1069838
| 36>     H       19.2542364   18.1583941   19.0685326
| 37>     H       18.7074839   16.9288589   17.0277092
| 38>     H       18.5391996   14.8535800   18.1814790
| 39>     H       17.3029039   13.2731557   19.6511791
| 40>     H       15.1901926   14.0089870   20.7586028
| 41>     H       13.7992682   15.6736069   21.0776902
| 42>     H       15.5724128   17.8930936   18.9545465
| 43> *
| 44>
| 45>                          ****END OF INPUT****

CARTESIAN COORDINATES (ANGSTROEM)
---------------------------------
  C     14.441832   15.334259   15.828926
  C     15.879516   14.811839   15.602919
  O     16.879511   15.857943   15.555075
  C     16.571621   17.170808   15.333528
  O     15.949235   17.521926   14.346374
  C     17.026055   18.077412   16.446032
  C     17.025643   19.426070   16.288485
  C     16.371866   20.217593   15.174732
  N     17.682669   20.257323   17.198521
  C     18.517274   19.814484   18.188647
  S     19.337272   20.858147   19.175589
  N     18.656041   18.454888   18.307862
  C     17.890803   17.446624   17.550753
  C     17.139570   16.481295   18.458116
  C     17.622581   15.176569   18.668163
  C     16.923163   14.281550   19.495140
  C     15.734006   14.696485   20.118959
  C     15.255891   15.998754   19.917697
  O     14.107963   16.401918   20.517848
  C     15.954410   16.887369   19.094546
  H     14.390921   15.981388   16.713279
  H     13.757812   14.492646   15.990926
  H     14.074574   15.892089   14.958627
  H     16.139316   14.105702   16.401964
  H     15.899552   14.258077   14.655279
  H     16.856584   20.004737   14.213287
  H     16.414017   21.301396   15.334496
  H     15.313784   19.943176   15.075508
  H     17.607820   21.257854   17.106984
  H     19.254236   18.158394   19.068533
  H     18.707484   16.928859   17.027709
  H     18.539200   14.853580   18.181479
  H     17.302904   13.273156   19.651179
  H     15.190193   14.008987   20.758603
  H     13.799268   15.673607   21.077690
  H     15.572413   17.893094   18.954546

 Total Charge           Charge          ....    0
 Multiplicity           Mult            ....    1
 Number of Electrons    NEL             ....  154
 Basis Dimension        Dim             ....  828

ORBITAL ENERGIES
----------------

  NO   OCC          E(Eh)            E(eV)
   0   2.0000     -91.889783     -2500.4481
   1   2.0000     -20.600898      -560.5789
   2   2.0000     -20.584956      -560.1451
   3   2.0000     -20.542485      -558.9894
   4   2.0000     -15.630194      -425.3192
   5   2.0000     -15.607923      -424.7132
   6   2.0000     -11.393184      -310.0243
   7   2.0000     -11.384449      -309.7866
   8   2.0000     -11.338074      -308.5247
   9   2.0000     -11.318328      -307.9874
  10   2.0000     -11.308637      -307.7237
  11   2.0000     -11.298691      -307.4530
  12   2.0000     -11.264791      -306.5305
  13   2.0000     -11.259878      -306.3969
  14   2.0000     -11.258169      -306.3504
  15   2.0000     -11.252270      -306.1898
  16   2.0000     -11.248123      -306.0770
  17   2.0000     -11.242867      -305.9340
  18   2.0000     -11.242820      -305.9327
  19   2.0000     -11.224190      -305.4257
  20   2.0000      -8.894846      -242.0411
  21   2.0000      -6.576416      -178.9534
  22   2.0000      -6.574420      -178.8991
  23   2.0000      -6.573827      -178.8829
  24   2.0000      -1.442650       -39.2565
  25   2.0000      -1.420586       -38.6561
  26   2.0000      -1.350089       -36.7378
  27   2.0000      -1.341249       -36.4972
  28   2.0000      -1.239303       -33.7232
  29   2.0000      -1.161603       -31.6088
  30   2.0000      -1.121845       -30.5269
  31   2.0000      -1.045715       -28.4553
  32   2.0000      -1.031874       -28.0787
  33   2.0000      -1.019583       -27.7443
  34   2.0000      -0.997961       -27.1559
  35   2.0000      -0.986059       -26.8320
  36   2.0000      -0.923692       -25.1349
  37   2.0000      -0.896520       -24.3956
  38   2.0000      -0.848171       -23.0799
  39   2.0000      -0.841595       -22.9010
  40   2.0000      -0.838280       -22.8108
  41   2.0000      -0.817979       -22.2583
  42   2.0000      -0.744632       -20.2625
  43   2.0000      -0.735454       -20.0127
  44   2.0000      -0.720470       -19.6050
  45   2.0000      -0.699266       -19.0280
  46   2.0000      -0.689484       -18.7618
  47   2.0000      -0.674376       -18.3507
  48   2.0000      -0.672172       -18.2907
  49   2.0000      -0.659096       -17.9349
  50   2.0000      -0.650231       -17.6937
  51   2.0000      -0.641492       -17.4559
  52   2.0000      -0.636201       -17.3119
  53   2.0000      -0.623094       -16.9552
  54   2.0000      -0.611049       -16.6275
  55   2.0000      -0.603685       -16.4271
  56   2.0000      -0.601653       -16.3718
  57   2.0000      -0.580573       -15.7982
  58   2.0000      -0.570770       -15.5314
  59   2.0000      -0.566500       -15.4152
  60   2.0000      -0.548396       -14.9226
  61   2.0000      -0.543954       -14.8017
  62   2.0000      -0.534808       -14.5529
  63   2.0000      -0.527664       -14.3585
  64   2.0000      -0.524711       -14.2781
  65   2.0000      -0.514501       -14.0003
  66   2.0000      -0.501731       -13.6528
  67   2.0000      -0.494551       -13.4574
  68   2.0000      -0.486733       -13.2447
  69   2.0000      -0.463497       -12.6124
  70   2.0000      -0.454787       -12.3754
  71   2.0000      -0.441766       -12.0211
  72   2.0000      -0.354618        -9.6497
  73   2.0000      -0.352630        -9.5956
  74   2.0000      -0.329510        -8.9664
  75   2.0000      -0.325536        -8.8583
  76   2.0000      -0.319215        -8.6863
  77   0.0000       0.073546         2.0013
  78   0.0000       0.099808         2.7159
  79   0.0000       0.122875         3.3436
  80   0.0000       0.130524         3.5517
  81   0.0000       0.132893         3.6162

MULLIKEN ATOMIC CHARGES
-----------------------
   0 C :   -0.326255
   1 C :    0.038710
   2 O :   -0.385817
   3 C :    0.491208
   4 O :   -0.425929
   5 C :   -0.282914
   6 C :    0.180452
   7 C :   -0.267938
   8 N :   -0.125911
   9 C :    0.212730
  10 S :   -0.441058
  11 N :   -0.217577
  12 C :    0.076933
  13 C :    0.053885
  14 C :   -0.200825
  15 C :   -0.124958
  16 C :   -0.276782
  17 C :    0.330945
  18 O :   -0.358713
  19 C :   -0.285638
  20 H :    0.103836
  21 H :    0.103909
  22 H :    0.126062
  23 H :    0.108687
  24 H :    0.115697
  25 H :    0.131289
  26 H :    0.094755
  27 H :    0.132467
  28 H :    0.199458
  29 H :    0.200776
  30 H :    0.152435
  31 H :    0.156171
  32 H :    0.165872
  33 H :    0.133099
  34 H :    0.241417
  35 H :    0.169524
Sum of atomic charges:    0.0000000

LOEWDIN ATOMIC CHARGES
----------------------
   0 C :    0.105149
   1 C :   -0.011611
   2 O :    0.289992
   3 C :   -0.419376
   4 O :    0.107696
   5 C :   -0.100078
   6 C :   -0.055416
   7 C :    0.131598
   8 N :    0.407542
   9 C :   -0.455801
  10 S :   -0.035747
  11 N :    0.394283
  12 C :   -0.054341
  13 C :   -0.038853
  14 C :    0.018725
  15 C :    0.039918
  16 C :   -0.000990
  17 C :   -0.190243
  18 O :    0.396068
  19 C :    0.033455
  20 H :   -0.029677
  21 H :   -0.024446
  22 H :   -0.025345
  23 H :   -0.028152
  24 H :   -0.028651
  25 H :   -0.004207
  26 H :   -0.023587
  27 H :   -0.004628
  28 H :   -0.056979
  29 H :   -0.064748
  30 H :   -0.012368
  31 H :   -0.027898
  32 H :   -0.020419
  33 H :   -0.034656
  34 H :   -0.153000
  35 H :   -0.023205

  Mayer bond orders larger than 0.100000
B(  0-C ,  1-C ) :   0.9580 B(  0-C , 20-H ) :   0.9718 B(  0-C , 21-H ) :   0.9766
B(  0-C , 22-H ) :   0.9722 B(  1-C ,  2-O ) :   0.8899 B(  1-C , 23-H ) :   0.9750
B(  1-C , 24-H ) :   0.9863 B(  2-O ,  3-C ) :   1.1102 B(  3-C ,  4-O ) :   1.9881
B(  3-C ,  5-C ) :   1.0657 B(  5-C ,  6-C ) :   1.6301 B(  5-C , 12-C ) :   0.9539
B(  6-C ,  7-C ) :   0.9652 B(  6-C ,  8-N ) :   1.1603 B(  7-C , 25-H ) :   0.9581
B(  7-C , 26-H ) :   0.9897 B(  7-C , 27-H ) :   0.9620 B(  8-N ,  9-C ) :   1.1853
B(  8-N , 28-H ) :   0.9465 B(  9-C , 10-S ) :   1.6056 B(  9-C , 11-N ) :   1.3103
B( 11-N , 12-C ) :   0.9657 B( 11-N , 29-H ) :   0.9486 B( 12-C , 13-C ) :   0.9626
B( 12-C , 30-H ) :   1.0001 B( 13-C , 14-C ) :   1.3441 B( 13-C , 19-C ) :   1.3648
B( 14-C , 15-C ) :   1.3878 B( 14-C , 31-H ) :   0.9729 B( 15-C , 16-C ) :   1.3587
B( 15-C , 32-H ) :   0.9692 B( 16-C , 17-C ) :   1.3334 B( 16-C , 33-H ) :   0.9839
B( 17-C , 18-O ) :   1.1032 B( 17-C , 19-C ) :   1.3550 B( 18-O , 34-H ) :   0.9793
B( 19-C , 35-H ) :   0.9606

MP2 TOTAL ENERGY:    -1274.331665187 Eh
FINAL SINGLE POINT ENERGY     -1274.331665186802

DIPOLE MOMENT
-------------
                                X             Y             Z
Electronic contribution:      9.48814       9.32430       6.49459
Nuclear contribution   :    -10.50413     -11.03387      -6.49378
                        -----------------------------------------
Total Dipole Moment    :     -1.01599      -1.70957       0.00080
                        -----------------------------------------
Magnitude (a.u.)       :      1.98869
Magnitude (Debye)      :      5.05484

Rotational constants in cm-1:     0.012569     0.008628     0.006229
Rotational constants in MHz :   376.806051   258.645998   186.754591

                             ****ORCA TERMINATED NORMALLY****
TOTAL RUN TIME: 0 days 2 hours 2 minutes 16 seconds 385 msec
