                         Program Version 4.2.0 -  RELEASE  -
|  1> ! ri-mp2 cc-pvtz cc-pvtz/c TightSCF NoKeepInts
|  2>
|  3> %scf
|  4>   MaxCore 4096
|  5> end
|  6> *xyz  0  1
|  7>     C       14.2213944   16.3271844   15.3342216
|  8>     C       15.3183682   15.5224850   16.0569882
|  9>     O       16.5676071   15.6777033   15.3509838
| 10>     C       17.2923100   16.8401752   15.3086902
| 11>     O       18.0571372   17.0718204   14.3911112
| 12>     C       17.0960328   17.7973766   16.4383949
| 13>     C       16.8395659   19.0905476   16.1309928
| 14>     C       16.3639941   19.6094266   14.7903559
| 15>     N       17.0536587   20.1141817   17.0550652
| 16>     C       17.7698362   19.9607147   18.2122694
| 17>     S       18.1015108   21.2349164   19.2127042
| 18>     N       18.2244471   18.6939934   18.4855733
| 19>     C       17.8595327   17.4772521   17.7326367
| 20>     C       17.2904873   16.3621217   18.5953180
| 21>     C       17.7711814   15.0465592   18.4629207
| 22>     C       17.2362059   14.0099721   19.2457371
| 23>     C       16.2150229   14.2920364   20.1693325
| 24>     C       15.7365556   15.6024666   20.3051044
| 25>     O       14.7461723   15.8763592   21.1905333
| 26>     C       16.2685204   16.6323087   19.5224390
| 27>     H       14.3606301   17.4045543   15.4748535
| 28>     H       13.2337696   16.0640635   15.7324528
| 29>     H       14.2241221   16.1088605   14.2586392
| 30>     H       15.3779733   15.8349020   17.1018452
| 31>     H       15.0408830   14.4604903   16.0460725
| 32>     H       15.8222218   18.8435992   14.2226759
| 33>     H       17.2221453   19.9146875   14.1772118
| 34>     H       15.6944035   20.4714934   14.8953344
| 35>     H       16.7722963   21.0569127   16.8365348
| 36>     H       18.7482026   18.6091073   19.3479692
| 37>     H       18.8610787   17.1799026   17.3878065
| 38>     H       18.5557106   14.8247418   17.7429571
| 39>     H       17.6130458   12.9942676   19.1349057
| 40>     H       15.7995271   13.4939602   20.7761847
| 41>     H       14.5487687   15.0586176   21.6721084
| 42>     H       15.8826801   17.6402382   19.6390761
| 43> *
| 44>
| 45>                          ****END OF INPUT****

CARTESIAN COORDINATES (ANGSTROEM)
---------------------------------
  C     14.221394   16.327184   15.334222
  C     15.318368   15.522485   16.056988
  O     16.567607   15.677703   15.350984
  C     17.292310   16.840175   15.308690
  O     18.057137   17.071820   14.391111
  C     17.096033   17.797377   16.438395
  C     16.839566   19.090548   16.130993
  C     16.363994   19.609427   14.790356
  N     17.053659   20.114182   17.055065
  C     17.769836   19.960715   18.212269
  S     18.101511   21.234916   19.212704
  N     18.224447   18.693993   18.485573
  C     17.859533   17.477252   17.732637
  C     17.290487   16.362122   18.595318
  C     17.771181   15.046559   18.462921
  C     17.236206   14.009972   19.245737
  C     16.215023   14.292036   20.169332
  C     15.736556   15.602467   20.305104
  O     14.746172   15.876359   21.190533
  C     16.268520   16.632309   19.522439
  H     14.360630   17.404554   15.474854
  H     13.233770   16.064063   15.732453
  H     14.224122   16.108860   14.258639
  H     15.377973   15.834902   17.101845
  H     15.040883   14.460490   16.046073
  H     15.822222   18.843599   14.222676
  H     17.222145   19.914687   14.177212
  H     15.694403   20.471493   14.895334
  H     16.772296   21.056913   16.836535
  H     18.748203   18.609107   19.347969
  H     18.861079   17.179903   17.387806
  H     18.555711   14.824742   17.742957
  H     17.613046   12.994268   19.134906
  H     15.799527   13.493960   20.776185
  H     14.548769   15.058618   21.672108
  H     15.882680   17.640238   19.639076

 Total Charge           Charge          ....    0
 Multiplicity           Mult            ....    1
 Number of Electrons    NEL             ....  154
 Basis Dimension        Dim             ....  828

ORBITAL ENERGIES
----------------

  NO   OCC          E(Eh)            E(eV)
   0   2.0000     -91.890186     -2500.4591
   1   2.0000     -20.604693      -560.6822
   2   2.0000     -20.597845      -560.4959
   3   2.0000     -20.551647      -559.2387
   4   2.0000     -15.626565      -425.2204
   5   2.0000     -15.611153      -424.8011
   6   2.0000     -11.397012      -310.1285
   7   2.0000     -11.385663      -309.8196
   8   2.0000     -11.329207      -308.2834
   9   2.0000     -11.323328      -308.1234
  10   2.0000     -11.317324      -307.9600
  11   2.0000     -11.300544      -307.5034
  12   2.0000     -11.270547      -306.6872
  13   2.0000     -11.264387      -306.5196
  14   2.0000     -11.258280      -306.3534
  15   2.0000     -11.257982      -306.3453
  16   2.0000     -11.252722      -306.2021
  17   2.0000     -11.247696      -306.0654
  18   2.0000     -11.247473      -306.0593
  19   2.0000     -11.232766      -305.6591
  20   2.0000      -8.895262      -242.0524
  21   2.0000      -6.576836      -178.9648
  22   2.0000      -6.574833      -178.9103
  23   2.0000      -6.574245      -178.8943
  24   2.0000      -1.446227       -39.3538
  25   2.0000      -1.424442       -38.7610
  26   2.0000      -1.360210       -37.0132
  27   2.0000      -1.340303       -36.4715
  28   2.0000      -1.240194       -33.7474
  29   2.0000      -1.166641       -31.7459
  30   2.0000      -1.125636       -30.6301
  31   2.0000      -1.051322       -28.6079
  32   2.0000      -1.036541       -28.2057
  33   2.0000      -1.024724       -27.8842
  34   2.0000      -1.004259       -27.3273
  35   2.0000      -0.989963       -26.9383
  36   2.0000      -0.927517       -25.2390
  37   2.0000      -0.894150       -24.3311
  38   2.0000      -0.851910       -23.1817
  39   2.0000      -0.844664       -22.9845
  40   2.0000      -0.842908       -22.9367
  41   2.0000      -0.833577       -22.6828
  42   2.0000      -0.755705       -20.5638
  43   2.0000      -0.739401       -20.1201
  44   2.0000      -0.721529       -19.6338
  45   2.0000      -0.702998       -19.1296
  46   2.0000      -0.693375       -18.8677
  47   2.0000      -0.680148       -18.5078
  48   2.0000      -0.677636       -18.4394
  49   2.0000      -0.666967       -18.1491
  50   2.0000      -0.651107       -17.7175
  51   2.0000      -0.646883       -17.6026
  52   2.0000      -0.633653       -17.2426
  53   2.0000      -0.621705       -16.9175
  54   2.0000      -0.613525       -16.6949
  55   2.0000      -0.607934       -16.5427
  56   2.0000      -0.604763       -16.4564
  57   2.0000      -0.584531       -15.9059
  58   2.0000      -0.578965       -15.7544
  59   2.0000      -0.566886       -15.4257
  60   2.0000      -0.561538       -15.2802
  61   2.0000      -0.551061       -14.9951
  62   2.0000      -0.545434       -14.8420
  63   2.0000      -0.534287       -14.5387
  64   2.0000      -0.528288       -14.3754
  65   2.0000      -0.518133       -14.0991
  66   2.0000      -0.506197       -13.7743
  67   2.0000      -0.504424       -13.7261
  68   2.0000      -0.486573       -13.2403
  69   2.0000      -0.465863       -12.6768
  70   2.0000      -0.454756       -12.3745
  71   2.0000      -0.449723       -12.2376
  72   2.0000      -0.358304        -9.7499
  73   2.0000      -0.352679        -9.5969
  74   2.0000      -0.331625        -9.0240
  75   2.0000      -0.329024        -8.9532
  76   2.0000      -0.320316        -8.7162
  77   0.0000       0.086039         2.3412
  78   0.0000       0.096934         2.6377
  79   0.0000       0.121209         3.2983
  80   0.0000       0.126667         3.4468
  81   0.0000       0.128470         3.4959

MULLIKEN ATOMIC CHARGES
-----------------------
   0 C :   -0.311378
   1 C :    0.037259
   2 O :   -0.324905
   3 C :    0.414921
   4 O :   -0.374105
   5 C :   -0.207640
   6 C :    0.139962
   7 C :   -0.297795
   8 N :   -0.135581
   9 C :    0.212727
  10 S :   -0.440849
  11 N :   -0.220867
  12 C :    0.024639
  13 C :    0.014915
  14 C :   -0.200132
  15 C :   -0.133004
  16 C :   -0.271739
  17 C :    0.308450
  18 O :   -0.353507
  19 C :   -0.234422
  20 H :    0.094520
  21 H :    0.107043
  22 H :    0.113331
  23 H :    0.103785
  24 H :    0.122185
  25 H :    0.116318
  26 H :    0.149173
  27 H :    0.104525
  28 H :    0.197936
  29 H :    0.202420
  30 H :    0.163228
  31 H :    0.159795
  32 H :    0.165874
  33 H :    0.135341
  34 H :    0.241720
  35 H :    0.175859
Sum of atomic charges:   -0.0000000

LOEWDIN ATOMIC CHARGES
----------------------
   0 C :    0.103137
   1 C :   -0.018738
   2 O :    0.304296
   3 C :   -0.420736
   4 O :    0.126546
   5 C :   -0.094099
   6 C :   -0.083889
   7 C :    0.128072
   8 N :    0.405368
   9 C :   -0.455463
  10 S :   -0.036068
  11 N :    0.395828
  12 C :   -0.054179
  13 C :   -0.046866
  14 C :    0.019872
  15 C :    0.045437
  16 C :    0.001762
  17 C :   -0.191195
  18 O :    0.397376
  19 C :    0.029308
  20 H :   -0.035036
  21 H :   -0.023966
  22 H :   -0.024221
  23 H :   -0.037561
  24 H :   -0.020354
  25 H :   -0.011851
  26 H :   -0.003774
  27 H :   -0.019488
  28 H :   -0.057161
  29 H :   -0.063853
  30 H :   -0.008520
  31 H :   -0.025248
  32 H :   -0.017884
  33 H :   -0.033439
  34 H :   -0.152166
  35 H :   -0.021247

  Mayer bond orders larger than 0.100000
B(  0-C ,  1-C ) :   0.9678 B(  0-C , 20-H ) :   0.9756 B(  0-C , 21-H ) :   0.9775
B(  0-C , 22-H ) :   0.9754 B(  1-C ,  2-O ) :   0.8902 B(  1-C , 23-H ) :   0.9583
B(  1-C , 24-H ) :   0.9826 B(  2-O ,  3-C ) :   1.1736 B(  3-C ,  4-O ) :   2.1224
B(  3-C ,  5-C ) :   0.9109 B(  5-C ,  6-C ) :   1.7032 B(  5-C , 12-C ) :   0.9587
B(  6-C ,  7-C ) :   0.9492 B(  6-C ,  8-N ) :   1.1244 B(  7-C , 25-H ) :   0.9783
B(  7-C , 26-H ) :   0.9575 B(  7-C , 27-H ) :   0.9803 B(  8-N ,  9-C ) :   1.1999
B(  8-N , 28-H ) :   0.9497 B(  9-C , 10-S ) :   1.6122 B(  9-C , 11-N ) :   1.2862
B( 11-N , 12-C ) :   0.9793 B( 11-N , 29-H ) :   0.9458 B( 12-C , 13-C ) :   0.9639
B( 12-C , 30-H ) :   1.0022 B( 13-C , 14-C ) :   1.3771 B( 13-C , 19-C ) :   1.3514
B( 14-C , 15-C ) :   1.3949 B( 14-C , 31-H ) :   0.9690 B( 15-C , 16-C ) :   1.3627
B( 15-C , 32-H ) :   0.9690 B( 16-C , 17-C ) :   1.3313 B( 16-C , 33-H ) :   0.9831
B( 17-C , 18-O ) :   1.1120 B( 17-C , 19-C ) :   1.3602 B( 18-O , 34-H ) :   0.9786
B( 19-C , 35-H ) :   0.9570

MP2 TOTAL ENERGY:    -1274.324177409 Eh
FINAL SINGLE POINT ENERGY     -1274.324177409050

DIPOLE MOMENT
-------------
                                X             Y             Z
Electronic contribution:      9.64014       6.61797       7.88430
Nuclear contribution   :    -11.15258      -8.31418      -7.72233
                        -----------------------------------------
Total Dipole Moment    :     -1.51245      -1.69620       0.16196
                        -----------------------------------------
Magnitude (a.u.)       :      2.27834
Magnitude (Debye)      :      5.79108

Rotational constants in cm-1:     0.011699     0.009119     0.006244
Rotational constants in MHz :   350.741119   273.372648   187.197495

                             ****ORCA TERMINATED NORMALLY****
TOTAL RUN TIME: 0 days 1 hours 46 minutes 10 seconds 461 msec
