                         Program Version 4.2.0 -  RELEASE  -
|  1> ! ri-mp2 cc-pvtz cc-pvtz/c TightSCF NoKeepInts
|  2>
|  3> %scf
|  4>   MaxCore 4096
|  5> end
|  6> *xyz  0  1
|  7>     C       14.7872799   14.8933366   14.1699191
|  8>     C       15.1287355   15.1399236   15.6534415
|  9>     O       16.2349826   16.0553108   15.7552642
| 10>     C       16.0199979   17.4027983   15.6695733
| 11>     O       15.1923250   17.8862944   14.9172080
| 12>     C       16.8042288   18.1762891   16.6960002
| 13>     C       16.9165997   19.5270570   16.6120404
| 14>     C       16.1275759   20.4581175   15.7146162
| 15>     N       17.8456459   20.2218693   17.3899421
| 16>     C       18.8278758   19.6293635   18.1363449
| 17>     S       19.9565408   20.5143471   18.9601199
| 18>     N       18.8416028   18.2576769   18.1489045
| 19>     C       17.8197703   17.3859735   17.5391257
| 20>     C       17.1860871   16.4338210   18.5453051
| 21>     C       17.4819040   15.0584883   18.5142746
| 22>     C       16.8930671   14.1809905   19.4402559
| 23>     C       16.0046161   14.6840015   20.4062739
| 24>     C       15.7126290   16.0546770   20.4420236
| 25>     O       14.8561161   16.5430104   21.3741001
| 26>     C       16.2994835   16.9252670   19.5183565
| 27>     H       14.3817578   15.7955553   13.6964731
| 28>     H       14.0346461   14.1011065   14.0784583
| 29>     H       15.6802920   14.5828301   13.6137538
| 30>     H       14.2526675   15.5270230   16.1914410
| 31>     H       15.4139776   14.1849819   16.1132239
| 32>     H       15.0494858   20.3126708   15.8606576
| 33>     H       16.3453829   20.2544437   14.6584207
| 34>     H       16.3417765   21.5175372   15.8982105
| 35>     H       17.8603587   21.2290755   17.3716084
| 36>     H       19.5590177   17.8493192   18.7345586
| 37>     H       18.4383094   16.8324494   16.8183155
| 38>     H       18.1651480   14.6685407   17.7643306
| 39>     H       17.1265386   13.1181079   19.4085428
| 40>     H       15.5482558   14.0106342   21.1244202
| 41>     H       14.5856325   15.8031575   21.9383587
| 42>     H       16.0666892   17.9839536   19.5641364
| 43> *
| 44>
| 45>                          ****END OF INPUT****

CARTESIAN COORDINATES (ANGSTROEM)
---------------------------------
  C     14.787280   14.893337   14.169919
  C     15.128735   15.139924   15.653441
  O     16.234983   16.055311   15.755264
  C     16.019998   17.402798   15.669573
  O     15.192325   17.886294   14.917208
  C     16.804229   18.176289   16.696000
  C     16.916600   19.527057   16.612040
  C     16.127576   20.458117   15.714616
  N     17.845646   20.221869   17.389942
  C     18.827876   19.629364   18.136345
  S     19.956541   20.514347   18.960120
  N     18.841603   18.257677   18.148905
  C     17.819770   17.385973   17.539126
  C     17.186087   16.433821   18.545305
  C     17.481904   15.058488   18.514275
  C     16.893067   14.180990   19.440256
  C     16.004616   14.684002   20.406274
  C     15.712629   16.054677   20.442024
  O     14.856116   16.543010   21.374100
  C     16.299484   16.925267   19.518356
  H     14.381758   15.795555   13.696473
  H     14.034646   14.101106   14.078458
  H     15.680292   14.582830   13.613754
  H     14.252667   15.527023   16.191441
  H     15.413978   14.184982   16.113224
  H     15.049486   20.312671   15.860658
  H     16.345383   20.254444   14.658421
  H     16.341777   21.517537   15.898210
  H     17.860359   21.229076   17.371608
  H     19.559018   17.849319   18.734559
  H     18.438309   16.832449   16.818316
  H     18.165148   14.668541   17.764331
  H     17.126539   13.118108   19.408543
  H     15.548256   14.010634   21.124420
  H     14.585632   15.803157   21.938359
  H     16.066689   17.983954   19.564136

 Total Charge           Charge          ....    0
 Multiplicity           Mult            ....    1
 Number of Electrons    NEL             ....  154
 Basis Dimension        Dim             ....  828

ORBITAL ENERGIES
----------------

  NO   OCC          E(Eh)            E(eV)
   0   2.0000     -91.889417     -2500.4382
   1   2.0000     -20.597841      -560.4958
   2   2.0000     -20.593220      -560.3700
   3   2.0000     -20.544056      -559.0322
   4   2.0000     -15.629899      -425.3112
   5   2.0000     -15.607422      -424.6995
   6   2.0000     -11.395176      -310.0785
   7   2.0000     -11.384038      -309.7754
   8   2.0000     -11.337977      -308.5220
   9   2.0000     -11.315168      -307.9014
  10   2.0000     -11.307922      -307.7042
  11   2.0000     -11.298341      -307.4435
  12   2.0000     -11.262069      -306.4565
  13   2.0000     -11.258604      -306.3622
  14   2.0000     -11.256607      -306.3078
  15   2.0000     -11.252391      -306.1931
  16   2.0000     -11.244888      -305.9890
  17   2.0000     -11.240195      -305.8613
  18   2.0000     -11.239902      -305.8533
  19   2.0000     -11.218473      -305.2702
  20   2.0000      -8.894482      -242.0312
  21   2.0000      -6.576052      -178.9435
  22   2.0000      -6.574056      -178.8892
  23   2.0000      -6.573464      -178.8730
  24   2.0000      -1.449032       -39.4302
  25   2.0000      -1.417503       -38.5722
  26   2.0000      -1.355026       -36.8721
  27   2.0000      -1.340933       -36.4886
  28   2.0000      -1.238766       -33.7085
  29   2.0000      -1.158752       -31.5312
  30   2.0000      -1.121447       -30.5161
  31   2.0000      -1.043695       -28.4004
  32   2.0000      -1.033969       -28.1357
  33   2.0000      -1.016348       -27.6562
  34   2.0000      -0.996087       -27.1049
  35   2.0000      -0.984622       -26.7929
  36   2.0000      -0.922514       -25.1029
  37   2.0000      -0.888764       -24.1845
  38   2.0000      -0.847501       -23.0617
  39   2.0000      -0.839185       -22.8354
  40   2.0000      -0.835448       -22.7337
  41   2.0000      -0.821657       -22.3584
  42   2.0000      -0.756021       -20.5724
  43   2.0000      -0.733927       -19.9712
  44   2.0000      -0.721823       -19.6418
  45   2.0000      -0.696550       -18.9541
  46   2.0000      -0.689344       -18.7580
  47   2.0000      -0.679837       -18.4993
  48   2.0000      -0.670838       -18.2544
  49   2.0000      -0.651541       -17.7293
  50   2.0000      -0.647723       -17.6254
  51   2.0000      -0.645787       -17.5728
  52   2.0000      -0.633827       -17.2473
  53   2.0000      -0.608382       -16.5549
  54   2.0000      -0.603397       -16.4193
  55   2.0000      -0.600210       -16.3326
  56   2.0000      -0.597996       -16.2723
  57   2.0000      -0.581384       -15.8203
  58   2.0000      -0.574754       -15.6398
  59   2.0000      -0.570164       -15.5149
  60   2.0000      -0.564019       -15.3477
  61   2.0000      -0.540927       -14.7194
  62   2.0000      -0.535397       -14.5689
  63   2.0000      -0.525112       -14.2890
  64   2.0000      -0.517254       -14.0752
  65   2.0000      -0.513228       -13.9657
  66   2.0000      -0.500883       -13.6297
  67   2.0000      -0.497910       -13.5488
  68   2.0000      -0.486501       -13.2384
  69   2.0000      -0.463926       -12.6241
  70   2.0000      -0.455279       -12.3888
  71   2.0000      -0.442995       -12.0545
  72   2.0000      -0.353435        -9.6175
  73   2.0000      -0.350941        -9.5496
  74   2.0000      -0.328614        -8.9420
  75   2.0000      -0.322559        -8.7773
  76   2.0000      -0.318662        -8.6712
  77   0.0000       0.074394         2.0244
  78   0.0000       0.103438         2.8147
  79   0.0000       0.124953         3.4001
  80   0.0000       0.132049         3.5932
  81   0.0000       0.136490         3.7141

MULLIKEN ATOMIC CHARGES
-----------------------
   0 C :   -0.282089
   1 C :    0.042213
   2 O :   -0.361708
   3 C :    0.437808
   4 O :   -0.428898
   5 C :   -0.226447
   6 C :    0.176965
   7 C :   -0.267805
   8 N :   -0.125714
   9 C :    0.210872
  10 S :   -0.441053
  11 N :   -0.216238
  12 C :    0.068683
  13 C :    0.037444
  14 C :   -0.186014
  15 C :   -0.130580
  16 C :   -0.277637
  17 C :    0.316484
  18 O :   -0.356478
  19 C :   -0.249591
  20 H :    0.122151
  21 H :    0.090180
  22 H :    0.089993
  23 H :    0.089953
  24 H :    0.105194
  25 H :    0.133635
  26 H :    0.129002
  27 H :    0.094991
  28 H :    0.199622
  29 H :    0.200638
  30 H :    0.152518
  31 H :    0.154199
  32 H :    0.162481
  33 H :    0.130944
  34 H :    0.240832
  35 H :    0.163452
Sum of atomic charges:   -0.0000000

LOEWDIN ATOMIC CHARGES
----------------------
   0 C :    0.104901
   1 C :   -0.015985
   2 O :    0.300937
   3 C :   -0.415038
   4 O :    0.106337
   5 C :   -0.096898
   6 C :   -0.055462
   7 C :    0.131301
   8 N :    0.407358
   9 C :   -0.456431
  10 S :   -0.035836
  11 N :    0.394483
  12 C :   -0.054622
  13 C :   -0.039183
  14 C :    0.017649
  15 C :    0.038620
  16 C :   -0.001034
  17 C :   -0.189844
  18 O :    0.395231
  19 C :    0.032546
  20 H :   -0.026237
  21 H :   -0.030083
  22 H :   -0.029192
  23 H :   -0.029142
  24 H :   -0.025526
  25 H :   -0.004374
  26 H :   -0.004865
  27 H :   -0.023531
  28 H :   -0.057105
  29 H :   -0.064414
  30 H :   -0.013061
  31 H :   -0.028656
  32 H :   -0.021154
  33 H :   -0.035272
  34 H :   -0.153719
  35 H :   -0.022697

  Mayer bond orders larger than 0.100000
B(  0-C ,  1-C ) :   0.9789 B(  0-C , 20-H ) :   0.9725 B(  0-C , 21-H ) :   0.9776
B(  0-C , 22-H ) :   0.9758 B(  1-C ,  2-O ) :   0.8934 B(  1-C , 23-H ) :   0.9733
B(  1-C , 24-H ) :   0.9809 B(  2-O ,  3-C ) :   1.1239 B(  3-C ,  4-O ) :   1.9687
B(  3-C ,  5-C ) :   1.0757 B(  5-C ,  6-C ) :   1.6311 B(  5-C , 12-C ) :   0.9544
B(  6-C ,  7-C ) :   0.9659 B(  6-C ,  8-N ) :   1.1546 B(  7-C , 25-H ) :   0.9607
B(  7-C , 26-H ) :   0.9588 B(  7-C , 27-H ) :   0.9908 B(  8-N ,  9-C ) :   1.1864
B(  8-N , 28-H ) :   0.9463 B(  9-C , 10-S ) :   1.6067 B(  9-C , 11-N ) :   1.3096
B( 11-N , 12-C ) :   0.9664 B( 11-N , 29-H ) :   0.9484 B( 12-C , 13-C ) :   0.9611
B( 12-C , 30-H ) :   1.0012 B( 13-C , 14-C ) :   1.3530 B( 13-C , 19-C ) :   1.3797
B( 14-C , 15-C ) :   1.3908 B( 14-C , 31-H ) :   0.9715 B( 15-C , 16-C ) :   1.3598
B( 15-C , 32-H ) :   0.9703 B( 16-C , 17-C ) :   1.3335 B( 16-C , 33-H ) :   0.9847
B( 17-C , 18-O ) :   1.1050 B( 17-C , 19-C ) :   1.3646 B( 18-O , 34-H ) :   0.9796
B( 19-C , 35-H ) :   0.9597

MP2 TOTAL ENERGY:    -1274.336327933 Eh
FINAL SINGLE POINT ENERGY     -1274.336327933394

DIPOLE MOMENT
-------------
                                X             Y             Z
Electronic contribution:      9.90619       9.56556       9.90333
Nuclear contribution   :    -11.02528     -11.16463     -10.09061
                        -----------------------------------------
Total Dipole Moment    :     -1.11909      -1.59908      -0.18728
                        -----------------------------------------
Magnitude (a.u.)       :      1.96074
Magnitude (Debye)      :      4.98380

Rotational constants in cm-1:     0.011131     0.008654     0.005830
Rotational constants in MHz :   333.699141   259.449795   174.786967

                             ****ORCA TERMINATED NORMALLY****
TOTAL RUN TIME: 0 days 2 hours 3 minutes 6 seconds 717 msec
