                         Program Version 4.2.0 -  RELEASE  -
|  1> ! ri-mp2 cc-pvtz cc-pvtz/c TightSCF NoKeepInts
|  2>
|  3> %scf
|  4>   MaxCore 4096
|  5> end
|  6> *xyz  0  1
|  7>     C       14.7452121   14.6659758   15.9011494
|  8>     C       15.9863950   14.8960224   15.0177418
|  9>     O       16.7668506   15.9522332   15.6039051
| 10>     C       16.3953179   17.2546849   15.4171027
| 11>     O       15.6849531   17.5993671   14.4876668
| 12>     C       16.9014226   18.1627334   16.5052662
| 13>     C       16.8811922   19.5117261   16.3535333
| 14>     C       16.1686798   20.3005667   15.2744413
| 15>     N       17.5756076   20.3451749   17.2333452
| 16>     C       18.4592637   19.9055876   18.1816079
| 17>     S       19.3172352   20.9529703   19.1317151
| 18>     N       18.6133651   18.5466407   18.2900651
| 19>     C       17.8228618   17.5345635   17.5643076
| 20>     C       17.1169856   16.5607857   18.4992014
| 21>     C       17.5731340   15.2360899   18.6295805
| 22>     C       16.9167330   14.3364547   19.4863367
| 23>     C       15.7970397   14.7661448   20.2192082
| 24>     C       15.3438308   16.0867944   20.0939782
| 25>     O       14.2633060   16.5041746   20.8004899
| 26>     C       15.9996756   16.9799894   19.2411049
| 27>     H       15.0397329   14.4556190   16.9371174
| 28>     H       14.1619234   13.8149067   15.5298080
| 29>     H       14.0954192   15.5501765   15.8991912
| 30>     H       16.5828416   13.9750693   14.9970573
| 31>     H       15.6940752   15.1365670   13.9862964
| 32>     H       15.1052810   20.0309943   15.2383907
| 33>     H       16.5960652   20.0803272   14.2879162
| 34>     H       16.2254172   21.3849747   15.4254297
| 35>     H       17.4875998   21.3453449   17.1503007
| 36>     H       19.2470282   18.2518797   19.0221475
| 37>     H       18.6188723   17.0245463   17.0034256
| 38>     H       18.4340454   14.9012340   18.0571734
| 39>     H       17.2748556   13.3126518   19.5792908
| 40>     H       15.2864960   14.0751486   20.8819025
| 41>     H       13.9700278   15.7622117   21.3503277
| 42>     H       15.6382578   17.9996685   19.1604774
| 43> *
| 44>
| 45>                          ****END OF INPUT****

CARTESIAN COORDINATES (ANGSTROEM)
---------------------------------
  C     14.745212   14.665976   15.901149
  C     15.986395   14.896022   15.017742
  O     16.766851   15.952233   15.603905
  C     16.395318   17.254685   15.417103
  O     15.684953   17.599367   14.487667
  C     16.901423   18.162733   16.505266
  C     16.881192   19.511726   16.353533
  C     16.168680   20.300567   15.274441
  N     17.575608   20.345175   17.233345
  C     18.459264   19.905588   18.181608
  S     19.317235   20.952970   19.131715
  N     18.613365   18.546641   18.290065
  C     17.822862   17.534563   17.564308
  C     17.116986   16.560786   18.499201
  C     17.573134   15.236090   18.629580
  C     16.916733   14.336455   19.486337
  C     15.797040   14.766145   20.219208
  C     15.343831   16.086794   20.093978
  O     14.263306   16.504175   20.800490
  C     15.999676   16.979989   19.241105
  H     15.039733   14.455619   16.937117
  H     14.161923   13.814907   15.529808
  H     14.095419   15.550176   15.899191
  H     16.582842   13.975069   14.997057
  H     15.694075   15.136567   13.986296
  H     15.105281   20.030994   15.238391
  H     16.596065   20.080327   14.287916
  H     16.225417   21.384975   15.425430
  H     17.487600   21.345345   17.150301
  H     19.247028   18.251880   19.022147
  H     18.618872   17.024546   17.003426
  H     18.434045   14.901234   18.057173
  H     17.274856   13.312652   19.579291
  H     15.286496   14.075149   20.881902
  H     13.970028   15.762212   21.350328
  H     15.638258   17.999668   19.160477

 Total Charge           Charge          ....    0
 Multiplicity           Mult            ....    1
 Number of Electrons    NEL             ....  154
 Basis Dimension        Dim             ....  828

ORBITAL ENERGIES
----------------

  NO   OCC          E(Eh)            E(eV)
   0   2.0000     -91.889108     -2500.4298
   1   2.0000     -20.598042      -560.5012
   2   2.0000     -20.597752      -560.4933
   3   2.0000     -20.541242      -558.9556
   4   2.0000     -15.629522      -425.3009
   5   2.0000     -15.607330      -424.6970
   6   2.0000     -11.394613      -310.0632
   7   2.0000     -11.383858      -309.7705
   8   2.0000     -11.337591      -308.5115
   9   2.0000     -11.315175      -307.9016
  10   2.0000     -11.307833      -307.7018
  11   2.0000     -11.295277      -307.3601
  12   2.0000     -11.261851      -306.4505
  13   2.0000     -11.259043      -306.3741
  14   2.0000     -11.256422      -306.3028
  15   2.0000     -11.251882      -306.1793
  16   2.0000     -11.245006      -305.9922
  17   2.0000     -11.240111      -305.8590
  18   2.0000     -11.239694      -305.8476
  19   2.0000     -11.222484      -305.3793
  20   2.0000      -8.894176      -242.0228
  21   2.0000      -6.575747      -178.9352
  22   2.0000      -6.573750      -178.8808
  23   2.0000      -6.573159      -178.8647
  24   2.0000      -1.450371       -39.4666
  25   2.0000      -1.417440       -38.5705
  26   2.0000      -1.353650       -36.8347
  27   2.0000      -1.340561       -36.4785
  28   2.0000      -1.238508       -33.7015
  29   2.0000      -1.158818       -31.5331
  30   2.0000      -1.121597       -30.5202
  31   2.0000      -1.043687       -28.4002
  32   2.0000      -1.034937       -28.1621
  33   2.0000      -1.016287       -27.6546
  34   2.0000      -0.996324       -27.1114
  35   2.0000      -0.984959       -26.8021
  36   2.0000      -0.922382       -25.0993
  37   2.0000      -0.893282       -24.3074
  38   2.0000      -0.846836       -23.0436
  39   2.0000      -0.838967       -22.8294
  40   2.0000      -0.835278       -22.7291
  41   2.0000      -0.814774       -22.1711
  42   2.0000      -0.756575       -20.5875
  43   2.0000      -0.734547       -19.9880
  44   2.0000      -0.722583       -19.6625
  45   2.0000      -0.696692       -18.9579
  46   2.0000      -0.689316       -18.7573
  47   2.0000      -0.678684       -18.4679
  48   2.0000      -0.671186       -18.2639
  49   2.0000      -0.661318       -17.9954
  50   2.0000      -0.647081       -17.6080
  51   2.0000      -0.640154       -17.4195
  52   2.0000      -0.634491       -17.2654
  53   2.0000      -0.608293       -16.5525
  54   2.0000      -0.606595       -16.5063
  55   2.0000      -0.600764       -16.3476
  56   2.0000      -0.599962       -16.3258
  57   2.0000      -0.578281       -15.7358
  58   2.0000      -0.569926       -15.5085
  59   2.0000      -0.566581       -15.4175
  60   2.0000      -0.557575       -15.1724
  61   2.0000      -0.545987       -14.8571
  62   2.0000      -0.534418       -14.5423
  63   2.0000      -0.531200       -14.4547
  64   2.0000      -0.525067       -14.2878
  65   2.0000      -0.513451       -13.9717
  66   2.0000      -0.500985       -13.6325
  67   2.0000      -0.498131       -13.5548
  68   2.0000      -0.480882       -13.0855
  69   2.0000      -0.463897       -12.6233
  70   2.0000      -0.454132       -12.3576
  71   2.0000      -0.446288       -12.1441
  72   2.0000      -0.353601        -9.6220
  73   2.0000      -0.350959        -9.5501
  74   2.0000      -0.328380        -8.9357
  75   2.0000      -0.322469        -8.7748
  76   2.0000      -0.318438        -8.6651
  77   0.0000       0.076692         2.0869
  78   0.0000       0.103694         2.8216
  79   0.0000       0.124525         3.3885
  80   0.0000       0.132204         3.5974
  81   0.0000       0.136883         3.7248

MULLIKEN ATOMIC CHARGES
-----------------------
   0 C :   -0.300196
   1 C :    0.014351
   2 O :   -0.355617
   3 C :    0.440319
   4 O :   -0.435884
   5 C :   -0.233487
   6 C :    0.177015
   7 C :   -0.267386
   8 N :   -0.126514
   9 C :    0.211368
  10 S :   -0.441766
  11 N :   -0.217025
  12 C :    0.069459
  13 C :    0.037636
  14 C :   -0.183803
  15 C :   -0.137423
  16 C :   -0.275197
  17 C :    0.313727
  18 O :   -0.356687
  19 C :   -0.240073
  20 H :    0.109151
  21 H :    0.100416
  22 H :    0.105378
  23 H :    0.109170
  24 H :    0.121976
  25 H :    0.133762
  26 H :    0.129330
  27 H :    0.094720
  28 H :    0.199663
  29 H :    0.200681
  30 H :    0.152675
  31 H :    0.152947
  32 H :    0.161309
  33 H :    0.131268
  34 H :    0.240745
  35 H :    0.163993
Sum of atomic charges:   -0.0000000

LOEWDIN ATOMIC CHARGES
----------------------
   0 C :    0.104835
   1 C :   -0.018625
   2 O :    0.307758
   3 C :   -0.415401
   4 O :    0.095636
   5 C :   -0.095582
   6 C :   -0.056465
   7 C :    0.131426
   8 N :    0.407244
   9 C :   -0.455951
  10 S :   -0.036364
  11 N :    0.394495
  12 C :   -0.054087
  13 C :   -0.039460
  14 C :    0.016057
  15 C :    0.038784
  16 C :   -0.001312
  17 C :   -0.189792
  18 O :    0.395657
  19 C :    0.033692
  20 H :   -0.025268
  21 H :   -0.027440
  22 H :   -0.026222
  23 H :   -0.026137
  24 H :   -0.027965
  25 H :   -0.004293
  26 H :   -0.004814
  27 H :   -0.023613
  28 H :   -0.057112
  29 H :   -0.064539
  30 H :   -0.013364
  31 H :   -0.028930
  32 H :   -0.021165
  33 H :   -0.035198
  34 H :   -0.153742
  35 H :   -0.022741

  Mayer bond orders larger than 0.100000
B(  0-C ,  1-C ) :   0.9610 B(  0-C , 20-H ) :   0.9705 B(  0-C , 21-H ) :   0.9779
B(  0-C , 22-H ) :   0.9769 B(  1-C ,  2-O ) :   0.8929 B(  1-C , 23-H ) :   0.9846
B(  1-C , 24-H ) :   0.9787 B(  2-O ,  3-C ) :   1.1536 B(  3-C ,  4-O ) :   1.9653
B(  3-C ,  5-C ) :   1.0659 B(  5-C ,  6-C ) :   1.6369 B(  5-C , 12-C ) :   0.9540
B(  6-C ,  7-C ) :   0.9648 B(  6-C ,  8-N ) :   1.1558 B(  7-C , 25-H ) :   0.9611
B(  7-C , 26-H ) :   0.9590 B(  7-C , 27-H ) :   0.9904 B(  8-N ,  9-C ) :   1.1871
B(  8-N , 28-H ) :   0.9463 B(  9-C , 10-S ) :   1.6054 B(  9-C , 11-N ) :   1.3101
B( 11-N , 12-C ) :   0.9668 B( 11-N , 29-H ) :   0.9484 B( 12-C , 13-C ) :   0.9619
B( 12-C , 30-H ) :   1.0004 B( 13-C , 14-C ) :   1.3526 B( 13-C , 19-C ) :   1.3811
B( 14-C , 15-C ) :   1.3937 B( 14-C , 31-H ) :   0.9720 B( 15-C , 16-C ) :   1.3558
B( 15-C , 32-H ) :   0.9715 B( 16-C , 17-C ) :   1.3336 B( 16-C , 33-H ) :   0.9851
B( 17-C , 18-O ) :   1.1059 B( 17-C , 19-C ) :   1.3645 B( 18-O , 34-H ) :   0.9797
B( 19-C , 35-H ) :   0.9586

MP2 TOTAL ENERGY:    -1274.344554474 Eh
FINAL SINGLE POINT ENERGY     -1274.344554473950

DIPOLE MOMENT
-------------
                                X             Y             Z
Electronic contribution:      8.62806      10.80862       7.19161
Nuclear contribution   :     -9.46675     -12.59594      -7.53739
                        -----------------------------------------
Total Dipole Moment    :     -0.83869      -1.78732      -0.34578
                        -----------------------------------------
Magnitude (a.u.)       :      2.00437
Magnitude (Debye)      :      5.09469

Rotational constants in cm-1:     0.012188     0.008542     0.006062
Rotational constants in MHz :   365.394925   256.075638   181.738986

                             ****ORCA TERMINATED NORMALLY****
TOTAL RUN TIME: 0 days 1 hours 41 minutes 30 seconds 71 msec
