                         Program Version 4.2.0 -  RELEASE  -
|  1> ! ri-mp2 cc-pvtz cc-pvtz/c TightSCF NoKeepInts
|  2>
|  3> %scf
|  4>   MaxCore 4096
|  5> end
|  6> *xyz  0  1
|  7>     C       14.0369277   15.1904049   15.0221631
|  8>     C       14.9754979   16.2967411   15.5300328
|  9>     O       16.2882538   16.0104385   15.0103594
| 10>     C       17.4229307   16.4369255   15.6493180
| 11>     O       18.4696976   15.8224186   15.5625546
| 12>     C       17.2739962   17.6350227   16.5297877
| 13>     C       16.9534066   18.8407827   15.9997375
| 14>     C       16.5081517   19.1337837   14.5805539
| 15>     N       17.1120510   20.0118097   16.7429327
| 16>     C       17.8096774   20.0861788   17.9198567
| 17>     S       18.0592969   21.5252709   18.6949252
| 18>     N       18.3127200   18.9054507   18.4089683
| 19>     C       18.0251739   17.5657112   17.8585482
| 20>     C       17.3872838   16.5933504   18.8389466
| 21>     C       17.8446405   15.2657456   18.9152919
| 22>     C       17.2449217   14.3539583   19.7998572
| 23>     C       16.1766172   14.7728991   20.6114392
| 24>     C       15.7141749   16.0936652   20.5314006
| 25>     O       14.6758498   16.4978984   21.3053968
| 26>     C       16.3121259   16.9991177   19.6488257
| 27>     H       14.3840372   14.2054410   15.3594662
| 28>     H       14.0011238   15.1862731   13.9255544
| 29>     H       13.0186511   15.3434128   15.3998296
| 30>     H       14.6171868   17.2779488   15.1985132
| 31>     H       14.9798172   16.2707963   16.6288663
| 32>     H       16.7074240   18.3023966   13.8937201
| 33>     H       17.0443109   20.0002221   14.1721542
| 34>     H       15.4353445   19.3568088   14.5395445
| 35>     H       16.7837608   20.8910809   16.3752280
| 36>     H       18.8207899   18.9867624   19.2809760
| 37>     H       19.0444833   17.2352251   17.6078990
| 38>     H       18.6625515   14.9375259   18.2766510
| 39>     H       17.6062866   13.3280745   19.8498765
| 40>     H       15.7097962   14.0710930   21.2947481
| 41>     H       14.4303196   15.7529692   21.8747956
| 42>     H       15.9377212   18.0163957   19.5992813
| 43> *
| 44>
| 45>                          ****END OF INPUT****

CARTESIAN COORDINATES (ANGSTROEM)
---------------------------------
  C     14.036928   15.190405   15.022163
  C     14.975498   16.296741   15.530033
  O     16.288254   16.010438   15.010359
  C     17.422931   16.436926   15.649318
  O     18.469698   15.822419   15.562555
  C     17.273996   17.635023   16.529788
  C     16.953407   18.840783   15.999737
  C     16.508152   19.133784   14.580554
  N     17.112051   20.011810   16.742933
  C     17.809677   20.086179   17.919857
  S     18.059297   21.525271   18.694925
  N     18.312720   18.905451   18.408968
  C     18.025174   17.565711   17.858548
  C     17.387284   16.593350   18.838947
  C     17.844641   15.265746   18.915292
  C     17.244922   14.353958   19.799857
  C     16.176617   14.772899   20.611439
  C     15.714175   16.093665   20.531401
  O     14.675850   16.497898   21.305397
  C     16.312126   16.999118   19.648826
  H     14.384037   14.205441   15.359466
  H     14.001124   15.186273   13.925554
  H     13.018651   15.343413   15.399830
  H     14.617187   17.277949   15.198513
  H     14.979817   16.270796   16.628866
  H     16.707424   18.302397   13.893720
  H     17.044311   20.000222   14.172154
  H     15.435344   19.356809   14.539544
  H     16.783761   20.891081   16.375228
  H     18.820790   18.986762   19.280976
  H     19.044483   17.235225   17.607899
  H     18.662551   14.937526   18.276651
  H     17.606287   13.328074   19.849877
  H     15.709796   14.071093   21.294748
  H     14.430320   15.752969   21.874796
  H     15.937721   18.016396   19.599281

 Total Charge           Charge          ....    0
 Multiplicity           Mult            ....    1
 Number of Electrons    NEL             ....  154
 Basis Dimension        Dim             ....  828

ORBITAL ENERGIES
----------------

  NO   OCC          E(Eh)            E(eV)
   0   2.0000     -91.889754     -2500.4473
   1   2.0000     -20.603531      -560.6506
   2   2.0000     -20.599555      -560.5424
   3   2.0000     -20.551198      -559.2265
   4   2.0000     -15.627795      -425.2539
   5   2.0000     -15.609462      -424.7550
   6   2.0000     -11.398513      -310.1693
   7   2.0000     -11.385701      -309.8207
   8   2.0000     -11.334321      -308.4225
   9   2.0000     -11.316893      -307.9483
  10   2.0000     -11.309903      -307.7581
  11   2.0000     -11.306577      -307.6676
  12   2.0000     -11.267002      -306.5907
  13   2.0000     -11.264554      -306.5241
  14   2.0000     -11.263794      -306.5034
  15   2.0000     -11.257117      -306.3217
  16   2.0000     -11.245979      -306.0186
  17   2.0000     -11.242148      -305.9144
  18   2.0000     -11.239390      -305.8393
  19   2.0000     -11.234423      -305.7042
  20   2.0000      -8.894864      -242.0415
  21   2.0000      -6.576446      -178.9542
  22   2.0000      -6.574432      -178.8994
  23   2.0000      -6.573850      -178.8836
  24   2.0000      -1.450693       -39.4754
  25   2.0000      -1.419273       -38.6204
  26   2.0000      -1.363489       -37.1024
  27   2.0000      -1.340956       -36.4893
  28   2.0000      -1.239325       -33.7237
  29   2.0000      -1.161208       -31.5981
  30   2.0000      -1.126108       -30.6430
  31   2.0000      -1.048452       -28.5298
  32   2.0000      -1.041412       -28.3383
  33   2.0000      -1.019009       -27.7286
  34   2.0000      -1.005978       -27.3741
  35   2.0000      -0.989351       -26.9216
  36   2.0000      -0.926437       -25.2096
  37   2.0000      -0.881128       -23.9767
  38   2.0000      -0.856273       -23.3004
  39   2.0000      -0.842711       -22.9313
  40   2.0000      -0.837958       -22.8020
  41   2.0000      -0.836129       -22.7522
  42   2.0000      -0.757978       -20.6256
  43   2.0000      -0.739925       -20.1344
  44   2.0000      -0.732348       -19.9282
  45   2.0000      -0.697134       -18.9700
  46   2.0000      -0.689296       -18.7567
  47   2.0000      -0.683259       -18.5924
  48   2.0000      -0.675003       -18.3678
  49   2.0000      -0.663303       -18.0494
  50   2.0000      -0.659407       -17.9434
  51   2.0000      -0.648408       -17.6441
  52   2.0000      -0.639176       -17.3929
  53   2.0000      -0.612762       -16.6741
  54   2.0000      -0.607115       -16.5205
  55   2.0000      -0.603048       -16.4098
  56   2.0000      -0.595674       -16.2091
  57   2.0000      -0.582644       -15.8545
  58   2.0000      -0.577508       -15.7148
  59   2.0000      -0.570405       -15.5215
  60   2.0000      -0.562687       -15.3115
  61   2.0000      -0.559835       -15.2339
  62   2.0000      -0.552327       -15.0296
  63   2.0000      -0.527131       -14.3440
  64   2.0000      -0.518873       -14.1193
  65   2.0000      -0.515191       -14.0190
  66   2.0000      -0.505634       -13.7590
  67   2.0000      -0.501474       -13.6458
  68   2.0000      -0.489325       -13.3152
  69   2.0000      -0.471149       -12.8206
  70   2.0000      -0.457633       -12.4528
  71   2.0000      -0.452127       -12.3030
  72   2.0000      -0.356673        -9.7056
  73   2.0000      -0.351776        -9.5723
  74   2.0000      -0.329258        -8.9596
  75   2.0000      -0.324472        -8.8293
  76   2.0000      -0.319839        -8.7033
  77   0.0000       0.084091         2.2882
  78   0.0000       0.103859         2.8261
  79   0.0000       0.116010         3.1568
  80   0.0000       0.129486         3.5235
  81   0.0000       0.130363         3.5474

MULLIKEN ATOMIC CHARGES
-----------------------
   0 C :   -0.255025
   1 C :    0.024632
   2 O :   -0.311807
   3 C :    0.417352
   4 O :   -0.380460
   5 C :   -0.214597
   6 C :    0.150135
   7 C :   -0.336698
   8 N :   -0.139440
   9 C :    0.208533
  10 S :   -0.442707
  11 N :   -0.221340
  12 C :    0.062668
  13 C :    0.025126
  14 C :   -0.218697
  15 C :   -0.127838
  16 C :   -0.276857
  17 C :    0.315351
  18 O :   -0.356018
  19 C :   -0.253509
  20 H :    0.106360
  21 H :    0.098858
  22 H :    0.089378
  23 H :    0.082975
  24 H :    0.107704
  25 H :    0.137196
  26 H :    0.132194
  27 H :    0.123399
  28 H :    0.197662
  29 H :    0.202099
  30 H :    0.166552
  31 H :    0.175985
  32 H :    0.164525
  33 H :    0.131786
  34 H :    0.241324
  35 H :    0.173198
Sum of atomic charges:   -0.0000000

LOEWDIN ATOMIC CHARGES
----------------------
   0 C :    0.111611
   1 C :   -0.025347
   2 O :    0.305857
   3 C :   -0.415921
   4 O :    0.120746
   5 C :   -0.085780
   6 C :   -0.088404
   7 C :    0.124719
   8 N :    0.402901
   9 C :   -0.456646
  10 S :   -0.038084
  11 N :    0.395945
  12 C :   -0.049520
  13 C :   -0.044410
  14 C :    0.019801
  15 C :    0.044731
  16 C :    0.000032
  17 C :   -0.191836
  18 O :    0.394946
  19 C :    0.026936
  20 H :   -0.021933
  21 H :   -0.026071
  22 H :   -0.025080
  23 H :   -0.037181
  24 H :   -0.028904
  25 H :   -0.007925
  26 H :   -0.010856
  27 H :   -0.018552
  28 H :   -0.056877
  29 H :   -0.063648
  30 H :   -0.004204
  31 H :   -0.021268
  32 H :   -0.018616
  33 H :   -0.034808
  34 H :   -0.153140
  35 H :   -0.023217

  Mayer bond orders larger than 0.100000
B(  0-C ,  1-C ) :   0.9824 B(  0-C , 20-H ) :   0.9776 B(  0-C , 21-H ) :   0.9784
B(  0-C , 22-H ) :   0.9768 B(  1-C ,  2-O ) :   0.9073 B(  1-C , 23-H ) :   0.9698
B(  1-C , 24-H ) :   0.9661 B(  2-O ,  3-C ) :   1.1809 B(  3-C ,  4-O ) :   2.0959
B(  3-C ,  5-C ) :   0.9253 B(  5-C ,  6-C ) :   1.7109 B(  5-C , 12-C ) :   0.9403
B(  6-C ,  7-C ) :   0.9356 B(  6-C ,  8-N ) :   1.1115 B(  7-C , 25-H ) :   0.9742
B(  7-C , 26-H ) :   0.9749 B(  7-C , 27-H ) :   0.9667 B(  8-N ,  9-C ) :   1.1963
B(  8-N , 28-H ) :   0.9512 B(  9-C , 10-S ) :   1.6103 B(  9-C , 11-N ) :   1.2917
B( 11-N , 12-C ) :   0.9843 B( 11-N , 29-H ) :   0.9477 B( 12-C , 13-C ) :   0.9673
B( 12-C , 30-H ) :   0.9899 B( 13-C , 14-C ) :   1.3853 B( 13-C , 19-C ) :   1.3529
B( 14-C , 15-C ) :   1.3938 B( 14-C , 31-H ) :   0.9592 B( 15-C , 16-C ) :   1.3619
B( 15-C , 32-H ) :   0.9698 B( 16-C , 17-C ) :   1.3313 B( 16-C , 33-H ) :   0.9848
B( 17-C , 18-O ) :   1.1090 B( 17-C , 19-C ) :   1.3644 B( 18-O , 34-H ) :   0.9793
B( 19-C , 35-H ) :   0.9567

MP2 TOTAL ENERGY:    -1274.332485950 Eh
FINAL SINGLE POINT ENERGY     -1274.332485950189

DIPOLE MOMENT
-------------
                                X             Y             Z
Electronic contribution:     10.34373       8.63037       8.73086
Nuclear contribution   :    -11.99719      -9.77668      -9.07473
                        -----------------------------------------
Total Dipole Moment    :     -1.65346      -1.14631      -0.34386
                        -----------------------------------------
Magnitude (a.u.)       :      2.04113
Magnitude (Debye)      :      5.18814

Rotational constants in cm-1:     0.010637     0.009115     0.006180
Rotational constants in MHz :   318.903183   273.274775   185.277873

                             ****ORCA TERMINATED NORMALLY****
TOTAL RUN TIME: 0 days 1 hours 41 minutes 22 seconds 900 msec
