                         Program Version 4.2.0 -  RELEASE  -
|  1> ! ri-mp2 cc-pvtz cc-pvtz/c TightSCF NoKeepInts
|  2>
|  3> %scf
|  4>   MaxCore 4096
|  5> end
|  6> *xyz  0  1
|  7>     C       14.4372238   16.6036236   16.1639475
|  8>     C       15.3526095   15.3976122   15.8541807
|  9>     O       16.5655878   15.7201482   15.1252699
| 10>     C       17.4744718   16.7318683   15.3271802
| 11>     O       18.4808408   16.8128146   14.6486332
| 12>     C       17.1741612   17.7433974   16.3726749
| 13>     C       16.8871135   19.0018880   15.9727619
| 14>     C       16.5104719   19.4105560   14.5652342
| 15>     N       16.9894671   20.0808876   16.8520458
| 16>     C       17.6058006   20.0127330   18.0744164
| 17>     S       17.7972809   21.3470538   19.0323225
| 18>     N       18.0810156   18.7803204   18.4544320
| 19>     C       17.8415140   17.5156508   17.7303201
| 20>     C       17.2294568   16.4012439   18.5647829
| 21>     C       17.7576844   15.0989910   18.4981466
| 22>     C       17.1892013   14.0592420   19.2527464
| 23>     C       16.0851595   14.3247979   20.0809546
| 24>     C       15.5602812   15.6225011   20.1525210
| 25>     O       14.4913161   15.8808170   20.9465425
| 26>     C       16.1281598   16.6556920   19.4003565
| 27>     H       14.7742253   17.1755140   17.0336539
| 28>     H       13.4273371   16.2457154   16.3989440
| 29>     H       14.3565635   17.2707673   15.2980182
| 30>     H       15.6088302   14.8989918   16.7972008
| 31>     H       14.7840097   14.6726267   15.2574935
| 32>     H       15.9469044   18.6221486   14.0518677
| 33>     H       17.4145783   19.6019776   13.9721358
| 34>     H       15.8933922   20.3168954   14.5474924
| 35>     H       16.6928614   20.9991461   16.5615666
| 36>     H       18.5302055   18.7595897   19.3615400
| 37>     H       18.8797253   17.2466423   17.4840056
| 38>     H       18.6077006   14.8903340   17.8521456
| 39>     H       17.6041899   13.0540999   19.1938597
| 40>     H       15.6427269   13.5243767   20.6652459
| 41>     H       14.2777569   15.0654565   21.4252311
| 42>     H       15.7071753   17.6538793   19.4681294
| 43> *
| 44>
| 45>                          ****END OF INPUT****

CARTESIAN COORDINATES (ANGSTROEM)
---------------------------------
  C     14.437224   16.603624   16.163947
  C     15.352609   15.397612   15.854181
  O     16.565588   15.720148   15.125270
  C     17.474472   16.731868   15.327180
  O     18.480841   16.812815   14.648633
  C     17.174161   17.743397   16.372675
  C     16.887114   19.001888   15.972762
  C     16.510472   19.410556   14.565234
  N     16.989467   20.080888   16.852046
  C     17.605801   20.012733   18.074416
  S     17.797281   21.347054   19.032322
  N     18.081016   18.780320   18.454432
  C     17.841514   17.515651   17.730320
  C     17.229457   16.401244   18.564783
  C     17.757684   15.098991   18.498147
  C     17.189201   14.059242   19.252746
  C     16.085159   14.324798   20.080955
  C     15.560281   15.622501   20.152521
  O     14.491316   15.880817   20.946542
  C     16.128160   16.655692   19.400357
  H     14.774225   17.175514   17.033654
  H     13.427337   16.245715   16.398944
  H     14.356563   17.270767   15.298018
  H     15.608830   14.898992   16.797201
  H     14.784010   14.672627   15.257493
  H     15.946904   18.622149   14.051868
  H     17.414578   19.601978   13.972136
  H     15.893392   20.316895   14.547492
  H     16.692861   20.999146   16.561567
  H     18.530206   18.759590   19.361540
  H     18.879725   17.246642   17.484006
  H     18.607701   14.890334   17.852146
  H     17.604190   13.054100   19.193860
  H     15.642727   13.524377   20.665246
  H     14.277757   15.065456   21.425231
  H     15.707175   17.653879   19.468129

 Total Charge           Charge          ....    0
 Multiplicity           Mult            ....    1
 Number of Electrons    NEL             ....  154
 Basis Dimension        Dim             ....  828

ORBITAL ENERGIES
----------------

  NO   OCC          E(Eh)            E(eV)
   0   2.0000     -91.888924     -2500.4248
   1   2.0000     -20.606143      -560.7217
   2   2.0000     -20.597697      -560.4918
   3   2.0000     -20.551015      -559.2216
   4   2.0000     -15.624520      -425.1648
   5   2.0000     -15.610705      -424.7889
   6   2.0000     -11.398786      -310.1767
   7   2.0000     -11.384843      -309.7973
   8   2.0000     -11.324914      -308.1666
   9   2.0000     -11.323059      -308.1161
  10   2.0000     -11.316173      -307.9287
  11   2.0000     -11.305684      -307.6433
  12   2.0000     -11.272333      -306.7358
  13   2.0000     -11.265842      -306.5592
  14   2.0000     -11.258677      -306.3642
  15   2.0000     -11.255320      -306.2728
  16   2.0000     -11.254237      -306.2433
  17   2.0000     -11.249392      -306.1115
  18   2.0000     -11.249175      -306.1056
  19   2.0000     -11.233066      -305.6673
  20   2.0000      -8.894021      -242.0186
  21   2.0000      -6.575603      -178.9313
  22   2.0000      -6.573593      -178.8766
  23   2.0000      -6.573012      -178.8607
  24   2.0000      -1.442355       -39.2485
  25   2.0000      -1.425870       -38.7999
  26   2.0000      -1.357620       -36.9427
  27   2.0000      -1.338084       -36.4111
  28   2.0000      -1.238529       -33.7021
  29   2.0000      -1.168305       -31.7912
  30   2.0000      -1.126270       -30.6474
  31   2.0000      -1.052551       -28.6414
  32   2.0000      -1.036372       -28.2011
  33   2.0000      -1.026526       -27.9332
  34   2.0000      -1.004883       -27.3442
  35   2.0000      -0.990197       -26.9446
  36   2.0000      -0.927740       -25.2451
  37   2.0000      -0.899025       -24.4637
  38   2.0000      -0.851843       -23.1798
  39   2.0000      -0.845464       -23.0062
  40   2.0000      -0.843554       -22.9543
  41   2.0000      -0.829538       -22.5729
  42   2.0000      -0.751088       -20.4382
  43   2.0000      -0.739995       -20.1363
  44   2.0000      -0.724231       -19.7073
  45   2.0000      -0.704782       -19.1781
  46   2.0000      -0.692206       -18.8359
  47   2.0000      -0.678336       -18.4584
  48   2.0000      -0.676352       -18.4045
  49   2.0000      -0.662515       -18.0279
  50   2.0000      -0.654117       -17.7994
  51   2.0000      -0.649600       -17.6765
  52   2.0000      -0.637704       -17.3528
  53   2.0000      -0.617176       -16.7942
  54   2.0000      -0.611573       -16.6418
  55   2.0000      -0.606659       -16.5080
  56   2.0000      -0.606011       -16.4904
  57   2.0000      -0.585654       -15.9364
  58   2.0000      -0.578915       -15.7531
  59   2.0000      -0.576535       -15.6883
  60   2.0000      -0.566459       -15.4141
  61   2.0000      -0.555269       -15.1096
  62   2.0000      -0.540093       -14.6967
  63   2.0000      -0.534837       -14.5537
  64   2.0000      -0.524833       -14.2814
  65   2.0000      -0.515412       -14.0251
  66   2.0000      -0.504964       -13.7408
  67   2.0000      -0.503785       -13.7087
  68   2.0000      -0.492295       -13.3960
  69   2.0000      -0.462651       -12.5894
  70   2.0000      -0.453883       -12.3508
  71   2.0000      -0.448548       -12.2056
  72   2.0000      -0.359661        -9.7869
  73   2.0000      -0.349575        -9.5124
  74   2.0000      -0.333248        -9.0681
  75   2.0000      -0.328125        -8.9287
  76   2.0000      -0.317769        -8.6469
  77   0.0000       0.088259         2.4017
  78   0.0000       0.097776         2.6606
  79   0.0000       0.120116         3.2685
  80   0.0000       0.126854         3.4519
  81   0.0000       0.127245         3.4625

MULLIKEN ATOMIC CHARGES
-----------------------
   0 C :   -0.328513
   1 C :    0.038809
   2 O :   -0.322605
   3 C :    0.411620
   4 O :   -0.380358
   5 C :   -0.223700
   6 C :    0.153423
   7 C :   -0.301478
   8 N :   -0.137756
   9 C :    0.215170
  10 S :   -0.443474
  11 N :   -0.226891
  12 C :    0.064145
  13 C :    0.010057
  14 C :   -0.225175
  15 C :   -0.128051
  16 C :   -0.275171
  17 C :    0.319973
  18 O :   -0.353033
  19 C :   -0.252149
  20 H :    0.116688
  21 H :    0.119410
  22 H :    0.101998
  23 H :    0.100394
  24 H :    0.125550
  25 H :    0.113020
  26 H :    0.148274
  27 H :    0.100979
  28 H :    0.196965
  29 H :    0.202225
  30 H :    0.168340
  31 H :    0.163601
  32 H :    0.166651
  33 H :    0.135589
  34 H :    0.242175
  35 H :    0.183297
Sum of atomic charges:   -0.0000000

LOEWDIN ATOMIC CHARGES
----------------------
   0 C :    0.100970
   1 C :   -0.010601
   2 O :    0.294705
   3 C :   -0.417722
   4 O :    0.125815
   5 C :   -0.085611
   6 C :   -0.091017
   7 C :    0.128258
   8 N :    0.403782
   9 C :   -0.453813
  10 S :   -0.038845
  11 N :    0.395640
  12 C :   -0.054758
  13 C :   -0.044429
  14 C :    0.016921
  15 C :    0.044120
  16 C :    0.001099
  17 C :   -0.190219
  18 O :    0.397800
  19 C :    0.032139
  20 H :   -0.035458
  21 H :   -0.022730
  22 H :   -0.031005
  23 H :   -0.031345
  24 H :   -0.020279
  25 H :   -0.012670
  26 H :   -0.003645
  27 H :   -0.019023
  28 H :   -0.058651
  29 H :   -0.064735
  30 H :   -0.005891
  31 H :   -0.024366
  32 H :   -0.017804
  33 H :   -0.033193
  34 H :   -0.151928
  35 H :   -0.021510

  Mayer bond orders larger than 0.100000
B(  0-C ,  1-C ) :   0.9545 B(  0-C , 20-H ) :   0.9701 B(  0-C , 21-H ) :   0.9775
B(  0-C , 22-H ) :   0.9759 B(  1-C ,  2-O ) :   0.9057 B(  1-C , 23-H ) :   0.9702
B(  1-C , 24-H ) :   0.9829 B(  2-O ,  3-C ) :   1.1962 B(  3-C ,  4-O ) :   2.1197
B(  3-C ,  5-C ) :   0.9095 B(  5-C ,  6-C ) :   1.7250 B(  5-C , 12-C ) :   0.9384
B(  6-C ,  7-C ) :   0.9426 B(  6-C ,  8-N ) :   1.1142 B(  7-C , 25-H ) :   0.9790
B(  7-C , 26-H ) :   0.9599 B(  7-C , 27-H ) :   0.9825 B(  8-N ,  9-C ) :   1.2045
B(  8-N , 28-H ) :   0.9501 B(  9-C , 10-S ) :   1.6089 B(  9-C , 11-N ) :   1.2821
B( 11-N , 12-C ) :   0.9780 B( 11-N , 29-H ) :   0.9467 B( 12-C , 13-C ) :   0.9530
B( 12-C , 30-H ) :   0.9992 B( 13-C , 14-C ) :   1.3711 B( 13-C , 19-C ) :   1.3481
B( 14-C , 15-C ) :   1.3989 B( 14-C , 31-H ) :   0.9700 B( 15-C , 16-C ) :   1.3605
B( 15-C , 32-H ) :   0.9693 B( 16-C , 17-C ) :   1.3297 B( 16-C , 33-H ) :   0.9834
B( 17-C , 18-O ) :   1.1136 B( 17-C , 19-C ) :   1.3599 B( 18-O , 34-H ) :   0.9783
B( 19-C , 35-H ) :   0.9526

MP2 TOTAL ENERGY:    -1274.318516183 Eh
FINAL SINGLE POINT ENERGY     -1274.318516182624

DIPOLE MOMENT
-------------
                                X             Y             Z
Electronic contribution:      8.68429       6.55962       6.20443
Nuclear contribution   :    -10.25393      -8.34105      -6.08131
                        -----------------------------------------
Total Dipole Moment    :     -1.56964      -1.78142       0.12312
                        -----------------------------------------
Magnitude (a.u.)       :      2.37748
Magnitude (Debye)      :      6.04307

Rotational constants in cm-1:     0.012352     0.009064     0.006470
Rotational constants in MHz :   370.302862   271.732504   193.973138

                             ****ORCA TERMINATED NORMALLY****
TOTAL RUN TIME: 0 days 1 hours 45 minutes 36 seconds 357 msec
