                         Program Version 4.2.0 -  RELEASE  -
|  1> ! ri-mp2 cc-pvtz cc-pvtz/c TightSCF NoKeepInts
|  2>
|  3> %scf
|  4>   MaxCore 4096
|  5> end
|  6> *xyz  0  1
|  7>     C       14.4485324   14.5579227   15.4300564
|  8>     C       15.1182744   15.7658998   16.1045606
|  9>     O       16.3807938   15.9701878   15.4437005
| 10>     C       16.7943772   17.2465669   15.2005077
| 11>     O       16.9463750   17.6351694   14.0572309
| 12>     C       16.9977985   18.1054473   16.4170490
| 13>     C       16.9163552   19.4535061   16.2859415
| 14>     C       16.2465088   20.2122503   15.1592386
| 15>     N       17.4589515   20.3111795   17.2442606
| 16>     C       18.3169646   19.9120284   18.2326767
| 17>     S       19.0289336   20.9903145   19.2646642
| 18>     N       18.5756984   18.5665390   18.3073277
| 19>     C       17.8835061   17.5186682   17.5317856
| 20>     C       17.2543729   16.4589886   18.4209570
| 21>     C       17.6700720   15.1170226   18.3412822
| 22>     C       17.0866030   14.1408090   19.1662459
| 23>     C       16.0866299   14.5112485   20.0820233
| 24>     C       15.6790228   15.8494980   20.1701742
| 25>     O       14.7121383   16.2095200   21.0507157
| 26>     C       16.2585191   16.8189037   19.3453127
| 27>     H       13.4678450   14.3594736   15.8790399
| 28>     H       15.0681769   13.6599226   15.5458103
| 29>     H       14.3060584   14.7437414   14.3579204
| 30>     H       14.4695790   16.6446666   15.9867264
| 31>     H       15.2423233   15.5622594   17.1719273
| 32>     H       15.3641400   19.6750140   14.7898187
| 33>     H       16.9358740   20.3266476   14.3123014
| 34>     H       15.9134113   21.2117406   15.4631321
| 35>     H       17.3099183   21.3050837   17.1704116
| 36>     H       19.2007929   18.2994539   19.0577320
| 37>     H       18.7488018   17.0934841   17.0028670
| 38>     H       18.4388726   14.8276696   17.6289316
| 39>     H       17.4097973   13.1034369   19.0941665
| 40>     H       15.6340251   13.7599735   20.7211956
| 41>     H       14.4816501   15.4242373   21.5702131
| 42>     H       15.9353064   17.8515248   19.4300951
| 43> *
| 44>
| 45>                          ****END OF INPUT****

CARTESIAN COORDINATES (ANGSTROEM)
---------------------------------
  C     14.448532   14.557923   15.430056
  C     15.118274   15.765900   16.104561
  O     16.380794   15.970188   15.443700
  C     16.794377   17.246567   15.200508
  O     16.946375   17.635169   14.057231
  C     16.997798   18.105447   16.417049
  C     16.916355   19.453506   16.285941
  C     16.246509   20.212250   15.159239
  N     17.458951   20.311180   17.244261
  C     18.316965   19.912028   18.232677
  S     19.028934   20.990314   19.264664
  N     18.575698   18.566539   18.307328
  C     17.883506   17.518668   17.531786
  C     17.254373   16.458989   18.420957
  C     17.670072   15.117023   18.341282
  C     17.086603   14.140809   19.166246
  C     16.086630   14.511248   20.082023
  C     15.679023   15.849498   20.170174
  O     14.712138   16.209520   21.050716
  C     16.258519   16.818904   19.345313
  H     13.467845   14.359474   15.879040
  H     15.068177   13.659923   15.545810
  H     14.306058   14.743741   14.357920
  H     14.469579   16.644667   15.986726
  H     15.242323   15.562259   17.171927
  H     15.364140   19.675014   14.789819
  H     16.935874   20.326648   14.312301
  H     15.913411   21.211741   15.463132
  H     17.309918   21.305084   17.170412
  H     19.200793   18.299454   19.057732
  H     18.748802   17.093484   17.002867
  H     18.438873   14.827670   17.628932
  H     17.409797   13.103437   19.094166
  H     15.634025   13.759973   20.721196
  H     14.481650   15.424237   21.570213
  H     15.935306   17.851525   19.430095

 Total Charge           Charge          ....    0
 Multiplicity           Mult            ....    1
 Number of Electrons    NEL             ....  154
 Basis Dimension        Dim             ....  828

ORBITAL ENERGIES
----------------

  NO   OCC          E(Eh)            E(eV)
   0   2.0000     -91.891273     -2500.4886
   1   2.0000     -20.603577      -560.6518
   2   2.0000     -20.587259      -560.2078
   3   2.0000     -20.550698      -559.2129
   4   2.0000     -15.629829      -425.3093
   5   2.0000     -15.610576      -424.7854
   6   2.0000     -11.392701      -310.0111
   7   2.0000     -11.385908      -309.8263
   8   2.0000     -11.335480      -308.4541
   9   2.0000     -11.321796      -308.0817
  10   2.0000     -11.315073      -307.8988
  11   2.0000     -11.296408      -307.3909
  12   2.0000     -11.267777      -306.6118
  13   2.0000     -11.262907      -306.4793
  14   2.0000     -11.258036      -306.3467
  15   2.0000     -11.254967      -306.2632
  16   2.0000     -11.252052      -306.1839
  17   2.0000     -11.246452      -306.0315
  18   2.0000     -11.246124      -306.0226
  19   2.0000     -11.226526      -305.4893
  20   2.0000      -8.896326      -242.0813
  21   2.0000      -6.577892      -178.9936
  22   2.0000      -6.575899      -178.9393
  23   2.0000      -6.575302      -178.9231
  24   2.0000      -1.447454       -39.3872
  25   2.0000      -1.423365       -38.7317
  26   2.0000      -1.357325       -36.9347
  27   2.0000      -1.342412       -36.5289
  28   2.0000      -1.241342       -33.7786
  29   2.0000      -1.165018       -31.7018
  30   2.0000      -1.123866       -30.5819
  31   2.0000      -1.049360       -28.5545
  32   2.0000      -1.034422       -28.1481
  33   2.0000      -1.022957       -27.8361
  34   2.0000      -1.001515       -27.2526
  35   2.0000      -0.988481       -26.8979
  36   2.0000      -0.926630       -25.2149
  37   2.0000      -0.875431       -23.8217
  38   2.0000      -0.851706       -23.1761
  39   2.0000      -0.844079       -22.9685
  40   2.0000      -0.841850       -22.9079
  41   2.0000      -0.836114       -22.7518
  42   2.0000      -0.761084       -20.7101
  43   2.0000      -0.739158       -20.1135
  44   2.0000      -0.725671       -19.7465
  45   2.0000      -0.702092       -19.1049
  46   2.0000      -0.691436       -18.8149
  47   2.0000      -0.679087       -18.4789
  48   2.0000      -0.674313       -18.3490
  49   2.0000      -0.663649       -18.0588
  50   2.0000      -0.650280       -17.6950
  51   2.0000      -0.648963       -17.6592
  52   2.0000      -0.639128       -17.3916
  53   2.0000      -0.613744       -16.7008
  54   2.0000      -0.608328       -16.5534
  55   2.0000      -0.603782       -16.4298
  56   2.0000      -0.594806       -16.1855
  57   2.0000      -0.582568       -15.8525
  58   2.0000      -0.574946       -15.6451
  59   2.0000      -0.567372       -15.4390
  60   2.0000      -0.561212       -15.2714
  61   2.0000      -0.549923       -14.9642
  62   2.0000      -0.543517       -14.7899
  63   2.0000      -0.529561       -14.4101
  64   2.0000      -0.519005       -14.1228
  65   2.0000      -0.514077       -13.9888
  66   2.0000      -0.505187       -13.7468
  67   2.0000      -0.499231       -13.5848
  68   2.0000      -0.485156       -13.2018
  69   2.0000      -0.469456       -12.7745
  70   2.0000      -0.453146       -12.3307
  71   2.0000      -0.451232       -12.2786
  72   2.0000      -0.357466        -9.7271
  73   2.0000      -0.353887        -9.6298
  74   2.0000      -0.331411        -9.0181
  75   2.0000      -0.328868        -8.9490
  76   2.0000      -0.321060        -8.7365
  77   0.0000       0.075845         2.0639
  78   0.0000       0.097146         2.6435
  79   0.0000       0.120768         3.2863
  80   0.0000       0.127898         3.4803
  81   0.0000       0.128265         3.4903

MULLIKEN ATOMIC CHARGES
-----------------------
   0 C :   -0.256188
   1 C :    0.020162
   2 O :   -0.341963
   3 C :    0.411973
   4 O :   -0.370135
   5 C :   -0.238091
   6 C :    0.169166
   7 C :   -0.271069
   8 N :   -0.129821
   9 C :    0.208931
  10 S :   -0.437833
  11 N :   -0.207792
  12 C :    0.034103
  13 C :   -0.016230
  14 C :   -0.159676
  15 C :   -0.136949
  16 C :   -0.270398
  17 C :    0.302126
  18 O :   -0.356310
  19 C :   -0.221040
  20 H :    0.085978
  21 H :    0.095788
  22 H :    0.105190
  23 H :    0.091384
  24 H :    0.115871
  25 H :    0.118696
  26 H :    0.140175
  27 H :    0.095867
  28 H :    0.199650
  29 H :    0.199693
  30 H :    0.153548
  31 H :    0.155441
  32 H :    0.164669
  33 H :    0.134828
  34 H :    0.241669
  35 H :    0.168585
Sum of atomic charges:    0.0000000

LOEWDIN ATOMIC CHARGES
----------------------
   0 C :    0.109786
   1 C :   -0.021370
   2 O :    0.300443
   3 C :   -0.428669
   4 O :    0.127904
   5 C :   -0.102407
   6 C :   -0.064452
   7 C :    0.129338
   8 N :    0.406924
   9 C :   -0.457176
  10 S :   -0.033448
  11 N :    0.395611
  12 C :   -0.054178
  13 C :   -0.045613
  14 C :    0.019919
  15 C :    0.042469
  16 C :    0.001061
  17 C :   -0.192633
  18 O :    0.396777
  19 C :    0.033009
  20 H :   -0.027197
  21 H :   -0.026560
  22 H :   -0.023956
  23 H :   -0.033944
  24 H :   -0.033802
  25 H :   -0.008337
  26 H :   -0.004075
  27 H :   -0.022029
  28 H :   -0.056388
  29 H :   -0.063418
  30 H :   -0.011197
  31 H :   -0.026395
  32 H :   -0.018780
  33 H :   -0.033480
  34 H :   -0.152362
  35 H :   -0.021376

  Mayer bond orders larger than 0.100000
B(  0-C ,  1-C ) :   0.9855 B(  0-C , 20-H ) :   0.9766 B(  0-C , 21-H ) :   0.9789
B(  0-C , 22-H ) :   0.9785 B(  1-C ,  2-O ) :   0.8852 B(  1-C , 23-H ) :   0.9757
B(  1-C , 24-H ) :   0.9646 B(  2-O ,  3-C ) :   1.1456 B(  3-C ,  4-O ) :   2.1062
B(  3-C ,  5-C ) :   0.9875 B(  5-C ,  6-C ) :   1.6476 B(  5-C , 12-C ) :   0.9673
B(  6-C ,  7-C ) :   0.9590 B(  6-C ,  8-N ) :   1.1445 B(  7-C , 25-H ) :   0.9728
B(  7-C , 26-H ) :   0.9543 B(  7-C , 27-H ) :   0.9855 B(  8-N ,  9-C ) :   1.1906
B(  8-N , 28-H ) :   0.9482 B(  9-C , 10-S ) :   1.6144 B(  9-C , 11-N ) :   1.2962
B( 11-N , 12-C ) :   0.9779 B( 11-N , 29-H ) :   0.9480 B( 12-C , 13-C ) :   0.9554
B( 12-C , 30-H ) :   1.0072 B( 13-C , 14-C ) :   1.3660 B( 13-C , 19-C ) :   1.3697
B( 14-C , 15-C ) :   1.3938 B( 14-C , 31-H ) :   0.9693 B( 15-C , 16-C ) :   1.3601
B( 15-C , 32-H ) :   0.9700 B( 16-C , 17-C ) :   1.3299 B( 16-C , 33-H ) :   0.9836
B( 17-C , 18-O ) :   1.1094 B( 17-C , 19-C ) :   1.3656 B( 18-O , 34-H ) :   0.9787
B( 19-C , 35-H ) :   0.9589

MP2 TOTAL ENERGY:    -1274.323366819 Eh
FINAL SINGLE POINT ENERGY     -1274.323366819418

DIPOLE MOMENT
-------------
                                X             Y             Z
Electronic contribution:     10.30050       9.95741       6.91807
Nuclear contribution   :    -11.70150     -11.46472      -6.59945
                        -----------------------------------------
Total Dipole Moment    :     -1.40100      -1.50731       0.31862
                        -----------------------------------------
Magnitude (a.u.)       :      2.08238
Magnitude (Debye)      :      5.29299

Rotational constants in cm-1:     0.012057     0.008796     0.005947
Rotational constants in MHz :   361.462366   263.684092   178.285964

                             ****ORCA TERMINATED NORMALLY****
TOTAL RUN TIME: 0 days 1 hours 47 minutes 47 seconds 431 msec
