                         Program Version 4.2.0 -  RELEASE  -
|  1> ! ri-mp2 cc-pvtz cc-pvtz/c TightSCF NoKeepInts
|  2>
|  3> %scf
|  4>   MaxCore 4096
|  5> end
|  6> *xyz  0  1
|  7>     C       14.6756484   14.8122850   15.2925163
|  8>     C       15.0062845   15.8847958   14.2283731
|  9>     O       15.8827415   16.9280902   14.7170619
| 10>     C       16.8528669   16.7227312   15.6578817
| 11>     O       17.4708284   15.6750793   15.7467119
| 12>     C       17.0522601   17.8609639   16.6187095
| 13>     C       16.8328915   19.1603905   16.2843365
| 14>     C       16.1602355   19.7033189   15.0387535
| 15>     N       17.2830855   20.1941613   17.1097378
| 16>     C       18.1393902   20.0276039   18.1644551
| 17>     S       18.7148884   21.3124227   19.0325838
| 18>     N       18.5119252   18.7387141   18.4498043
| 19>     C       17.9547925   17.5292345   17.8137419
| 20>     C       17.3111107   16.5701932   18.8066664
| 21>     C       17.7197000   15.2260032   18.8733756
| 22>     C       17.1221552   14.3417627   19.7871249
| 23>     C       16.1080357   14.8061724   20.6422332
| 24>     C       15.6973955   16.1447675   20.5762068
| 25>     O       14.7149487   16.5945065   21.3970796
| 26>     C       16.2935717   17.0222460   19.6648840
| 27>     H       15.5237668   14.1390621   15.4670038
| 28>     H       13.8350338   14.1939799   14.9554966
| 29>     H       14.3928825   15.2765023   16.2457589
| 30>     H       15.4817965   15.3864179   13.3733719
| 31>     H       14.0759060   16.3423613   13.8684233
| 32>     H       15.1094844   19.3904879   14.9979642
| 33>     H       16.6598540   19.3349537   14.1339352
| 34>     H       16.1756406   20.7989046   14.9890678
| 35>     H       17.0361621   21.1479132   16.8995403
| 36>     H       19.1271311   18.6406934   19.2475706
| 37>     H       18.8690600   17.0908278   17.3876680
| 38>     H       18.4928492   14.8627114   18.2003046
| 39>     H       17.4422925   13.3020937   19.8249920
| 40>     H       15.6428901   14.1263104   21.3481704
| 41>     H       14.4533214   15.8560501   21.9671818
| 42>     H       15.9641729   18.0552872   19.6293128
| 43> *
| 44>
| 45>                          ****END OF INPUT****

CARTESIAN COORDINATES (ANGSTROEM)
---------------------------------
  C     14.675648   14.812285   15.292516
  C     15.006284   15.884796   14.228373
  O     15.882741   16.928090   14.717062
  C     16.852867   16.722731   15.657882
  O     17.470828   15.675079   15.746712
  C     17.052260   17.860964   16.618710
  C     16.832891   19.160390   16.284336
  C     16.160235   19.703319   15.038754
  N     17.283085   20.194161   17.109738
  C     18.139390   20.027604   18.164455
  S     18.714888   21.312423   19.032584
  N     18.511925   18.738714   18.449804
  C     17.954792   17.529235   17.813742
  C     17.311111   16.570193   18.806666
  C     17.719700   15.226003   18.873376
  C     17.122155   14.341763   19.787125
  C     16.108036   14.806172   20.642233
  C     15.697396   16.144768   20.576207
  O     14.714949   16.594507   21.397080
  C     16.293572   17.022246   19.664884
  H     15.523767   14.139062   15.467004
  H     13.835034   14.193980   14.955497
  H     14.392882   15.276502   16.245759
  H     15.481796   15.386418   13.373372
  H     14.075906   16.342361   13.868423
  H     15.109484   19.390488   14.997964
  H     16.659854   19.334954   14.133935
  H     16.175641   20.798905   14.989068
  H     17.036162   21.147913   16.899540
  H     19.127131   18.640693   19.247571
  H     18.869060   17.090828   17.387668
  H     18.492849   14.862711   18.200305
  H     17.442292   13.302094   19.824992
  H     15.642890   14.126310   21.348170
  H     14.453321   15.856050   21.967182
  H     15.964173   18.055287   19.629313

 Total Charge           Charge          ....    0
 Multiplicity           Mult            ....    1
 Number of Electrons    NEL             ....  154
 Basis Dimension        Dim             ....  828

ORBITAL ENERGIES
----------------

  NO   OCC          E(Eh)            E(eV)
   0   2.0000     -91.887698     -2500.3914
   1   2.0000     -20.596508      -560.4595
   2   2.0000     -20.592476      -560.3498
   3   2.0000     -20.545913      -559.0827
   4   2.0000     -15.628020      -425.2600
   5   2.0000     -15.605493      -424.6470
   6   2.0000     -11.396492      -310.1143
   7   2.0000     -11.382272      -309.7274
   8   2.0000     -11.337252      -308.5023
   9   2.0000     -11.308543      -307.7211
  10   2.0000     -11.305320      -307.6334
  11   2.0000     -11.303941      -307.5959
  12   2.0000     -11.260134      -306.4038
  13   2.0000     -11.258173      -306.3505
  14   2.0000     -11.255584      -306.2800
  15   2.0000     -11.248584      -306.0895
  16   2.0000     -11.238766      -305.8224
  17   2.0000     -11.234842      -305.7156
  18   2.0000     -11.231490      -305.6244
  19   2.0000     -11.226767      -305.4959
  20   2.0000      -8.892786      -241.9850
  21   2.0000      -6.574364      -178.8975
  22   2.0000      -6.572360      -178.8430
  23   2.0000      -6.571774      -178.8270
  24   2.0000      -1.448360       -39.4119
  25   2.0000      -1.412234       -38.4288
  26   2.0000      -1.355681       -36.8899
  27   2.0000      -1.339377       -36.4463
  28   2.0000      -1.236664       -33.6513
  29   2.0000      -1.152905       -31.3721
  30   2.0000      -1.120232       -30.4831
  31   2.0000      -1.042305       -28.3626
  32   2.0000      -1.033249       -28.1161
  33   2.0000      -1.010472       -27.4963
  34   2.0000      -0.998510       -27.1708
  35   2.0000      -0.983443       -26.7608
  36   2.0000      -0.921114       -25.0648
  37   2.0000      -0.897401       -24.4195
  38   2.0000      -0.847617       -23.0648
  39   2.0000      -0.835522       -22.7357
  40   2.0000      -0.828727       -22.5508
  41   2.0000      -0.816902       -22.2290
  42   2.0000      -0.744781       -20.2665
  43   2.0000      -0.731801       -19.9133
  44   2.0000      -0.726036       -19.7564
  45   2.0000      -0.690260       -18.7829
  46   2.0000      -0.685271       -18.6472
  47   2.0000      -0.677663       -18.4401
  48   2.0000      -0.670153       -18.2358
  49   2.0000      -0.660466       -17.9722
  50   2.0000      -0.650758       -17.7080
  51   2.0000      -0.644107       -17.5270
  52   2.0000      -0.631353       -17.1800
  53   2.0000      -0.618641       -16.8341
  54   2.0000      -0.603147       -16.4125
  55   2.0000      -0.598619       -16.2892
  56   2.0000      -0.595795       -16.2124
  57   2.0000      -0.576639       -15.6911
  58   2.0000      -0.573664       -15.6102
  59   2.0000      -0.564074       -15.3492
  60   2.0000      -0.555443       -15.1144
  61   2.0000      -0.545490       -14.8435
  62   2.0000      -0.537972       -14.6390
  63   2.0000      -0.525609       -14.3025
  64   2.0000      -0.515798       -14.0356
  65   2.0000      -0.509713       -13.8700
  66   2.0000      -0.500472       -13.6185
  67   2.0000      -0.494179       -13.4473
  68   2.0000      -0.479279       -13.0418
  69   2.0000      -0.463478       -12.6119
  70   2.0000      -0.457110       -12.4386
  71   2.0000      -0.448605       -12.2072
  72   2.0000      -0.352454        -9.5908
  73   2.0000      -0.345120        -9.3912
  74   2.0000      -0.326828        -8.8934
  75   2.0000      -0.316852        -8.6220
  76   2.0000      -0.315134        -8.5752
  77   0.0000       0.076772         2.0891
  78   0.0000       0.110500         3.0069
  79   0.0000       0.121843         3.3155
  80   0.0000       0.135246         3.6802
  81   0.0000       0.140737         3.8297

MULLIKEN ATOMIC CHARGES
-----------------------
   0 C :   -0.315139
   1 C :    0.054322
   2 O :   -0.362236
   3 C :    0.438250
   4 O :   -0.419546
   5 C :   -0.174493
   6 C :    0.152547
   7 C :   -0.279613
   8 N :   -0.127869
   9 C :    0.208193
  10 S :   -0.442927
  11 N :   -0.211440
  12 C :    0.042876
  13 C :    0.034189
  14 C :   -0.174573
  15 C :   -0.133457
  16 C :   -0.277741
  17 C :    0.314905
  18 O :   -0.358777
  19 C :   -0.254568
  20 H :    0.128324
  21 H :    0.099415
  22 H :    0.100541
  23 H :    0.095818
  24 H :    0.099338
  25 H :    0.126960
  26 H :    0.126697
  27 H :    0.101238
  28 H :    0.198662
  29 H :    0.199806
  30 H :    0.156330
  31 H :    0.160833
  32 H :    0.160279
  33 H :    0.128575
  34 H :    0.240000
  35 H :    0.164280
Sum of atomic charges:   -0.0000000

LOEWDIN ATOMIC CHARGES
----------------------
   0 C :    0.105583
   1 C :   -0.010667
   2 O :    0.293809
   3 C :   -0.415757
   4 O :    0.111151
   5 C :   -0.092698
   6 C :   -0.064723
   7 C :    0.125186
   8 N :    0.405359
   9 C :   -0.458443
  10 S :   -0.038160
  11 N :    0.396426
  12 C :   -0.048287
  13 C :   -0.040778
  14 C :    0.024524
  15 C :    0.040597
  16 C :   -0.001335
  17 C :   -0.192864
  18 O :    0.393170
  19 C :    0.029254
  20 H :   -0.024030
  21 H :   -0.026252
  22 H :   -0.026504
  23 H :   -0.028931
  24 H :   -0.025998
  25 H :   -0.009756
  26 H :   -0.008661
  27 H :   -0.021435
  28 H :   -0.058798
  29 H :   -0.063312
  30 H :   -0.008201
  31 H :   -0.023857
  32 H :   -0.021009
  33 H :   -0.036106
  34 H :   -0.154794
  35 H :   -0.023704

  Mayer bond orders larger than 0.100000
B(  0-C ,  1-C ) :   0.9609 B(  0-C , 20-H ) :   0.9719 B(  0-C , 21-H ) :   0.9755
B(  0-C , 22-H ) :   0.9734 B(  1-C ,  2-O ) :   0.9049 B(  1-C , 23-H ) :   0.9828
B(  1-C , 24-H ) :   0.9822 B(  2-O ,  3-C ) :   1.1170 B(  3-C ,  4-O ) :   1.9900
B(  3-C ,  5-C ) :   1.0323 B(  5-C ,  6-C ) :   1.6595 B(  5-C , 12-C ) :   0.9475
B(  6-C ,  7-C ) :   0.9556 B(  6-C ,  8-N ) :   1.1389 B(  7-C , 25-H ) :   0.9642
B(  7-C , 26-H ) :   0.9649 B(  7-C , 27-H ) :   0.9908 B(  8-N ,  9-C ) :   1.1854
B(  8-N , 28-H ) :   0.9470 B(  9-C , 10-S ) :   1.6079 B(  9-C , 11-N ) :   1.3056
B( 11-N , 12-C ) :   0.9772 B( 11-N , 29-H ) :   0.9485 B( 12-C , 13-C ) :   0.9715
B( 12-C , 30-H ) :   0.9969 B( 13-C , 14-C ) :   1.3775 B( 13-C , 19-C ) :   1.3645
B( 14-C , 15-C ) :   1.3965 B( 14-C , 31-H ) :   0.9630 B( 15-C , 16-C ) :   1.3590
B( 15-C , 32-H ) :   0.9710 B( 16-C , 17-C ) :   1.3333 B( 16-C , 33-H ) :   0.9858
B( 17-C , 18-O ) :   1.1039 B( 17-C , 19-C ) :   1.3665 B( 18-O , 34-H ) :   0.9806
B( 19-C , 35-H ) :   0.9599

MP2 TOTAL ENERGY:    -1274.333159704 Eh
FINAL SINGLE POINT ENERGY     -1274.333159704423

DIPOLE MOMENT
-------------
                                X             Y             Z
Electronic contribution:      9.31669      10.25011       9.51169
Nuclear contribution   :    -10.81586     -11.54936     -10.58405
                        -----------------------------------------
Total Dipole Moment    :     -1.49917      -1.29925      -1.07237
                        -----------------------------------------
Magnitude (a.u.)       :      2.25511
Magnitude (Debye)      :      5.73204

Rotational constants in cm-1:     0.010421     0.009240     0.005798
Rotational constants in MHz :   312.409278   277.001659   173.810448

                             ****ORCA TERMINATED NORMALLY****
TOTAL RUN TIME: 0 days 1 hours 43 minutes 28 seconds 267 msec
