                         Program Version 4.2.0 -  RELEASE  -
|  1> ! ri-mp2 cc-pvtz cc-pvtz/c TightSCF NoKeepInts
|  2>
|  3> %scf
|  4>   MaxCore 4096
|  5> end
|  6> *xyz  0  1
|  7>     C       14.4323342   15.1234868   15.0220683
|  8>     C       15.7606646   14.8529138   15.7605086
|  9>     O       16.7448261   15.9114338   15.6433601
| 10>     C       16.4395607   17.2305631   15.4384411
| 11>     O       15.7907763   17.6126471   14.4804840
| 12>     C       16.9620726   18.1206040   16.5357676
| 13>     C       16.9642731   19.4717701   16.3962652
| 14>     C       16.2548458   20.2857289   15.3336771
| 15>     N       17.6776634   20.2860332   17.2789056
| 16>     C       18.5627753   19.8247170   18.2150379
| 17>     S       19.4450374   20.8495270   19.1674649
| 18>     N       18.6972118   18.4629243   18.3090364
| 19>     C       17.8828070   17.4703311   17.5834372
| 20>     C       17.1804892   16.4965574   18.5206652
| 21>     C       17.6932573   15.2008839   18.7164772
| 22>     C       17.0414797   14.2976712   19.5729435
| 23>     C       15.8704659   14.6952154   20.2408847
| 24>     C       15.3623097   15.9881197   20.0530246
| 25>     O       14.2327169   16.3748759   20.6972060
| 26>     C       16.0125295   16.8844055   19.1990713
| 27>     H       13.9117440   15.9924927   15.4435865
| 28>     H       13.7644980   14.2585797   15.1133184
| 29>     H       14.6081961   15.3013782   13.9534806
| 30>     H       15.5293123   14.7055139   16.8235894
| 31>     H       16.1985561   13.9167129   15.3914718
| 32>     H       15.1925680   20.0142251   15.2838604
| 33>     H       16.6889606   20.0916796   14.3444595
| 34>     H       16.3067053   21.3661435   15.5123966
| 35>     H       17.6059180   21.2881711   17.2041476
| 36>     H       19.3345859   18.1523703   19.0312820
| 37>     H       18.6650862   16.9546803   17.0082425
| 38>     H       18.5965835   14.8916319   18.1970390
| 39>     H       17.4445286   13.2967138   19.7184025
| 40>     H       15.3642456   14.0017657   20.9045828
| 41>     H       13.9592789   15.6446159   21.2726324
| 42>     H       15.6081363   17.8829160   19.0707814
| 43> *
| 44>
| 45>                          ****END OF INPUT****

CARTESIAN COORDINATES (ANGSTROEM)
---------------------------------
  C     14.432334   15.123487   15.022068
  C     15.760665   14.852914   15.760509
  O     16.744826   15.911434   15.643360
  C     16.439561   17.230563   15.438441
  O     15.790776   17.612647   14.480484
  C     16.962073   18.120604   16.535768
  C     16.964273   19.471770   16.396265
  C     16.254846   20.285729   15.333677
  N     17.677663   20.286033   17.278906
  C     18.562775   19.824717   18.215038
  S     19.445037   20.849527   19.167465
  N     18.697212   18.462924   18.309036
  C     17.882807   17.470331   17.583437
  C     17.180489   16.496557   18.520665
  C     17.693257   15.200884   18.716477
  C     17.041480   14.297671   19.572944
  C     15.870466   14.695215   20.240885
  C     15.362310   15.988120   20.053025
  O     14.232717   16.374876   20.697206
  C     16.012529   16.884405   19.199071
  H     13.911744   15.992493   15.443586
  H     13.764498   14.258580   15.113318
  H     14.608196   15.301378   13.953481
  H     15.529312   14.705514   16.823589
  H     16.198556   13.916713   15.391472
  H     15.192568   20.014225   15.283860
  H     16.688961   20.091680   14.344459
  H     16.306705   21.366143   15.512397
  H     17.605918   21.288171   17.204148
  H     19.334586   18.152370   19.031282
  H     18.665086   16.954680   17.008243
  H     18.596584   14.891632   18.197039
  H     17.444529   13.296714   19.718402
  H     15.364246   14.001766   20.904583
  H     13.959279   15.644616   21.272632
  H     15.608136   17.882916   19.070781

 Total Charge           Charge          ....    0
 Multiplicity           Mult            ....    1
 Number of Electrons    NEL             ....  154
 Basis Dimension        Dim             ....  828

ORBITAL ENERGIES
----------------

  NO   OCC          E(Eh)            E(eV)
   0   2.0000     -91.889281     -2500.4345
   1   2.0000     -20.600670      -560.5727
   2   2.0000     -20.586211      -560.1793
   3   2.0000     -20.542703      -558.9954
   4   2.0000     -15.629618      -425.3035
   5   2.0000     -15.607396      -424.6988
   6   2.0000     -11.394435      -310.0583
   7   2.0000     -11.383886      -309.7713
   8   2.0000     -11.337466      -308.5081
   9   2.0000     -11.318385      -307.9889
  10   2.0000     -11.308081      -307.7085
  11   2.0000     -11.299089      -307.4638
  12   2.0000     -11.264391      -306.5197
  13   2.0000     -11.259514      -306.3869
  14   2.0000     -11.257677      -306.3370
  15   2.0000     -11.251922      -306.1804
  16   2.0000     -11.247781      -306.0677
  17   2.0000     -11.242751      -305.9308
  18   2.0000     -11.242245      -305.9170
  19   2.0000     -11.221725      -305.3587
  20   2.0000      -8.894352      -242.0276
  21   2.0000      -6.575924      -178.9400
  22   2.0000      -6.573926      -178.8856
  23   2.0000      -6.573335      -178.8695
  24   2.0000      -1.441112       -39.2146
  25   2.0000      -1.420342       -38.6495
  26   2.0000      -1.351285       -36.7703
  27   2.0000      -1.340775       -36.4843
  28   2.0000      -1.238830       -33.7103
  29   2.0000      -1.161169       -31.5970
  30   2.0000      -1.121133       -30.5076
  31   2.0000      -1.045222       -28.4419
  32   2.0000      -1.032421       -28.0936
  33   2.0000      -1.019164       -27.7329
  34   2.0000      -0.997026       -27.1305
  35   2.0000      -0.984988       -26.8029
  36   2.0000      -0.923194       -25.1214
  37   2.0000      -0.893192       -24.3050
  38   2.0000      -0.847987       -23.0749
  39   2.0000      -0.841130       -22.8883
  40   2.0000      -0.837722       -22.7956
  41   2.0000      -0.820738       -22.3334
  42   2.0000      -0.745691       -20.2913
  43   2.0000      -0.734653       -19.9909
  44   2.0000      -0.716638       -19.5007
  45   2.0000      -0.698727       -19.0133
  46   2.0000      -0.688091       -18.7239
  47   2.0000      -0.676052       -18.3963
  48   2.0000      -0.667940       -18.1756
  49   2.0000      -0.663687       -18.0598
  50   2.0000      -0.649065       -17.6620
  51   2.0000      -0.644583       -17.5400
  52   2.0000      -0.636402       -17.3174
  53   2.0000      -0.611655       -16.6440
  54   2.0000      -0.610394       -16.6097
  55   2.0000      -0.603110       -16.4115
  56   2.0000      -0.601343       -16.3634
  57   2.0000      -0.580145       -15.7865
  58   2.0000      -0.570832       -15.5331
  59   2.0000      -0.567117       -15.4320
  60   2.0000      -0.556142       -15.1334
  61   2.0000      -0.540932       -14.7195
  62   2.0000      -0.534902       -14.5554
  63   2.0000      -0.527259       -14.3475
  64   2.0000      -0.523460       -14.2441
  65   2.0000      -0.513832       -13.9821
  66   2.0000      -0.501514       -13.6469
  67   2.0000      -0.493190       -13.4204
  68   2.0000      -0.486084       -13.2270
  69   2.0000      -0.463032       -12.5997
  70   2.0000      -0.451601       -12.2887
  71   2.0000      -0.440923       -11.9981
  72   2.0000      -0.354860        -9.6562
  73   2.0000      -0.351998        -9.5784
  74   2.0000      -0.329168        -8.9571
  75   2.0000      -0.325272        -8.8511
  76   2.0000      -0.318748        -8.6736
  77   0.0000       0.073948         2.0122
  78   0.0000       0.101172         2.7530
  79   0.0000       0.123761         3.3677
  80   0.0000       0.130704         3.5566
  81   0.0000       0.133186         3.6242

MULLIKEN ATOMIC CHARGES
-----------------------
   0 C :   -0.287361
   1 C :    0.038161
   2 O :   -0.381347
   3 C :    0.460143
   4 O :   -0.415375
   5 C :   -0.267815
   6 C :    0.185414
   7 C :   -0.265668
   8 N :   -0.127528
   9 C :    0.213358
  10 S :   -0.442172
  11 N :   -0.218847
  12 C :    0.081663
  13 C :    0.010205
  14 C :   -0.177576
  15 C :   -0.131022
  16 C :   -0.276542
  17 C :    0.311538
  18 O :   -0.355935
  19 C :   -0.235908
  20 H :    0.098401
  21 H :    0.097964
  22 H :    0.116383
  23 H :    0.101409
  24 H :    0.102371
  25 H :    0.131395
  26 H :    0.131141
  27 H :    0.094476
  28 H :    0.199392
  29 H :    0.200858
  30 H :    0.151081
  31 H :    0.155132
  32 H :    0.162747
  33 H :    0.132769
  34 H :    0.241441
  35 H :    0.165652
Sum of atomic charges:   -0.0000000

LOEWDIN ATOMIC CHARGES
----------------------
   0 C :    0.103947
   1 C :   -0.013792
   2 O :    0.288683
   3 C :   -0.415484
   4 O :    0.113570
   5 C :   -0.099697
   6 C :   -0.055484
   7 C :    0.131025
   8 N :    0.407392
   9 C :   -0.455832
  10 S :   -0.036511
  11 N :    0.394183
  12 C :   -0.054697
  13 C :   -0.038452
  14 C :    0.016860
  15 C :    0.040015
  16 C :   -0.001613
  17 C :   -0.190457
  18 O :    0.396009
  19 C :    0.031518
  20 H :   -0.028168
  21 H :   -0.027108
  22 H :   -0.023515
  23 H :   -0.030189
  24 H :   -0.025319
  25 H :   -0.004959
  26 H :   -0.004384
  27 H :   -0.023697
  28 H :   -0.057091
  29 H :   -0.064888
  30 H :   -0.012690
  31 H :   -0.028176
  32 H :   -0.020255
  33 H :   -0.034705
  34 H :   -0.153097
  35 H :   -0.022942

  Mayer bond orders larger than 0.100000
B(  0-C ,  1-C ) :   0.9804 B(  0-C , 20-H ) :   0.9747 B(  0-C , 21-H ) :   0.9735
B(  0-C , 22-H ) :   0.9732 B(  1-C ,  2-O ) :   0.8968 B(  1-C , 23-H ) :   0.9689
B(  1-C , 24-H ) :   0.9800 B(  2-O ,  3-C ) :   1.1012 B(  3-C ,  4-O ) :   2.0021
B(  3-C ,  5-C ) :   1.0669 B(  5-C ,  6-C ) :   1.6297 B(  5-C , 12-C ) :   0.9543
B(  6-C ,  7-C ) :   0.9654 B(  6-C ,  8-N ) :   1.1567 B(  7-C , 25-H ) :   0.9621
B(  7-C , 26-H ) :   0.9577 B(  7-C , 27-H ) :   0.9901 B(  8-N ,  9-C ) :   1.1867
B(  8-N , 28-H ) :   0.9465 B(  9-C , 10-S ) :   1.6035 B(  9-C , 11-N ) :   1.3116
B( 11-N , 12-C ) :   0.9625 B( 11-N , 29-H ) :   0.9485 B( 12-C , 13-C ) :   0.9628
B( 12-C , 30-H ) :   1.0002 B( 13-C , 14-C ) :   1.3523 B( 13-C , 19-C ) :   1.3784
B( 14-C , 15-C ) :   1.3947 B( 14-C , 31-H ) :   0.9723 B( 15-C , 16-C ) :   1.3574
B( 15-C , 32-H ) :   0.9705 B( 16-C , 17-C ) :   1.3324 B( 16-C , 33-H ) :   0.9845
B( 17-C , 18-O ) :   1.1069 B( 17-C , 19-C ) :   1.3651 B( 18-O , 34-H ) :   0.9790
B( 19-C , 35-H ) :   0.9590

MP2 TOTAL ENERGY:    -1274.329022847 Eh
FINAL SINGLE POINT ENERGY     -1274.329022846728

DIPOLE MOMENT
-------------
                                X             Y             Z
Electronic contribution:      9.63756       9.72142       7.90133
Nuclear contribution   :    -10.65178     -11.45243      -7.91848
                        -----------------------------------------
Total Dipole Moment    :     -1.01421      -1.73102      -0.01715
                        -----------------------------------------
Magnitude (a.u.)       :      2.00632
Magnitude (Debye)      :      5.09967

Rotational constants in cm-1:     0.012040     0.008581     0.006043
Rotational constants in MHz :   360.938342   257.260199   181.179567

                             ****ORCA TERMINATED NORMALLY****
TOTAL RUN TIME: 0 days 1 hours 43 minutes 11 seconds 30 msec
