                         Program Version 4.2.0 -  RELEASE  -
|  1> ! ri-mp2 cc-pvtz cc-pvtz/c TightSCF NoKeepInts
|  2>
|  3> %scf
|  4>   MaxCore 4096
|  5> end
|  6> *xyz  0  1
|  7>     C       14.5724110   14.8791879   15.5137782
|  8>     C       14.7855091   16.3746708   15.2136429
|  9>     O       16.1103880   16.5515541   14.6798402
| 10>     C       17.1510975   16.5493126   15.5599988
| 11>     O       17.9230252   15.6100663   15.6289958
| 12>     C       17.2116459   17.7286051   16.4833939
| 13>     C       16.9668839   18.9924936   16.0536005
| 14>     C       16.4193695   19.4165034   14.7052816
| 15>     N       17.2878057   20.0910086   16.8544464
| 16>     C       18.0510690   20.0221254   17.9895134
| 17>     S       18.4795156   21.3773332   18.8347084
| 18>     N       18.4584201   18.7700728   18.3779080
| 19>     C       18.0198243   17.5016453   17.7630016
| 20>     C       17.3278306   16.5526477   18.7316071
| 21>     C       17.7308207   15.2085253   18.8246528
| 22>     C       17.0796572   14.3264816   19.7030447
| 23>     C       16.0155222   14.7925063   20.4940670
| 24>     C       15.6089181   16.1305413   20.3997845
| 25>     O       14.5758494   16.5812012   21.1551199
| 26>     C       16.2581540   17.0059498   19.5233114
| 27>     H       15.2494602   14.5382504   16.3079526
| 28>     H       14.7610027   14.2739509   14.6180752
| 29>     H       13.5427248   14.6947156   15.8429993
| 30>     H       14.0494467   16.6926715   14.4640087
| 31>     H       14.6313562   16.9742606   16.1209949
| 32>     H       16.9319245   18.8904484   13.8895045
| 33>     H       16.5511897   20.4892288   14.5168599
| 34>     H       15.3479984   19.1976137   14.6286810
| 35>     H       17.0208786   21.0192722   16.5671987
| 36>     H       19.0088834   18.7458922   19.2272284
| 37>     H       18.9875592   17.0890471   17.4410739
| 38>     H       18.5432983   14.8432689   18.2000200
| 39>     H       17.3977896   13.2870377   19.7630564
| 40>     H       15.5089288   14.1139088   21.1723442
| 41>     H       14.2919146   15.8499434   21.7242544
| 42>     H       15.9289274   18.0380575   19.4640506
| 43> *
| 44>
| 45>                          ****END OF INPUT****

CARTESIAN COORDINATES (ANGSTROEM)
---------------------------------
  C     14.572411   14.879188   15.513778
  C     14.785509   16.374671   15.213643
  O     16.110388   16.551554   14.679840
  C     17.151097   16.549313   15.559999
  O     17.923025   15.610066   15.628996
  C     17.211646   17.728605   16.483394
  C     16.966884   18.992494   16.053601
  C     16.419369   19.416503   14.705282
  N     17.287806   20.091009   16.854446
  C     18.051069   20.022125   17.989513
  S     18.479516   21.377333   18.834708
  N     18.458420   18.770073   18.377908
  C     18.019824   17.501645   17.763002
  C     17.327831   16.552648   18.731607
  C     17.730821   15.208525   18.824653
  C     17.079657   14.326482   19.703045
  C     16.015522   14.792506   20.494067
  C     15.608918   16.130541   20.399784
  O     14.575849   16.581201   21.155120
  C     16.258154   17.005950   19.523311
  H     15.249460   14.538250   16.307953
  H     14.761003   14.273951   14.618075
  H     13.542725   14.694716   15.842999
  H     14.049447   16.692671   14.464009
  H     14.631356   16.974261   16.120995
  H     16.931925   18.890448   13.889504
  H     16.551190   20.489229   14.516860
  H     15.347998   19.197614   14.628681
  H     17.020879   21.019272   16.567199
  H     19.008883   18.745892   19.227228
  H     18.987559   17.089047   17.441074
  H     18.543298   14.843269   18.200020
  H     17.397790   13.287038   19.763056
  H     15.508929   14.113909   21.172344
  H     14.291915   15.849943   21.724254
  H     15.928927   18.038058   19.464051

 Total Charge           Charge          ....    0
 Multiplicity           Mult            ....    1
 Number of Electrons    NEL             ....  154
 Basis Dimension        Dim             ....  828

ORBITAL ENERGIES
----------------

  NO   OCC          E(Eh)            E(eV)
   0   2.0000     -91.890393     -2500.4647
   1   2.0000     -20.596812      -560.4677
   2   2.0000     -20.591613      -560.3263
   3   2.0000     -20.553161      -559.2800
   4   2.0000     -15.630813      -425.3360
   5   2.0000     -15.608468      -424.7280
   6   2.0000     -11.394970      -310.0729
   7   2.0000     -11.385486      -309.8148
   8   2.0000     -11.339349      -308.5594
   9   2.0000     -11.313415      -307.8537
  10   2.0000     -11.306771      -307.6729
  11   2.0000     -11.306720      -307.6715
  12   2.0000     -11.263765      -306.5026
  13   2.0000     -11.261073      -306.4294
  14   2.0000     -11.260531      -306.4146
  15   2.0000     -11.253321      -306.2184
  16   2.0000     -11.243146      -305.9416
  17   2.0000     -11.239487      -305.8420
  18   2.0000     -11.235797      -305.7416
  19   2.0000     -11.227102      -305.5050
  20   2.0000      -8.895473      -242.0581
  21   2.0000      -6.577047      -178.9706
  22   2.0000      -6.575044      -178.9161
  23   2.0000      -6.574454      -178.9000
  24   2.0000      -1.451879       -39.5076
  25   2.0000      -1.416564       -38.5467
  26   2.0000      -1.361381       -37.0450
  27   2.0000      -1.342038       -36.5187
  28   2.0000      -1.239358       -33.7247
  29   2.0000      -1.157769       -31.5045
  30   2.0000      -1.123972       -30.5848
  31   2.0000      -1.045745       -28.4562
  32   2.0000      -1.034282       -28.1443
  33   2.0000      -1.015421       -27.6310
  34   2.0000      -1.003276       -27.3005
  35   2.0000      -0.987882       -26.8816
  36   2.0000      -0.924614       -25.1600
  37   2.0000      -0.887600       -24.1528
  38   2.0000      -0.853305       -23.2196
  39   2.0000      -0.840968       -22.8839
  40   2.0000      -0.833609       -22.6837
  41   2.0000      -0.831803       -22.6345
  42   2.0000      -0.749446       -20.3935
  43   2.0000      -0.735489       -20.0137
  44   2.0000      -0.730345       -19.8737
  45   2.0000      -0.694811       -18.9068
  46   2.0000      -0.686408       -18.6781
  47   2.0000      -0.679898       -18.5010
  48   2.0000      -0.678796       -18.4710
  49   2.0000      -0.665576       -18.1112
  50   2.0000      -0.653060       -17.7707
  51   2.0000      -0.645820       -17.5736
  52   2.0000      -0.637309       -17.3421
  53   2.0000      -0.610374       -16.6091
  54   2.0000      -0.605537       -16.4775
  55   2.0000      -0.602738       -16.4013
  56   2.0000      -0.600169       -16.3314
  57   2.0000      -0.579401       -15.7663
  58   2.0000      -0.575633       -15.6638
  59   2.0000      -0.570677       -15.5289
  60   2.0000      -0.559122       -15.2145
  61   2.0000      -0.556010       -15.1298
  62   2.0000      -0.543062       -14.7775
  63   2.0000      -0.525991       -14.3129
  64   2.0000      -0.519020       -14.1232
  65   2.0000      -0.512733       -13.9522
  66   2.0000      -0.499501       -13.5921
  67   2.0000      -0.495256       -13.4766
  68   2.0000      -0.486780       -13.2460
  69   2.0000      -0.467886       -12.7318
  70   2.0000      -0.461187       -12.5495
  71   2.0000      -0.449714       -12.2373
  72   2.0000      -0.355984        -9.6868
  73   2.0000      -0.349506        -9.5105
  74   2.0000      -0.329525        -8.9668
  75   2.0000      -0.320640        -8.7251
  76   2.0000      -0.319533        -8.6949
  77   0.0000       0.073704         2.0056
  78   0.0000       0.104722         2.8496
  79   0.0000       0.119103         3.2410
  80   0.0000       0.131814         3.5868
  81   0.0000       0.136909         3.7255

MULLIKEN ATOMIC CHARGES
-----------------------
   0 C :   -0.263091
   1 C :    0.005779
   2 O :   -0.359202
   3 C :    0.459573
   4 O :   -0.383070
   5 C :   -0.261213
   6 C :    0.181551
   7 C :   -0.295351
   8 N :   -0.129449
   9 C :    0.206013
  10 S :   -0.439671
  11 N :   -0.215251
  12 C :    0.058013
  13 C :    0.027943
  14 C :   -0.195845
  15 C :   -0.131146
  16 C :   -0.277654
  17 C :    0.314619
  18 O :   -0.357845
  19 C :   -0.256684
  20 H :    0.106694
  21 H :    0.103978
  22 H :    0.091110
  23 H :    0.111736
  24 H :    0.099983
  25 H :    0.137412
  26 H :    0.109907
  27 H :    0.120327
  28 H :    0.198230
  29 H :    0.200173
  30 H :    0.159814
  31 H :    0.169186
  32 H :    0.163459
  33 H :    0.130663
  34 H :    0.240933
  35 H :    0.168373
Sum of atomic charges:   -0.0000000

LOEWDIN ATOMIC CHARGES
----------------------
   0 C :    0.109736
   1 C :   -0.028216
   2 O :    0.299334
   3 C :   -0.421580
   4 O :    0.127574
   5 C :   -0.096750
   6 C :   -0.071187
   7 C :    0.127924
   8 N :    0.405081
   9 C :   -0.457744
  10 S :   -0.035761
  11 N :    0.396072
  12 C :   -0.049514
  13 C :   -0.043105
  14 C :    0.023204
  15 C :    0.042142
  16 C :   -0.000636
  17 C :   -0.192800
  18 O :    0.393680
  19 C :    0.027356
  20 H :   -0.024150
  21 H :   -0.022369
  22 H :   -0.027411
  23 H :   -0.025300
  24 H :   -0.036275
  25 H :   -0.005619
  26 H :   -0.018257
  27 H :   -0.012536
  28 H :   -0.058183
  29 H :   -0.063418
  30 H :   -0.006389
  31 H :   -0.022324
  32 H :   -0.019647
  33 H :   -0.035304
  34 H :   -0.153773
  35 H :   -0.023858

  Mayer bond orders larger than 0.100000
B(  0-C ,  1-C ) :   0.9857 B(  0-C , 20-H ) :   0.9706 B(  0-C , 21-H ) :   0.9767
B(  0-C , 22-H ) :   0.9758 B(  1-C ,  2-O ) :   0.8980 B(  1-C , 23-H ) :   0.9784
B(  1-C , 24-H ) :   0.9635 B(  2-O ,  3-C ) :   1.1036 B(  3-C ,  4-O ) :   2.0683
B(  3-C ,  5-C ) :   0.9743 B(  5-C ,  6-C ) :   1.6760 B(  5-C , 12-C ) :   0.9513
B(  6-C ,  7-C ) :   0.9444 B(  6-C ,  8-N ) :   1.1352 B(  7-C , 25-H ) :   0.9653
B(  7-C , 26-H ) :   0.9881 B(  7-C , 27-H ) :   0.9672 B(  8-N ,  9-C ) :   1.1862
B(  8-N , 28-H ) :   0.9476 B(  9-C , 10-S ) :   1.6125 B(  9-C , 11-N ) :   1.2997
B( 11-N , 12-C ) :   0.9842 B( 11-N , 29-H ) :   0.9487 B( 12-C , 13-C ) :   0.9670
B( 12-C , 30-H ) :   0.9939 B( 13-C , 14-C ) :   1.3807 B( 13-C , 19-C ) :   1.3596
B( 14-C , 15-C ) :   1.3943 B( 14-C , 31-H ) :   0.9606 B( 15-C , 16-C ) :   1.3606
B( 15-C , 32-H ) :   0.9701 B( 16-C , 17-C ) :   1.3316 B( 16-C , 33-H ) :   0.9852
B( 17-C , 18-O ) :   1.1065 B( 17-C , 19-C ) :   1.3656 B( 18-O , 34-H ) :   0.9798
B( 19-C , 35-H ) :   0.9587

MP2 TOTAL ENERGY:    -1274.329910621 Eh
FINAL SINGLE POINT ENERGY     -1274.329910621005

DIPOLE MOMENT
-------------
                                X             Y             Z
Electronic contribution:      9.86254       9.32574       7.63639
Nuclear contribution   :    -11.46013     -10.33185      -8.14231
                        -----------------------------------------
Total Dipole Moment    :     -1.59759      -1.00610      -0.50592
                        -----------------------------------------
Magnitude (a.u.)       :      1.95461
Magnitude (Debye)      :      4.96821

Rotational constants in cm-1:     0.011172     0.009180     0.006176
Rotational constants in MHz :   334.937945   275.217713   185.144109

                             ****ORCA TERMINATED NORMALLY****
TOTAL RUN TIME: 0 days 1 hours 41 minutes 50 seconds 453 msec
