                         Program Version 4.2.0 -  RELEASE  -
|  1> ! ri-mp2 cc-pvtz cc-pvtz/c TightSCF NoKeepInts
|  2>
|  3> %scf
|  4>   MaxCore 4096
|  5> end
|  6> *xyz  0  1
|  7>     C       14.5434808   14.7005135   14.4291325
|  8>     C       14.6518822   16.0176199   15.2171433
|  9>     O       15.8797754   16.6596244   14.8389832
| 10>     C       16.9210969   16.5512275   15.7082318
| 11>     O       17.5178220   15.4998284   15.8592500
| 12>     C       17.1277389   17.7446878   16.5941523
| 13>     C       16.9319450   19.0160087   16.1572435
| 14>     C       16.2899718   19.4607152   14.8579656
| 15>     N       17.3897753   20.1044130   16.9039633
| 16>     C       18.2384831   20.0064009   17.9737452
| 17>     S       18.8267446   21.3453519   18.7458656
| 18>     N       18.5923009   18.7376128   18.3581888
| 19>     C       18.0189301   17.4907397   17.8149409
| 20>     C       17.3546567   16.6184009   18.8717543
| 21>     C       17.7252307   15.2703530   19.0247397
| 22>     C       17.1077266   14.4652487   19.9965100
| 23>     C       16.1114697   15.0132345   20.8226630
| 24>     C       15.7382471   16.3556707   20.6702842
| 25>     O       14.7721383   16.8857827   21.4619292
| 26>     C       16.3538512   17.1541935   19.7010480
| 27>     H       15.3704469   14.0266491   14.6879313
| 28>     H       14.5788176   14.8903795   13.3492095
| 29>     H       13.6010029   14.1891530   14.6590385
| 30>     H       13.8041013   16.6628768   14.9534513
| 31>     H       14.6159002   15.8239716   16.2987517
| 32>     H       16.7611673   18.9650931   13.9995123
| 33>     H       16.3780455   20.5409014   14.6886397
| 34>     H       15.2215602   19.2131234   14.8464352
| 35>     H       17.1594914   21.0427797   16.6183621
| 36>     H       19.2049842   18.6925156   19.1627761
| 37>     H       18.9280698   17.0071498   17.4282352
| 38>     H       18.4847556   14.8417556   18.3746984
| 39>     H       17.3990009   13.4216124   20.1015671
| 40>     H       15.6311960   14.3943917   21.5732921
| 41>     H       14.5014226   16.1981795   22.0888126
| 42>     H       16.0537703   18.1918402   19.5995524
| 43> *
| 44>
| 45>                          ****END OF INPUT****

CARTESIAN COORDINATES (ANGSTROEM)
---------------------------------
  C     14.543481   14.700513   14.429132
  C     14.651882   16.017620   15.217143
  O     15.879775   16.659624   14.838983
  C     16.921097   16.551227   15.708232
  O     17.517822   15.499828   15.859250
  C     17.127739   17.744688   16.594152
  C     16.931945   19.016009   16.157243
  C     16.289972   19.460715   14.857966
  N     17.389775   20.104413   16.903963
  C     18.238483   20.006401   17.973745
  S     18.826745   21.345352   18.745866
  N     18.592301   18.737613   18.358189
  C     18.018930   17.490740   17.814941
  C     17.354657   16.618401   18.871754
  C     17.725231   15.270353   19.024740
  C     17.107727   14.465249   19.996510
  C     16.111470   15.013234   20.822663
  C     15.738247   16.355671   20.670284
  O     14.772138   16.885783   21.461929
  C     16.353851   17.154193   19.701048
  H     15.370447   14.026649   14.687931
  H     14.578818   14.890379   13.349210
  H     13.601003   14.189153   14.659038
  H     13.804101   16.662877   14.953451
  H     14.615900   15.823972   16.298752
  H     16.761167   18.965093   13.999512
  H     16.378045   20.540901   14.688640
  H     15.221560   19.213123   14.846435
  H     17.159491   21.042780   16.618362
  H     19.204984   18.692516   19.162776
  H     18.928070   17.007150   17.428235
  H     18.484756   14.841756   18.374698
  H     17.399001   13.421612   20.101567
  H     15.631196   14.394392   21.573292
  H     14.501423   16.198179   22.088813
  H     16.053770   18.191840   19.599552

 Total Charge           Charge          ....    0
 Multiplicity           Mult            ....    1
 Number of Electrons    NEL             ....  154
 Basis Dimension        Dim             ....  828

ORBITAL ENERGIES
----------------

  NO   OCC          E(Eh)            E(eV)
   0   2.0000     -91.889799     -2500.4485
   1   2.0000     -20.594518      -560.4053
   2   2.0000     -20.587054      -560.2022
   3   2.0000     -20.553055      -559.2770
   4   2.0000     -15.630803      -425.3358
   5   2.0000     -15.607362      -424.6979
   6   2.0000     -11.394732      -310.0664
   7   2.0000     -11.384529      -309.7888
   8   2.0000     -11.340218      -308.5830
   9   2.0000     -11.310759      -307.7814
  10   2.0000     -11.305507      -307.6385
  11   2.0000     -11.304911      -307.6223
  12   2.0000     -11.261446      -306.4395
  13   2.0000     -11.260329      -306.4091
  14   2.0000     -11.257918      -306.3435
  15   2.0000     -11.250673      -306.1464
  16   2.0000     -11.240816      -305.8782
  17   2.0000     -11.237070      -305.7762
  18   2.0000     -11.233558      -305.6806
  19   2.0000     -11.224034      -305.4215
  20   2.0000      -8.894870      -242.0417
  21   2.0000      -6.576443      -178.9541
  22   2.0000      -6.574443      -178.8997
  23   2.0000      -6.573851      -178.8836
  24   2.0000      -1.453280       -39.5458
  25   2.0000      -1.414273       -38.4843
  26   2.0000      -1.359542       -36.9950
  27   2.0000      -1.341695       -36.5094
  28   2.0000      -1.238702       -33.7068
  29   2.0000      -1.155201       -31.4346
  30   2.0000      -1.122592       -30.5473
  31   2.0000      -1.044115       -28.4118
  32   2.0000      -1.033672       -28.1277
  33   2.0000      -1.012760       -27.5586
  34   2.0000      -1.000820       -27.2337
  35   2.0000      -0.985660       -26.8212
  36   2.0000      -0.922806       -25.1108
  37   2.0000      -0.883168       -24.0322
  38   2.0000      -0.850874       -23.1535
  39   2.0000      -0.839104       -22.8332
  40   2.0000      -0.831007       -22.6129
  41   2.0000      -0.828872       -22.5547
  42   2.0000      -0.755561       -20.5599
  43   2.0000      -0.735328       -20.0093
  44   2.0000      -0.728614       -19.8266
  45   2.0000      -0.692931       -18.8556
  46   2.0000      -0.687306       -18.7026
  47   2.0000      -0.680328       -18.5127
  48   2.0000      -0.671610       -18.2754
  49   2.0000      -0.664034       -18.0693
  50   2.0000      -0.647810       -17.6278
  51   2.0000      -0.644745       -17.5444
  52   2.0000      -0.635567       -17.2947
  53   2.0000      -0.606824       -16.5125
  54   2.0000      -0.601193       -16.3593
  55   2.0000      -0.598187       -16.2775
  56   2.0000      -0.592133       -16.1128
  57   2.0000      -0.589277       -16.0350
  58   2.0000      -0.575726       -15.6663
  59   2.0000      -0.569479       -15.4963
  60   2.0000      -0.562168       -15.2974
  61   2.0000      -0.551635       -15.0108
  62   2.0000      -0.538325       -14.6486
  63   2.0000      -0.519210       -14.1284
  64   2.0000      -0.515486       -14.0271
  65   2.0000      -0.511721       -13.9246
  66   2.0000      -0.503449       -13.6995
  67   2.0000      -0.496297       -13.5049
  68   2.0000      -0.481837       -13.1114
  69   2.0000      -0.464533       -12.6406
  70   2.0000      -0.456555       -12.4235
  71   2.0000      -0.452261       -12.3067
  72   2.0000      -0.355082        -9.6623
  73   2.0000      -0.347287        -9.4502
  74   2.0000      -0.328814        -8.9475
  75   2.0000      -0.319072        -8.6824
  76   2.0000      -0.317507        -8.6398
  77   0.0000       0.071954         1.9580
  78   0.0000       0.107994         2.9387
  79   0.0000       0.120267         3.2726
  80   0.0000       0.133860         3.6425
  81   0.0000       0.138815         3.7773

MULLIKEN ATOMIC CHARGES
-----------------------
   0 C :   -0.261512
   1 C :    0.039122
   2 O :   -0.374162
   3 C :    0.444211
   4 O :   -0.395100
   5 C :   -0.197803
   6 C :    0.152968
   7 C :   -0.280601
   8 N :   -0.127429
   9 C :    0.206464
  10 S :   -0.439729
  11 N :   -0.211423
  12 C :    0.046159
  13 C :    0.032502
  14 C :   -0.177372
  15 C :   -0.132945
  16 C :   -0.277923
  17 C :    0.314414
  18 O :   -0.358524
  19 C :   -0.255934
  20 H :    0.113805
  21 H :    0.092869
  22 H :    0.086539
  23 H :    0.096043
  24 H :    0.093149
  25 H :    0.129755
  26 H :    0.103952
  27 H :    0.123155
  28 H :    0.198934
  29 H :    0.199856
  30 H :    0.156906
  31 H :    0.162937
  32 H :    0.161400
  33 H :    0.129528
  34 H :    0.240448
  35 H :    0.165337
Sum of atomic charges:   -0.0000000

LOEWDIN ATOMIC CHARGES
----------------------
   0 C :    0.107154
   1 C :   -0.019547
   2 O :    0.296900
   3 C :   -0.423921
   4 O :    0.124488
   5 C :   -0.097273
   6 C :   -0.064598
   7 C :    0.126482
   8 N :    0.405937
   9 C :   -0.458228
  10 S :   -0.035684
  11 N :    0.396146
  12 C :   -0.048814
  13 C :   -0.041859
  14 C :    0.024021
  15 C :    0.041540
  16 C :   -0.001096
  17 C :   -0.193221
  18 O :    0.393233
  19 C :    0.028104
  20 H :   -0.022226
  21 H :   -0.027223
  22 H :   -0.029533
  23 H :   -0.029405
  24 H :   -0.027391
  25 H :   -0.006933
  26 H :   -0.020262
  27 H :   -0.010317
  28 H :   -0.058181
  29 H :   -0.063276
  30 H :   -0.007463
  31 H :   -0.023284
  32 H :   -0.020388
  33 H :   -0.035748
  34 H :   -0.154312
  35 H :   -0.023821

  Mayer bond orders larger than 0.100000
B(  0-C ,  1-C ) :   0.9842 B(  0-C , 20-H ) :   0.9737 B(  0-C , 21-H ) :   0.9774
B(  0-C , 22-H ) :   0.9759 B(  1-C ,  2-O ) :   0.8899 B(  1-C , 23-H ) :   0.9805
B(  1-C , 24-H ) :   0.9699 B(  2-O ,  3-C ) :   1.0632 B(  3-C ,  4-O ) :   2.0295
B(  3-C ,  5-C ) :   1.0352 B(  5-C ,  6-C ) :   1.6630 B(  5-C , 12-C ) :   0.9489
B(  6-C ,  7-C ) :   0.9519 B(  6-C ,  8-N ) :   1.1387 B(  7-C , 25-H ) :   0.9652
B(  7-C , 26-H ) :   0.9898 B(  7-C , 27-H ) :   0.9657 B(  8-N ,  9-C ) :   1.1838
B(  8-N , 28-H ) :   0.9470 B(  9-C , 10-S ) :   1.6117 B(  9-C , 11-N ) :   1.3040
B( 11-N , 12-C ) :   0.9794 B( 11-N , 29-H ) :   0.9485 B( 12-C , 13-C ) :   0.9704
B( 12-C , 30-H ) :   0.9955 B( 13-C , 14-C ) :   1.3799 B( 13-C , 19-C ) :   1.3619
B( 14-C , 15-C ) :   1.3968 B( 14-C , 31-H ) :   0.9622 B( 15-C , 16-C ) :   1.3595
B( 15-C , 32-H ) :   0.9707 B( 16-C , 17-C ) :   1.3328 B( 16-C , 33-H ) :   0.9855
B( 17-C , 18-O ) :   1.1049 B( 17-C , 19-C ) :   1.3664 B( 18-O , 34-H ) :   0.9802
B( 19-C , 35-H ) :   0.9598

MP2 TOTAL ENERGY:    -1274.326091699 Eh
FINAL SINGLE POINT ENERGY     -1274.326091698623

DIPOLE MOMENT
-------------
                                X             Y             Z
Electronic contribution:     10.29984      10.23082       9.86250
Nuclear contribution   :    -11.85708     -11.30906     -10.46684
                        -----------------------------------------
Total Dipole Moment    :     -1.55724      -1.07824      -0.60434
                        -----------------------------------------
Magnitude (a.u.)       :      1.98818
Magnitude (Debye)      :      5.05354

Rotational constants in cm-1:     0.010253     0.009193     0.005784
Rotational constants in MHz :   307.370206   275.593376   173.408873

                             ****ORCA TERMINATED NORMALLY****
TOTAL RUN TIME: 0 days 1 hours 35 minutes 8 seconds 545 msec
