                         Program Version 4.2.0 -  RELEASE  -
|  1> ! ri-mp2 cc-pvtz cc-pvtz/c TightSCF NoKeepInts
|  2>
|  3> %scf
|  4>   MaxCore 4096
|  5> end
|  6> *xyz  0  1
|  7>     C       14.5207676   14.8831683   14.9272050
|  8>     C       15.4543473   15.3282122   16.0671598
|  9>     O       16.5785169   16.0160481   15.4890080
| 10>     C       16.4742355   17.3647205   15.3230315
| 11>     O       15.9968323   17.8203477   14.3001272
| 12>     C       16.9089053   18.1725815   16.5205456
| 13>     C       16.8698113   19.5305887   16.4751898
| 14>     C       16.1304858   20.3965673   15.4756061
| 15>     N       17.5490222   20.3056715   17.4176944
| 16>     C       18.4709533   19.8154025   18.3012275
| 17>     S       19.3283990   20.8027988   19.3136089
| 18>     N       18.6662632   18.4583023   18.2854291
| 19>     C       17.8628512   17.4878635   17.5187053
| 20>     C       17.2338717   16.4338122   18.4180070
| 21>     C       17.7753491   15.1368919   18.4862923
| 22>     C       17.1938340   14.1648714   19.3176519
| 23>     C       16.0676422   14.4952732   20.0910440
| 24>     C       15.5352787   15.7907246   20.0344918
| 25>     O       14.4488578   16.1130857   20.7799279
| 26>     C       16.1148125   16.7556479   19.2047072
| 27>     H       14.1170568   15.7516864   14.3914475
| 28>     H       13.6781202   14.3036849   15.3230163
| 29>     H       15.0618233   14.2565424   14.2072705
| 30>     H       14.9142630   15.9662533   16.7794508
| 31>     H       15.8062823   14.4364407   16.6013135
| 32>     H       15.1067064   20.0307612   15.3257088
| 33>     H       16.6325244   20.3734393   14.4996668
| 34>     H       16.0563007   21.4449774   15.7876861
| 35>     H       17.4376894   21.3070919   17.4158998
| 36>     H       19.3356256   18.1229084   18.9667583
| 37>     H       18.6543357   17.0426471   16.8987612
| 38>     H       18.6445207   14.8795157   17.8861218
| 39>     H       17.6166741   13.1623347   19.3621846
| 40>     H       15.6158876   13.7477952   20.7353040
| 41>     H       14.2326804   15.3452047   21.3306375
| 42>     H       15.6954727   17.7561367   19.1801123
| 43> *
| 44>
| 45>                          ****END OF INPUT****

CARTESIAN COORDINATES (ANGSTROEM)
---------------------------------
  C     14.520768   14.883168   14.927205
  C     15.454347   15.328212   16.067160
  O     16.578517   16.016048   15.489008
  C     16.474235   17.364721   15.323031
  O     15.996832   17.820348   14.300127
  C     16.908905   18.172581   16.520546
  C     16.869811   19.530589   16.475190
  C     16.130486   20.396567   15.475606
  N     17.549022   20.305671   17.417694
  C     18.470953   19.815403   18.301227
  S     19.328399   20.802799   19.313609
  N     18.666263   18.458302   18.285429
  C     17.862851   17.487863   17.518705
  C     17.233872   16.433812   18.418007
  C     17.775349   15.136892   18.486292
  C     17.193834   14.164871   19.317652
  C     16.067642   14.495273   20.091044
  C     15.535279   15.790725   20.034492
  O     14.448858   16.113086   20.779928
  C     16.114812   16.755648   19.204707
  H     14.117057   15.751686   14.391447
  H     13.678120   14.303685   15.323016
  H     15.061823   14.256542   14.207270
  H     14.914263   15.966253   16.779451
  H     15.806282   14.436441   16.601313
  H     15.106706   20.030761   15.325709
  H     16.632524   20.373439   14.499667
  H     16.056301   21.444977   15.787686
  H     17.437689   21.307092   17.415900
  H     19.335626   18.122908   18.966758
  H     18.654336   17.042647   16.898761
  H     18.644521   14.879516   17.886122
  H     17.616674   13.162335   19.362185
  H     15.615888   13.747795   20.735304
  H     14.232680   15.345205   21.330638
  H     15.695473   17.756137   19.180112

 Total Charge           Charge          ....    0
 Multiplicity           Mult            ....    1
 Number of Electrons    NEL             ....  154
 Basis Dimension        Dim             ....  828

ORBITAL ENERGIES
----------------

  NO   OCC          E(Eh)            E(eV)
   0   2.0000     -91.891387     -2500.4918
   1   2.0000     -20.603167      -560.6407
   2   2.0000     -20.581111      -560.0405
   3   2.0000     -20.547183      -559.1173
   4   2.0000     -15.631755      -425.3617
   5   2.0000     -15.609586      -424.7584
   6   2.0000     -11.392493      -310.0055
   7   2.0000     -11.385691      -309.8204
   8   2.0000     -11.340287      -308.5849
   9   2.0000     -11.320963      -308.0591
  10   2.0000     -11.311894      -307.8123
  11   2.0000     -11.295432      -307.3643
  12   2.0000     -11.266794      -306.5850
  13   2.0000     -11.262084      -306.4569
  14   2.0000     -11.259948      -306.3988
  15   2.0000     -11.253746      -306.2300
  16   2.0000     -11.250918      -306.1531
  17   2.0000     -11.245334      -306.0011
  18   2.0000     -11.245254      -305.9989
  19   2.0000     -11.218027      -305.2580
  20   2.0000      -8.896437      -242.0843
  21   2.0000      -6.578003      -178.9966
  22   2.0000      -6.576010      -178.9423
  23   2.0000      -6.575413      -178.9261
  24   2.0000      -1.446904       -39.3723
  25   2.0000      -1.422896       -38.7190
  26   2.0000      -1.353792       -36.8386
  27   2.0000      -1.343465       -36.5575
  28   2.0000      -1.241553       -33.7844
  29   2.0000      -1.163972       -31.6733
  30   2.0000      -1.123128       -30.5619
  31   2.0000      -1.048004       -28.5176
  32   2.0000      -1.029940       -28.0261
  33   2.0000      -1.022056       -27.8116
  34   2.0000      -0.999365       -27.1941
  35   2.0000      -0.987434       -26.8694
  36   2.0000      -0.925836       -25.1933
  37   2.0000      -0.880364       -23.9559
  38   2.0000      -0.850828       -23.1522
  39   2.0000      -0.843828       -22.9617
  40   2.0000      -0.840682       -22.8761
  41   2.0000      -0.830673       -22.6038
  42   2.0000      -0.756708       -20.5911
  43   2.0000      -0.738102       -20.0848
  44   2.0000      -0.720245       -19.5989
  45   2.0000      -0.701718       -19.0947
  46   2.0000      -0.691158       -18.8074
  47   2.0000      -0.678431       -18.4610
  48   2.0000      -0.671272       -18.2663
  49   2.0000      -0.662774       -18.0350
  50   2.0000      -0.648778       -17.6542
  51   2.0000      -0.647449       -17.6180
  52   2.0000      -0.638966       -17.3871
  53   2.0000      -0.613293       -16.6885
  54   2.0000      -0.607450       -16.5296
  55   2.0000      -0.603649       -16.4261
  56   2.0000      -0.588177       -16.0051
  57   2.0000      -0.581875       -15.8336
  58   2.0000      -0.576810       -15.6958
  59   2.0000      -0.571986       -15.5645
  60   2.0000      -0.565359       -15.3842
  61   2.0000      -0.543582       -14.7916
  62   2.0000      -0.537775       -14.6336
  63   2.0000      -0.529538       -14.4095
  64   2.0000      -0.517871       -14.0920
  65   2.0000      -0.513239       -13.9659
  66   2.0000      -0.503904       -13.7119
  67   2.0000      -0.495518       -13.4837
  68   2.0000      -0.485854       -13.2208
  69   2.0000      -0.465227       -12.6595
  70   2.0000      -0.456356       -12.4181
  71   2.0000      -0.442634       -12.0447
  72   2.0000      -0.356459        -9.6997
  73   2.0000      -0.355142        -9.6639
  74   2.0000      -0.331332        -9.0160
  75   2.0000      -0.327878        -8.9220
  76   2.0000      -0.321166        -8.7394
  77   0.0000       0.071409         1.9431
  78   0.0000       0.096381         2.6227
  79   0.0000       0.121782         3.3139
  80   0.0000       0.128753         3.5036
  81   0.0000       0.129920         3.5353

MULLIKEN ATOMIC CHARGES
-----------------------
   0 C :   -0.259527
   1 C :    0.012666
   2 O :   -0.376949
   3 C :    0.484735
   4 O :   -0.400301
   5 C :   -0.295795
   6 C :    0.186271
   7 C :   -0.266318
   8 N :   -0.127435
   9 C :    0.210907
  10 S :   -0.438668
  11 N :   -0.214327
  12 C :    0.062173
  13 C :    0.031506
  14 C :   -0.184489
  15 C :   -0.135603
  16 C :   -0.271046
  17 C :    0.317867
  18 O :   -0.356325
  19 C :   -0.254361
  20 H :    0.104925
  21 H :    0.086218
  22 H :    0.096694
  23 H :    0.097146
  24 H :    0.114108
  25 H :    0.128471
  26 H :    0.134507
  27 H :    0.094283
  28 H :    0.199645
  29 H :    0.201212
  30 H :    0.152603
  31 H :    0.152617
  32 H :    0.166873
  33 H :    0.134421
  34 H :    0.242061
  35 H :    0.169233
Sum of atomic charges:   -0.0000000

LOEWDIN ATOMIC CHARGES
----------------------
   0 C :    0.106186
   1 C :   -0.025497
   2 O :    0.292837
   3 C :   -0.423787
   4 O :    0.120199
   5 C :   -0.104029
   6 C :   -0.053667
   7 C :    0.130858
   8 N :    0.407954
   9 C :   -0.457357
  10 S :   -0.033582
  11 N :    0.394759
  12 C :   -0.054385
  13 C :   -0.039587
  14 C :    0.019247
  15 C :    0.041493
  16 C :    0.000372
  17 C :   -0.191354
  18 O :    0.396266
  19 C :    0.033904
  20 H :   -0.026249
  21 H :   -0.030491
  22 H :   -0.025634
  23 H :   -0.033646
  24 H :   -0.024144
  25 H :   -0.005236
  26 H :   -0.003831
  27 H :   -0.023296
  28 H :   -0.056420
  29 H :   -0.064010
  30 H :   -0.011666
  31 H :   -0.027266
  32 H :   -0.019601
  33 H :   -0.033881
  34 H :   -0.152356
  35 H :   -0.023106

  Mayer bond orders larger than 0.100000
B(  0-C ,  1-C ) :   0.9850 B(  0-C , 20-H ) :   0.9745 B(  0-C , 21-H ) :   0.9772
B(  0-C , 22-H ) :   0.9792 B(  1-C ,  2-O ) :   0.8795 B(  1-C , 23-H ) :   0.9663
B(  1-C , 24-H ) :   0.9760 B(  2-O ,  3-C ) :   1.0909 B(  3-C ,  4-O ) :   2.0307
B(  3-C ,  5-C ) :   1.0638 B(  5-C ,  6-C ) :   1.6306 B(  5-C , 12-C ) :   0.9548
B(  6-C ,  7-C ) :   0.9668 B(  6-C ,  8-N ) :   1.1585 B(  7-C , 25-H ) :   0.9644
B(  7-C , 26-H ) :   0.9553 B(  7-C , 27-H ) :   0.9889 B(  8-N ,  9-C ) :   1.1854
B(  8-N , 28-H ) :   0.9464 B(  9-C , 10-S ) :   1.6085 B(  9-C , 11-N ) :   1.3092
B( 11-N , 12-C ) :   0.9621 B( 11-N , 29-H ) :   0.9483 B( 12-C , 13-C ) :   0.9699
B( 12-C , 30-H ) :   1.0023 B( 13-C , 14-C ) :   1.3455 B( 13-C , 19-C ) :   1.3627
B( 14-C , 15-C ) :   1.3921 B( 14-C , 31-H ) :   0.9758 B( 15-C , 16-C ) :   1.3591
B( 15-C , 32-H ) :   0.9687 B( 16-C , 17-C ) :   1.3316 B( 16-C , 33-H ) :   0.9835
B( 17-C , 18-O ) :   1.1070 B( 17-C , 19-C ) :   1.3601 B( 18-O , 34-H ) :   0.9786
B( 19-C , 35-H ) :   0.9604

MP2 TOTAL ENERGY:    -1274.326036831 Eh
FINAL SINGLE POINT ENERGY     -1274.326036830939

DIPOLE MOMENT
-------------
                                X             Y             Z
Electronic contribution:      9.78367       9.61773       7.69506
Nuclear contribution   :    -10.82144     -11.16153      -7.40782
                        -----------------------------------------
Total Dipole Moment    :     -1.03777      -1.54380       0.28724
                        -----------------------------------------
Magnitude (a.u.)       :      1.88223
Magnitude (Debye)      :      4.78425

Rotational constants in cm-1:     0.012008     0.008726     0.006017
Rotational constants in MHz :   359.990805   261.587677   180.383608

                             ****ORCA TERMINATED NORMALLY****
TOTAL RUN TIME: 0 days 1 hours 50 minutes 53 seconds 644 msec
