                         Program Version 4.2.0 -  RELEASE  -
|  1> ! ri-mp2 cc-pvtz cc-pvtz/c TightSCF NoKeepInts
|  2>
|  3> %scf
|  4>   MaxCore 4096
|  5> end
|  6> *xyz  0  1
|  7>     C       14.5563656   16.1455878   16.4103924
|  8>     C       15.1361842   16.0785979   14.9804803
|  9>     O       16.5479931   15.7656880   14.9792007
| 10>     C       17.5822322   16.5067044   15.5003456
| 11>     O       18.7384530   16.1688767   15.3287109
| 12>     C       17.2365534   17.6143402   16.4335028
| 13>     C       16.8760424   18.8189146   15.9308929
| 14>     C       16.5326362   19.1408368   14.4908583
| 15>     N       16.8790982   19.9604194   16.7342605
| 16>     C       17.4783568   20.0295236   17.9645563
| 17>     S       17.5567444   21.4440685   18.8173321
| 18>     N       18.0361931   18.8676004   18.4393648
| 19>     C       17.8873111   17.5375110   17.8148274
| 20>     C       17.2760063   16.4665513   18.7055654
| 21>     C       17.7757534   15.1524837   18.6677767
| 22>     C       17.2029805   14.1475541   19.4648636
| 23>     C       16.1195914   14.4591426   20.3041730
| 24>     C       15.6165129   15.7669111   20.3398180
| 25>     O       14.5635563   16.0677994   21.1406165
| 26>     C       16.1884250   16.7657259   19.5452730
| 27>     H       14.9852624   15.3573061   17.0426305
| 28>     H       13.4703123   15.9953877   16.3817993
| 29>     H       14.7326894   17.1158958   16.8865434
| 30>     H       14.6169304   15.2759042   14.4406823
| 31>     H       14.9309362   17.0102259   14.4425573
| 32>     H       16.8308424   18.3453787   13.7970523
| 33>     H       17.0540484   20.0478447   14.1582603
| 34>     H       15.4559155   19.3113931   14.3712306
| 35>     H       16.5129624   20.8294943   16.3785313
| 36>     H       18.4742631   18.9443694   19.3488605
| 37>     H       18.9449108   17.2994088   17.6254119
| 38>     H       18.6064447   14.9082256   18.0083762
| 39>     H       17.5968326   13.1332247   19.4263315
| 40>     H       15.6730466   13.6852090   20.9197406
| 41>     H       14.3356914   15.2659990   21.6350227
| 42>     H       15.7789218   17.7698958   19.5821579
| 43> *
| 44>
| 45>                          ****END OF INPUT****

CARTESIAN COORDINATES (ANGSTROEM)
---------------------------------
  C     14.556366   16.145588   16.410392
  C     15.136184   16.078598   14.980480
  O     16.547993   15.765688   14.979201
  C     17.582232   16.506704   15.500346
  O     18.738453   16.168877   15.328711
  C     17.236553   17.614340   16.433503
  C     16.876042   18.818915   15.930893
  C     16.532636   19.140837   14.490858
  N     16.879098   19.960419   16.734261
  C     17.478357   20.029524   17.964556
  S     17.556744   21.444069   18.817332
  N     18.036193   18.867600   18.439365
  C     17.887311   17.537511   17.814827
  C     17.276006   16.466551   18.705565
  C     17.775753   15.152484   18.667777
  C     17.202980   14.147554   19.464864
  C     16.119591   14.459143   20.304173
  C     15.616513   15.766911   20.339818
  O     14.563556   16.067799   21.140617
  C     16.188425   16.765726   19.545273
  H     14.985262   15.357306   17.042630
  H     13.470312   15.995388   16.381799
  H     14.732689   17.115896   16.886543
  H     14.616930   15.275904   14.440682
  H     14.930936   17.010226   14.442557
  H     16.830842   18.345379   13.797052
  H     17.054048   20.047845   14.158260
  H     15.455915   19.311393   14.371231
  H     16.512962   20.829494   16.378531
  H     18.474263   18.944369   19.348860
  H     18.944911   17.299409   17.625412
  H     18.606445   14.908226   18.008376
  H     17.596833   13.133225   19.426331
  H     15.673047   13.685209   20.919741
  H     14.335691   15.265999   21.635023
  H     15.778922   17.769896   19.582158

 Total Charge           Charge          ....    0
 Multiplicity           Mult            ....    1
 Number of Electrons    NEL             ....  154
 Basis Dimension        Dim             ....  828

ORBITAL ENERGIES
----------------

  NO   OCC          E(Eh)            E(eV)
   0   2.0000     -91.889182     -2500.4318
   1   2.0000     -20.601846      -560.6047
   2   2.0000     -20.599813      -560.5494
   3   2.0000     -20.551679      -559.2396
   4   2.0000     -15.626086      -425.2074
   5   2.0000     -15.609755      -424.7630
   6   2.0000     -11.401310      -310.2454
   7   2.0000     -11.385300      -309.8098
   8   2.0000     -11.329318      -308.2864
   9   2.0000     -11.317305      -307.9595
  10   2.0000     -11.312060      -307.8168
  11   2.0000     -11.310649      -307.7784
  12   2.0000     -11.269037      -306.6461
  13   2.0000     -11.265297      -306.5443
  14   2.0000     -11.263667      -306.5000
  15   2.0000     -11.258182      -306.3507
  16   2.0000     -11.246491      -306.0326
  17   2.0000     -11.241860      -305.9066
  18   2.0000     -11.240305      -305.8642
  19   2.0000     -11.230402      -305.5948
  20   2.0000      -8.894297      -242.0261
  21   2.0000      -6.575883      -178.9389
  22   2.0000      -6.573865      -178.8840
  23   2.0000      -6.573287      -178.8682
  24   2.0000      -1.446511       -39.3616
  25   2.0000      -1.419539       -38.6276
  26   2.0000      -1.361201       -37.0402
  27   2.0000      -1.340038       -36.4643
  28   2.0000      -1.238971       -33.7141
  29   2.0000      -1.161856       -31.6157
  30   2.0000      -1.126838       -30.6628
  31   2.0000      -1.049093       -28.5473
  32   2.0000      -1.038496       -28.2589
  33   2.0000      -1.019854       -27.7516
  34   2.0000      -1.007199       -27.4073
  35   2.0000      -0.990389       -26.9499
  36   2.0000      -0.927276       -25.2325
  37   2.0000      -0.897855       -24.4319
  38   2.0000      -0.853627       -23.2284
  39   2.0000      -0.841779       -22.9060
  40   2.0000      -0.837210       -22.7817
  41   2.0000      -0.830772       -22.6064
  42   2.0000      -0.749061       -20.3830
  43   2.0000      -0.739671       -20.1275
  44   2.0000      -0.732540       -19.9334
  45   2.0000      -0.697344       -18.9757
  46   2.0000      -0.689738       -18.7687
  47   2.0000      -0.679957       -18.5026
  48   2.0000      -0.674442       -18.3525
  49   2.0000      -0.664838       -18.0912
  50   2.0000      -0.651855       -17.7379
  51   2.0000      -0.648826       -17.6555
  52   2.0000      -0.638680       -17.3794
  53   2.0000      -0.615483       -16.7481
  54   2.0000      -0.611162       -16.6306
  55   2.0000      -0.607992       -16.5443
  56   2.0000      -0.603487       -16.4217
  57   2.0000      -0.589640       -16.0449
  58   2.0000      -0.579018       -15.7559
  59   2.0000      -0.574876       -15.6432
  60   2.0000      -0.563856       -15.3433
  61   2.0000      -0.558309       -15.1924
  62   2.0000      -0.540706       -14.7134
  63   2.0000      -0.530984       -14.4488
  64   2.0000      -0.520288       -14.1577
  65   2.0000      -0.512791       -13.9537
  66   2.0000      -0.506417       -13.7803
  67   2.0000      -0.501958       -13.6590
  68   2.0000      -0.487395       -13.2627
  69   2.0000      -0.463005       -12.5990
  70   2.0000      -0.454552       -12.3690
  71   2.0000      -0.454025       -12.3546
  72   2.0000      -0.355998        -9.6872
  73   2.0000      -0.350200        -9.5294
  74   2.0000      -0.328848        -8.9484
  75   2.0000      -0.325461        -8.8562
  76   2.0000      -0.319180        -8.6853
  77   0.0000       0.090080         2.4512
  78   0.0000       0.105691         2.8760
  79   0.0000       0.112853         3.0709
  80   0.0000       0.127023         3.4565
  81   0.0000       0.129567         3.5257

MULLIKEN ATOMIC CHARGES
-----------------------
   0 C :   -0.321511
   1 C :    0.025654
   2 O :   -0.320611
   3 C :    0.422607
   4 O :   -0.380959
   5 C :   -0.218739
   6 C :    0.159127
   7 C :   -0.340392
   8 N :   -0.142029
   9 C :    0.210702
  10 S :   -0.444311
  11 N :   -0.230387
  12 C :    0.073570
  13 C :    0.016857
  14 C :   -0.222982
  15 C :   -0.131132
  16 C :   -0.277960
  17 C :    0.316282
  18 O :   -0.356127
  19 C :   -0.250838
  20 H :    0.124957
  21 H :    0.112808
  22 H :    0.108579
  23 H :    0.131641
  24 H :    0.085892
  25 H :    0.127726
  26 H :    0.135462
  27 H :    0.123626
  28 H :    0.197261
  29 H :    0.204384
  30 H :    0.170995
  31 H :    0.174303
  32 H :    0.164641
  33 H :    0.132532
  34 H :    0.241338
  35 H :    0.177035
Sum of atomic charges:   -0.0000000

LOEWDIN ATOMIC CHARGES
----------------------
   0 C :    0.102039
   1 C :   -0.017222
   2 O :    0.300829
   3 C :   -0.416076
   4 O :    0.122089
   5 C :   -0.076628
   6 C :   -0.097577
   7 C :    0.122852
   8 N :    0.401896
   9 C :   -0.456410
  10 S :   -0.039516
  11 N :    0.396755
  12 C :   -0.048451
  13 C :   -0.042990
  14 C :    0.018535
  15 C :    0.044838
  16 C :   -0.000552
  17 C :   -0.191058
  18 O :    0.396044
  19 C :    0.030029
  20 H :   -0.019626
  21 H :   -0.025737
  22 H :   -0.035773
  23 H :   -0.018083
  24 H :   -0.038323
  25 H :   -0.008537
  26 H :   -0.009275
  27 H :   -0.018265
  28 H :   -0.057733
  29 H :   -0.063749
  30 H :   -0.002722
  31 H :   -0.021613
  32 H :   -0.018256
  33 H :   -0.034648
  34 H :   -0.153152
  35 H :   -0.023937

  Mayer bond orders larger than 0.100000
B(  0-C ,  1-C ) :   0.9504 B(  0-C , 20-H ) :   0.9690 B(  0-C , 21-H ) :   0.9772
B(  0-C , 22-H ) :   0.9729 B(  1-C ,  2-O ) :   0.9070 B(  1-C , 23-H ) :   0.9836
B(  1-C , 24-H ) :   0.9744 B(  2-O ,  3-C ) :   1.1762 B(  3-C ,  4-O ) :   2.0985
B(  3-C ,  5-C ) :   0.9116 B(  5-C ,  6-C ) :   1.7274 B(  5-C , 12-C ) :   0.9333
B(  6-C ,  7-C ) :   0.9362 B(  6-C ,  8-N ) :   1.0971 B(  7-C , 25-H ) :   0.9784
B(  7-C , 26-H ) :   0.9731 B(  7-C , 27-H ) :   0.9668 B(  8-N ,  9-C ) :   1.2019
B(  8-N , 28-H ) :   0.9518 B(  9-C , 10-S ) :   1.6073 B(  9-C , 11-N ) :   1.2883
B( 11-N , 12-C ) :   0.9783 B( 11-N , 29-H ) :   0.9467 B( 12-C , 13-C ) :   0.9667
B( 12-C , 30-H ) :   0.9885 B( 13-C , 14-C ) :   1.3858 B( 13-C , 19-C ) :   1.3475
B( 14-C , 15-C ) :   1.3985 B( 14-C , 31-H ) :   0.9608 B( 15-C , 16-C ) :   1.3602
B( 15-C , 32-H ) :   0.9696 B( 16-C , 17-C ) :   1.3304 B( 16-C , 33-H ) :   0.9847
B( 17-C , 18-O ) :   1.1102 B( 17-C , 19-C ) :   1.3666 B( 18-O , 34-H ) :   0.9793
B( 19-C , 35-H ) :   0.9558

MP2 TOTAL ENERGY:    -1274.323783785 Eh
FINAL SINGLE POINT ENERGY     -1274.323783784595

DIPOLE MOMENT
-------------
                                X             Y             Z
Electronic contribution:      8.62663       6.62600       6.80550
Nuclear contribution   :    -10.26614      -7.91564      -7.36787
                        -----------------------------------------
Total Dipole Moment    :     -1.63951      -1.28964      -0.56237
                        -----------------------------------------
Magnitude (a.u.)       :      2.16042
Magnitude (Debye)      :      5.49136

Rotational constants in cm-1:     0.011739     0.009235     0.006512
Rotational constants in MHz :   351.913956   276.855664   195.238792

                             ****ORCA TERMINATED NORMALLY****
TOTAL RUN TIME: 0 days 2 hours 19 minutes 24 seconds 813 msec
