                         Program Version 4.2.0 -  RELEASE  -
|  1> ! ri-mp2 cc-pvtz cc-pvtz/c TightSCF NoKeepInts
|  2>
|  3> %scf
|  4>   MaxCore 4096
|  5> end
|  6> *xyz  0  1
|  7>     C       14.7696623   15.4305611   13.1676464
|  8>     C       14.7707881   15.4241602   14.7055917
|  9>     O       15.5800801   16.5345981   15.1363456
| 10>     C       16.5806933   16.3491436   16.0472146
| 11>     O       17.0515155   15.2500110   16.2892676
| 12>     C       16.9767446   17.5830241   16.8097172
| 13>     C       16.8831214   18.8353553   16.2875355
| 14>     C       16.1837940   19.2674763   15.0132546
| 15>     N       17.5116947   19.9165664   16.9108779
| 16>     C       18.4274670   19.8039067   17.9216528
| 17>     S       19.2160381   21.1215711   18.5360735
| 18>     N       18.6735238   18.5357055   18.3822115
| 19>     C       17.9289266   17.3250720   17.9852385
| 20>     C       17.2687964   16.6160573   19.1605544
| 21>     C       17.5385006   15.2611088   19.4245546
| 22>     C       16.9311329   14.6100388   20.5114035
| 23>     C       16.0477288   15.3205903   21.3421286
| 24>     C       15.7758818   16.6705236   21.0801289
| 25>     O       14.9204312   17.3578664   21.8783386
| 26>     C       16.3816025   17.3155932   19.9971120
| 27>     H       14.3714124   16.3778272   12.7835369
| 28>     H       14.1486526   14.6136856   12.7802835
| 29>     H       15.7882700   15.2992127   12.7814009
| 30>     H       13.7471710   15.5380971   15.0850851
| 31>     H       15.1616273   14.4610147   15.0607173
| 32>     H       15.1050704   19.0783020   15.0797607
| 33>     H       16.5723355   18.7151127   14.1484377
| 34>     H       16.3135179   20.3347115   14.7961140
| 35>     H       17.3579232   20.8515504   16.5688861
| 36>     H       19.3366341   18.4818569   19.1450592
| 37>     H       18.7494128   16.7166814   17.5775965
| 38>     H       18.2100130   14.7072567   18.7726855
| 39>     H       17.1422859   13.5593449   20.7018135
| 40>     H       15.5754017   14.8212315   22.1814404
| 41>     H       14.6272489   16.7535103   22.5765725
| 42>     H       16.1618996   18.3616745   19.8117624
| 43> *
| 44>
| 45>                          ****END OF INPUT****

CARTESIAN COORDINATES (ANGSTROEM)
---------------------------------
  C     14.769662   15.430561   13.167646
  C     14.770788   15.424160   14.705592
  O     15.580080   16.534598   15.136346
  C     16.580693   16.349144   16.047215
  O     17.051516   15.250011   16.289268
  C     16.976745   17.583024   16.809717
  C     16.883121   18.835355   16.287536
  C     16.183794   19.267476   15.013255
  N     17.511695   19.916566   16.910878
  C     18.427467   19.803907   17.921653
  S     19.216038   21.121571   18.536073
  N     18.673524   18.535705   18.382212
  C     17.928927   17.325072   17.985239
  C     17.268796   16.616057   19.160554
  C     17.538501   15.261109   19.424555
  C     16.931133   14.610039   20.511403
  C     16.047729   15.320590   21.342129
  C     15.775882   16.670524   21.080129
  O     14.920431   17.357866   21.878339
  C     16.381602   17.315593   19.997112
  H     14.371412   16.377827   12.783537
  H     14.148653   14.613686   12.780283
  H     15.788270   15.299213   12.781401
  H     13.747171   15.538097   15.085085
  H     15.161627   14.461015   15.060717
  H     15.105070   19.078302   15.079761
  H     16.572336   18.715113   14.148438
  H     16.313518   20.334711   14.796114
  H     17.357923   20.851550   16.568886
  H     19.336634   18.481857   19.145059
  H     18.749413   16.716681   17.577596
  H     18.210013   14.707257   18.772686
  H     17.142286   13.559345   20.701813
  H     15.575402   14.821231   22.181440
  H     14.627249   16.753510   22.576572
  H     16.161900   18.361674   19.811762

 Total Charge           Charge          ....    0
 Multiplicity           Mult            ....    1
 Number of Electrons    NEL             ....  154
 Basis Dimension        Dim             ....  828

ORBITAL ENERGIES
----------------

  NO   OCC          E(Eh)            E(eV)
   0   2.0000     -91.887750     -2500.3928
   1   2.0000     -20.602838      -560.6317
   2   2.0000     -20.591223      -560.3157
   3   2.0000     -20.545365      -559.0678
   4   2.0000     -15.628286      -425.2673
   5   2.0000     -15.605371      -424.6437
   6   2.0000     -11.396435      -310.1128
   7   2.0000     -11.382254      -309.7269
   8   2.0000     -11.337997      -308.5226
   9   2.0000     -11.307180      -307.6840
  10   2.0000     -11.303857      -307.5936
  11   2.0000     -11.299109      -307.4644
  12   2.0000     -11.260850      -306.4233
  13   2.0000     -11.258973      -306.3722
  14   2.0000     -11.254451      -306.2492
  15   2.0000     -11.247260      -306.0535
  16   2.0000     -11.237474      -305.7872
  17   2.0000     -11.233584      -305.6814
  18   2.0000     -11.232433      -305.6500
  19   2.0000     -11.230350      -305.5934
  20   2.0000      -8.892836      -241.9864
  21   2.0000      -6.574414      -178.8989
  22   2.0000      -6.572410      -178.8444
  23   2.0000      -6.571823      -178.8284
  24   2.0000      -1.453519       -39.5523
  25   2.0000      -1.410966       -38.3943
  26   2.0000      -1.357530       -36.9403
  27   2.0000      -1.339637       -36.4534
  28   2.0000      -1.236760       -33.6540
  29   2.0000      -1.151849       -31.3434
  30   2.0000      -1.120456       -30.4892
  31   2.0000      -1.044449       -28.4209
  32   2.0000      -1.036393       -28.2017
  33   2.0000      -1.009381       -27.4666
  34   2.0000      -0.998360       -27.1667
  35   2.0000      -0.983411       -26.7600
  36   2.0000      -0.920316       -25.0431
  37   2.0000      -0.889227       -24.1971
  38   2.0000      -0.847058       -23.0496
  39   2.0000      -0.834506       -22.7081
  40   2.0000      -0.827478       -22.5168
  41   2.0000      -0.818719       -22.2785
  42   2.0000      -0.761452       -20.7202
  43   2.0000      -0.736000       -20.0276
  44   2.0000      -0.725722       -19.7479
  45   2.0000      -0.689639       -18.7660
  46   2.0000      -0.685029       -18.6406
  47   2.0000      -0.679985       -18.5033
  48   2.0000      -0.673109       -18.3162
  49   2.0000      -0.653296       -17.7771
  50   2.0000      -0.650792       -17.7090
  51   2.0000      -0.639154       -17.3923
  52   2.0000      -0.629636       -17.1333
  53   2.0000      -0.613208       -16.6862
  54   2.0000      -0.602765       -16.4021
  55   2.0000      -0.597863       -16.2687
  56   2.0000      -0.594493       -16.1770
  57   2.0000      -0.580831       -15.8052
  58   2.0000      -0.572545       -15.5797
  59   2.0000      -0.563673       -15.3383
  60   2.0000      -0.561645       -15.2831
  61   2.0000      -0.546483       -14.8706
  62   2.0000      -0.538308       -14.6481
  63   2.0000      -0.531538       -14.4639
  64   2.0000      -0.515339       -14.0231
  65   2.0000      -0.508438       -13.8353
  66   2.0000      -0.499850       -13.6016
  67   2.0000      -0.493638       -13.4326
  68   2.0000      -0.480969       -13.0878
  69   2.0000      -0.463580       -12.6147
  70   2.0000      -0.460272       -12.5246
  71   2.0000      -0.451860       -12.2957
  72   2.0000      -0.352908        -9.6031
  73   2.0000      -0.344009        -9.3610
  74   2.0000      -0.326829        -8.8935
  75   2.0000      -0.316930        -8.6241
  76   2.0000      -0.313816        -8.5394
  77   0.0000       0.077310         2.1037
  78   0.0000       0.112203         3.0532
  79   0.0000       0.121176         3.2974
  80   0.0000       0.135863         3.6970
  81   0.0000       0.139092         3.7849

MULLIKEN ATOMIC CHARGES
-----------------------
   0 C :   -0.268987
   1 C :    0.020156
   2 O :   -0.346894
   3 C :    0.433324
   4 O :   -0.423943
   5 C :   -0.177709
   6 C :    0.157971
   7 C :   -0.283442
   8 N :   -0.129038
   9 C :    0.207511
  10 S :   -0.442852
  11 N :   -0.210756
  12 C :    0.040570
  13 C :    0.031706
  14 C :   -0.166894
  15 C :   -0.134289
  16 C :   -0.276954
  17 C :    0.314228
  18 O :   -0.359146
  19 C :   -0.250503
  20 H :    0.090620
  21 H :    0.095175
  22 H :    0.099108
  23 H :    0.099577
  24 H :    0.120521
  25 H :    0.129440
  26 H :    0.125110
  27 H :    0.103114
  28 H :    0.198775
  29 H :    0.199995
  30 H :    0.155274
  31 H :    0.158570
  32 H :    0.159671
  33 H :    0.127999
  34 H :    0.239844
  35 H :    0.163144
Sum of atomic charges:   -0.0000000

LOEWDIN ATOMIC CHARGES
----------------------
   0 C :    0.104063
   1 C :   -0.011307
   2 O :    0.306698
   3 C :   -0.414595
   4 O :    0.103632
   5 C :   -0.091334
   6 C :   -0.064316
   7 C :    0.124806
   8 N :    0.405388
   9 C :   -0.458734
  10 S :   -0.037962
  11 N :    0.396507
  12 C :   -0.048311
  13 C :   -0.040468
  14 C :    0.025009
  15 C :    0.040930
  16 C :   -0.001147
  17 C :   -0.192457
  18 O :    0.393031
  19 C :    0.029774
  20 H :   -0.030103
  21 H :   -0.025126
  22 H :   -0.025415
  23 H :   -0.030353
  24 H :   -0.027109
  25 H :   -0.009549
  26 H :   -0.009724
  27 H :   -0.021227
  28 H :   -0.058817
  29 H :   -0.063087
  30 H :   -0.008390
  31 H :   -0.024071
  32 H :   -0.021149
  33 H :   -0.036231
  34 H :   -0.154944
  35 H :   -0.023913

  Mayer bond orders larger than 0.100000
B(  0-C ,  1-C ) :   0.9724 B(  0-C , 20-H ) :   0.9796 B(  0-C , 21-H ) :   0.9764
B(  0-C , 22-H ) :   0.9783 B(  1-C ,  2-O ) :   0.8886 B(  1-C , 23-H ) :   0.9798
B(  1-C , 24-H ) :   0.9728 B(  2-O ,  3-C ) :   1.1459 B(  3-C ,  4-O ) :   1.9871
B(  3-C ,  5-C ) :   1.0435 B(  5-C ,  6-C ) :   1.6567 B(  5-C , 12-C ) :   0.9480
B(  6-C ,  7-C ) :   0.9533 B(  6-C ,  8-N ) :   1.1350 B(  7-C , 25-H ) :   0.9634
B(  7-C , 26-H ) :   0.9656 B(  7-C , 27-H ) :   0.9917 B(  8-N ,  9-C ) :   1.1854
B(  8-N , 28-H ) :   0.9469 B(  9-C , 10-S ) :   1.6077 B(  9-C , 11-N ) :   1.3067
B( 11-N , 12-C ) :   0.9763 B( 11-N , 29-H ) :   0.9485 B( 12-C , 13-C ) :   0.9746
B( 12-C , 30-H ) :   0.9972 B( 13-C , 14-C ) :   1.3763 B( 13-C , 19-C ) :   1.3660
B( 14-C , 15-C ) :   1.3973 B( 14-C , 31-H ) :   0.9639 B( 15-C , 16-C ) :   1.3587
B( 15-C , 32-H ) :   0.9713 B( 16-C , 17-C ) :   1.3333 B( 16-C , 33-H ) :   0.9861
B( 17-C , 18-O ) :   1.1032 B( 17-C , 19-C ) :   1.3676 B( 18-O , 34-H ) :   0.9807
B( 19-C , 35-H ) :   0.9602

MP2 TOTAL ENERGY:    -1274.339280681 Eh
FINAL SINGLE POINT ENERGY     -1274.339280681296

DIPOLE MOMENT
-------------
                                X             Y             Z
Electronic contribution:      9.58299       8.95931      13.36686
Nuclear contribution   :    -11.15647     -10.19706     -14.34442
                        -----------------------------------------
Total Dipole Moment    :     -1.57348      -1.23776      -0.97756
                        -----------------------------------------
Magnitude (a.u.)       :      2.22789
Magnitude (Debye)      :      5.66286

Rotational constants in cm-1:     0.010035     0.008616     0.005389
Rotational constants in MHz :   300.848750   258.311203   161.544551

                             ****ORCA TERMINATED NORMALLY****
TOTAL RUN TIME: 0 days 1 hours 32 minutes 26 seconds 71 msec
