                         Program Version 4.2.0 -  RELEASE  -
|  1> ! ri-mp2 cc-pvtz cc-pvtz/c TightSCF NoKeepInts
|  2>
|  3> %scf
|  4>   MaxCore 4096
|  5> end
|  6> *xyz  0  1
|  7>     C       13.9017572   16.4653739   15.0816376
|  8>     C       15.0474899   15.8833522   15.9277879
|  9>     O       16.2635409   15.9239594   15.1488730
| 10>     C       17.3634079   16.6779349   15.4720376
| 11>     O       18.4525530   16.4720281   14.9714619
| 12>     C       17.1666579   17.7099802   16.5249339
| 13>     C       16.7442168   18.9436349   16.1672580
| 14>     C       16.1865748   19.3550486   14.8212782
| 15>     N       16.8798131   20.0263021   17.0372998
| 16>     C       17.6393674   20.0006220   18.1782434
| 17>     S       17.8513204   21.3466218   19.1150842
| 18>     N       18.2367536   18.8030489   18.4913775
| 19>     C       18.0004239   17.5254231   17.7890553
| 20>     C       17.4979078   16.3852806   18.6604183
| 21>     C       18.0317333   15.0932891   18.5071109
| 22>     C       17.5513321   14.0263132   19.2844416
| 23>     C       16.5262053   14.2533133   20.2188341
| 24>     C       15.9879793   15.5389012   20.3680360
| 25>     O       14.9900963   15.7585140   21.2603407
| 26>     C       16.4666883   16.5991351   19.5915265
| 27>     H       14.0272748   17.5418683   14.9288402
| 28>     H       12.9392685   16.3062930   15.5831634
| 29>     H       13.8592641   15.9763843   14.1000788
| 30>     H       15.1223701   16.4107712   16.8865921
| 31>     H       14.8158868   14.8344000   16.1546765
| 32>     H       16.1055608   18.5161256   14.1196712
| 33>     H       16.8381249   20.1000258   14.3466326
| 34>     H       15.1876565   19.7958823   14.9247801
| 35>     H       16.4859051   20.9216689   16.7939976
| 36>     H       18.7909972   18.8119757   19.3386234
| 37>     H       19.0198620   17.3066819   17.4364603
| 38>     H       18.8172723   14.9147135   17.7755004
| 39>     H       17.9717358   13.0296832   19.1588217
| 40>     H       16.1518263   13.4314483   20.8204903
| 41>     H       14.8345493   14.9277209   21.7348489
| 42>     H       16.0336266   17.5862806   19.7177861
| 43> *
| 44>
| 45>                          ****END OF INPUT****

CARTESIAN COORDINATES (ANGSTROEM)
---------------------------------
  C     13.901757   16.465374   15.081638
  C     15.047490   15.883352   15.927788
  O     16.263541   15.923959   15.148873
  C     17.363408   16.677935   15.472038
  O     18.452553   16.472028   14.971462
  C     17.166658   17.709980   16.524934
  C     16.744217   18.943635   16.167258
  C     16.186575   19.355049   14.821278
  N     16.879813   20.026302   17.037300
  C     17.639367   20.000622   18.178243
  S     17.851320   21.346622   19.115084
  N     18.236754   18.803049   18.491377
  C     18.000424   17.525423   17.789055
  C     17.497908   16.385281   18.660418
  C     18.031733   15.093289   18.507111
  C     17.551332   14.026313   19.284442
  C     16.526205   14.253313   20.218834
  C     15.987979   15.538901   20.368036
  O     14.990096   15.758514   21.260341
  C     16.466688   16.599135   19.591527
  H     14.027275   17.541868   14.928840
  H     12.939268   16.306293   15.583163
  H     13.859264   15.976384   14.100079
  H     15.122370   16.410771   16.886592
  H     14.815887   14.834400   16.154677
  H     16.105561   18.516126   14.119671
  H     16.838125   20.100026   14.346633
  H     15.187656   19.795882   14.924780
  H     16.485905   20.921669   16.793998
  H     18.790997   18.811976   19.338623
  H     19.019862   17.306682   17.436460
  H     18.817272   14.914713   17.775500
  H     17.971736   13.029683   19.158822
  H     16.151826   13.431448   20.820490
  H     14.834549   14.927721   21.734849
  H     16.033627   17.586281   19.717786

 Total Charge           Charge          ....    0
 Multiplicity           Mult            ....    1
 Number of Electrons    NEL             ....  154
 Basis Dimension        Dim             ....  828

ORBITAL ENERGIES
----------------

  NO   OCC          E(Eh)            E(eV)
   0   2.0000     -91.889002     -2500.4269
   1   2.0000     -20.603868      -560.6598
   2   2.0000     -20.603108      -560.6391
   3   2.0000     -20.552342      -559.2577
   4   2.0000     -15.625089      -425.1803
   5   2.0000     -15.610289      -424.7776
   6   2.0000     -11.399575      -310.1982
   7   2.0000     -11.385409      -309.8127
   8   2.0000     -11.327871      -308.2470
   9   2.0000     -11.321209      -308.0658
  10   2.0000     -11.313646      -307.8599
  11   2.0000     -11.304445      -307.6096
  12   2.0000     -11.268967      -306.6442
  13   2.0000     -11.264431      -306.5208
  14   2.0000     -11.262020      -306.4551
  15   2.0000     -11.261765      -306.4482
  16   2.0000     -11.249983      -306.1276
  17   2.0000     -11.245706      -306.0112
  18   2.0000     -11.244735      -305.9848
  19   2.0000     -11.236124      -305.7505
  20   2.0000      -8.894113      -242.0211
  21   2.0000      -6.575698      -178.9338
  22   2.0000      -6.573683      -178.8790
  23   2.0000      -6.573104      -178.8633
  24   2.0000      -1.448431       -39.4138
  25   2.0000      -1.422800       -38.7164
  26   2.0000      -1.363053       -37.0906
  27   2.0000      -1.339192       -36.4413
  28   2.0000      -1.238839       -33.7105
  29   2.0000      -1.165217       -31.7072
  30   2.0000      -1.127345       -30.6766
  31   2.0000      -1.050918       -28.5969
  32   2.0000      -1.041075       -28.3291
  33   2.0000      -1.022925       -27.8352
  34   2.0000      -1.006396       -27.3854
  35   2.0000      -0.990015       -26.9397
  36   2.0000      -0.927647       -25.2425
  37   2.0000      -0.889502       -24.2046
  38   2.0000      -0.853466       -23.2240
  39   2.0000      -0.843315       -22.9478
  40   2.0000      -0.840951       -22.8835
  41   2.0000      -0.837670       -22.7942
  42   2.0000      -0.758234       -20.6326
  43   2.0000      -0.737998       -20.0820
  44   2.0000      -0.732148       -19.9228
  45   2.0000      -0.700860       -19.0714
  46   2.0000      -0.692467       -18.8430
  47   2.0000      -0.681377       -18.5412
  48   2.0000      -0.675957       -18.3937
  49   2.0000      -0.667393       -18.1607
  50   2.0000      -0.652794       -17.7634
  51   2.0000      -0.641706       -17.4617
  52   2.0000      -0.634473       -17.2649
  53   2.0000      -0.618593       -16.8328
  54   2.0000      -0.612307       -16.6617
  55   2.0000      -0.607836       -16.5401
  56   2.0000      -0.606023       -16.4907
  57   2.0000      -0.585704       -15.9378
  58   2.0000      -0.579743       -15.7756
  59   2.0000      -0.571737       -15.5578
  60   2.0000      -0.565698       -15.3934
  61   2.0000      -0.558204       -15.1895
  62   2.0000      -0.541875       -14.7452
  63   2.0000      -0.538139       -14.6435
  64   2.0000      -0.525717       -14.3055
  65   2.0000      -0.517041       -14.0694
  66   2.0000      -0.503881       -13.7113
  67   2.0000      -0.502788       -13.6816
  68   2.0000      -0.490693       -13.3524
  69   2.0000      -0.469246       -12.7688
  70   2.0000      -0.454461       -12.3665
  71   2.0000      -0.453027       -12.3275
  72   2.0000      -0.356145        -9.6912
  73   2.0000      -0.354322        -9.6416
  74   2.0000      -0.329753        -8.9730
  75   2.0000      -0.327950        -8.9240
  76   2.0000      -0.319152        -8.6846
  77   0.0000       0.091459         2.4887
  78   0.0000       0.101303         2.7566
  79   0.0000       0.118887         3.2351
  80   0.0000       0.126281         3.4363
  81   0.0000       0.127605         3.4723

MULLIKEN ATOMIC CHARGES
-----------------------
   0 C :   -0.282507
   1 C :    0.030699
   2 O :   -0.315763
   3 C :    0.410609
   4 O :   -0.380421
   5 C :   -0.213494
   6 C :    0.160325
   7 C :   -0.347435
   8 N :   -0.138676
   9 C :    0.211443
  10 S :   -0.444272
  11 N :   -0.225287
  12 C :    0.062109
  13 C :    0.020909
  14 C :   -0.224399
  15 C :   -0.129090
  16 C :   -0.275089
  17 C :    0.317018
  18 O :   -0.354289
  19 C :   -0.252874
  20 H :    0.088879
  21 H :    0.101654
  22 H :    0.109964
  23 H :    0.099791
  24 H :    0.119101
  25 H :    0.125731
  26 H :    0.149106
  27 H :    0.119345
  28 H :    0.197004
  29 H :    0.202000
  30 H :    0.168117
  31 H :    0.171012
  32 H :    0.165568
  33 H :    0.133407
  34 H :    0.241833
  35 H :    0.177972
Sum of atomic charges:   -0.0000000

LOEWDIN ATOMIC CHARGES
----------------------
   0 C :    0.105527
   1 C :   -0.015168
   2 O :    0.306780
   3 C :   -0.418144
   4 O :    0.122000
   5 C :   -0.083603
   6 C :   -0.097979
   7 C :    0.124162
   8 N :    0.402416
   9 C :   -0.454344
  10 S :   -0.039388
  11 N :    0.395598
  12 C :   -0.051476
  13 C :   -0.044499
  14 C :    0.017562
  15 C :    0.046377
  16 C :    0.000937
  17 C :   -0.190660
  18 O :    0.396295
  19 C :    0.028003
  20 H :   -0.033349
  21 H :   -0.023591
  22 H :   -0.022941
  23 H :   -0.036758
  24 H :   -0.023769
  25 H :   -0.009762
  26 H :   -0.008327
  27 H :   -0.017957
  28 H :   -0.057081
  29 H :   -0.064394
  30 H :   -0.003367
  31 H :   -0.022277
  32 H :   -0.017826
  33 H :   -0.034092
  34 H :   -0.152425
  35 H :   -0.022480

  Mayer bond orders larger than 0.100000
B(  0-C ,  1-C ) :   0.9735 B(  0-C , 20-H ) :   0.9784 B(  0-C , 21-H ) :   0.9769
B(  0-C , 22-H ) :   0.9761 B(  1-C ,  2-O ) :   0.8993 B(  1-C , 23-H ) :   0.9539
B(  1-C , 24-H ) :   0.9822 B(  2-O ,  3-C ) :   1.1868 B(  3-C ,  4-O ) :   2.1140
B(  3-C ,  5-C ) :   0.8989 B(  5-C ,  6-C ) :   1.7262 B(  5-C , 12-C ) :   0.9431
B(  6-C ,  7-C ) :   0.9432 B(  6-C ,  8-N ) :   1.1055 B(  7-C , 25-H ) :   0.9794
B(  7-C , 26-H ) :   0.9652 B(  7-C , 27-H ) :   0.9700 B(  8-N ,  9-C ) :   1.2029
B(  8-N , 28-H ) :   0.9512 B(  9-C , 10-S ) :   1.6092 B(  9-C , 11-N ) :   1.2859
B( 11-N , 12-C ) :   0.9848 B( 11-N , 29-H ) :   0.9472 B( 12-C , 13-C ) :   0.9639
B( 12-C , 30-H ) :   0.9913 B( 13-C , 14-C ) :   1.3824 B( 13-C , 19-C ) :   1.3494
B( 14-C , 15-C ) :   1.3959 B( 14-C , 31-H ) :   0.9630 B( 15-C , 16-C ) :   1.3640
B( 15-C , 32-H ) :   0.9692 B( 16-C , 17-C ) :   1.3295 B( 16-C , 33-H ) :   0.9841
B( 17-C , 18-O ) :   1.1119 B( 17-C , 19-C ) :   1.3611 B( 18-O , 34-H ) :   0.9788
B( 19-C , 35-H ) :   0.9558

MP2 TOTAL ENERGY:    -1274.329772342 Eh
FINAL SINGLE POINT ENERGY     -1274.329772342154

DIPOLE MOMENT
-------------
                                X             Y             Z
Electronic contribution:     10.47007       6.15294       8.56162
Nuclear contribution   :    -12.07299      -7.66580      -8.64403
                        -----------------------------------------
Total Dipole Moment    :     -1.60292      -1.51285      -0.08241
                        -----------------------------------------
Magnitude (a.u.)       :      2.20564
Magnitude (Debye)      :      5.60630

Rotational constants in cm-1:     0.011100     0.009077     0.006391
Rotational constants in MHz :   332.774988   272.111612   191.590135

                             ****ORCA TERMINATED NORMALLY****
TOTAL RUN TIME: 0 days 2 hours 5 minutes 23 seconds 79 msec
