                         Program Version 4.2.0 -  RELEASE  -
|  1> ! ri-mp2 cc-pvtz cc-pvtz/c TightSCF NoKeepInts
|  2>
|  3> %scf
|  4>   MaxCore 4096
|  5> end
|  6> *xyz  0  1
|  7>     C       14.4182947   16.5477466   16.1015171
|  8>     C       15.3934909   15.3595843   15.9418625
|  9>     O       16.5916518   15.6759111   15.1891585
| 10>     C       17.4146557   16.7733432   15.2757783
| 11>     O       18.3127572   16.9410088   14.4721796
| 12>     C       17.1535587   17.7628785   16.3575913
| 13>     C       16.8919483   19.0387811   15.9936886
| 14>     C       16.4805654   19.4902934   14.6089915
| 15>     N       17.0365427   20.0947049   16.8947065
| 16>     C       17.6781859   19.9859982   18.1003283
| 17>     S       17.9233676   21.2938686   19.0821859
| 18>     N       18.1315914   18.7348712   18.4420401
| 19>     C       17.8418758   17.4917701   17.6996806
| 20>     C       17.2278223   16.3868853   18.5434767
| 21>     C       17.8001383   15.1015753   18.5549195
| 22>     C       17.2300055   14.0747760   19.3260217
| 23>     C       16.0815665   14.3368822   20.0928721
| 24>     C       15.5145406   15.6187499   20.0884470
| 25>     O       14.4036754   15.8738382   20.8237607
| 26>     C       16.0839110   16.6389945   19.3200294
| 27>     H       14.7120400   17.2254235   16.9092123
| 28>     H       13.4195481   16.1718022   16.3552548
| 29>     H       14.3312915   17.1136186   15.1664111
| 30>     H       15.6552678   14.9719008   16.9325169
| 31>     H       14.8716983   14.5492869   15.4164481
| 32>     H       15.8517121   18.7416642   14.1124121
| 33>     H       17.3684158   19.6375469   13.9796229
| 34>     H       15.9166958   20.4305868   14.6269072
| 35>     H       16.7552136   21.0256380   16.6306265
| 36>     H       18.5968515   18.6836315   19.3398060
| 37>     H       18.8675353   17.2032873   17.4253631
| 38>     H       18.6849568   14.8951760   17.9570639
| 39>     H       17.6778765   13.0820889   19.3272431
| 40>     H       15.6378829   13.5462184   20.6894199
| 41>     H       14.1964308   15.0732235   21.3294598
| 42>     H       15.6334375   17.6264454   19.3309960
| 43> *
| 44>
| 45>                          ****END OF INPUT****

CARTESIAN COORDINATES (ANGSTROEM)
---------------------------------
  C     14.418295   16.547747   16.101517
  C     15.393491   15.359584   15.941862
  O     16.591652   15.675911   15.189158
  C     17.414656   16.773343   15.275778
  O     18.312757   16.941009   14.472180
  C     17.153559   17.762878   16.357591
  C     16.891948   19.038781   15.993689
  C     16.480565   19.490293   14.608992
  N     17.036543   20.094705   16.894707
  C     17.678186   19.985998   18.100328
  S     17.923368   21.293869   19.082186
  N     18.131591   18.734871   18.442040
  C     17.841876   17.491770   17.699681
  C     17.227822   16.386885   18.543477
  C     17.800138   15.101575   18.554920
  C     17.230006   14.074776   19.326022
  C     16.081567   14.336882   20.092872
  C     15.514541   15.618750   20.088447
  O     14.403675   15.873838   20.823761
  C     16.083911   16.638994   19.320029
  H     14.712040   17.225423   16.909212
  H     13.419548   16.171802   16.355255
  H     14.331292   17.113619   15.166411
  H     15.655268   14.971901   16.932517
  H     14.871698   14.549287   15.416448
  H     15.851712   18.741664   14.112412
  H     17.368416   19.637547   13.979623
  H     15.916696   20.430587   14.626907
  H     16.755214   21.025638   16.630627
  H     18.596851   18.683631   19.339806
  H     18.867535   17.203287   17.425363
  H     18.684957   14.895176   17.957064
  H     17.677876   13.082089   19.327243
  H     15.637883   13.546218   20.689420
  H     14.196431   15.073223   21.329460
  H     15.633437   17.626445   19.330996

 Total Charge           Charge          ....    0
 Multiplicity           Mult            ....    1
 Number of Electrons    NEL             ....  154
 Basis Dimension        Dim             ....  828

ORBITAL ENERGIES
----------------

  NO   OCC          E(Eh)            E(eV)
   0   2.0000     -91.889241     -2500.4334
   1   2.0000     -20.606635      -560.7350
   2   2.0000     -20.596430      -560.4574
   3   2.0000     -20.549772      -559.1877
   4   2.0000     -15.625167      -425.1824
   5   2.0000     -15.610720      -424.7893
   6   2.0000     -11.397837      -310.1509
   7   2.0000     -11.384870      -309.7980
   8   2.0000     -11.325407      -308.1800
   9   2.0000     -11.324532      -308.1562
  10   2.0000     -11.316721      -307.9436
  11   2.0000     -11.303529      -307.5847
  12   2.0000     -11.272044      -306.7279
  13   2.0000     -11.266274      -306.5709
  14   2.0000     -11.257206      -306.3241
  15   2.0000     -11.255230      -306.2704
  16   2.0000     -11.255142      -306.2680
  17   2.0000     -11.249884      -306.1249
  18   2.0000     -11.249839      -306.1237
  19   2.0000     -11.232763      -305.6590
  20   2.0000      -8.894333      -242.0271
  21   2.0000      -6.575912      -178.9397
  22   2.0000      -6.573905      -178.8850
  23   2.0000      -6.573321      -178.8692
  24   2.0000      -1.441703       -39.2307
  25   2.0000      -1.426386       -38.8139
  26   2.0000      -1.356655       -36.9164
  27   2.0000      -1.338743       -36.4291
  28   2.0000      -1.239068       -33.7168
  29   2.0000      -1.168652       -31.8006
  30   2.0000      -1.125742       -30.6330
  31   2.0000      -1.052651       -28.6441
  32   2.0000      -1.035472       -28.1766
  33   2.0000      -1.026734       -27.9388
  34   2.0000      -1.004480       -27.3333
  35   2.0000      -0.989940       -26.9376
  36   2.0000      -0.927720       -25.2445
  37   2.0000      -0.898626       -24.4529
  38   2.0000      -0.851620       -23.1738
  39   2.0000      -0.845632       -23.0108
  40   2.0000      -0.844383       -22.9768
  41   2.0000      -0.829301       -22.5664
  42   2.0000      -0.751268       -20.4430
  43   2.0000      -0.740595       -20.1526
  44   2.0000      -0.722217       -19.6525
  45   2.0000      -0.705329       -19.1930
  46   2.0000      -0.692637       -18.8476
  47   2.0000      -0.678318       -18.4580
  48   2.0000      -0.676428       -18.4065
  49   2.0000      -0.662475       -18.0269
  50   2.0000      -0.652815       -17.7640
  51   2.0000      -0.649491       -17.6736
  52   2.0000      -0.637939       -17.3592
  53   2.0000      -0.617673       -16.8077
  54   2.0000      -0.613359       -16.6903
  55   2.0000      -0.608138       -16.5483
  56   2.0000      -0.605096       -16.4655
  57   2.0000      -0.585633       -15.9359
  58   2.0000      -0.578402       -15.7391
  59   2.0000      -0.571386       -15.5482
  60   2.0000      -0.566743       -15.4219
  61   2.0000      -0.553067       -15.0497
  62   2.0000      -0.539637       -14.6843
  63   2.0000      -0.535140       -14.5619
  64   2.0000      -0.527207       -14.3460
  65   2.0000      -0.516608       -14.0576
  66   2.0000      -0.505326       -13.7506
  67   2.0000      -0.502836       -13.6829
  68   2.0000      -0.490954       -13.3595
  69   2.0000      -0.463549       -12.6138
  70   2.0000      -0.453003       -12.3268
  71   2.0000      -0.446626       -12.1533
  72   2.0000      -0.360329        -9.8051
  73   2.0000      -0.349963        -9.5230
  74   2.0000      -0.334119        -9.0918
  75   2.0000      -0.328272        -8.9327
  76   2.0000      -0.318151        -8.6573
  77   0.0000       0.086070         2.3421
  78   0.0000       0.095861         2.6085
  79   0.0000       0.119970         3.2645
  80   0.0000       0.126929         3.4539
  81   0.0000       0.128459         3.4956

MULLIKEN ATOMIC CHARGES
-----------------------
   0 C :   -0.328673
   1 C :    0.036859
   2 O :   -0.319491
   3 C :    0.409644
   4 O :   -0.378737
   5 C :   -0.233250
   6 C :    0.154597
   7 C :   -0.294283
   8 N :   -0.134100
   9 C :    0.213197
  10 S :   -0.442593
  11 N :   -0.217916
  12 C :    0.053140
  13 C :   -0.001847
  14 C :   -0.197660
  15 C :   -0.129914
  16 C :   -0.273578
  17 C :    0.316463
  18 O :   -0.353889
  19 C :   -0.252073
  20 H :    0.114992
  21 H :    0.118787
  22 H :    0.103586
  23 H :    0.099605
  24 H :    0.126257
  25 H :    0.113697
  26 H :    0.147962
  27 H :    0.099327
  28 H :    0.197257
  29 H :    0.200711
  30 H :    0.165519
  31 H :    0.160479
  32 H :    0.165801
  33 H :    0.135820
  34 H :    0.242317
  35 H :    0.181989
Sum of atomic charges:   -0.0000000

LOEWDIN ATOMIC CHARGES
----------------------
   0 C :    0.101313
   1 C :   -0.011662
   2 O :    0.296228
   3 C :   -0.417835
   4 O :    0.125374
   5 C :   -0.087851
   6 C :   -0.086671
   7 C :    0.129033
   8 N :    0.404330
   9 C :   -0.454517
  10 S :   -0.037953
  11 N :    0.395558
  12 C :   -0.055735
  13 C :   -0.045773
  14 C :    0.017390
  15 C :    0.044318
  16 C :    0.001979
  17 C :   -0.190888
  18 O :    0.397821
  19 C :    0.033376
  20 H :   -0.036207
  21 H :   -0.022767
  22 H :   -0.030776
  23 H :   -0.032906
  24 H :   -0.020568
  25 H :   -0.012594
  26 H :   -0.003144
  27 H :   -0.019820
  28 H :   -0.058361
  29 H :   -0.064376
  30 H :   -0.007442
  31 H :   -0.025073
  32 H :   -0.017824
  33 H :   -0.032890
  34 H :   -0.151814
  35 H :   -0.021273

  Mayer bond orders larger than 0.100000
B(  0-C ,  1-C ) :   0.9546 B(  0-C , 20-H ) :   0.9699 B(  0-C , 21-H ) :   0.9772
B(  0-C , 22-H ) :   0.9759 B(  1-C ,  2-O ) :   0.9058 B(  1-C , 23-H ) :   0.9682
B(  1-C , 24-H ) :   0.9838 B(  2-O ,  3-C ) :   1.2002 B(  3-C ,  4-O ) :   2.1188
B(  3-C ,  5-C ) :   0.9144 B(  5-C ,  6-C ) :   1.7175 B(  5-C , 12-C ) :   0.9437
B(  6-C ,  7-C ) :   0.9415 B(  6-C ,  8-N ) :   1.1191 B(  7-C , 25-H ) :   0.9780
B(  7-C , 26-H ) :   0.9587 B(  7-C , 27-H ) :   0.9840 B(  8-N ,  9-C ) :   1.2020
B(  8-N , 28-H ) :   0.9499 B(  9-C , 10-S ) :   1.6107 B(  9-C , 11-N ) :   1.2836
B( 11-N , 12-C ) :   0.9804 B( 11-N , 29-H ) :   0.9472 B( 12-C , 13-C ) :   0.9507
B( 12-C , 30-H ) :   1.0019 B( 13-C , 14-C ) :   1.3690 B( 13-C , 19-C ) :   1.3537
B( 14-C , 15-C ) :   1.3983 B( 14-C , 31-H ) :   0.9699 B( 15-C , 16-C ) :   1.3622
B( 15-C , 32-H ) :   0.9696 B( 16-C , 17-C ) :   1.3287 B( 16-C , 33-H ) :   0.9832
B( 17-C , 18-O ) :   1.1132 B( 17-C , 19-C ) :   1.3603 B( 18-O , 34-H ) :   0.9783
B( 19-C , 35-H ) :   0.9525

MP2 TOTAL ENERGY:    -1274.318911410 Eh
FINAL SINGLE POINT ENERGY     -1274.318911410331

DIPOLE MOMENT
-------------
                                X             Y             Z
Electronic contribution:      8.78154       6.55331       6.09523
Nuclear contribution   :    -10.31026      -8.32726      -5.85131
                        -----------------------------------------
Total Dipole Moment    :     -1.52872      -1.77395       0.24392
                        -----------------------------------------
Magnitude (a.u.)       :      2.35444
Magnitude (Debye)      :      5.98450

Rotational constants in cm-1:     0.012386     0.009026     0.006469
Rotational constants in MHz :   371.324557   270.605037   193.922521

                             ****ORCA TERMINATED NORMALLY****
TOTAL RUN TIME: 0 days 1 hours 49 minutes 24 seconds 110 msec
