                         Program Version 4.2.0 -  RELEASE  -
|  1> ! ri-mp2 cc-pvtz cc-pvtz/c TightSCF NoKeepInts
|  2>
|  3> %scf
|  4>   MaxCore 4096
|  5> end
|  6> *xyz  0  1
|  7>     C       13.7623193   15.8299861   13.8398676
|  8>     C       14.9958237   15.4280914   14.6656710
|  9>     O       15.6950931   16.6338823   15.0103763
| 10>     C       16.7715346   16.5371226   15.8413105
| 11>     O       17.4310639   15.5141494   15.9252803
| 12>     C       16.9821401   17.7176379   16.7473684
| 13>     C       16.6317670   18.9845496   16.3992363
| 14>     C       15.7902374   19.4297366   15.2190225
| 15>     N       17.0894209   20.0790632   17.1375395
| 16>     C       18.0682903   20.0157064   18.0920200
| 17>     S       18.6393012   21.3713566   18.8481146
| 18>     N       18.5670732   18.7689742   18.3716977
| 19>     C       18.0328127   17.4986607   17.8438236
| 20>     C       17.5819540   16.5383161   18.9366419
| 21>     C       18.1093814   15.2365188   19.0104617
| 22>     C       17.6940803   14.3533712   20.0212030
| 23>     C       16.7443476   14.7763445   20.9669797
| 24>     C       16.2158375   16.0726002   20.8945276
| 25>     O       15.2958117   16.4822282   21.8039794
| 26>     C       16.6307809   16.9490906   19.8867984
| 27>     H       13.1044088   16.4875606   14.4214878
| 28>     H       13.1892134   14.9413885   13.5483120
| 29>     H       14.0638258   16.3587912   12.9271097
| 30>     H       14.6798667   14.8966521   15.5737384
| 31>     H       15.6442551   14.7633174   14.0786761
| 32>     H       16.2188614   19.0685034   14.2757360
| 33>     H       15.7119196   20.5207399   15.1381904
| 34>     H       14.7694738   19.0355609   15.2999988
| 35>     H       16.7488641   21.0036567   16.9277896
| 36>     H       19.2726563   18.7466218   19.0971222
| 37>     H       18.9244389   17.1100912   17.3304717
| 38>     H       18.8325853   14.9040774   18.2694675
| 39>     H       18.1043194   13.3460609   20.0642865
| 40>     H       16.4198346   14.0970640   21.7481248
| 41>     H       15.1600159   15.7528162   22.4271014
| 42>     H       16.2133898   17.9497111   19.8484672
| 43> *
| 44>
| 45>                          ****END OF INPUT****

CARTESIAN COORDINATES (ANGSTROEM)
---------------------------------
  C     13.762319   15.829986   13.839868
  C     14.995824   15.428091   14.665671
  O     15.695093   16.633882   15.010376
  C     16.771535   16.537123   15.841311
  O     17.431064   15.514149   15.925280
  C     16.982140   17.717638   16.747368
  C     16.631767   18.984550   16.399236
  C     15.790237   19.429737   15.219022
  N     17.089421   20.079063   17.137539
  C     18.068290   20.015706   18.092020
  S     18.639301   21.371357   18.848115
  N     18.567073   18.768974   18.371698
  C     18.032813   17.498661   17.843824
  C     17.581954   16.538316   18.936642
  C     18.109381   15.236519   19.010462
  C     17.694080   14.353371   20.021203
  C     16.744348   14.776344   20.966980
  C     16.215837   16.072600   20.894528
  O     15.295812   16.482228   21.803979
  C     16.630781   16.949091   19.886798
  H     13.104409   16.487561   14.421488
  H     13.189213   14.941388   13.548312
  H     14.063826   16.358791   12.927110
  H     14.679867   14.896652   15.573738
  H     15.644255   14.763317   14.078676
  H     16.218861   19.068503   14.275736
  H     15.711920   20.520740   15.138190
  H     14.769474   19.035561   15.299999
  H     16.748864   21.003657   16.927790
  H     19.272656   18.746622   19.097122
  H     18.924439   17.110091   17.330472
  H     18.832585   14.904077   18.269468
  H     18.104319   13.346061   20.064287
  H     16.419835   14.097064   21.748125
  H     15.160016   15.752816   22.427101
  H     16.213390   17.949711   19.848467

 Total Charge           Charge          ....    0
 Multiplicity           Mult            ....    1
 Number of Electrons    NEL             ....  154
 Basis Dimension        Dim             ....  828

ORBITAL ENERGIES
----------------

  NO   OCC          E(Eh)            E(eV)
   0   2.0000     -91.888070     -2500.4015
   1   2.0000     -20.601170      -560.5863
   2   2.0000     -20.591683      -560.3282
   3   2.0000     -20.546190      -559.0903
   4   2.0000     -15.628717      -425.2790
   5   2.0000     -15.605664      -424.6517
   6   2.0000     -11.394488      -310.0598
   7   2.0000     -11.382604      -309.7364
   8   2.0000     -11.338353      -308.5323
   9   2.0000     -11.307623      -307.6961
  10   2.0000     -11.304162      -307.6019
  11   2.0000     -11.299962      -307.4876
  12   2.0000     -11.260723      -306.4199
  13   2.0000     -11.259210      -306.3787
  14   2.0000     -11.254865      -306.2604
  15   2.0000     -11.247642      -306.0639
  16   2.0000     -11.237892      -305.7986
  17   2.0000     -11.235567      -305.7353
  18   2.0000     -11.234038      -305.6937
  19   2.0000     -11.230731      -305.6037
  20   2.0000      -8.893153      -241.9950
  21   2.0000      -6.574730      -178.9075
  22   2.0000      -6.572727      -178.8530
  23   2.0000      -6.572139      -178.8370
  24   2.0000      -1.455508       -39.6064
  25   2.0000      -1.411429       -38.4069
  26   2.0000      -1.357306       -36.9342
  27   2.0000      -1.339956       -36.4620
  28   2.0000      -1.237060       -33.6621
  29   2.0000      -1.152268       -31.3548
  30   2.0000      -1.120838       -30.4996
  31   2.0000      -1.045058       -28.4375
  32   2.0000      -1.036955       -28.2170
  33   2.0000      -1.009799       -27.4780
  34   2.0000      -0.998841       -27.1798
  35   2.0000      -0.983999       -26.7760
  36   2.0000      -0.920591       -25.0506
  37   2.0000      -0.887458       -24.1490
  38   2.0000      -0.847061       -23.0497
  39   2.0000      -0.834824       -22.7167
  40   2.0000      -0.827888       -22.5280
  41   2.0000      -0.819582       -22.3020
  42   2.0000      -0.762114       -20.7382
  43   2.0000      -0.736149       -20.0316
  44   2.0000      -0.726053       -19.7569
  45   2.0000      -0.689977       -18.7752
  46   2.0000      -0.683921       -18.6104
  47   2.0000      -0.682000       -18.5582
  48   2.0000      -0.676210       -18.4006
  49   2.0000      -0.658257       -17.9121
  50   2.0000      -0.650482       -17.7005
  51   2.0000      -0.641145       -17.4464
  52   2.0000      -0.633181       -17.2297
  53   2.0000      -0.603590       -16.4245
  54   2.0000      -0.602774       -16.4023
  55   2.0000      -0.598298       -16.2805
  56   2.0000      -0.595016       -16.1912
  57   2.0000      -0.577124       -15.7043
  58   2.0000      -0.572951       -15.5908
  59   2.0000      -0.563951       -15.3459
  60   2.0000      -0.561763       -15.2863
  61   2.0000      -0.551827       -15.0160
  62   2.0000      -0.543516       -14.7898
  63   2.0000      -0.520107       -14.1528
  64   2.0000      -0.515780       -14.0351
  65   2.0000      -0.511056       -13.9065
  66   2.0000      -0.505888       -13.7659
  67   2.0000      -0.494137       -13.4461
  68   2.0000      -0.480939       -13.0870
  69   2.0000      -0.463781       -12.6201
  70   2.0000      -0.461293       -12.5524
  71   2.0000      -0.452662       -12.3176
  72   2.0000      -0.353155        -9.6098
  73   2.0000      -0.344424        -9.3723
  74   2.0000      -0.327129        -8.9016
  75   2.0000      -0.317222        -8.6320
  76   2.0000      -0.314232        -8.5507
  77   0.0000       0.076397         2.0789
  78   0.0000       0.111590         3.0365
  79   0.0000       0.120516         3.2794
  80   0.0000       0.135583         3.6894
  81   0.0000       0.138199         3.7606

MULLIKEN ATOMIC CHARGES
-----------------------
   0 C :   -0.275178
   1 C :    0.047182
   2 O :   -0.339759
   3 C :    0.414817
   4 O :   -0.415952
   5 C :   -0.171744
   6 C :    0.157311
   7 C :   -0.283947
   8 N :   -0.128839
   9 C :    0.207444
  10 S :   -0.442281
  11 N :   -0.210708
  12 C :    0.042322
  13 C :    0.031835
  14 C :   -0.166516
  15 C :   -0.134455
  16 C :   -0.277265
  17 C :    0.313825
  18 O :   -0.359186
  19 C :   -0.251645
  20 H :    0.093737
  21 H :    0.100477
  22 H :    0.096888
  23 H :    0.086850
  24 H :    0.102163
  25 H :    0.126244
  26 H :    0.103647
  27 H :    0.128640
  28 H :    0.198860
  29 H :    0.199970
  30 H :    0.155265
  31 H :    0.158633
  32 H :    0.159972
  33 H :    0.128187
  34 H :    0.239925
  35 H :    0.163280
Sum of atomic charges:    0.0000000

LOEWDIN ATOMIC CHARGES
----------------------
   0 C :    0.107503
   1 C :   -0.018564
   2 O :    0.304715
   3 C :   -0.416220
   4 O :    0.107404
   5 C :   -0.092535
   6 C :   -0.064342
   7 C :    0.125312
   8 N :    0.405502
   9 C :   -0.458586
  10 S :   -0.037536
  11 N :    0.396433
  12 C :   -0.048246
  13 C :   -0.040573
  14 C :    0.025214
  15 C :    0.041016
  16 C :   -0.001254
  17 C :   -0.192682
  18 O :    0.392973
  19 C :    0.029446
  20 H :   -0.028582
  21 H :   -0.022811
  22 H :   -0.026980
  23 H :   -0.028321
  24 H :   -0.027967
  25 H :   -0.009259
  26 H :   -0.021120
  27 H :   -0.009920
  28 H :   -0.058716
  29 H :   -0.063111
  30 H :   -0.008173
  31 H :   -0.023934
  32 H :   -0.021035
  33 H :   -0.036198
  34 H :   -0.154895
  35 H :   -0.023959

  Mayer bond orders larger than 0.100000
B(  0-C ,  1-C ) :   0.9710 B(  0-C , 20-H ) :   0.9779 B(  0-C , 21-H ) :   0.9784
B(  0-C , 22-H ) :   0.9772 B(  1-C ,  2-O ) :   0.9099 B(  1-C , 23-H ) :   0.9743
B(  1-C , 24-H ) :   0.9790 B(  2-O ,  3-C ) :   1.1369 B(  3-C ,  4-O ) :   1.9984
B(  3-C ,  5-C ) :   1.0380 B(  5-C ,  6-C ) :   1.6556 B(  5-C , 12-C ) :   0.9501
B(  6-C ,  7-C ) :   0.9541 B(  6-C ,  8-N ) :   1.1340 B(  7-C , 25-H ) :   0.9649
B(  7-C , 26-H ) :   0.9918 B(  7-C , 27-H ) :   0.9631 B(  8-N ,  9-C ) :   1.1852
B(  8-N , 28-H ) :   0.9468 B(  9-C , 10-S ) :   1.6083 B(  9-C , 11-N ) :   1.3066
B( 11-N , 12-C ) :   0.9762 B( 11-N , 29-H ) :   0.9485 B( 12-C , 13-C ) :   0.9735
B( 12-C , 30-H ) :   0.9970 B( 13-C , 14-C ) :   1.3765 B( 13-C , 19-C ) :   1.3653
B( 14-C , 15-C ) :   1.3975 B( 14-C , 31-H ) :   0.9638 B( 15-C , 16-C ) :   1.3586
B( 15-C , 32-H ) :   0.9712 B( 16-C , 17-C ) :   1.3334 B( 16-C , 33-H ) :   0.9860
B( 17-C , 18-O ) :   1.1034 B( 17-C , 19-C ) :   1.3677 B( 18-O , 34-H ) :   0.9807
B( 19-C , 35-H ) :   0.9603

MP2 TOTAL ENERGY:    -1274.339478216 Eh
FINAL SINGLE POINT ENERGY     -1274.339478216333

DIPOLE MOMENT
-------------
                                X             Y             Z
Electronic contribution:     11.17558       8.58642      11.92914
Nuclear contribution   :    -12.63106      -9.93424     -12.89681
                        -----------------------------------------
Total Dipole Moment    :     -1.45548      -1.34782      -0.96766
                        -----------------------------------------
Magnitude (a.u.)       :      2.20713
Magnitude (Debye)      :      5.61007

Rotational constants in cm-1:     0.009743     0.008910     0.005536
Rotational constants in MHz :   292.088850   267.129615   165.979064

                             ****ORCA TERMINATED NORMALLY****
TOTAL RUN TIME: 0 days 1 hours 32 minutes 39 seconds 593 msec
