                         Program Version 4.2.0 -  RELEASE  -
|  1> ! ri-mp2 cc-pvtz cc-pvtz/c TightSCF NoKeepInts
|  2>
|  3> %scf
|  4>   MaxCore 4096
|  5> end
|  6> *xyz  0  1
|  7>     C       15.3133383   15.1454634   13.7418305
|  8>     C       15.0851943   15.0117620   15.2636096
|  9>     O       15.8885029   15.9607647   15.9949562
| 10>     C       15.7206594   17.3143319   15.8707398
| 11>     O       14.8899784   17.8104302   15.1292877
| 12>     C       16.6264542   18.0913145   16.7898539
| 13>     C       16.7989261   19.4288596   16.6271965
| 14>     C       15.9789729   20.3613903   15.7592924
| 15>     N       17.8282489   20.1076263   17.2835863
| 16>     C       18.8452435   19.4981773   17.9668069
| 17>     S       20.0891475   20.3578577   18.6372301
| 18>     N       18.7917699   18.1299702   18.0476441
| 19>     C       17.6740487   17.2881685   17.5806039
| 20>     C       17.0915690   16.4230073   18.6906827
| 21>     C       17.2933396   15.0304462   18.6954680
| 22>     C       16.7591119   14.2357559   19.7237986
| 23>     C       16.0206590   14.8393322   20.7562723
| 24>     C       15.8223463   16.2271172   20.7554737
| 25>     O       15.1115299   16.8124671   21.7520900
| 26>     C       16.3554915   17.0153417   19.7308173
| 27>     H       14.8657331   16.0625276   13.3410701
| 28>     H       14.8545908   14.2998017   13.2155216
| 29>     H       16.3851151   15.1498862   13.5086411
| 30>     H       14.0215507   15.1610536   15.4932289
| 31>     H       15.3591726   13.9970617   15.5795152
| 32>     H       14.9105498   20.2642754   15.9913759
| 33>     H       16.1075922   20.1153358   14.6975831
| 34>     H       16.2455009   21.4168036   15.8897258
| 35>     H       17.8908324   21.1106515   17.2131655
| 36>     H       19.5380650   17.7107584   18.5877366
| 37>     H       18.1962569   16.6677874   16.8385711
| 38>     H       17.8600112   14.5628403   17.8948246
| 39>     H       16.9173986   13.1587959   19.7185097
| 40>     H       15.6062086   14.2299814   21.5525960
| 41>     H       14.8456687   16.1142763   22.3690015
| 42>     H       16.1982212   18.0885792   19.7496929
| 43> *
| 44>
| 45>                          ****END OF INPUT****

CARTESIAN COORDINATES (ANGSTROEM)
---------------------------------
  C     15.313338   15.145463   13.741831
  C     15.085194   15.011762   15.263610
  O     15.888503   15.960765   15.994956
  C     15.720659   17.314332   15.870740
  O     14.889978   17.810430   15.129288
  C     16.626454   18.091314   16.789854
  C     16.798926   19.428860   16.627197
  C     15.978973   20.361390   15.759292
  N     17.828249   20.107626   17.283586
  C     18.845243   19.498177   17.966807
  S     20.089147   20.357858   18.637230
  N     18.791770   18.129970   18.047644
  C     17.674049   17.288169   17.580604
  C     17.091569   16.423007   18.690683
  C     17.293340   15.030446   18.695468
  C     16.759112   14.235756   19.723799
  C     16.020659   14.839332   20.756272
  C     15.822346   16.227117   20.755474
  O     15.111530   16.812467   21.752090
  C     16.355491   17.015342   19.730817
  H     14.865733   16.062528   13.341070
  H     14.854591   14.299802   13.215522
  H     16.385115   15.149886   13.508641
  H     14.021551   15.161054   15.493229
  H     15.359173   13.997062   15.579515
  H     14.910550   20.264275   15.991376
  H     16.107592   20.115336   14.697583
  H     16.245501   21.416804   15.889726
  H     17.890832   21.110651   17.213165
  H     19.538065   17.710758   18.587737
  H     18.196257   16.667787   16.838571
  H     17.860011   14.562840   17.894825
  H     16.917399   13.158796   19.718510
  H     15.606209   14.229981   21.552596
  H     14.845669   16.114276   22.369001
  H     16.198221   18.088579   19.749693

 Total Charge           Charge          ....    0
 Multiplicity           Mult            ....    1
 Number of Electrons    NEL             ....  154
 Basis Dimension        Dim             ....  828

ORBITAL ENERGIES
----------------

  NO   OCC          E(Eh)            E(eV)
   0   2.0000     -91.888395     -2500.4104
   1   2.0000     -20.600715      -560.5739
   2   2.0000     -20.595199      -560.4239
   3   2.0000     -20.541413      -558.9603
   4   2.0000     -15.628751      -425.2799
   5   2.0000     -15.606425      -424.6724
   6   2.0000     -11.396511      -310.1148
   7   2.0000     -11.382973      -309.7464
   8   2.0000     -11.337047      -308.4967
   9   2.0000     -11.312220      -307.8212
  10   2.0000     -11.306871      -307.6756
  11   2.0000     -11.300466      -307.5013
  12   2.0000     -11.259449      -306.3852
  13   2.0000     -11.259341      -306.3822
  14   2.0000     -11.253725      -306.2294
  15   2.0000     -11.251473      -306.1681
  16   2.0000     -11.242113      -305.9134
  17   2.0000     -11.237497      -305.7878
  18   2.0000     -11.237448      -305.7865
  19   2.0000     -11.223537      -305.4080
  20   2.0000      -8.893471      -242.0037
  21   2.0000      -6.575046      -178.9161
  22   2.0000      -6.573046      -178.8617
  23   2.0000      -6.572457      -178.8456
  24   2.0000      -1.449201       -39.4348
  25   2.0000      -1.414849       -38.5000
  26   2.0000      -1.354793       -36.8658
  27   2.0000      -1.339994       -36.4631
  28   2.0000      -1.237784       -33.6818
  29   2.0000      -1.156239       -31.4629
  30   2.0000      -1.120437       -30.4886
  31   2.0000      -1.041853       -28.3503
  32   2.0000      -1.036372       -28.2011
  33   2.0000      -1.013560       -27.5804
  34   2.0000      -0.995571       -27.0909
  35   2.0000      -0.983768       -26.7697
  36   2.0000      -0.921092       -25.0642
  37   2.0000      -0.895911       -24.3790
  38   2.0000      -0.846318       -23.0295
  39   2.0000      -0.836988       -22.7756
  40   2.0000      -0.832818       -22.6621
  41   2.0000      -0.817489       -22.2450
  42   2.0000      -0.753246       -20.4969
  43   2.0000      -0.731879       -19.9154
  44   2.0000      -0.721275       -19.6269
  45   2.0000      -0.694418       -18.8961
  46   2.0000      -0.688165       -18.7259
  47   2.0000      -0.679377       -18.4868
  48   2.0000      -0.670367       -18.2416
  49   2.0000      -0.653396       -17.7798
  50   2.0000      -0.646403       -17.5895
  51   2.0000      -0.644604       -17.5406
  52   2.0000      -0.631782       -17.1917
  53   2.0000      -0.610908       -16.6237
  54   2.0000      -0.605088       -16.4653
  55   2.0000      -0.599367       -16.3096
  56   2.0000      -0.597736       -16.2652
  57   2.0000      -0.578690       -15.7470
  58   2.0000      -0.571737       -15.5577
  59   2.0000      -0.569364       -15.4932
  60   2.0000      -0.562266       -15.3000
  61   2.0000      -0.539789       -14.6884
  62   2.0000      -0.537277       -14.6200
  63   2.0000      -0.524494       -14.2722
  64   2.0000      -0.522660       -14.2223
  65   2.0000      -0.512479       -13.9453
  66   2.0000      -0.501480       -13.6460
  67   2.0000      -0.497010       -13.5243
  68   2.0000      -0.483521       -13.1573
  69   2.0000      -0.462661       -12.5896
  70   2.0000      -0.456112       -12.4114
  71   2.0000      -0.444128       -12.0853
  72   2.0000      -0.352603        -9.5948
  73   2.0000      -0.348471        -9.4824
  74   2.0000      -0.327528        -8.9125
  75   2.0000      -0.319690        -8.6992
  76   2.0000      -0.317514        -8.6400
  77   0.0000       0.078126         2.1259
  78   0.0000       0.106863         2.9079
  79   0.0000       0.123573         3.3626
  80   0.0000       0.133552         3.6341
  81   0.0000       0.136444         3.7128

MULLIKEN ATOMIC CHARGES
-----------------------
   0 C :   -0.302003
   1 C :    0.042749
   2 O :   -0.345547
   3 C :    0.440289
   4 O :   -0.440678
   5 C :   -0.214149
   6 C :    0.171324
   7 C :   -0.269478
   8 N :   -0.125534
   9 C :    0.210435
  10 S :   -0.442774
  11 N :   -0.214505
  12 C :    0.053315
  13 C :    0.050999
  14 C :   -0.175287
  15 C :   -0.134307
  16 C :   -0.275452
  17 C :    0.316770
  18 O :   -0.357171
  19 C :   -0.248162
  20 H :    0.126622
  21 H :    0.095865
  22 H :    0.090097
  23 H :    0.094216
  24 H :    0.105911
  25 H :    0.134138
  26 H :    0.127776
  27 H :    0.094833
  28 H :    0.199598
  29 H :    0.200362
  30 H :    0.151192
  31 H :    0.147873
  32 H :    0.159266
  33 H :    0.129164
  34 H :    0.240365
  35 H :    0.161888
Sum of atomic charges:    0.0000000

LOEWDIN ATOMIC CHARGES
----------------------
   0 C :    0.104369
   1 C :   -0.012897
   2 O :    0.305079
   3 C :   -0.412205
   4 O :    0.098473
   5 C :   -0.093403
   6 C :   -0.056716
   7 C :    0.130667
   8 N :    0.407042
   9 C :   -0.456888
  10 S :   -0.037188
  11 N :    0.394683
  12 C :   -0.055052
  13 C :   -0.038921
  14 C :    0.016768
  15 C :    0.039270
  16 C :   -0.000461
  17 C :   -0.189429
  18 O :    0.394862
  19 C :    0.033434
  20 H :   -0.026240
  21 H :   -0.027708
  22 H :   -0.030683
  23 H :   -0.028007
  24 H :   -0.024720
  25 H :   -0.004251
  26 H :   -0.005621
  27 H :   -0.023696
  28 H :   -0.057248
  29 H :   -0.064355
  30 H :   -0.014596
  31 H :   -0.029936
  32 H :   -0.021652
  33 H :   -0.035621
  34 H :   -0.154177
  35 H :   -0.022976

  Mayer bond orders larger than 0.100000
B(  0-C ,  1-C ) :   0.9654 B(  0-C , 20-H ) :   0.9718 B(  0-C , 21-H ) :   0.9775
B(  0-C , 22-H ) :   0.9761 B(  1-C ,  2-O ) :   0.9069 B(  1-C , 23-H ) :   0.9785
B(  1-C , 24-H ) :   0.9840 B(  2-O ,  3-C ) :   1.1679 B(  3-C ,  4-O ) :   1.9466
B(  3-C ,  5-C ) :   1.0776 B(  5-C ,  6-C ) :   1.6400 B(  5-C , 12-C ) :   0.9535
B(  6-C ,  7-C ) :   0.9659 B(  6-C ,  8-N ) :   1.1538 B(  7-C , 25-H ) :   0.9613
B(  7-C , 26-H ) :   0.9588 B(  7-C , 27-H ) :   0.9910 B(  8-N ,  9-C ) :   1.1877
B(  8-N , 28-H ) :   0.9464 B(  9-C , 10-S ) :   1.6052 B(  9-C , 11-N ) :   1.3095
B( 11-N , 12-C ) :   0.9683 B( 11-N , 29-H ) :   0.9484 B( 12-C , 13-C ) :   0.9674
B( 12-C , 30-H ) :   1.0007 B( 13-C , 14-C ) :   1.3540 B( 13-C , 19-C ) :   1.3814
B( 14-C , 15-C ) :   1.3965 B( 14-C , 31-H ) :   0.9725 B( 15-C , 16-C ) :   1.3605
B( 15-C , 32-H ) :   0.9711 B( 16-C , 17-C ) :   1.3341 B( 16-C , 33-H ) :   0.9854
B( 17-C , 18-O ) :   1.1037 B( 17-C , 19-C ) :   1.3652 B( 18-O , 34-H ) :   0.9801
B( 19-C , 35-H ) :   0.9597

MP2 TOTAL ENERGY:    -1274.341192599 Eh
FINAL SINGLE POINT ENERGY     -1274.341192598650

DIPOLE MOMENT
-------------
                                X             Y             Z
Electronic contribution:      8.53460       8.83544      11.28209
Nuclear contribution   :     -9.65173     -10.48413     -11.68220
                        -----------------------------------------
Total Dipole Moment    :     -1.11713      -1.64869      -0.40011
                        -----------------------------------------
Magnitude (a.u.)       :      2.03132
Magnitude (Debye)      :      5.16320

Rotational constants in cm-1:     0.010124     0.009030     0.005788
Rotational constants in MHz :   303.499825   270.713559   173.519474

                             ****ORCA TERMINATED NORMALLY****
TOTAL RUN TIME: 0 days 1 hours 37 minutes 0 seconds 537 msec
