                         Program Version 4.2.0 -  RELEASE  -
|  1> ! ri-mp2 cc-pvtz cc-pvtz/c TightSCF NoKeepInts
|  2>
|  3> %scf
|  4>   MaxCore 4096
|  5> end
|  6> *xyz  0  1
|  7>     C       13.6735931   16.0712152   14.4840459
|  8>     C       15.0326644   15.5514265   14.9818489
|  9>     O       15.9871409   16.6111334   14.8240935
| 10>     C       17.0588383   16.5926065   15.6616598
| 11>     O       17.7927775   15.6222447   15.7345138
| 12>     C       17.1137194   17.7340134   16.6343401
| 13>     C       16.7179464   18.9904728   16.3019198
| 14>     C       15.9757229   19.4294357   15.0551518
| 15>     N       17.0332124   20.0771419   17.1214456
| 16>     C       17.9213868   20.0293361   18.1621398
| 17>     S       18.3304170   21.3810409   19.0228454
| 18>     N       18.4717268   18.8033366   18.4391044
| 19>     C       18.0715394   17.5278915   17.8133610
| 20>     C       17.5804505   16.4910270   18.8147928
| 21>     C       18.1631086   15.2120030   18.8665812
| 22>     C       17.7069212   14.2557046   19.7892461
| 23>     C       16.6595622   14.5816924   20.6679731
| 24>     C       16.0753671   15.8548109   20.6165437
| 25>     O       15.0602470   16.1704572   21.4597932
| 26>     C       16.5309803   16.8041849   19.6961750
| 27>     H       13.3467753   16.9339643   15.0773298
| 28>     H       12.9095771   15.2886936   14.5680842
| 29>     H       13.7382058   16.3758362   13.4319698
| 30>     H       14.9420950   15.2672346   16.0397885
| 31>     H       15.3470848   14.6679167   14.4102257
| 32>     H       16.4893049   19.0795083   14.1506723
| 33>     H       15.8916475   20.5198870   14.9720048
| 34>     H       14.9581086   19.0205096   15.0447302
| 35>     H       16.6560876   20.9883212   16.9151431
| 36>     H       19.1090820   18.7915237   19.2254471
| 37>     H       19.0292118   17.2163907   17.3710984
| 38>     H       18.9629202   14.9544359   18.1759913
| 39>     H       18.1618887   13.2671316   19.8161347
| 40>     H       16.3034885   13.8456383   21.3810438
| 41>     H       14.9155805   15.4064661   22.0380144
| 42>     H       16.0686196   17.7853670   19.6727471
| 43> *
| 44>
| 45>                          ****END OF INPUT****

CARTESIAN COORDINATES (ANGSTROEM)
---------------------------------
  C     13.673593   16.071215   14.484046
  C     15.032664   15.551426   14.981849
  O     15.987141   16.611133   14.824094
  C     17.058838   16.592606   15.661660
  O     17.792777   15.622245   15.734514
  C     17.113719   17.734013   16.634340
  C     16.717946   18.990473   16.301920
  C     15.975723   19.429436   15.055152
  N     17.033212   20.077142   17.121446
  C     17.921387   20.029336   18.162140
  S     18.330417   21.381041   19.022845
  N     18.471727   18.803337   18.439104
  C     18.071539   17.527891   17.813361
  C     17.580451   16.491027   18.814793
  C     18.163109   15.212003   18.866581
  C     17.706921   14.255705   19.789246
  C     16.659562   14.581692   20.667973
  C     16.075367   15.854811   20.616544
  O     15.060247   16.170457   21.459793
  C     16.530980   16.804185   19.696175
  H     13.346775   16.933964   15.077330
  H     12.909577   15.288694   14.568084
  H     13.738206   16.375836   13.431970
  H     14.942095   15.267235   16.039789
  H     15.347085   14.667917   14.410226
  H     16.489305   19.079508   14.150672
  H     15.891647   20.519887   14.972005
  H     14.958109   19.020510   15.044730
  H     16.656088   20.988321   16.915143
  H     19.109082   18.791524   19.225447
  H     19.029212   17.216391   17.371098
  H     18.962920   14.954436   18.175991
  H     18.161889   13.267132   19.816135
  H     16.303489   13.845638   21.381044
  H     14.915581   15.406466   22.038014
  H     16.068620   17.785367   19.672747

 Total Charge           Charge          ....    0
 Multiplicity           Mult            ....    1
 Number of Electrons    NEL             ....  154
 Basis Dimension        Dim             ....  828

ORBITAL ENERGIES
----------------

  NO   OCC          E(Eh)            E(eV)
   0   2.0000     -91.889246     -2500.4335
   1   2.0000     -20.593715      -560.3835
   2   2.0000     -20.590797      -560.3041
   3   2.0000     -20.550120      -559.1972
   4   2.0000     -15.630106      -425.3168
   5   2.0000     -15.606829      -424.6834
   6   2.0000     -11.393342      -310.0286
   7   2.0000     -11.383945      -309.7729
   8   2.0000     -11.339337      -308.5590
   9   2.0000     -11.309814      -307.7557
  10   2.0000     -11.305142      -307.6285
  11   2.0000     -11.302668      -307.5612
  12   2.0000     -11.260451      -306.4125
  13   2.0000     -11.260275      -306.4077
  14   2.0000     -11.256952      -306.3172
  15   2.0000     -11.249716      -306.1203
  16   2.0000     -11.239931      -305.8541
  17   2.0000     -11.236338      -305.7563
  18   2.0000     -11.236155      -305.7513
  19   2.0000     -11.232660      -305.6562
  20   2.0000      -8.894321      -242.0268
  21   2.0000      -6.575895      -178.9392
  22   2.0000      -6.573894      -178.8848
  23   2.0000      -6.573303      -178.8687
  24   2.0000      -1.454283       -39.5731
  25   2.0000      -1.413467       -38.4624
  26   2.0000      -1.358027       -36.9538
  27   2.0000      -1.341085       -36.4928
  28   2.0000      -1.238134       -33.6913
  29   2.0000      -1.154290       -31.4098
  30   2.0000      -1.122100       -30.5339
  31   2.0000      -1.044941       -28.4343
  32   2.0000      -1.037840       -28.2411
  33   2.0000      -1.011836       -27.5335
  34   2.0000      -1.000375       -27.2216
  35   2.0000      -0.985738       -26.8233
  36   2.0000      -0.922025       -25.0896
  37   2.0000      -0.885540       -24.0968
  38   2.0000      -0.848539       -23.0899
  39   2.0000      -0.837306       -22.7843
  40   2.0000      -0.829955       -22.5842
  41   2.0000      -0.825468       -22.4621
  42   2.0000      -0.761198       -20.7133
  43   2.0000      -0.736594       -20.0437
  44   2.0000      -0.727716       -19.8022
  45   2.0000      -0.691576       -18.8187
  46   2.0000      -0.685519       -18.6539
  47   2.0000      -0.682432       -18.5699
  48   2.0000      -0.675827       -18.3902
  49   2.0000      -0.656277       -17.8582
  50   2.0000      -0.652524       -17.7561
  51   2.0000      -0.641524       -17.4568
  52   2.0000      -0.633935       -17.2503
  53   2.0000      -0.610916       -16.6239
  54   2.0000      -0.604705       -16.4549
  55   2.0000      -0.600465       -16.3395
  56   2.0000      -0.597078       -16.2473
  57   2.0000      -0.576162       -15.6782
  58   2.0000      -0.574402       -15.6303
  59   2.0000      -0.566759       -15.4223
  60   2.0000      -0.559698       -15.2301
  61   2.0000      -0.552562       -15.0360
  62   2.0000      -0.546597       -14.8737
  63   2.0000      -0.518089       -14.0979
  64   2.0000      -0.517135       -14.0719
  65   2.0000      -0.512115       -13.9354
  66   2.0000      -0.507485       -13.8094
  67   2.0000      -0.495727       -13.4894
  68   2.0000      -0.481178       -13.0935
  69   2.0000      -0.463138       -12.6026
  70   2.0000      -0.460908       -12.5420
  71   2.0000      -0.453002       -12.3268
  72   2.0000      -0.354328        -9.6417
  73   2.0000      -0.346400        -9.4260
  74   2.0000      -0.328272        -8.9327
  75   2.0000      -0.318435        -8.6651
  76   2.0000      -0.316499        -8.6124
  77   0.0000       0.072930         1.9845
  78   0.0000       0.108834         2.9615
  79   0.0000       0.120317         3.2740
  80   0.0000       0.134427         3.6579
  81   0.0000       0.138122         3.7585

MULLIKEN ATOMIC CHARGES
-----------------------
   0 C :   -0.285025
   1 C :    0.049243
   2 O :   -0.360895
   3 C :    0.435005
   4 O :   -0.397133
   5 C :   -0.193807
   6 C :    0.151319
   7 C :   -0.284103
   8 N :   -0.127716
   9 C :    0.206709
  10 S :   -0.440532
  11 N :   -0.210910
  12 C :    0.045125
  13 C :    0.032574
  14 C :   -0.173300
  15 C :   -0.133419
  16 C :   -0.277865
  17 C :    0.313976
  18 O :   -0.358848
  19 C :   -0.254935
  20 H :    0.092370
  21 H :    0.105885
  22 H :    0.101067
  23 H :    0.086717
  24 H :    0.107596
  25 H :    0.129018
  26 H :    0.105550
  27 H :    0.124537
  28 H :    0.198902
  29 H :    0.199911
  30 H :    0.156511
  31 H :    0.161512
  32 H :    0.161026
  33 H :    0.129083
  34 H :    0.240302
  35 H :    0.164549
Sum of atomic charges:   -0.0000000

LOEWDIN ATOMIC CHARGES
----------------------
   0 C :    0.107506
   1 C :   -0.018507
   2 O :    0.298883
   3 C :   -0.422765
   4 O :    0.119154
   5 C :   -0.096340
   6 C :   -0.065009
   7 C :    0.126316
   8 N :    0.405802
   9 C :   -0.458201
  10 S :   -0.036310
  11 N :    0.396175
  12 C :   -0.048443
  13 C :   -0.041419
  14 C :    0.024696
  15 C :    0.041455
  16 C :   -0.001221
  17 C :   -0.193143
  18 O :    0.393076
  19 C :    0.028304
  20 H :   -0.029815
  21 H :   -0.022637
  22 H :   -0.025926
  23 H :   -0.028040
  24 H :   -0.027020
  25 H :   -0.007552
  26 H :   -0.020505
  27 H :   -0.011129
  28 H :   -0.058339
  29 H :   -0.063262
  30 H :   -0.007504
  31 H :   -0.023369
  32 H :   -0.020556
  33 H :   -0.035910
  34 H :   -0.154527
  35 H :   -0.023919

  Mayer bond orders larger than 0.100000
B(  0-C ,  1-C ) :   0.9719 B(  0-C , 20-H ) :   0.9779 B(  0-C , 21-H ) :   0.9780
B(  0-C , 22-H ) :   0.9760 B(  1-C ,  2-O ) :   0.9051 B(  1-C , 23-H ) :   0.9703
B(  1-C , 24-H ) :   0.9823 B(  2-O ,  3-C ) :   1.0826 B(  3-C ,  4-O ) :   2.0339
B(  3-C ,  5-C ) :   1.0260 B(  5-C ,  6-C ) :   1.6599 B(  5-C , 12-C ) :   0.9490
B(  6-C ,  7-C ) :   0.9533 B(  6-C ,  8-N ) :   1.1371 B(  7-C , 25-H ) :   0.9652
B(  7-C , 26-H ) :   0.9906 B(  7-C , 27-H ) :   0.9645 B(  8-N ,  9-C ) :   1.1845
B(  8-N , 28-H ) :   0.9470 B(  9-C , 10-S ) :   1.6108 B(  9-C , 11-N ) :   1.3047
B( 11-N , 12-C ) :   0.9781 B( 11-N , 29-H ) :   0.9485 B( 12-C , 13-C ) :   0.9716
B( 12-C , 30-H ) :   0.9956 B( 13-C , 14-C ) :   1.3790 B( 13-C , 19-C ) :   1.3625
B( 14-C , 15-C ) :   1.3971 B( 14-C , 31-H ) :   0.9627 B( 15-C , 16-C ) :   1.3592
B( 15-C , 32-H ) :   0.9708 B( 16-C , 17-C ) :   1.3329 B( 16-C , 33-H ) :   0.9857
B( 17-C , 18-O ) :   1.1044 B( 17-C , 19-C ) :   1.3671 B( 18-O , 34-H ) :   0.9803
B( 19-C , 35-H ) :   0.9601

MP2 TOTAL ENERGY:    -1274.329674237 Eh
FINAL SINGLE POINT ENERGY     -1274.329674237097

DIPOLE MOMENT
-------------
                                X             Y             Z
Electronic contribution:     11.28510       7.96506      10.19778
Nuclear contribution   :    -12.71177      -9.26349     -10.97283
                        -----------------------------------------
Total Dipole Moment    :     -1.42668      -1.29843      -0.77505
                        -----------------------------------------
Magnitude (a.u.)       :      2.07895
Magnitude (Debye)      :      5.28427

Rotational constants in cm-1:     0.009708     0.009407     0.005895
Rotational constants in MHz :   291.040039   282.006762   176.715067

                             ****ORCA TERMINATED NORMALLY****
TOTAL RUN TIME: 0 days 1 hours 41 minutes 6 seconds 224 msec
