                         Program Version 4.2.0 -  RELEASE  -
|  1> ! ri-mp2 cc-pvtz cc-pvtz/c TightSCF NoKeepInts
|  2>
|  3> %scf
|  4>   MaxCore 4096
|  5> end
|  6> *xyz  0  1
|  7>     C       14.0461243   16.5080989   15.7488269
|  8>     C       15.1761753   15.6282183   15.1835340
|  9>     O       16.2289479   16.4710995   14.6822411
| 10>     C       17.3218866   16.6067160   15.4829723
| 11>     O       18.2061332   15.7694859   15.5081786
| 12>     C       17.2120244   17.7115781   16.4850092
| 13>     C       16.8061439   18.9533372   16.1215844
| 14>     C       16.2379726   19.3725428   14.7807601
| 15>     N       16.9647574   20.0364409   16.9888483
| 16>     C       17.7152463   20.0027347   18.1342958
| 17>     S       17.9472678   21.3503989   19.0642429
| 18>     N       18.2833226   18.7955005   18.4591236
| 19>     C       18.0275491   17.5181296   17.7642454
| 20>     C       17.4571529   16.4279435   18.6599872
| 21>     C       18.0470220   15.1518979   18.6957983
| 22>     C       17.5085284   14.1387551   19.5065496
| 23>     C       16.3690524   14.4037043   20.2855923
| 24>     C       15.7759431   15.6731356   20.2469085
| 25>     O       14.6698875   15.9290013   20.9898738
| 26>     C       16.3139381   16.6794487   19.4384022
| 27>     H       14.3994185   17.1094908   16.5953069
| 28>     H       13.2193911   15.8810977   16.1046466
| 29>     H       13.6529175   17.1802942   14.9767459
| 30>     H       15.5502292   14.9393840   15.9548622
| 31>     H       14.7762318   15.0241007   14.3588252
| 32>     H       16.8243341   18.9499513   13.9549151
| 33>     H       16.2406597   20.4610205   14.6448243
| 34>     H       15.2041890   19.0272851   14.6679124
| 35>     H       16.5771999   20.9350840   16.7488818
| 36>     H       18.8200143   18.7952343   19.3174708
| 37>     H       19.0456964   17.2590304   17.4380101
| 38>     H       18.9186178   14.9418622   18.0795047
| 39>     H       17.9717746   13.1536838   19.5239415
| 40>     H       15.9490817   13.6233646   20.9116243
| 41>     H       14.4812636   15.1351970   21.5128577
| 42>     H       15.8409051   17.6557517   19.4206958
| 43> *
| 44>
| 45>                          ****END OF INPUT****

CARTESIAN COORDINATES (ANGSTROEM)
---------------------------------
  C     14.046124   16.508099   15.748827
  C     15.176175   15.628218   15.183534
  O     16.228948   16.471100   14.682241
  C     17.321887   16.606716   15.482972
  O     18.206133   15.769486   15.508179
  C     17.212024   17.711578   16.485009
  C     16.806144   18.953337   16.121584
  C     16.237973   19.372543   14.780760
  N     16.964757   20.036441   16.988848
  C     17.715246   20.002735   18.134296
  S     17.947268   21.350399   19.064243
  N     18.283323   18.795500   18.459124
  C     18.027549   17.518130   17.764245
  C     17.457153   16.427944   18.659987
  C     18.047022   15.151898   18.695798
  C     17.508528   14.138755   19.506550
  C     16.369052   14.403704   20.285592
  C     15.775943   15.673136   20.246908
  O     14.669887   15.929001   20.989874
  C     16.313938   16.679449   19.438402
  H     14.399418   17.109491   16.595307
  H     13.219391   15.881098   16.104647
  H     13.652917   17.180294   14.976746
  H     15.550229   14.939384   15.954862
  H     14.776232   15.024101   14.358825
  H     16.824334   18.949951   13.954915
  H     16.240660   20.461020   14.644824
  H     15.204189   19.027285   14.667912
  H     16.577200   20.935084   16.748882
  H     18.820014   18.795234   19.317471
  H     19.045696   17.259030   17.438010
  H     18.918618   14.941862   18.079505
  H     17.971775   13.153684   19.523941
  H     15.949082   13.623365   20.911624
  H     14.481264   15.135197   21.512858
  H     15.840905   17.655752   19.420696

 Total Charge           Charge          ....    0
 Multiplicity           Mult            ....    1
 Number of Electrons    NEL             ....  154
 Basis Dimension        Dim             ....  828

ORBITAL ENERGIES
----------------

  NO   OCC          E(Eh)            E(eV)
   0   2.0000     -91.890046     -2500.4553
   1   2.0000     -20.597367      -560.4828
   2   2.0000     -20.585843      -560.1693
   3   2.0000     -20.554690      -559.3215
   4   2.0000     -15.630068      -425.3158
   5   2.0000     -15.608303      -424.7235
   6   2.0000     -11.393986      -310.0461
   7   2.0000     -11.385247      -309.8083
   8   2.0000     -11.337195      -308.5008
   9   2.0000     -11.314080      -307.8718
  10   2.0000     -11.307017      -307.6796
  11   2.0000     -11.304677      -307.6159
  12   2.0000     -11.261214      -306.4332
  13   2.0000     -11.261033      -306.4283
  14   2.0000     -11.258649      -306.3634
  15   2.0000     -11.254120      -306.2402
  16   2.0000     -11.243851      -305.9607
  17   2.0000     -11.239994      -305.8558
  18   2.0000     -11.236668      -305.7653
  19   2.0000     -11.232407      -305.6493
  20   2.0000      -8.895123      -242.0486
  21   2.0000      -6.576697      -178.9610
  22   2.0000      -6.574696      -178.9066
  23   2.0000      -6.574105      -178.8905
  24   2.0000      -1.451746       -39.5040
  25   2.0000      -1.417120       -38.5618
  26   2.0000      -1.359748       -37.0006
  27   2.0000      -1.341316       -36.4991
  28   2.0000      -1.238838       -33.7105
  29   2.0000      -1.158338       -31.5200
  30   2.0000      -1.124073       -30.5876
  31   2.0000      -1.046097       -28.4657
  32   2.0000      -1.036169       -28.1956
  33   2.0000      -1.015796       -27.6412
  34   2.0000      -1.002541       -27.2805
  35   2.0000      -0.988364       -26.8948
  36   2.0000      -0.924334       -25.1524
  37   2.0000      -0.888689       -24.1825
  38   2.0000      -0.849746       -23.1228
  39   2.0000      -0.840113       -22.8606
  40   2.0000      -0.834095       -22.6969
  41   2.0000      -0.827000       -22.5038
  42   2.0000      -0.758838       -20.6490
  43   2.0000      -0.737023       -20.0554
  44   2.0000      -0.729836       -19.8598
  45   2.0000      -0.695372       -18.9220
  46   2.0000      -0.686786       -18.6884
  47   2.0000      -0.680818       -18.5260
  48   2.0000      -0.675794       -18.3893
  49   2.0000      -0.660072       -17.9615
  50   2.0000      -0.654274       -17.8037
  51   2.0000      -0.644474       -17.5370
  52   2.0000      -0.636587       -17.3224
  53   2.0000      -0.608767       -16.5654
  54   2.0000      -0.603586       -16.4244
  55   2.0000      -0.600824       -16.3493
  56   2.0000      -0.596871       -16.2417
  57   2.0000      -0.587618       -15.9899
  58   2.0000      -0.577344       -15.7103
  59   2.0000      -0.574239       -15.6258
  60   2.0000      -0.562645       -15.3103
  61   2.0000      -0.552530       -15.0351
  62   2.0000      -0.547326       -14.8935
  63   2.0000      -0.522251       -14.2112
  64   2.0000      -0.518599       -14.1118
  65   2.0000      -0.512023       -13.9329
  66   2.0000      -0.503182       -13.6923
  67   2.0000      -0.497751       -13.5445
  68   2.0000      -0.485256       -13.2045
  69   2.0000      -0.465360       -12.6631
  70   2.0000      -0.456618       -12.4252
  71   2.0000      -0.454531       -12.3684
  72   2.0000      -0.354609        -9.6494
  73   2.0000      -0.349944        -9.5225
  74   2.0000      -0.329185        -8.9576
  75   2.0000      -0.321250        -8.7417
  76   2.0000      -0.319219        -8.6864
  77   0.0000       0.073181         1.9914
  78   0.0000       0.103641         2.8202
  79   0.0000       0.120589         3.2814
  80   0.0000       0.131636         3.5820
  81   0.0000       0.134997         3.6734

MULLIKEN ATOMIC CHARGES
-----------------------
   0 C :   -0.313510
   1 C :    0.044097
   2 O :   -0.372355
   3 C :    0.460013
   4 O :   -0.384965
   5 C :   -0.247494
   6 C :    0.173206
   7 C :   -0.285880
   8 N :   -0.130478
   9 C :    0.204644
  10 S :   -0.440083
  11 N :   -0.213998
  12 C :    0.057276
  13 C :    0.026371
  14 C :   -0.191574
  15 C :   -0.130990
  16 C :   -0.278689
  17 C :    0.314597
  18 O :   -0.357444
  19 C :   -0.259581
  20 H :    0.107576
  21 H :    0.116748
  22 H :    0.096693
  23 H :    0.098687
  24 H :    0.113189
  25 H :    0.129081
  26 H :    0.107391
  27 H :    0.126480
  28 H :    0.198622
  29 H :    0.199805
  30 H :    0.159832
  31 H :    0.168011
  32 H :    0.163240
  33 H :    0.130941
  34 H :    0.240929
  35 H :    0.169611
Sum of atomic charges:   -0.0000000

LOEWDIN ATOMIC CHARGES
----------------------
   0 C :    0.102526
   1 C :   -0.014122
   2 O :    0.291116
   3 C :   -0.423737
   4 O :    0.127736
   5 C :   -0.095328
   6 C :   -0.070761
   7 C :    0.128197
   8 N :    0.405600
   9 C :   -0.457068
  10 S :   -0.036089
  11 N :    0.395768
  12 C :   -0.049444
  13 C :   -0.043162
  14 C :    0.022657
  15 C :    0.042122
  16 C :   -0.000857
  17 C :   -0.192928
  18 O :    0.394010
  19 C :    0.028661
  20 H :   -0.031450
  21 H :   -0.023184
  22 H :   -0.031484
  23 H :   -0.024735
  24 H :   -0.022950
  25 H :   -0.006781
  26 H :   -0.018873
  27 H :   -0.012446
  28 H :   -0.058090
  29 H :   -0.063773
  30 H :   -0.006275
  31 H :   -0.022326
  32 H :   -0.019633
  33 H :   -0.035277
  34 H :   -0.153768
  35 H :   -0.023851

  Mayer bond orders larger than 0.100000
B(  0-C ,  1-C ) :   0.9658 B(  0-C , 20-H ) :   0.9711 B(  0-C , 21-H ) :   0.9781
B(  0-C , 22-H ) :   0.9767 B(  1-C ,  2-O ) :   0.8907 B(  1-C , 23-H ) :   0.9718
B(  1-C , 24-H ) :   0.9849 B(  2-O ,  3-C ) :   1.0887 B(  3-C ,  4-O ) :   2.0710
B(  3-C ,  5-C ) :   0.9805 B(  5-C ,  6-C ) :   1.6817 B(  5-C , 12-C ) :   0.9468
B(  6-C ,  7-C ) :   0.9498 B(  6-C ,  8-N ) :   1.1335 B(  7-C , 25-H ) :   0.9674
B(  7-C , 26-H ) :   0.9879 B(  7-C , 27-H ) :   0.9644 B(  8-N ,  9-C ) :   1.1876
B(  8-N , 28-H ) :   0.9476 B(  9-C , 10-S ) :   1.6132 B(  9-C , 11-N ) :   1.2981
B( 11-N , 12-C ) :   0.9823 B( 11-N , 29-H ) :   0.9488 B( 12-C , 13-C ) :   0.9684
B( 12-C , 30-H ) :   0.9939 B( 13-C , 14-C ) :   1.3809 B( 13-C , 19-C ) :   1.3555
B( 14-C , 15-C ) :   1.3949 B( 14-C , 31-H ) :   0.9609 B( 15-C , 16-C ) :   1.3612
B( 15-C , 32-H ) :   0.9703 B( 16-C , 17-C ) :   1.3309 B( 16-C , 33-H ) :   0.9851
B( 17-C , 18-O ) :   1.1073 B( 17-C , 19-C ) :   1.3665 B( 18-O , 34-H ) :   0.9798
B( 19-C , 35-H ) :   0.9588

MP2 TOTAL ENERGY:    -1274.324995884 Eh
FINAL SINGLE POINT ENERGY     -1274.324995883891

DIPOLE MOMENT
-------------
                                X             Y             Z
Electronic contribution:     10.00616       6.86548       7.40157
Nuclear contribution   :    -11.36500      -8.18446      -7.95745
                        -----------------------------------------
Total Dipole Moment    :     -1.35884      -1.31898      -0.55588
                        -----------------------------------------
Magnitude (a.u.)       :      1.97362
Magnitude (Debye)      :      5.01654

Rotational constants in cm-1:     0.011206     0.009187     0.006487
Rotational constants in MHz :   335.935044   275.425207   194.487412

                             ****ORCA TERMINATED NORMALLY****
TOTAL RUN TIME: 0 days 1 hours 55 minutes 35 seconds 866 msec
