                         Program Version 4.2.0 -  RELEASE  -
|  1> ! ri-mp2 cc-pvtz cc-pvtz/c TightSCF NoKeepInts
|  2>
|  3> %scf
|  4>   MaxCore 4096
|  5> end
|  6> *xyz  0  1
|  7>     C       14.3133770   16.6038183   16.0117160
|  8>     C       15.3387927   15.4519815   15.9337216
|  9>     O       16.4763535   15.7727756   15.0997065
| 10>     C       17.4054501   16.7656888   15.2940884
| 11>     O       18.3816130   16.8634993   14.5748106
| 12>     C       17.1531947   17.7434953   16.3866349
| 13>     C       16.8531703   19.0116906   16.0271557
| 14>     C       16.4107057   19.4489959   14.6475562
| 15>     N       16.9979262   20.0727994   16.9220311
| 16>     C       17.6732631   19.9803861   18.1106556
| 17>     S       17.9146818   21.2954269   19.0838209
| 18>     N       18.1635368   18.7401524   18.4416864
| 19>     C       17.8834046   17.4900253   17.7073099
| 20>     C       17.2925426   16.3781964   18.5568651
| 21>     C       17.8828588   15.1014082   18.5686252
| 22>     C       17.3234711   14.0657900   19.3357681
| 23>     C       16.1662952   14.3100183   20.0955048
| 24>     C       15.5783417   15.5824378   20.0862668
| 25>     O       14.4566813   15.8189634   20.8113445
| 26>     C       16.1363516   16.6113251   19.3210371
| 27>     H       14.6133685   17.3792596   16.7241399
| 28>     H       13.3466546   16.2151831   16.3547804
| 29>     H       14.1586688   17.0584089   15.0258342
| 30>     H       15.6565674   15.1573918   16.9393840
| 31>     H       14.8377364   14.5804215   15.4929456
| 32>     H       15.7678557   18.6973436   14.1741595
| 33>     H       17.2839819   19.5876761   13.9961957
| 34>     H       15.8501714   20.3912791   14.6683081
| 35>     H       16.6896238   20.9969561   16.6642796
| 36>     H       18.6539975   18.7006877   19.3265103
| 37>     H       18.9076408   17.2191257   17.4101172
| 38>     H       18.7737175   14.9088807   17.9750304
| 39>     H       17.7860416   13.0798715   19.3390167
| 40>     H       15.7309566   13.5122600   20.6887422
| 41>     H       14.2601388   15.0159917   21.3176229
| 42>     H       15.6678670   17.5903882   19.3246281
| 43> *
| 44>
| 45>                          ****END OF INPUT****

CARTESIAN COORDINATES (ANGSTROEM)
---------------------------------
  C     14.313377   16.603818   16.011716
  C     15.338793   15.451982   15.933722
  O     16.476353   15.772776   15.099706
  C     17.405450   16.765689   15.294088
  O     18.381613   16.863499   14.574811
  C     17.153195   17.743495   16.386635
  C     16.853170   19.011691   16.027156
  C     16.410706   19.448996   14.647556
  N     16.997926   20.072799   16.922031
  C     17.673263   19.980386   18.110656
  S     17.914682   21.295427   19.083821
  N     18.163537   18.740152   18.441686
  C     17.883405   17.490025   17.707310
  C     17.292543   16.378196   18.556865
  C     17.882859   15.101408   18.568625
  C     17.323471   14.065790   19.335768
  C     16.166295   14.310018   20.095505
  C     15.578342   15.582438   20.086267
  O     14.456681   15.818963   20.811345
  C     16.136352   16.611325   19.321037
  H     14.613368   17.379260   16.724140
  H     13.346655   16.215183   16.354780
  H     14.158669   17.058409   15.025834
  H     15.656567   15.157392   16.939384
  H     14.837736   14.580421   15.492946
  H     15.767856   18.697344   14.174160
  H     17.283982   19.587676   13.996196
  H     15.850171   20.391279   14.668308
  H     16.689624   20.996956   16.664280
  H     18.653997   18.700688   19.326510
  H     18.907641   17.219126   17.410117
  H     18.773717   14.908881   17.975030
  H     17.786042   13.079871   19.339017
  H     15.730957   13.512260   20.688742
  H     14.260139   15.015992   21.317623
  H     15.667867   17.590388   19.324628

 Total Charge           Charge          ....    0
 Multiplicity           Mult            ....    1
 Number of Electrons    NEL             ....  154
 Basis Dimension        Dim             ....  828

ORBITAL ENERGIES
----------------

  NO   OCC          E(Eh)            E(eV)
   0   2.0000     -91.889001     -2500.4268
   1   2.0000     -20.606721      -560.7374
   2   2.0000     -20.597998      -560.5000
   3   2.0000     -20.551124      -559.2245
   4   2.0000     -15.625086      -425.1802
   5   2.0000     -15.610467      -424.7824
   6   2.0000     -11.398037      -310.1564
   7   2.0000     -11.384720      -309.7940
   8   2.0000     -11.325531      -308.1834
   9   2.0000     -11.324497      -308.1552
  10   2.0000     -11.316070      -307.9259
  11   2.0000     -11.302776      -307.5642
  12   2.0000     -11.271868      -306.7231
  13   2.0000     -11.266665      -306.5815
  14   2.0000     -11.258434      -306.3576
  15   2.0000     -11.255267      -306.2714
  16   2.0000     -11.255143      -306.2680
  17   2.0000     -11.249995      -306.1279
  18   2.0000     -11.249533      -306.1153
  19   2.0000     -11.232008      -305.6385
  20   2.0000      -8.894095      -242.0206
  21   2.0000      -6.575675      -178.9332
  22   2.0000      -6.573667      -178.8786
  23   2.0000      -6.573085      -178.8627
  24   2.0000      -1.443712       -39.2854
  25   2.0000      -1.426447       -38.8156
  26   2.0000      -1.358923       -36.9782
  27   2.0000      -1.338647       -36.4264
  28   2.0000      -1.238808       -33.7097
  29   2.0000      -1.168870       -31.8066
  30   2.0000      -1.126560       -30.6553
  31   2.0000      -1.053103       -28.6564
  32   2.0000      -1.035621       -28.1807
  33   2.0000      -1.026740       -27.9390
  34   2.0000      -1.004771       -27.3412
  35   2.0000      -0.990185       -26.9443
  36   2.0000      -0.927964       -25.2512
  37   2.0000      -0.896343       -24.3907
  38   2.0000      -0.851890       -23.1811
  39   2.0000      -0.845587       -23.0096
  40   2.0000      -0.844534       -22.9809
  41   2.0000      -0.831216       -22.6185
  42   2.0000      -0.753409       -20.5013
  43   2.0000      -0.740617       -20.1532
  44   2.0000      -0.724131       -19.7046
  45   2.0000      -0.705361       -19.1938
  46   2.0000      -0.693705       -18.8767
  47   2.0000      -0.679112       -18.4796
  48   2.0000      -0.676760       -18.4156
  49   2.0000      -0.663953       -18.0671
  50   2.0000      -0.652756       -17.7624
  51   2.0000      -0.645535       -17.5659
  52   2.0000      -0.637183       -17.3386
  53   2.0000      -0.617809       -16.8114
  54   2.0000      -0.613540       -16.6953
  55   2.0000      -0.608382       -16.5549
  56   2.0000      -0.606004       -16.4902
  57   2.0000      -0.585864       -15.9422
  58   2.0000      -0.579333       -15.7645
  59   2.0000      -0.573825       -15.6146
  60   2.0000      -0.567222       -15.4349
  61   2.0000      -0.552905       -15.0453
  62   2.0000      -0.538723       -14.6594
  63   2.0000      -0.535888       -14.5822
  64   2.0000      -0.528118       -14.3708
  65   2.0000      -0.517302       -14.0765
  66   2.0000      -0.505103       -13.7446
  67   2.0000      -0.504013       -13.7149
  68   2.0000      -0.491284       -13.3685
  69   2.0000      -0.462141       -12.5755
  70   2.0000      -0.453351       -12.3363
  71   2.0000      -0.449478       -12.2309
  72   2.0000      -0.359771        -9.7899
  73   2.0000      -0.351020        -9.5517
  74   2.0000      -0.334573        -9.1042
  75   2.0000      -0.328072        -8.9273
  76   2.0000      -0.317879        -8.6499
  77   0.0000       0.087507         2.3812
  78   0.0000       0.095924         2.6102
  79   0.0000       0.119681         3.2567
  80   0.0000       0.126513         3.4426
  81   0.0000       0.129242         3.5169

MULLIKEN ATOMIC CHARGES
-----------------------
   0 C :   -0.329894
   1 C :    0.035515
   2 O :   -0.316693
   3 C :    0.418366
   4 O :   -0.380741
   5 C :   -0.228317
   6 C :    0.150962
   7 C :   -0.298220
   8 N :   -0.134779
   9 C :    0.212857
  10 S :   -0.443177
  11 N :   -0.215539
  12 C :    0.042089
  13 C :    0.000677
  14 C :   -0.199948
  15 C :   -0.129028
  16 C :   -0.272962
  17 C :    0.311720
  18 O :   -0.353982
  19 C :   -0.244799
  20 H :    0.111562
  21 H :    0.118346
  22 H :    0.107232
  23 H :    0.099339
  24 H :    0.125758
  25 H :    0.115751
  26 H :    0.147816
  27 H :    0.099179
  28 H :    0.197367
  29 H :    0.200011
  30 H :    0.166786
  31 H :    0.163566
  32 H :    0.165748
  33 H :    0.135800
  34 H :    0.242338
  35 H :    0.179290
Sum of atomic charges:   -0.0000000

LOEWDIN ATOMIC CHARGES
----------------------
   0 C :    0.101451
   1 C :   -0.013780
   2 O :    0.298718
   3 C :   -0.415712
   4 O :    0.125550
   5 C :   -0.086644
   6 C :   -0.089666
   7 C :    0.129595
   8 N :    0.403958
   9 C :   -0.454395
  10 S :   -0.038419
  11 N :    0.395577
  12 C :   -0.055930
  13 C :   -0.047056
  14 C :    0.015535
  15 C :    0.045390
  16 C :    0.002242
  17 C :   -0.190890
  18 O :    0.397836
  19 C :    0.032984
  20 H :   -0.036722
  21 H :   -0.023144
  22 H :   -0.030275
  23 H :   -0.033809
  24 H :   -0.019888
  25 H :   -0.012032
  26 H :   -0.003259
  27 H :   -0.019104
  28 H :   -0.058680
  29 H :   -0.064503
  30 H :   -0.006575
  31 H :   -0.024835
  32 H :   -0.017587
  33 H :   -0.032889
  34 H :   -0.151798
  35 H :   -0.021243

  Mayer bond orders larger than 0.100000
B(  0-C ,  1-C ) :   0.9535 B(  0-C , 20-H ) :   0.9714 B(  0-C , 21-H ) :   0.9778
B(  0-C , 22-H ) :   0.9770 B(  1-C ,  2-O ) :   0.9052 B(  1-C , 23-H ) :   0.9673
B(  1-C , 24-H ) :   0.9850 B(  2-O ,  3-C ) :   1.1990 B(  3-C ,  4-O ) :   2.1204
B(  3-C ,  5-C ) :   0.9097 B(  5-C ,  6-C ) :   1.7305 B(  5-C , 12-C ) :   0.9444
B(  6-C ,  7-C ) :   0.9401 B(  6-C ,  8-N ) :   1.1105 B(  7-C , 25-H ) :   0.9776
B(  7-C , 26-H ) :   0.9600 B(  7-C , 27-H ) :   0.9841 B(  8-N ,  9-C ) :   1.2022
B(  8-N , 28-H ) :   0.9495 B(  9-C , 10-S ) :   1.6108 B(  9-C , 11-N ) :   1.2838
B( 11-N , 12-C ) :   0.9822 B( 11-N , 29-H ) :   0.9476 B( 12-C , 13-C ) :   0.9566
B( 12-C , 30-H ) :   0.9991 B( 13-C , 14-C ) :   1.3732 B( 13-C , 19-C ) :   1.3553
B( 14-C , 15-C ) :   1.3946 B( 14-C , 31-H ) :   0.9678 B( 15-C , 16-C ) :   1.3655
B( 15-C , 32-H ) :   0.9694 B( 16-C , 17-C ) :   1.3273 B( 16-C , 33-H ) :   0.9832
B( 17-C , 18-O ) :   1.1138 B( 17-C , 19-C ) :   1.3628 B( 18-O , 34-H ) :   0.9782
B( 19-C , 35-H ) :   0.9545

MP2 TOTAL ENERGY:    -1274.321405106 Eh
FINAL SINGLE POINT ENERGY     -1274.321405105834

DIPOLE MOMENT
-------------
                                X             Y             Z
Electronic contribution:      9.06724       6.37998       6.24610
Nuclear contribution   :    -10.59024      -8.14969      -6.01686
                        -----------------------------------------
Total Dipole Moment    :     -1.52300      -1.76971       0.22924
                        -----------------------------------------
Magnitude (a.u.)       :      2.34605
Magnitude (Debye)      :      5.96318

Rotational constants in cm-1:     0.012220     0.009014     0.006529
Rotational constants in MHz :   366.337538   270.247363   195.744986

                             ****ORCA TERMINATED NORMALLY****
TOTAL RUN TIME: 0 days 1 hours 47 minutes 31 seconds 619 msec
