                         Program Version 4.2.0 -  RELEASE  -
|  1> ! ri-mp2 cc-pvtz cc-pvtz/c TightSCF NoKeepInts
|  2>
|  3> %scf
|  4>   MaxCore 4096
|  5> end
|  6> *xyz  0  1
|  7>     C       14.5230602   15.6749608   16.0088278
|  8>     C       15.8051783   14.8725194   15.6856742
|  9>     O       16.9877420   15.6986816   15.5660145
| 10>     C       16.8938175   17.0108153   15.2092044
| 11>     O       16.5735203   17.3211562   14.0757255
| 12>     C       17.0817147   17.9635464   16.3622247
| 13>     C       17.0119321   19.3046615   16.1556956
| 14>     C       16.4375004   20.0194796   14.9497682
| 15>     N       17.4920692   20.2079328   17.1064617
| 16>     C       18.2604372   19.8597175   18.1834412
| 17>     S       18.8979340   20.9901863   19.2085331
| 18>     N       18.4955486   18.5195770   18.3552931
| 19>     C       17.8645738   17.4346208   17.5797850
| 20>     C       17.1186266   16.4506966   18.4710906
| 21>     C       17.5657499   15.1235566   18.6082407
| 22>     C       16.8799943   14.2218559   19.4393677
| 23>     C       15.7441718   14.6538328   20.1455484
| 24>     C       15.3065660   15.9798655   20.0228605
| 25>     O       14.2119118   16.4005170   20.7048280
| 26>     C       15.9914302   16.8748672   19.1950441
| 27>     H       14.6432332   16.2775582   16.9148282
| 28>     H       13.6834455   14.9892004   16.1744008
| 29>     H       14.2479886   16.3379617   15.1786882
| 30>     H       15.9700862   14.1135439   16.4610611
| 31>     H       15.6472860   14.3440995   14.7363177
| 32>     H       17.1026987   19.9102731   14.0834688
| 33>     H       16.2835513   21.0916427   15.1193676
| 34>     H       15.4652465   19.5928931   14.6720228
| 35>     H       17.3523469   21.1967418   16.9728326
| 36>     H       19.0456361   18.2908531   19.1737265
| 37>     H       18.7652027   16.9643659   17.1598564
| 38>     H       18.4420997   14.7880437   18.0594492
| 39>     H       17.2300285   13.1953737   19.5356576
| 40>     H       15.2113421   13.9612532   20.7889728
| 41>     H       13.9096992   15.6633633   21.2566180
| 42>     H       15.6436297   17.8997859   19.1171025
| 43> *
| 44>
| 45>                          ****END OF INPUT****

CARTESIAN COORDINATES (ANGSTROEM)
---------------------------------
  C     14.523060   15.674961   16.008828
  C     15.805178   14.872519   15.685674
  O     16.987742   15.698682   15.566014
  C     16.893818   17.010815   15.209204
  O     16.573520   17.321156   14.075726
  C     17.081715   17.963546   16.362225
  C     17.011932   19.304662   16.155696
  C     16.437500   20.019480   14.949768
  N     17.492069   20.207933   17.106462
  C     18.260437   19.859717   18.183441
  S     18.897934   20.990186   19.208533
  N     18.495549   18.519577   18.355293
  C     17.864574   17.434621   17.579785
  C     17.118627   16.450697   18.471091
  C     17.565750   15.123557   18.608241
  C     16.879994   14.221856   19.439368
  C     15.744172   14.653833   20.145548
  C     15.306566   15.979866   20.022861
  O     14.211912   16.400517   20.704828
  C     15.991430   16.874867   19.195044
  H     14.643233   16.277558   16.914828
  H     13.683445   14.989200   16.174401
  H     14.247989   16.337962   15.178688
  H     15.970086   14.113544   16.461061
  H     15.647286   14.344099   14.736318
  H     17.102699   19.910273   14.083469
  H     16.283551   21.091643   15.119368
  H     15.465246   19.592893   14.672023
  H     17.352347   21.196742   16.972833
  H     19.045636   18.290853   19.173727
  H     18.765203   16.964366   17.159856
  H     18.442100   14.788044   18.059449
  H     17.230028   13.195374   19.535658
  H     15.211342   13.961253   20.788973
  H     13.909699   15.663363   21.256618
  H     15.643630   17.899786   19.117103

 Total Charge           Charge          ....    0
 Multiplicity           Mult            ....    1
 Number of Electrons    NEL             ....  154
 Basis Dimension        Dim             ....  828

ORBITAL ENERGIES
----------------

  NO   OCC          E(Eh)            E(eV)
   0   2.0000     -91.891007     -2500.4814
   1   2.0000     -20.600932      -560.5798
   2   2.0000     -20.580229      -560.0165
   3   2.0000     -20.545419      -559.0693
   4   2.0000     -15.631124      -425.3445
   5   2.0000     -15.608987      -424.7421
   6   2.0000     -11.392622      -310.0090
   7   2.0000     -11.385264      -309.8088
   8   2.0000     -11.339252      -308.5567
   9   2.0000     -11.318396      -307.9892
  10   2.0000     -11.310955      -307.7867
  11   2.0000     -11.299284      -307.4691
  12   2.0000     -11.265094      -306.5388
  13   2.0000     -11.259683      -306.3916
  14   2.0000     -11.259126      -306.3764
  15   2.0000     -11.253231      -306.2160
  16   2.0000     -11.248554      -306.0887
  17   2.0000     -11.243399      -305.9484
  18   2.0000     -11.242864      -305.9339
  19   2.0000     -11.226174      -305.4797
  20   2.0000      -8.896053      -242.0739
  21   2.0000      -6.577619      -178.9861
  22   2.0000      -6.575628      -178.9319
  23   2.0000      -6.575030      -178.9157
  24   2.0000      -1.443971       -39.2925
  25   2.0000      -1.420682       -38.6587
  26   2.0000      -1.350344       -36.7447
  27   2.0000      -1.342706       -36.5369
  28   2.0000      -1.240740       -33.7622
  29   2.0000      -1.161722       -31.6121
  30   2.0000      -1.122331       -30.5402
  31   2.0000      -1.046229       -28.4693
  32   2.0000      -1.031232       -28.0613
  33   2.0000      -1.019812       -27.7505
  34   2.0000      -1.000024       -27.2120
  35   2.0000      -0.987526       -26.8719
  36   2.0000      -0.924625       -25.1603
  37   2.0000      -0.896844       -24.4044
  38   2.0000      -0.848978       -23.1019
  39   2.0000      -0.842361       -22.9218
  40   2.0000      -0.838939       -22.8287
  41   2.0000      -0.818242       -22.2655
  42   2.0000      -0.745714       -20.2919
  43   2.0000      -0.736500       -20.0412
  44   2.0000      -0.722107       -19.6495
  45   2.0000      -0.699219       -19.0267
  46   2.0000      -0.690279       -18.7834
  47   2.0000      -0.674510       -18.3543
  48   2.0000      -0.672135       -18.2897
  49   2.0000      -0.661090       -17.9892
  50   2.0000      -0.650756       -17.7080
  51   2.0000      -0.642851       -17.4929
  52   2.0000      -0.637592       -17.3498
  53   2.0000      -0.623251       -16.9595
  54   2.0000      -0.611099       -16.6289
  55   2.0000      -0.603611       -16.4251
  56   2.0000      -0.601775       -16.3751
  57   2.0000      -0.580408       -15.7937
  58   2.0000      -0.571169       -15.5423
  59   2.0000      -0.566678       -15.4201
  60   2.0000      -0.548260       -14.9189
  61   2.0000      -0.545157       -14.8345
  62   2.0000      -0.536381       -14.5957
  63   2.0000      -0.531854       -14.4725
  64   2.0000      -0.527099       -14.3431
  65   2.0000      -0.515393       -14.0246
  66   2.0000      -0.502324       -13.6689
  67   2.0000      -0.495330       -13.4786
  68   2.0000      -0.483104       -13.1459
  69   2.0000      -0.464502       -12.6397
  70   2.0000      -0.454831       -12.3766
  71   2.0000      -0.443693       -12.0735
  72   2.0000      -0.355264        -9.6672
  73   2.0000      -0.352538        -9.5930
  74   2.0000      -0.330192        -8.9850
  75   2.0000      -0.325875        -8.8675
  76   2.0000      -0.320649        -8.7253
  77   0.0000       0.071001         1.9320
  78   0.0000       0.099650         2.7116
  79   0.0000       0.121854         3.3158
  80   0.0000       0.129199         3.5157
  81   0.0000       0.132619         3.6087

MULLIKEN ATOMIC CHARGES
-----------------------
   0 C :   -0.335930
   1 C :    0.032512
   2 O :   -0.389352
   3 C :    0.493153
   4 O :   -0.411547
   5 C :   -0.264198
   6 C :    0.164712
   7 C :   -0.267504
   8 N :   -0.125999
   9 C :    0.207159
  10 S :   -0.437854
  11 N :   -0.211554
  12 C :    0.057215
  13 C :    0.036849
  14 C :   -0.192929
  15 C :   -0.131867
  16 C :   -0.275206
  17 C :    0.323475
  18 O :   -0.358189
  19 C :   -0.270745
  20 H :    0.112281
  21 H :    0.110076
  22 H :    0.117004
  23 H :    0.113843
  24 H :    0.120308
  25 H :    0.134449
  26 H :    0.094397
  27 H :    0.129044
  28 H :    0.200021
  29 H :    0.200209
  30 H :    0.153156
  31 H :    0.159789
  32 H :    0.167179
  33 H :    0.133649
  34 H :    0.241100
  35 H :    0.171291
Sum of atomic charges:   -0.0000000

LOEWDIN ATOMIC CHARGES
----------------------
   0 C :    0.106045
   1 C :   -0.012381
   2 O :    0.286436
   3 C :   -0.425079
   4 O :    0.114055
   5 C :   -0.102013
   6 C :   -0.054614
   7 C :    0.131114
   8 N :    0.407842
   9 C :   -0.458174
  10 S :   -0.033504
  11 N :    0.395234
  12 C :   -0.053706
  13 C :   -0.041337
  14 C :    0.021703
  15 C :    0.039530
  16 C :   -0.000901
  17 C :   -0.191321
  18 O :    0.396068
  19 C :    0.033790
  20 H :   -0.032603
  21 H :   -0.022599
  22 H :   -0.026582
  23 H :   -0.027046
  24 H :   -0.028226
  25 H :   -0.003942
  26 H :   -0.023369
  27 H :   -0.005494
  28 H :   -0.056709
  29 H :   -0.063660
  30 H :   -0.011528
  31 H :   -0.026546
  32 H :   -0.020350
  33 H :   -0.034521
  34 H :   -0.153064
  35 H :   -0.022546

  Mayer bond orders larger than 0.100000
B(  0-C ,  1-C ) :   0.9538 B(  0-C , 20-H ) :   0.9693 B(  0-C , 21-H ) :   0.9770
B(  0-C , 22-H ) :   0.9730 B(  1-C ,  2-O ) :   0.8898 B(  1-C , 23-H ) :   0.9755
B(  1-C , 24-H ) :   0.9875 B(  2-O ,  3-C ) :   1.1034 B(  3-C ,  4-O ) :   2.0222
B(  3-C ,  5-C ) :   1.0530 B(  5-C ,  6-C ) :   1.6358 B(  5-C , 12-C ) :   0.9564
B(  6-C ,  7-C ) :   0.9664 B(  6-C ,  8-N ) :   1.1516 B(  7-C , 25-H ) :   0.9557
B(  7-C , 26-H ) :   0.9889 B(  7-C , 27-H ) :   0.9649 B(  8-N ,  9-C ) :   1.1854
B(  8-N , 28-H ) :   0.9468 B(  9-C , 10-S ) :   1.6133 B(  9-C , 11-N ) :   1.3047
B( 11-N , 12-C ) :   0.9730 B( 11-N , 29-H ) :   0.9486 B( 12-C , 13-C ) :   0.9596
B( 12-C , 30-H ) :   1.0024 B( 13-C , 14-C ) :   1.3481 B( 13-C , 19-C ) :   1.3645
B( 14-C , 15-C ) :   1.3890 B( 14-C , 31-H ) :   0.9709 B( 15-C , 16-C ) :   1.3578
B( 15-C , 32-H ) :   0.9691 B( 16-C , 17-C ) :   1.3329 B( 16-C , 33-H ) :   0.9837
B( 17-C , 18-O ) :   1.1059 B( 17-C , 19-C ) :   1.3576 B( 18-O , 34-H ) :   0.9795
B( 19-C , 35-H ) :   0.9610

MP2 TOTAL ENERGY:    -1274.325163317 Eh
FINAL SINGLE POINT ENERGY     -1274.325163316754

DIPOLE MOMENT
-------------
                                X             Y             Z
Electronic contribution:      9.31050       8.59003       6.24897
Nuclear contribution   :    -10.42902     -10.21880      -6.15814
                        -----------------------------------------
Total Dipole Moment    :     -1.11852      -1.62878       0.09082
                        -----------------------------------------
Magnitude (a.u.)       :      1.97794
Magnitude (Debye)      :      5.02752

Rotational constants in cm-1:     0.012293     0.009014     0.006261
Rotational constants in MHz :   368.534176   270.233699   187.714866

                             ****ORCA TERMINATED NORMALLY****
TOTAL RUN TIME: 0 days 2 hours 5 minutes 5 seconds 709 msec
