                         Program Version 4.2.0 -  RELEASE  -
|  1> ! ri-mp2 cc-pvtz cc-pvtz/c TightSCF NoKeepInts
|  2>
|  3> %scf
|  4>   MaxCore 4096
|  5> end
|  6> *xyz  0  1
|  7>     C       14.0159394   16.6997978   15.3596847
|  8>     C       15.1402376   15.7639442   15.8395284
|  9>     O       16.3194884   15.9482969   15.0266409
| 10>     C       17.4125174   16.6631774   15.4444373
| 11>     O       18.5292934   16.4392326   15.0177309
| 12>     C       17.1604790   17.6855211   16.4957442
| 13>     C       16.7455009   18.9167159   16.1190236
| 14>     C       16.2622801   19.3248209   14.7426348
| 15>     N       16.8459190   20.0043703   16.9877990
| 16>     C       17.5673608   19.9891480   18.1531456
| 17>     S       17.7436515   21.3419422   19.0876078
| 18>     N       18.1618665   18.7971995   18.4909634
| 19>     C       17.9543749   17.5147789   17.7886387
| 20>     C       17.4428817   16.3731857   18.6525480
| 21>     C       17.9879274   15.0844993   18.5111661
| 22>     C       17.5001622   14.0155511   19.2811311
| 23>     C       16.4566017   14.2373095   20.1961915
| 24>     C       15.9075840   15.5196524   20.3337953
| 25>     O       14.8923149   15.7340551   21.2075357
| 26>     C       16.3935063   16.5817959   19.5644002
| 27>     H       14.1872367   17.7294409   15.6894400
| 28>     H       13.0534689   16.3769695   15.7753275
| 29>     H       13.9354791   16.6847708   14.2653991
| 30>     H       15.3400342   15.9004264   16.9099640
| 31>     H       14.7973753   14.7296078   15.7059475
| 32>     H       16.0279209   18.4655143   14.1032959
| 33>     H       17.0345410   19.9075472   14.2241060
| 34>     H       15.3562751   19.9401486   14.8023666
| 35>     H       16.4596673   20.8974661   16.7249079
| 36>     H       18.6895776   18.8138024   19.3548561
| 37>     H       18.9861715   17.3042754   17.4684697
| 38>     H       18.7886017   14.9103119   17.7949371
| 39>     H       17.9296892   13.0215966   19.1653767
| 40>     H       16.0767383   13.4140059   20.7924516
| 41>     H       14.7330954   14.9029753   21.6802882
| 42>     H       15.9512406   17.5661460   19.6805186
| 43> *
| 44>
| 45>                          ****END OF INPUT****

CARTESIAN COORDINATES (ANGSTROEM)
---------------------------------
  C     14.015939   16.699798   15.359685
  C     15.140238   15.763944   15.839528
  O     16.319488   15.948297   15.026641
  C     17.412517   16.663177   15.444437
  O     18.529293   16.439233   15.017731
  C     17.160479   17.685521   16.495744
  C     16.745501   18.916716   16.119024
  C     16.262280   19.324821   14.742635
  N     16.845919   20.004370   16.987799
  C     17.567361   19.989148   18.153146
  S     17.743651   21.341942   19.087608
  N     18.161866   18.797200   18.490963
  C     17.954375   17.514779   17.788639
  C     17.442882   16.373186   18.652548
  C     17.987927   15.084499   18.511166
  C     17.500162   14.015551   19.281131
  C     16.456602   14.237309   20.196192
  C     15.907584   15.519652   20.333795
  O     14.892315   15.734055   21.207536
  C     16.393506   16.581796   19.564400
  H     14.187237   17.729441   15.689440
  H     13.053469   16.376970   15.775327
  H     13.935479   16.684771   14.265399
  H     15.340034   15.900426   16.909964
  H     14.797375   14.729608   15.705948
  H     16.027921   18.465514   14.103296
  H     17.034541   19.907547   14.224106
  H     15.356275   19.940149   14.802367
  H     16.459667   20.897466   16.724908
  H     18.689578   18.813802   19.354856
  H     18.986171   17.304275   17.468470
  H     18.788602   14.910312   17.794937
  H     17.929689   13.021597   19.165377
  H     16.076738   13.414006   20.792452
  H     14.733095   14.902975   21.680288
  H     15.951241   17.566146   19.680519

 Total Charge           Charge          ....    0
 Multiplicity           Mult            ....    1
 Number of Electrons    NEL             ....  154
 Basis Dimension        Dim             ....  828

ORBITAL ENERGIES
----------------

  NO   OCC          E(Eh)            E(eV)
   0   2.0000     -91.889344     -2500.4362
   1   2.0000     -20.603524      -560.6504
   2   2.0000     -20.601303      -560.5899
   3   2.0000     -20.553198      -559.2809
   4   2.0000     -15.625757      -425.1985
   5   2.0000     -15.610358      -424.7794
   6   2.0000     -11.399040      -310.1836
   7   2.0000     -11.385541      -309.8163
   8   2.0000     -11.329073      -308.2797
   9   2.0000     -11.321848      -308.0831
  10   2.0000     -11.313171      -307.8470
  11   2.0000     -11.304669      -307.6157
  12   2.0000     -11.269327      -306.6540
  13   2.0000     -11.263202      -306.4873
  14   2.0000     -11.262681      -306.4731
  15   2.0000     -11.261149      -306.4314
  16   2.0000     -11.250578      -306.1438
  17   2.0000     -11.246112      -306.0223
  18   2.0000     -11.245124      -305.9954
  19   2.0000     -11.235602      -305.7363
  20   2.0000      -8.894447      -242.0302
  21   2.0000      -6.576029      -178.9429
  22   2.0000      -6.574017      -178.8881
  23   2.0000      -6.573436      -178.8723
  24   2.0000      -1.448452       -39.4144
  25   2.0000      -1.423224       -38.7279
  26   2.0000      -1.363012       -37.0894
  27   2.0000      -1.339623       -36.4530
  28   2.0000      -1.239086       -33.7173
  29   2.0000      -1.165677       -31.7197
  30   2.0000      -1.127365       -30.6772
  31   2.0000      -1.051180       -28.6041
  32   2.0000      -1.039862       -28.2961
  33   2.0000      -1.023394       -27.8480
  34   2.0000      -1.005975       -27.3740
  35   2.0000      -0.990420       -26.9507
  36   2.0000      -0.927656       -25.2428
  37   2.0000      -0.891235       -24.2517
  38   2.0000      -0.853023       -23.2119
  39   2.0000      -0.843696       -22.9581
  40   2.0000      -0.841316       -22.8934
  41   2.0000      -0.836504       -22.7624
  42   2.0000      -0.757860       -20.6224
  43   2.0000      -0.738209       -20.0877
  44   2.0000      -0.730789       -19.8858
  45   2.0000      -0.701229       -19.0814
  46   2.0000      -0.692730       -18.8502
  47   2.0000      -0.682101       -18.5609
  48   2.0000      -0.676076       -18.3970
  49   2.0000      -0.666250       -18.1296
  50   2.0000      -0.653146       -17.7730
  51   2.0000      -0.639716       -17.4076
  52   2.0000      -0.632594       -17.2138
  53   2.0000      -0.622270       -16.9328
  54   2.0000      -0.613149       -16.6846
  55   2.0000      -0.607765       -16.5381
  56   2.0000      -0.606471       -16.5029
  57   2.0000      -0.584335       -15.9006
  58   2.0000      -0.579713       -15.7748
  59   2.0000      -0.577102       -15.7038
  60   2.0000      -0.565771       -15.3954
  61   2.0000      -0.557854       -15.1800
  62   2.0000      -0.540097       -14.6968
  63   2.0000      -0.537260       -14.6196
  64   2.0000      -0.525957       -14.3120
  65   2.0000      -0.516657       -14.0590
  66   2.0000      -0.504085       -13.7168
  67   2.0000      -0.500057       -13.6072
  68   2.0000      -0.490916       -13.3585
  69   2.0000      -0.468411       -12.7461
  70   2.0000      -0.455240       -12.3877
  71   2.0000      -0.453536       -12.3413
  72   2.0000      -0.356456        -9.6997
  73   2.0000      -0.354743        -9.6531
  74   2.0000      -0.330299        -8.9879
  75   2.0000      -0.328363        -8.9352
  76   2.0000      -0.319668        -8.6986
  77   0.0000       0.090575         2.4647
  78   0.0000       0.100779         2.7423
  79   0.0000       0.119389         3.2487
  80   0.0000       0.124165         3.3787
  81   0.0000       0.127296         3.4639

MULLIKEN ATOMIC CHARGES
-----------------------
   0 C :   -0.312512
   1 C :    0.031232
   2 O :   -0.320816
   3 C :    0.419980
   4 O :   -0.378564
   5 C :   -0.200650
   6 C :    0.127566
   7 C :   -0.331635
   8 N :   -0.137267
   9 C :    0.210622
  10 S :   -0.443529
  11 N :   -0.225563
  12 C :    0.060626
  13 C :    0.002882
  14 C :   -0.216525
  15 C :   -0.132380
  16 C :   -0.273434
  17 C :    0.313965
  18 O :   -0.354119
  19 C :   -0.239007
  20 H :    0.095029
  21 H :    0.114263
  22 H :    0.109843
  23 H :    0.107486
  24 H :    0.122364
  25 H :    0.126164
  26 H :    0.150803
  27 H :    0.113572
  28 H :    0.196624
  29 H :    0.202538
  30 H :    0.168052
  31 H :    0.173890
  32 H :    0.165740
  33 H :    0.134174
  34 H :    0.241784
  35 H :    0.176803
Sum of atomic charges:   -0.0000000

LOEWDIN ATOMIC CHARGES
----------------------
   0 C :    0.103795
   1 C :   -0.016614
   2 O :    0.302128
   3 C :   -0.416924
   4 O :    0.123527
   5 C :   -0.085799
   6 C :   -0.096174
   7 C :    0.124562
   8 N :    0.403282
   9 C :   -0.454669
  10 S :   -0.038647
  11 N :    0.395752
  12 C :   -0.051861
  13 C :   -0.045871
  14 C :    0.016547
  15 C :    0.046179
  16 C :    0.000965
  17 C :   -0.190781
  18 O :    0.396715
  19 C :    0.027488
  20 H :   -0.033304
  21 H :   -0.022782
  22 H :   -0.024987
  23 H :   -0.031707
  24 H :   -0.022005
  25 H :   -0.010035
  26 H :   -0.007379
  27 H :   -0.017755
  28 H :   -0.057270
  29 H :   -0.064332
  30 H :   -0.003831
  31 H :   -0.022129
  32 H :   -0.017682
  33 H :   -0.033948
  34 H :   -0.152359
  35 H :   -0.022091

  Mayer bond orders larger than 0.100000
B(  0-C ,  1-C ) :   0.9625 B(  0-C , 20-H ) :   0.9762 B(  0-C , 21-H ) :   0.9784
B(  0-C , 22-H ) :   0.9742 B(  1-C ,  2-O ) :   0.9003 B(  1-C , 23-H ) :   0.9597
B(  1-C , 24-H ) :   0.9849 B(  2-O ,  3-C ) :   1.1764 B(  3-C ,  4-O ) :   2.1148
B(  3-C ,  5-C ) :   0.8980 B(  5-C ,  6-C ) :   1.7306 B(  5-C , 12-C ) :   0.9428
B(  6-C ,  7-C ) :   0.9476 B(  6-C ,  8-N ) :   1.1035 B(  7-C , 25-H ) :   0.9769
B(  7-C , 26-H ) :   0.9636 B(  7-C , 27-H ) :   0.9719 B(  8-N ,  9-C ) :   1.2014
B(  8-N , 28-H ) :   0.9500 B(  9-C , 10-S ) :   1.6097 B(  9-C , 11-N ) :   1.2874
B( 11-N , 12-C ) :   0.9823 B( 11-N , 29-H ) :   0.9469 B( 12-C , 13-C ) :   0.9677
B( 12-C , 30-H ) :   0.9921 B( 13-C , 14-C ) :   1.3838 B( 13-C , 19-C ) :   1.3489
B( 14-C , 15-C ) :   1.3971 B( 14-C , 31-H ) :   0.9615 B( 15-C , 16-C ) :   1.3639
B( 15-C , 32-H ) :   0.9692 B( 16-C , 17-C ) :   1.3302 B( 16-C , 33-H ) :   0.9838
B( 17-C , 18-O ) :   1.1123 B( 17-C , 19-C ) :   1.3619 B( 18-O , 34-H ) :   0.9787
B( 19-C , 35-H ) :   0.9564

MP2 TOTAL ENERGY:    -1274.329170056 Eh
FINAL SINGLE POINT ENERGY     -1274.329170056322

DIPOLE MOMENT
-------------
                                X             Y             Z
Electronic contribution:      9.89113       5.86634       8.01552
Nuclear contribution   :    -11.43459      -7.42162      -8.10920
                        -----------------------------------------
Total Dipole Moment    :     -1.54346      -1.55528      -0.09368
                        -----------------------------------------
Magnitude (a.u.)       :      2.19316
Magnitude (Debye)      :      5.57457

Rotational constants in cm-1:     0.011375     0.009061     0.006466
Rotational constants in MHz :   341.010258   271.628034   193.854620

                             ****ORCA TERMINATED NORMALLY****
TOTAL RUN TIME: 0 days 2 hours 3 minutes 47 seconds 137 msec
