                         Program Version 4.2.0 -  RELEASE  -
|  1> ! ri-mp2 cc-pvtz cc-pvtz/c TightSCF NoKeepInts
|  2>
|  3> %scf
|  4>   MaxCore 4096
|  5> end
|  6> *xyz  0  1
|  7>     C       14.3966742   15.6767651   15.1022721
|  8>     C       15.5360432   15.2273218   16.0412417
|  9>     O       16.8097517   15.7207799   15.5681686
| 10>     C       16.9565727   17.0411344   15.2591863
| 11>     O       16.9619704   17.4032870   14.0966792
| 12>     C       17.0514960   17.9594013   16.4486677
| 13>     C       16.9061997   19.2975012   16.2681254
| 14>     C       16.2701922   19.9932397   15.0822691
| 15>     N       17.3371213   20.2106498   17.2322826
| 16>     C       18.1421793   19.8891603   18.2906423
| 17>     S       18.7240722   21.0356126   19.3307545
| 18>     N       18.4626531   18.5627249   18.4300519
| 19>     C       17.8817726   17.4558161   17.6457692
| 20>     C       17.2317491   16.4048096   18.5323702
| 21>     C       17.7341053   15.0911545   18.5763154
| 22>     C       17.1301184   14.1245073   19.3977449
| 23>     C       16.0214541   14.4768946   20.1866536
| 24>     C       15.5270838   15.7881325   20.1533930
| 25>     O       14.4564779   16.1309068   20.9125093
| 26>     C       16.1279898   16.7475236   19.3322932
| 27>     H       14.2372365   16.7607949   15.1556347
| 28>     H       13.4567319   15.1854315   15.3814253
| 29>     H       14.6249998   15.4098956   14.0622691
| 30>     H       15.3169044   15.5924243   17.0495117
| 31>     H       15.5682636   14.1309815   16.0825532
| 32>     H       15.4037268   19.4296602   14.7141933
| 33>     H       16.9857545   20.0697982   14.2531423
| 34>     H       15.9199044   21.0044574   15.3207646
| 35>     H       17.1402111   21.1920600   17.1164920
| 36>     H       19.0434267   18.3528816   19.2323603
| 37>     H       18.8031804   17.0551177   17.1991796
| 38>     H       18.5883735   14.8160537   17.9625438
| 39>     H       17.5222682   13.1089226   19.4222091
| 40>     H       15.5528482   13.7334651   20.8234727
| 41>     H       14.2214441   15.3611875   21.4527231
| 42>     H       15.7360489   17.7595452   19.3221351
| 43> *
| 44>
| 45>                          ****END OF INPUT****

CARTESIAN COORDINATES (ANGSTROEM)
---------------------------------
  C     14.396674   15.676765   15.102272
  C     15.536043   15.227322   16.041242
  O     16.809752   15.720780   15.568169
  C     16.956573   17.041134   15.259186
  O     16.961970   17.403287   14.096679
  C     17.051496   17.959401   16.448668
  C     16.906200   19.297501   16.268125
  C     16.270192   19.993240   15.082269
  N     17.337121   20.210650   17.232283
  C     18.142179   19.889160   18.290642
  S     18.724072   21.035613   19.330754
  N     18.462653   18.562725   18.430052
  C     17.881773   17.455816   17.645769
  C     17.231749   16.404810   18.532370
  C     17.734105   15.091155   18.576315
  C     17.130118   14.124507   19.397745
  C     16.021454   14.476895   20.186654
  C     15.527084   15.788132   20.153393
  O     14.456478   16.130907   20.912509
  C     16.127990   16.747524   19.332293
  H     14.237236   16.760795   15.155635
  H     13.456732   15.185431   15.381425
  H     14.625000   15.409896   14.062269
  H     15.316904   15.592424   17.049512
  H     15.568264   14.130982   16.082553
  H     15.403727   19.429660   14.714193
  H     16.985754   20.069798   14.253142
  H     15.919904   21.004457   15.320765
  H     17.140211   21.192060   17.116492
  H     19.043427   18.352882   19.232360
  H     18.803180   17.055118   17.199180
  H     18.588373   14.816054   17.962544
  H     17.522268   13.108923   19.422209
  H     15.552848   13.733465   20.823473
  H     14.221444   15.361187   21.452723
  H     15.736049   17.759545   19.322135

 Total Charge           Charge          ....    0
 Multiplicity           Mult            ....    1
 Number of Electrons    NEL             ....  154
 Basis Dimension        Dim             ....  828

ORBITAL ENERGIES
----------------

  NO   OCC          E(Eh)            E(eV)
   0   2.0000     -91.891386     -2500.4917
   1   2.0000     -20.602450      -560.6212
   2   2.0000     -20.582372      -560.0748
   3   2.0000     -20.549140      -559.1705
   4   2.0000     -15.630799      -425.3357
   5   2.0000     -15.610001      -424.7697
   6   2.0000     -11.392581      -310.0079
   7   2.0000     -11.385775      -309.8227
   8   2.0000     -11.337851      -308.5186
   9   2.0000     -11.320400      -308.0438
  10   2.0000     -11.313537      -307.8570
  11   2.0000     -11.297932      -307.4324
  12   2.0000     -11.266429      -306.5751
  13   2.0000     -11.261304      -306.4357
  14   2.0000     -11.258685      -306.3644
  15   2.0000     -11.254485      -306.2501
  16   2.0000     -11.250367      -306.1380
  17   2.0000     -11.245104      -305.9948
  18   2.0000     -11.244275      -305.9723
  19   2.0000     -11.227031      -305.5030
  20   2.0000      -8.896434      -242.0843
  21   2.0000      -6.578000      -178.9965
  22   2.0000      -6.576008      -178.9423
  23   2.0000      -6.575410      -178.9260
  24   2.0000      -1.444580       -39.3090
  25   2.0000      -1.422225       -38.7007
  26   2.0000      -1.353728       -36.8368
  27   2.0000      -1.342937       -36.5432
  28   2.0000      -1.241406       -33.7804
  29   2.0000      -1.163400       -31.6577
  30   2.0000      -1.123091       -30.5609
  31   2.0000      -1.047948       -28.5161
  32   2.0000      -1.031437       -28.0668
  33   2.0000      -1.021353       -27.7924
  34   2.0000      -1.001133       -27.2422
  35   2.0000      -0.988202       -26.8903
  36   2.0000      -0.925859       -25.1939
  37   2.0000      -0.890583       -24.2340
  38   2.0000      -0.850468       -23.1424
  39   2.0000      -0.843455       -22.9516
  40   2.0000      -0.840397       -22.8684
  41   2.0000      -0.828293       -22.5390
  42   2.0000      -0.751124       -20.4391
  43   2.0000      -0.737401       -20.0657
  44   2.0000      -0.716718       -19.5029
  45   2.0000      -0.700460       -19.0605
  46   2.0000      -0.689440       -18.7606
  47   2.0000      -0.679819       -18.4988
  48   2.0000      -0.671551       -18.2738
  49   2.0000      -0.666777       -18.1439
  50   2.0000      -0.651236       -17.7210
  51   2.0000      -0.646794       -17.6001
  52   2.0000      -0.636698       -17.3254
  53   2.0000      -0.617492       -16.8028
  54   2.0000      -0.611950       -16.6520
  55   2.0000      -0.604573       -16.4513
  56   2.0000      -0.602613       -16.3979
  57   2.0000      -0.581298       -15.8179
  58   2.0000      -0.574246       -15.6260
  59   2.0000      -0.567660       -15.4468
  60   2.0000      -0.553162       -15.0523
  61   2.0000      -0.545904       -14.8548
  62   2.0000      -0.540478       -14.7071
  63   2.0000      -0.529419       -14.4062
  64   2.0000      -0.527238       -14.3469
  65   2.0000      -0.516793       -14.0627
  66   2.0000      -0.503730       -13.7072
  67   2.0000      -0.495523       -13.4839
  68   2.0000      -0.478511       -13.0209
  69   2.0000      -0.467518       -12.7218
  70   2.0000      -0.456529       -12.4228
  71   2.0000      -0.446343       -12.1456
  72   2.0000      -0.356381        -9.6976
  73   2.0000      -0.353946        -9.6314
  74   2.0000      -0.330790        -9.0012
  75   2.0000      -0.327672        -8.9164
  76   2.0000      -0.321131        -8.7384
  77   0.0000       0.072796         1.9809
  78   0.0000       0.098175         2.6715
  79   0.0000       0.122203         3.3253
  80   0.0000       0.128017         3.4835
  81   0.0000       0.130699         3.5565

MULLIKEN ATOMIC CHARGES
-----------------------
   0 C :   -0.284434
   1 C :    0.026627
   2 O :   -0.371130
   3 C :    0.438965
   4 O :   -0.380484
   5 C :   -0.240619
   6 C :    0.165991
   7 C :   -0.270010
   8 N :   -0.127643
   9 C :    0.208410
  10 S :   -0.437266
  11 N :   -0.207834
  12 C :    0.041710
  13 C :   -0.015993
  14 C :   -0.149718
  15 C :   -0.139010
  16 C :   -0.271899
  17 C :    0.303555
  18 O :   -0.356354
  19 C :   -0.227812
  20 H :    0.085282
  21 H :    0.103026
  22 H :    0.115547
  23 H :    0.102942
  24 H :    0.115897
  25 H :    0.122436
  26 H :    0.138636
  27 H :    0.095030
  28 H :    0.200005
  29 H :    0.199840
  30 H :    0.152502
  31 H :    0.154464
  32 H :    0.164945
  33 H :    0.134564
  34 H :    0.241432
  35 H :    0.168403
Sum of atomic charges:   -0.0000000

LOEWDIN ATOMIC CHARGES
----------------------
   0 C :    0.105999
   1 C :   -0.018906
   2 O :    0.289330
   3 C :   -0.427264
   4 O :    0.125845
   5 C :   -0.104140
   6 C :   -0.058407
   7 C :    0.129896
   8 N :    0.407565
   9 C :   -0.457952
  10 S :   -0.033060
  11 N :    0.395526
  12 C :   -0.053534
  13 C :   -0.044368
  14 C :    0.021861
  15 C :    0.042593
  16 C :    0.000461
  17 C :   -0.192584
  18 O :    0.396352
  19 C :    0.031053
  20 H :   -0.031680
  21 H :   -0.025509
  22 H :   -0.021248
  23 H :   -0.036423
  24 H :   -0.021730
  25 H :   -0.007926
  26 H :   -0.003931
  27 H :   -0.022558
  28 H :   -0.056319
  29 H :   -0.063397
  30 H :   -0.011279
  31 H :   -0.026395
  32 H :   -0.019271
  33 H :   -0.033978
  34 H :   -0.152634
  35 H :   -0.021988

  Mayer bond orders larger than 0.100000
B(  0-C ,  1-C ) :   0.9798 B(  0-C , 20-H ) :   0.9742 B(  0-C , 21-H ) :   0.9764
B(  0-C , 22-H ) :   0.9751 B(  1-C ,  2-O ) :   0.8886 B(  1-C , 23-H ) :   0.9631
B(  1-C , 24-H ) :   0.9791 B(  2-O ,  3-C ) :   1.1084 B(  3-C ,  4-O ) :   2.0773
B(  3-C ,  5-C ) :   1.0156 B(  5-C ,  6-C ) :   1.6367 B(  5-C , 12-C ) :   0.9595
B(  6-C ,  7-C ) :   0.9652 B(  6-C ,  8-N ) :   1.1505 B(  7-C , 25-H ) :   0.9699
B(  7-C , 26-H ) :   0.9543 B(  7-C , 27-H ) :   0.9861 B(  8-N ,  9-C ) :   1.1872
B(  8-N , 28-H ) :   0.9476 B(  9-C , 10-S ) :   1.6145 B(  9-C , 11-N ) :   1.2996
B( 11-N , 12-C ) :   0.9779 B( 11-N , 29-H ) :   0.9483 B( 12-C , 13-C ) :   0.9627
B( 12-C , 30-H ) :   1.0049 B( 13-C , 14-C ) :   1.3674 B( 13-C , 19-C ) :   1.3665
B( 14-C , 15-C ) :   1.3917 B( 14-C , 31-H ) :   0.9702 B( 15-C , 16-C ) :   1.3608
B( 15-C , 32-H ) :   0.9695 B( 16-C , 17-C ) :   1.3320 B( 16-C , 33-H ) :   0.9834
B( 17-C , 18-O ) :   1.1085 B( 17-C , 19-C ) :   1.3646 B( 18-O , 34-H ) :   0.9789
B( 19-C , 35-H ) :   0.9599

MP2 TOTAL ENERGY:    -1274.322918896 Eh
FINAL SINGLE POINT ENERGY     -1274.322918895525

DIPOLE MOMENT
-------------
                                X             Y             Z
Electronic contribution:      9.84278       8.11363       7.84587
Nuclear contribution   :    -11.09850      -9.71993      -7.63529
                        -----------------------------------------
Total Dipole Moment    :     -1.25572      -1.60630       0.21058
                        -----------------------------------------
Magnitude (a.u.)       :      2.04972
Magnitude (Debye)      :      5.20998

Rotational constants in cm-1:     0.011681     0.009136     0.006126
Rotational constants in MHz :   350.192351   273.904092   183.660631

                             ****ORCA TERMINATED NORMALLY****
TOTAL RUN TIME: 0 days 1 hours 47 minutes 51 seconds 384 msec
