                         Program Version 4.2.0 -  RELEASE  -
|  1> ! ri-mp2 cc-pvtz cc-pvtz/c TightSCF NoKeepInts
|  2>
|  3> %scf
|  4>   MaxCore 4096
|  5> end
|  6> *xyz  0  1
|  7>     C       14.5325557   14.6815501   15.3335031
|  8>     C       16.0008353   14.8786447   14.9038510
|  9>     O       16.5990246   15.9107460   15.7099883
| 10>     C       16.2494174   17.2232779   15.5417285
| 11>     O       15.5332105   17.5949426   14.6271358
| 12>     C       16.8646855   18.1225796   16.5806811
| 13>     C       16.9060502   19.4680811   16.4021244
| 14>     C       16.1699802   20.2763769   15.3535430
| 15>     N       17.6955457   20.2788676   17.2208518
| 16>     C       18.6129497   19.8100279   18.1217082
| 17>     S       19.5822711   20.8270363   18.9945761
| 18>     N       18.7022917   18.4470492   18.2491919
| 19>     C       17.8148504   17.4658961   17.5963944
| 20>     C       17.1148877   16.5532254   18.5951213
| 21>     C       17.4493257   15.1889482   18.6773561
| 22>     C       16.7996303   14.3492394   19.5977103
| 23>     C       15.8105340   14.8792464   20.4440524
| 24>     C       15.4789082   16.2391021   20.3664967
| 25>     O       14.5249724   16.7534322   21.1829190
| 26>     C       16.1271942   17.0721857   19.4493656
| 27>     H       14.4685442   14.4908972   16.4122729
| 28>     H       14.0922086   13.8260251   14.8075424
| 29>     H       13.9266126   15.5661192   15.1017406
| 30>     H       16.5472535   13.9392669   15.0566430
| 31>     H       16.0554597   15.1369917   13.8374630
| 32>     H       16.5341040   20.0291433   14.3482413
| 33>     H       16.2795586   21.3587618   15.4891288
| 34>     H       15.0958091   20.0519372   15.3775594
| 35>     H       17.6546497   21.2806454   17.1222352
| 36>     H       19.3642079   18.1318552   18.9469901
| 37>     H       18.5480971   16.9024850   17.0021706
| 38>     H       18.2091360   14.7773008   18.0185253
| 39>     H       17.0621175   13.2942308   19.6523540
| 40>     H       15.3059471   14.2348692   21.1563610
| 41>     H       14.2125435   16.0358248   21.7540417
| 42>     H       15.8616306   18.1231907   19.4064317
| 43> *
| 44>
| 45>                          ****END OF INPUT****

CARTESIAN COORDINATES (ANGSTROEM)
---------------------------------
  C     14.532556   14.681550   15.333503
  C     16.000835   14.878645   14.903851
  O     16.599025   15.910746   15.709988
  C     16.249417   17.223278   15.541728
  O     15.533210   17.594943   14.627136
  C     16.864686   18.122580   16.580681
  C     16.906050   19.468081   16.402124
  C     16.169980   20.276377   15.353543
  N     17.695546   20.278868   17.220852
  C     18.612950   19.810028   18.121708
  S     19.582271   20.827036   18.994576
  N     18.702292   18.447049   18.249192
  C     17.814850   17.465896   17.596394
  C     17.114888   16.553225   18.595121
  C     17.449326   15.188948   18.677356
  C     16.799630   14.349239   19.597710
  C     15.810534   14.879246   20.444052
  C     15.478908   16.239102   20.366497
  O     14.524972   16.753432   21.182919
  C     16.127194   17.072186   19.449366
  H     14.468544   14.490897   16.412273
  H     14.092209   13.826025   14.807542
  H     13.926613   15.566119   15.101741
  H     16.547254   13.939267   15.056643
  H     16.055460   15.136992   13.837463
  H     16.534104   20.029143   14.348241
  H     16.279559   21.358762   15.489129
  H     15.095809   20.051937   15.377559
  H     17.654650   21.280645   17.122235
  H     19.364208   18.131855   18.946990
  H     18.548097   16.902485   17.002171
  H     18.209136   14.777301   18.018525
  H     17.062117   13.294231   19.652354
  H     15.305947   14.234869   21.156361
  H     14.212543   16.035825   21.754042
  H     15.861631   18.123191   19.406432

 Total Charge           Charge          ....    0
 Multiplicity           Mult            ....    1
 Number of Electrons    NEL             ....  154
 Basis Dimension        Dim             ....  828

ORBITAL ENERGIES
----------------

  NO   OCC          E(Eh)            E(eV)
   0   2.0000     -91.888570     -2500.4151
   1   2.0000     -20.600964      -560.5807
   2   2.0000     -20.596073      -560.4476
   3   2.0000     -20.541417      -558.9604
   4   2.0000     -15.628929      -425.2848
   5   2.0000     -15.606750      -424.6813
   6   2.0000     -11.396021      -310.1015
   7   2.0000     -11.383261      -309.7543
   8   2.0000     -11.337110      -308.4985
   9   2.0000     -11.313210      -307.8481
  10   2.0000     -11.307098      -307.6818
  11   2.0000     -11.298252      -307.4411
  12   2.0000     -11.260220      -306.4062
  13   2.0000     -11.259466      -306.3857
  14   2.0000     -11.254606      -306.2534
  15   2.0000     -11.251557      -306.1704
  16   2.0000     -11.243248      -305.9443
  17   2.0000     -11.238567      -305.8170
  18   2.0000     -11.238257      -305.8085
  19   2.0000     -11.222446      -305.3783
  20   2.0000      -8.893644      -242.0084
  21   2.0000      -6.575218      -178.9208
  22   2.0000      -6.573219      -178.8664
  23   2.0000      -6.572629      -178.8503
  24   2.0000      -1.450751       -39.4769
  25   2.0000      -1.415752       -38.5246
  26   2.0000      -1.354444       -36.8563
  27   2.0000      -1.340080       -36.4654
  28   2.0000      -1.237950       -33.6863
  29   2.0000      -1.157202       -31.4891
  30   2.0000      -1.120945       -30.5025
  31   2.0000      -1.042484       -28.3674
  32   2.0000      -1.035831       -28.1864
  33   2.0000      -1.014491       -27.6057
  34   2.0000      -0.995615       -27.0921
  35   2.0000      -0.984154       -26.7802
  36   2.0000      -0.921516       -25.0757
  37   2.0000      -0.894643       -24.3445
  38   2.0000      -0.846359       -23.0306
  39   2.0000      -0.837705       -22.7951
  40   2.0000      -0.833739       -22.6872
  41   2.0000      -0.816122       -22.2078
  42   2.0000      -0.755172       -20.5493
  43   2.0000      -0.733202       -19.9514
  44   2.0000      -0.722119       -19.6499
  45   2.0000      -0.695145       -18.9159
  46   2.0000      -0.688875       -18.7452
  47   2.0000      -0.679506       -18.4903
  48   2.0000      -0.671082       -18.2611
  49   2.0000      -0.656463       -17.8633
  50   2.0000      -0.647521       -17.6200
  51   2.0000      -0.639555       -17.4032
  52   2.0000      -0.632406       -17.2087
  53   2.0000      -0.612347       -16.6628
  54   2.0000      -0.606084       -16.4924
  55   2.0000      -0.600146       -16.3308
  56   2.0000      -0.598624       -16.2894
  57   2.0000      -0.576951       -15.6996
  58   2.0000      -0.569932       -15.5086
  59   2.0000      -0.568844       -15.4790
  60   2.0000      -0.560139       -15.2422
  61   2.0000      -0.544002       -14.8030
  62   2.0000      -0.534681       -14.5494
  63   2.0000      -0.527424       -14.3519
  64   2.0000      -0.523139       -14.2353
  65   2.0000      -0.512781       -13.9535
  66   2.0000      -0.500329       -13.6146
  67   2.0000      -0.497721       -13.5437
  68   2.0000      -0.482602       -13.1323
  69   2.0000      -0.462961       -12.5978
  70   2.0000      -0.455795       -12.4028
  71   2.0000      -0.446505       -12.1500
  72   2.0000      -0.352888        -9.6026
  73   2.0000      -0.349431        -9.5085
  74   2.0000      -0.327749        -8.9185
  75   2.0000      -0.320580        -8.7234
  76   2.0000      -0.317726        -8.6458
  77   0.0000       0.077920         2.1203
  78   0.0000       0.105692         2.8760
  79   0.0000       0.124922         3.3993
  80   0.0000       0.133034         3.6200
  81   0.0000       0.138043         3.7563

MULLIKEN ATOMIC CHARGES
-----------------------
   0 C :   -0.301228
   1 C :    0.023783
   2 O :   -0.349527
   3 C :    0.444117
   4 O :   -0.441219
   5 C :   -0.220353
   6 C :    0.171295
   7 C :   -0.268651
   8 N :   -0.125946
   9 C :    0.210131
  10 S :   -0.442405
  11 N :   -0.214868
  12 C :    0.059337
  13 C :    0.045509
  14 C :   -0.178977
  15 C :   -0.134103
  16 C :   -0.276959
  17 C :    0.316838
  18 O :   -0.356845
  19 C :   -0.249133
  20 H :    0.103698
  21 H :    0.093992
  22 H :    0.117448
  23 H :    0.109443
  24 H :    0.110284
  25 H :    0.128832
  26 H :    0.094689
  27 H :    0.133519
  28 H :    0.199702
  29 H :    0.200174
  30 H :    0.152826
  31 H :    0.151263
  32 H :    0.160207
  33 H :    0.130055
  34 H :    0.240425
  35 H :    0.162647
Sum of atomic charges:   -0.0000000

LOEWDIN ATOMIC CHARGES
----------------------
   0 C :    0.105649
   1 C :   -0.017559
   2 O :    0.307785
   3 C :   -0.412229
   4 O :    0.095040
   5 C :   -0.093759
   6 C :   -0.056963
   7 C :    0.130982
   8 N :    0.407028
   9 C :   -0.456653
  10 S :   -0.036979
  11 N :    0.394749
  12 C :   -0.054610
  13 C :   -0.039897
  14 C :    0.016841
  15 C :    0.038901
  16 C :   -0.000783
  17 C :   -0.189835
  18 O :    0.395003
  19 C :    0.033296
  20 H :   -0.026896
  21 H :   -0.027815
  22 H :   -0.025521
  23 H :   -0.025667
  24 H :   -0.028211
  25 H :   -0.005217
  26 H :   -0.023657
  27 H :   -0.004377
  28 H :   -0.057188
  29 H :   -0.064353
  30 H :   -0.014050
  31 H :   -0.029332
  32 H :   -0.021488
  33 H :   -0.035422
  34 H :   -0.154080
  35 H :   -0.022733

  Mayer bond orders larger than 0.100000
B(  0-C ,  1-C ) :   0.9611 B(  0-C , 20-H ) :   0.9746 B(  0-C , 21-H ) :   0.9767
B(  0-C , 22-H ) :   0.9747 B(  1-C ,  2-O ) :   0.8998 B(  1-C , 23-H ) :   0.9846
B(  1-C , 24-H ) :   0.9803 B(  2-O ,  3-C ) :   1.1620 B(  3-C ,  4-O ) :   1.9491
B(  3-C ,  5-C ) :   1.0717 B(  5-C ,  6-C ) :   1.6448 B(  5-C , 12-C ) :   0.9564
B(  6-C ,  7-C ) :   0.9646 B(  6-C ,  8-N ) :   1.1532 B(  7-C , 25-H ) :   0.9590
B(  7-C , 26-H ) :   0.9905 B(  7-C , 27-H ) :   0.9615 B(  8-N ,  9-C ) :   1.1877
B(  8-N , 28-H ) :   0.9463 B(  9-C , 10-S ) :   1.6058 B(  9-C , 11-N ) :   1.3088
B( 11-N , 12-C ) :   0.9699 B( 11-N , 29-H ) :   0.9484 B( 12-C , 13-C ) :   0.9630
B( 12-C , 30-H ) :   1.0000 B( 13-C , 14-C ) :   1.3546 B( 13-C , 19-C ) :   1.3799
B( 14-C , 15-C ) :   1.3954 B( 14-C , 31-H ) :   0.9715 B( 15-C , 16-C ) :   1.3592
B( 15-C , 32-H ) :   0.9708 B( 16-C , 17-C ) :   1.3335 B( 16-C , 33-H ) :   0.9852
B( 17-C , 18-O ) :   1.1046 B( 17-C , 19-C ) :   1.3649 B( 18-O , 34-H ) :   0.9800
B( 19-C , 35-H ) :   0.9595

MP2 TOTAL ENERGY:    -1274.344350418 Eh
FINAL SINGLE POINT ENERGY     -1274.344350417695

DIPOLE MOMENT
-------------
                                X             Y             Z
Electronic contribution:      9.22272      10.59009       8.58048
Nuclear contribution   :    -10.11808     -12.36736      -9.03536
                        -----------------------------------------
Total Dipole Moment    :     -0.89536      -1.77727      -0.45488
                        -----------------------------------------
Magnitude (a.u.)       :      2.04139
Magnitude (Debye)      :      5.18880

Rotational constants in cm-1:     0.011420     0.008627     0.005907
Rotational constants in MHz :   342.360572   258.616296   177.093679

                             ****ORCA TERMINATED NORMALLY****
TOTAL RUN TIME: 0 days 1 hours 57 minutes 39 seconds 569 msec
