                         Program Version 4.2.0 -  RELEASE  -
|  1> ! ri-mp2 cc-pvtz cc-pvtz/c TightSCF NoKeepInts
|  2>
|  3> %scf
|  4>   MaxCore 4096
|  5> end
|  6> *xyz  0  1
|  7>     C       14.4913009   15.0135202   14.8678666
|  8>     C       15.5410642   15.1530984   15.9880303
|  9>     O       16.6406094   15.9753840   15.5463268
| 10>     C       16.4419959   17.3148933   15.3757390
| 11>     O       15.8678013   17.7447469   14.3916280
| 12>     C       16.9272665   18.1477388   16.5351593
| 13>     C       16.9132660   19.5045602   16.4590999
| 14>     C       16.1850489   20.3610727   15.4434497
| 15>     N       17.6194937   20.2864927   17.3759369
| 16>     C       18.5331375   19.7964123   18.2684871
| 17>     S       19.4169089   20.7883794   19.2534899
| 18>     N       18.6961312   18.4349337   18.2871279
| 19>     C       17.8729355   17.4649546   17.5411051
| 20>     C       17.2130752   16.4451986   18.4584770
| 21>     C       17.7079529   15.1305119   18.5398834
| 22>     C       17.0938656   14.1886562   19.3824054
| 23>     C       15.9813246   14.5670435   20.1535403
| 24>     C       15.4940184   15.8794544   20.0823350
| 25>     O       14.4206323   16.2477749   20.8254899
| 26>     C       16.1054523   16.8139555   19.2407009
| 27>     H       13.9671753   15.9613255   14.6939000
| 28>     H       13.7414607   14.2602490   15.1376168
| 29>     H       14.9664324   14.7038561   13.9285589
| 30>     H       15.0729822   15.5756623   16.8866281
| 31>     H       15.9226431   14.1562047   16.2434744
| 32>     H       15.1384561   20.0446829   15.3482609
| 33>     H       16.6480527   20.2631951   14.4530348
| 34>     H       16.1791456   21.4260583   15.7037823
| 35>     H       17.5297894   21.2897457   17.3516067
| 36>     H       19.3585404   18.1007681   18.9757198
| 37>     H       18.6518122   16.9876077   16.9292218
| 38>     H       18.5663003   14.8363234   17.9411293
| 39>     H       17.4814453   13.1725621   19.4378899
| 40>     H       15.5048166   13.8433665   20.8070218
| 41>     H       14.1753332   15.4923021   21.3809595
| 42>     H       15.7193333   17.8273087   19.2029168
| 43> *
| 44>
| 45>                          ****END OF INPUT****

CARTESIAN COORDINATES (ANGSTROEM)
---------------------------------
  C     14.491301   15.013520   14.867867
  C     15.541064   15.153098   15.988030
  O     16.640609   15.975384   15.546327
  C     16.441996   17.314893   15.375739
  O     15.867801   17.744747   14.391628
  C     16.927267   18.147739   16.535159
  C     16.913266   19.504560   16.459100
  C     16.185049   20.361073   15.443450
  N     17.619494   20.286493   17.375937
  C     18.533137   19.796412   18.268487
  S     19.416909   20.788379   19.253490
  N     18.696131   18.434934   18.287128
  C     17.872935   17.464955   17.541105
  C     17.213075   16.445199   18.458477
  C     17.707953   15.130512   18.539883
  C     17.093866   14.188656   19.382405
  C     15.981325   14.567044   20.153540
  C     15.494018   15.879454   20.082335
  O     14.420632   16.247775   20.825490
  C     16.105452   16.813955   19.240701
  H     13.967175   15.961325   14.693900
  H     13.741461   14.260249   15.137617
  H     14.966432   14.703856   13.928559
  H     15.072982   15.575662   16.886628
  H     15.922643   14.156205   16.243474
  H     15.138456   20.044683   15.348261
  H     16.648053   20.263195   14.453035
  H     16.179146   21.426058   15.703782
  H     17.529789   21.289746   17.351607
  H     19.358540   18.100768   18.975720
  H     18.651812   16.987608   16.929222
  H     18.566300   14.836323   17.941129
  H     17.481445   13.172562   19.437890
  H     15.504817   13.843367   20.807022
  H     14.175333   15.492302   21.380959
  H     15.719333   17.827309   19.202917

 Total Charge           Charge          ....    0
 Multiplicity           Mult            ....    1
 Number of Electrons    NEL             ....  154
 Basis Dimension        Dim             ....  828

ORBITAL ENERGIES
----------------

  NO   OCC          E(Eh)            E(eV)
   0   2.0000     -91.890764     -2500.4748
   1   2.0000     -20.602161      -560.6133
   2   2.0000     -20.582039      -560.0657
   3   2.0000     -20.546330      -559.0941
   4   2.0000     -15.631220      -425.3471
   5   2.0000     -15.608868      -424.7389
   6   2.0000     -11.392962      -310.0182
   7   2.0000     -11.385154      -309.8058
   8   2.0000     -11.339596      -308.5661
   9   2.0000     -11.320001      -308.0329
  10   2.0000     -11.310407      -307.7718
  11   2.0000     -11.296763      -307.4005
  12   2.0000     -11.265850      -306.5594
  13   2.0000     -11.261220      -306.4334
  14   2.0000     -11.259135      -306.3766
  15   2.0000     -11.253250      -306.2165
  16   2.0000     -11.249786      -306.1222
  17   2.0000     -11.244361      -305.9746
  18   2.0000     -11.244115      -305.9679
  19   2.0000     -11.217575      -305.2457
  20   2.0000      -8.895821      -242.0676
  21   2.0000      -6.577388      -178.9798
  22   2.0000      -6.575394      -178.9256
  23   2.0000      -6.574799      -178.9094
  24   2.0000      -1.445308       -39.3288
  25   2.0000      -1.421887       -38.6915
  26   2.0000      -1.353172       -36.8217
  27   2.0000      -1.342668       -36.5359
  28   2.0000      -1.240673       -33.7604
  29   2.0000      -1.162955       -31.6456
  30   2.0000      -1.122498       -30.5447
  31   2.0000      -1.047018       -28.4908
  32   2.0000      -1.030065       -28.0295
  33   2.0000      -1.020976       -27.7822
  34   2.0000      -0.998298       -27.1651
  35   2.0000      -0.986571       -26.8460
  36   2.0000      -0.924922       -25.1684
  37   2.0000      -0.884768       -24.0758
  38   2.0000      -0.849766       -23.1233
  39   2.0000      -0.842887       -22.9361
  40   2.0000      -0.839681       -22.8489
  41   2.0000      -0.827008       -22.5040
  42   2.0000      -0.752942       -20.4886
  43   2.0000      -0.736938       -20.0531
  44   2.0000      -0.718594       -19.5539
  45   2.0000      -0.700470       -19.0608
  46   2.0000      -0.690279       -18.7834
  47   2.0000      -0.678905       -18.4739
  48   2.0000      -0.669804       -18.2263
  49   2.0000      -0.662282       -18.0216
  50   2.0000      -0.649065       -17.6620
  51   2.0000      -0.646621       -17.5954
  52   2.0000      -0.638006       -17.3610
  53   2.0000      -0.612289       -16.6612
  54   2.0000      -0.607074       -16.5193
  55   2.0000      -0.602829       -16.4038
  56   2.0000      -0.596087       -16.2204
  57   2.0000      -0.581439       -15.8218
  58   2.0000      -0.572719       -15.5845
  59   2.0000      -0.570080       -15.5127
  60   2.0000      -0.562782       -15.3141
  61   2.0000      -0.542660       -14.7665
  62   2.0000      -0.536079       -14.5874
  63   2.0000      -0.528314       -14.3762
  64   2.0000      -0.519382       -14.1331
  65   2.0000      -0.515220       -14.0198
  66   2.0000      -0.502874       -13.6839
  67   2.0000      -0.495074       -13.4716
  68   2.0000      -0.482423       -13.1274
  69   2.0000      -0.464214       -12.6319
  70   2.0000      -0.456992       -12.4354
  71   2.0000      -0.441817       -12.0224
  72   2.0000      -0.355892        -9.6843
  73   2.0000      -0.354137        -9.6366
  74   2.0000      -0.330563        -8.9951
  75   2.0000      -0.327040        -8.8992
  76   2.0000      -0.320335        -8.7168
  77   0.0000       0.071354         1.9416
  78   0.0000       0.097993         2.6665
  79   0.0000       0.122838         3.3426
  80   0.0000       0.129353         3.5199
  81   0.0000       0.131469         3.5775

MULLIKEN ATOMIC CHARGES
-----------------------
   0 C :   -0.267235
   1 C :    0.020063
   2 O :   -0.382352
   3 C :    0.489793
   4 O :   -0.407466
   5 C :   -0.290516
   6 C :    0.185298
   7 C :   -0.265977
   8 N :   -0.127312
   9 C :    0.211026
  10 S :   -0.439477
  11 N :   -0.215402
  12 C :    0.068020
  13 C :   -0.001940
  14 C :   -0.156278
  15 C :   -0.135712
  16 C :   -0.272822
  17 C :    0.313086
  18 O :   -0.356466
  19 C :   -0.241669
  20 H :    0.102311
  21 H :    0.090246
  22 H :    0.101977
  23 H :    0.099825
  24 H :    0.107113
  25 H :    0.130179
  26 H :    0.132964
  27 H :    0.094450
  28 H :    0.199673
  29 H :    0.201072
  30 H :    0.152543
  31 H :    0.152369
  32 H :    0.165296
  33 H :    0.134089
  34 H :    0.241693
  35 H :    0.167538
Sum of atomic charges:    0.0000000

LOEWDIN ATOMIC CHARGES
----------------------
   0 C :    0.105680
   1 C :   -0.023484
   2 O :    0.288994
   3 C :   -0.418630
   4 O :    0.119212
   5 C :   -0.102410
   6 C :   -0.053612
   7 C :    0.131122
   8 N :    0.407810
   9 C :   -0.457087
  10 S :   -0.034390
  11 N :    0.394645
  12 C :   -0.054607
  13 C :   -0.040264
  14 C :    0.020026
  15 C :    0.041743
  16 C :   -0.000155
  17 C :   -0.191485
  18 O :    0.396307
  19 C :    0.031801
  20 H :   -0.028771
  21 H :   -0.030036
  22 H :   -0.023827
  23 H :   -0.032854
  24 H :   -0.023522
  25 H :   -0.005026
  26 H :   -0.003993
  27 H :   -0.023429
  28 H :   -0.056666
  29 H :   -0.064214
  30 H :   -0.011901
  31 H :   -0.027432
  32 H :   -0.019846
  33 H :   -0.034173
  34 H :   -0.152662
  35 H :   -0.022867

  Mayer bond orders larger than 0.100000
B(  0-C ,  1-C ) :   0.9851 B(  0-C , 20-H ) :   0.9733 B(  0-C , 21-H ) :   0.9764
B(  0-C , 22-H ) :   0.9773 B(  1-C ,  2-O ) :   0.8885 B(  1-C , 23-H ) :   0.9658
B(  1-C , 24-H ) :   0.9793 B(  2-O ,  3-C ) :   1.0813 B(  3-C ,  4-O ) :   2.0162
B(  3-C ,  5-C ) :   1.0724 B(  5-C ,  6-C ) :   1.6318 B(  5-C , 12-C ) :   0.9535
B(  6-C ,  7-C ) :   0.9663 B(  6-C ,  8-N ) :   1.1570 B(  7-C , 25-H ) :   0.9631
B(  7-C , 26-H ) :   0.9563 B(  7-C , 27-H ) :   0.9896 B(  8-N ,  9-C ) :   1.1855
B(  8-N , 28-H ) :   0.9462 B(  9-C , 10-S ) :   1.6077 B(  9-C , 11-N ) :   1.3098
B( 11-N , 12-C ) :   0.9628 B( 11-N , 29-H ) :   0.9485 B( 12-C , 13-C ) :   0.9701
B( 12-C , 30-H ) :   1.0008 B( 13-C , 14-C ) :   1.3453 B( 13-C , 19-C ) :   1.3733
B( 14-C , 15-C ) :   1.3918 B( 14-C , 31-H ) :   0.9756 B( 15-C , 16-C ) :   1.3604
B( 15-C , 32-H ) :   0.9694 B( 16-C , 17-C ) :   1.3315 B( 16-C , 33-H ) :   0.9836
B( 17-C , 18-O ) :   1.1072 B( 17-C , 19-C ) :   1.3632 B( 18-O , 34-H ) :   0.9788
B( 19-C , 35-H ) :   0.9596

MP2 TOTAL ENERGY:    -1274.327570901 Eh
FINAL SINGLE POINT ENERGY     -1274.327570901349

DIPOLE MOMENT
-------------
                                X             Y             Z
Electronic contribution:      9.84992       9.53082       7.96079
Nuclear contribution   :    -10.88021     -11.12486      -7.78273
                        -----------------------------------------
Total Dipole Moment    :     -1.03029      -1.59404       0.17807
                        -----------------------------------------
Magnitude (a.u.)       :      1.90635
Magnitude (Debye)      :      4.84555

Rotational constants in cm-1:     0.011952     0.008714     0.006018
Rotational constants in MHz :   358.310856   261.244310   180.429580

                             ****ORCA TERMINATED NORMALLY****
TOTAL RUN TIME: 0 days 1 hours 42 minutes 52 seconds 466 msec
