                         Program Version 4.2.0 -  RELEASE  -
|  1> ! ri-mp2 cc-pvtz cc-pvtz/c TightSCF NoKeepInts
|  2>
|  3> %scf
|  4>   MaxCore 4096
|  5> end
|  6> *xyz  0  1
|  7>     C       14.0250751   15.1767754   15.1608995
|  8>     C       14.9954568   16.2974364   15.5673717
|  9>     O       16.3132786   15.8846844   15.1584222
| 10>     C       17.4616578   16.4751351   15.6208995
| 11>     O       18.5579325   15.9936208   15.4055683
| 12>     C       17.2802604   17.6515508   16.5190958
| 13>     C       16.9676740   18.8582050   15.9900524
| 14>     C       16.5335452   19.1463658   14.5671067
| 15>     N       17.1159881   20.0269645   16.7384513
| 16>     C       17.7981518   20.0956573   17.9251564
| 17>     S       18.0377463   21.5311189   18.7100744
| 18>     N       18.2947554   18.9123894   18.4160354
| 19>     C       18.0156341   17.5751482   17.8547226
| 20>     C       17.3744814   16.5885287   18.8179389
| 21>     C       17.8245967   15.2571095   18.8658879
| 22>     C       17.2210405   14.3307223   19.7324904
| 23>     C       16.1561172   14.7388599   20.5539897
| 24>     C       15.7007681   16.0635021   20.5017647
| 25>     O       14.6655165   16.4573341   21.2851614
| 26>     C       16.3025931   16.9836692   19.6372304
| 27>     H       14.3021844   14.2322939   15.6462001
| 28>     H       14.0428888   15.0243112   14.0744603
| 29>     H       12.9991649   15.4269446   15.4572609
| 30>     H       14.7027488   17.2368857   15.0846868
| 31>     H       14.9488563   16.4235785   16.6580461
| 32>     H       16.6480615   18.2805583   13.9035161
| 33>     H       17.1397530   19.9508596   14.1307315
| 34>     H       15.4833508   19.4605078   14.5305106
| 35>     H       16.7950354   20.9079960   16.3684126
| 36>     H       18.7926024   18.9900610   19.2942528
| 37>     H       19.0383968   17.2504285   17.6102765
| 38>     H       18.6400752   14.9376477   18.2198145
| 39>     H       17.5766660   13.3020035   19.7611918
| 40>     H       15.6862530   14.0257571   21.2233904
| 41>     H       14.4155644   15.7018183   21.8384634
| 42>     H       15.9331286   18.0035707   19.6084659
| 43> *
| 44>
| 45>                          ****END OF INPUT****

CARTESIAN COORDINATES (ANGSTROEM)
---------------------------------
  C     14.025075   15.176775   15.160899
  C     14.995457   16.297436   15.567372
  O     16.313279   15.884684   15.158422
  C     17.461658   16.475135   15.620900
  O     18.557932   15.993621   15.405568
  C     17.280260   17.651551   16.519096
  C     16.967674   18.858205   15.990052
  C     16.533545   19.146366   14.567107
  N     17.115988   20.026964   16.738451
  C     17.798152   20.095657   17.925156
  S     18.037746   21.531119   18.710074
  N     18.294755   18.912389   18.416035
  C     18.015634   17.575148   17.854723
  C     17.374481   16.588529   18.817939
  C     17.824597   15.257110   18.865888
  C     17.221041   14.330722   19.732490
  C     16.156117   14.738860   20.553990
  C     15.700768   16.063502   20.501765
  O     14.665516   16.457334   21.285161
  C     16.302593   16.983669   19.637230
  H     14.302184   14.232294   15.646200
  H     14.042889   15.024311   14.074460
  H     12.999165   15.426945   15.457261
  H     14.702749   17.236886   15.084687
  H     14.948856   16.423579   16.658046
  H     16.648062   18.280558   13.903516
  H     17.139753   19.950860   14.130731
  H     15.483351   19.460508   14.530511
  H     16.795035   20.907996   16.368413
  H     18.792602   18.990061   19.294253
  H     19.038397   17.250429   17.610276
  H     18.640075   14.937648   18.219814
  H     17.576666   13.302003   19.761192
  H     15.686253   14.025757   21.223390
  H     14.415564   15.701818   21.838463
  H     15.933129   18.003571   19.608466

 Total Charge           Charge          ....    0
 Multiplicity           Mult            ....    1
 Number of Electrons    NEL             ....  154
 Basis Dimension        Dim             ....  828

ORBITAL ENERGIES
----------------

  NO   OCC          E(Eh)            E(eV)
   0   2.0000     -91.889285     -2500.4346
   1   2.0000     -20.605561      -560.7058
   2   2.0000     -20.600518      -560.5686
   3   2.0000     -20.551254      -559.2280
   4   2.0000     -15.626441      -425.2171
   5   2.0000     -15.609727      -424.7623
   6   2.0000     -11.399252      -310.1894
   7   2.0000     -11.385496      -309.8151
   8   2.0000     -11.331145      -308.3361
   9   2.0000     -11.318117      -307.9816
  10   2.0000     -11.311431      -307.7997
  11   2.0000     -11.306231      -307.6582
  12   2.0000     -11.268083      -306.6201
  13   2.0000     -11.266018      -306.5639
  14   2.0000     -11.263007      -306.4820
  15   2.0000     -11.258588      -306.3617
  16   2.0000     -11.247016      -306.0469
  17   2.0000     -11.243104      -305.9404
  18   2.0000     -11.241092      -305.8857
  19   2.0000     -11.234647      -305.7103
  20   2.0000      -8.894401      -242.0289
  21   2.0000      -6.575985      -178.9416
  22   2.0000      -6.573969      -178.8868
  23   2.0000      -6.573390      -178.8710
  24   2.0000      -1.450279       -39.4641
  25   2.0000      -1.420218       -38.6461
  26   2.0000      -1.363953       -37.1150
  27   2.0000      -1.340049       -36.4646
  28   2.0000      -1.238960       -33.7138
  29   2.0000      -1.162434       -31.6314
  30   2.0000      -1.126766       -30.6609
  31   2.0000      -1.049400       -28.5556
  32   2.0000      -1.042109       -28.3572
  33   2.0000      -1.020232       -27.7619
  34   2.0000      -1.006466       -27.3873
  35   2.0000      -0.989589       -26.9281
  36   2.0000      -0.926934       -25.2232
  37   2.0000      -0.881743       -23.9935
  38   2.0000      -0.856182       -23.2979
  39   2.0000      -0.842502       -22.9256
  40   2.0000      -0.838727       -22.8229
  41   2.0000      -0.837254       -22.7828
  42   2.0000      -0.758176       -20.6310
  43   2.0000      -0.740071       -20.1384
  44   2.0000      -0.732928       -19.9440
  45   2.0000      -0.698226       -18.9997
  46   2.0000      -0.690299       -18.7840
  47   2.0000      -0.683200       -18.5908
  48   2.0000      -0.675028       -18.3685
  49   2.0000      -0.662815       -18.0361
  50   2.0000      -0.660672       -17.9778
  51   2.0000      -0.649020       -17.6607
  52   2.0000      -0.638440       -17.3728
  53   2.0000      -0.613577       -16.6963
  54   2.0000      -0.608555       -16.5596
  55   2.0000      -0.603939       -16.4340
  56   2.0000      -0.595209       -16.1965
  57   2.0000      -0.579932       -15.7808
  58   2.0000      -0.578544       -15.7430
  59   2.0000      -0.573180       -15.5970
  60   2.0000      -0.562613       -15.3095
  61   2.0000      -0.559013       -15.2115
  62   2.0000      -0.554399       -15.0860
  63   2.0000      -0.528694       -14.3865
  64   2.0000      -0.519479       -14.1357
  65   2.0000      -0.515532       -14.0283
  66   2.0000      -0.508795       -13.8450
  67   2.0000      -0.502238       -13.6666
  68   2.0000      -0.489124       -13.3098
  69   2.0000      -0.469782       -12.7834
  70   2.0000      -0.456933       -12.4338
  71   2.0000      -0.452414       -12.3108
  72   2.0000      -0.356059        -9.6889
  73   2.0000      -0.352595        -9.5946
  74   2.0000      -0.328938        -8.9508
  75   2.0000      -0.325753        -8.8642
  76   2.0000      -0.319369        -8.6905
  77   0.0000       0.088800         2.4164
  78   0.0000       0.103318         2.8114
  79   0.0000       0.115335         3.1384
  80   0.0000       0.128007         3.4833
  81   0.0000       0.129671         3.5285

MULLIKEN ATOMIC CHARGES
-----------------------
   0 C :   -0.257371
   1 C :    0.028796
   2 O :   -0.302198
   3 C :    0.408733
   4 O :   -0.382080
   5 C :   -0.205563
   6 C :    0.151318
   7 C :   -0.339467
   8 N :   -0.140979
   9 C :    0.210587
  10 S :   -0.443783
  11 N :   -0.223503
  12 C :    0.060132
  13 C :    0.029863
  14 C :   -0.223311
  15 C :   -0.127560
  16 C :   -0.276613
  17 C :    0.316966
  18 O :   -0.355454
  19 C :   -0.256997
  20 H :    0.106018
  21 H :    0.100342
  22 H :    0.089231
  23 H :    0.082067
  24 H :    0.105786
  25 H :    0.129424
  26 H :    0.137307
  27 H :    0.123817
  28 H :    0.197068
  29 H :    0.202417
  30 H :    0.168172
  31 H :    0.174067
  32 H :    0.164766
  33 H :    0.132064
  34 H :    0.241468
  35 H :    0.174470
Sum of atomic charges:   -0.0000000

LOEWDIN ATOMIC CHARGES
----------------------
   0 C :    0.112031
   1 C :   -0.025653
   2 O :    0.308603
   3 C :   -0.415492
   4 O :    0.119575
   5 C :   -0.082625
   6 C :   -0.094892
   7 C :    0.123483
   8 N :    0.402249
   9 C :   -0.455604
  10 S :   -0.038968
  11 N :    0.395936
  12 C :   -0.050061
  13 C :   -0.044154
  14 C :    0.018954
  15 C :    0.045639
  16 C :    0.000396
  17 C :   -0.191147
  18 O :    0.395394
  19 C :    0.027304
  20 H :   -0.022338
  21 H :   -0.025684
  22 H :   -0.024914
  23 H :   -0.036935
  24 H :   -0.030414
  25 H :   -0.008179
  26 H :   -0.009433
  27 H :   -0.018001
  28 H :   -0.057167
  29 H :   -0.063883
  30 H :   -0.003584
  31 H :   -0.021536
  32 H :   -0.018328
  33 H :   -0.034614
  34 H :   -0.152947
  35 H :   -0.023011

  Mayer bond orders larger than 0.100000
B(  0-C ,  1-C ) :   0.9825 B(  0-C , 20-H ) :   0.9782 B(  0-C , 21-H ) :   0.9781
B(  0-C , 22-H ) :   0.9771 B(  1-C ,  2-O ) :   0.9122 B(  1-C , 23-H ) :   0.9696
B(  1-C , 24-H ) :   0.9627 B(  2-O ,  3-C ) :   1.1920 B(  3-C ,  4-O ) :   2.1036
B(  3-C ,  5-C ) :   0.9120 B(  5-C ,  6-C ) :   1.7185 B(  5-C , 12-C ) :   0.9401
B(  6-C ,  7-C ) :   0.9363 B(  6-C ,  8-N ) :   1.1066 B(  7-C , 25-H ) :   0.9779
B(  7-C , 26-H ) :   0.9711 B(  7-C , 27-H ) :   0.9673 B(  8-N ,  9-C ) :   1.1995
B(  8-N , 28-H ) :   0.9517 B(  9-C , 10-S ) :   1.6093 B(  9-C , 11-N ) :   1.2892
B( 11-N , 12-C ) :   0.9837 B( 11-N , 29-H ) :   0.9472 B( 12-C , 13-C ) :   0.9668
B( 12-C , 30-H ) :   0.9895 B( 13-C , 14-C ) :   1.3839 B( 13-C , 19-C ) :   1.3521
B( 14-C , 15-C ) :   1.3945 B( 14-C , 31-H ) :   0.9607 B( 15-C , 16-C ) :   1.3627
B( 15-C , 32-H ) :   0.9695 B( 16-C , 17-C ) :   1.3309 B( 16-C , 33-H ) :   0.9847
B( 17-C , 18-O ) :   1.1098 B( 17-C , 19-C ) :   1.3628 B( 18-O , 34-H ) :   0.9792
B( 19-C , 35-H ) :   0.9564

MP2 TOTAL ENERGY:    -1274.331734427 Eh
FINAL SINGLE POINT ENERGY     -1274.331734427341

DIPOLE MOMENT
-------------
                                X             Y             Z
Electronic contribution:     10.34792       8.59457       8.57389
Nuclear contribution   :    -12.05104      -9.79679      -8.88608
                        -----------------------------------------
Total Dipole Moment    :     -1.70312      -1.20221      -0.31219
                        -----------------------------------------
Magnitude (a.u.)       :      2.10794
Magnitude (Debye)      :      5.35796

Rotational constants in cm-1:     0.010833     0.009036     0.006210
Rotational constants in MHz :   324.771149   270.885711   186.156445

                             ****ORCA TERMINATED NORMALLY****
TOTAL RUN TIME: 0 days 1 hours 41 minutes 17 seconds 138 msec
