                         Program Version 4.2.0 -  RELEASE  -
|  1> ! ri-mp2 cc-pvtz cc-pvtz/c TightSCF NoKeepInts
|  2>
|  3> %scf
|  4>   MaxCore 4096
|  5> end
|  6> *xyz  0  1
|  7>     C       14.1413212   15.0492154   15.4028172
|  8>     C       15.2438794   15.7234683   16.2352217
|  9>     O       16.3738080   15.9120830   15.3626029
| 10>     C       16.9805216   17.1278808   15.2010932
| 11>     O       17.4327050   17.4523888   14.1187500
| 12>     C       17.0530288   18.0155055   16.4078562
| 13>     C       16.9063252   19.3500120   16.2247318
| 14>     C       16.2760291   20.0196490   15.0219278
| 15>     N       17.3434082   20.2686511   17.1800619
| 16>     C       18.1643633   19.9494214   18.2279018
| 17>     S       18.7531874   21.0977264   19.2619413
| 18>     N       18.4947856   18.6236706   18.3616952
| 19>     C       17.9109905   17.5145932   17.5818350
| 20>     C       17.3033537   16.4330530   18.4588696
| 21>     C       17.8277551   15.1274093   18.4518746
| 22>     C       17.2648052   14.1302636   19.2661336
| 23>     C       16.1744514   14.4433824   20.0962267
| 24>     C       15.6578265   15.7462935   20.1118428
| 25>     O       14.6034992   16.0509687   20.9087950
| 26>     C       16.2184652   16.7367330   19.2991104
| 27>     H       13.2528597   14.8627002   16.0182181
| 28>     H       14.4917200   14.0886222   15.0046437
| 29>     H       13.8488438   15.6862952   14.5587111
| 30>     H       14.8651083   16.6738563   16.6334758
| 31>     H       15.5088144   15.0650212   17.0705070
| 32>     H       15.4705209   19.4050545   14.6011196
| 33>     H       17.0233662   20.1623844   14.2300681
| 34>     H       15.8458118   20.9987597   15.2640263
| 35>     H       17.1459497   21.2498273   17.0620470
| 36>     H       19.0922855   18.4166382   19.1524829
| 37>     H       18.8268137   17.1321194   17.1078480
| 38>     H       18.6681962   14.8819476   17.8070420
| 39>     H       17.6733813   13.1208624   19.2519602
| 40>     H       15.7369178   13.6755068   20.7262190
| 41>     H       14.4002806   15.2655046   21.4395037
| 42>     H       15.8116202   17.7425310   19.3288394
| 43> *
| 44>
| 45>                          ****END OF INPUT****

CARTESIAN COORDINATES (ANGSTROEM)
---------------------------------
  C     14.141321   15.049215   15.402817
  C     15.243879   15.723468   16.235222
  O     16.373808   15.912083   15.362603
  C     16.980522   17.127881   15.201093
  O     17.432705   17.452389   14.118750
  C     17.053029   18.015505   16.407856
  C     16.906325   19.350012   16.224732
  C     16.276029   20.019649   15.021928
  N     17.343408   20.268651   17.180062
  C     18.164363   19.949421   18.227902
  S     18.753187   21.097726   19.261941
  N     18.494786   18.623671   18.361695
  C     17.910991   17.514593   17.581835
  C     17.303354   16.433053   18.458870
  C     17.827755   15.127409   18.451875
  C     17.264805   14.130264   19.266134
  C     16.174451   14.443382   20.096227
  C     15.657826   15.746294   20.111843
  O     14.603499   16.050969   20.908795
  C     16.218465   16.736733   19.299110
  H     13.252860   14.862700   16.018218
  H     14.491720   14.088622   15.004644
  H     13.848844   15.686295   14.558711
  H     14.865108   16.673856   16.633476
  H     15.508814   15.065021   17.070507
  H     15.470521   19.405054   14.601120
  H     17.023366   20.162384   14.230068
  H     15.845812   20.998760   15.264026
  H     17.145950   21.249827   17.062047
  H     19.092285   18.416638   19.152483
  H     18.826814   17.132119   17.107848
  H     18.668196   14.881948   17.807042
  H     17.673381   13.120862   19.251960
  H     15.736918   13.675507   20.726219
  H     14.400281   15.265505   21.439504
  H     15.811620   17.742531   19.328839

 Total Charge           Charge          ....    0
 Multiplicity           Mult            ....    1
 Number of Electrons    NEL             ....  154
 Basis Dimension        Dim             ....  828

ORBITAL ENERGIES
----------------

  NO   OCC          E(Eh)            E(eV)
   0   2.0000     -91.890663     -2500.4721
   1   2.0000     -20.605617      -560.7073
   2   2.0000     -20.595592      -560.4346
   3   2.0000     -20.548160      -559.1439
   4   2.0000     -15.628254      -425.2664
   5   2.0000     -15.610928      -424.7949
   6   2.0000     -11.394372      -310.0566
   7   2.0000     -11.385715      -309.8210
   8   2.0000     -11.331876      -308.3560
   9   2.0000     -11.323958      -308.1406
  10   2.0000     -11.316797      -307.9457
  11   2.0000     -11.296167      -307.3843
  12   2.0000     -11.269712      -306.6645
  13   2.0000     -11.265153      -306.5404
  14   2.0000     -11.257897      -306.3430
  15   2.0000     -11.255852      -306.2873
  16   2.0000     -11.254463      -306.2495
  17   2.0000     -11.248802      -306.0955
  18   2.0000     -11.248203      -306.0792
  19   2.0000     -11.227196      -305.5075
  20   2.0000      -8.895730      -242.0651
  21   2.0000      -6.577300      -178.9774
  22   2.0000      -6.575302      -178.9231
  23   2.0000      -6.574710      -178.9070
  24   2.0000      -1.446028       -39.3484
  25   2.0000      -1.425399       -38.7871
  26   2.0000      -1.358096       -36.9557
  27   2.0000      -1.341326       -36.4993
  28   2.0000      -1.240879       -33.7660
  29   2.0000      -1.167189       -31.7608
  30   2.0000      -1.124906       -30.6102
  31   2.0000      -1.051393       -28.6098
  32   2.0000      -1.034822       -28.1589
  33   2.0000      -1.025182       -27.8966
  34   2.0000      -1.002883       -27.2898
  35   2.0000      -0.989128       -26.9155
  36   2.0000      -0.927519       -25.2391
  37   2.0000      -0.878826       -23.9141
  38   2.0000      -0.852715       -23.2035
  39   2.0000      -0.845137       -22.9973
  40   2.0000      -0.844018       -22.9669
  41   2.0000      -0.837137       -22.7797
  42   2.0000      -0.759805       -20.6753
  43   2.0000      -0.740411       -20.1476
  44   2.0000      -0.723861       -19.6973
  45   2.0000      -0.704489       -19.1701
  46   2.0000      -0.693042       -18.8586
  47   2.0000      -0.676732       -18.4148
  48   2.0000      -0.674888       -18.3646
  49   2.0000      -0.671504       -18.2726
  50   2.0000      -0.650612       -17.7040
  51   2.0000      -0.648330       -17.6420
  52   2.0000      -0.637590       -17.3497
  53   2.0000      -0.615321       -16.7437
  54   2.0000      -0.609581       -16.5876
  55   2.0000      -0.604330       -16.4447
  56   2.0000      -0.589120       -16.0308
  57   2.0000      -0.584024       -15.8921
  58   2.0000      -0.576149       -15.6778
  59   2.0000      -0.571107       -15.5406
  60   2.0000      -0.562937       -15.3183
  61   2.0000      -0.553611       -15.0645
  62   2.0000      -0.545860       -14.8536
  63   2.0000      -0.531476       -14.4622
  64   2.0000      -0.522701       -14.2234
  65   2.0000      -0.516470       -14.0539
  66   2.0000      -0.505703       -13.7609
  67   2.0000      -0.501586       -13.6488
  68   2.0000      -0.488027       -13.2799
  69   2.0000      -0.469072       -12.7641
  70   2.0000      -0.453074       -12.3288
  71   2.0000      -0.446560       -12.1515
  72   2.0000      -0.359251        -9.7757
  73   2.0000      -0.352982        -9.6051
  74   2.0000      -0.333465        -9.0740
  75   2.0000      -0.329084        -8.9548
  76   2.0000      -0.320429        -8.7193
  77   0.0000       0.080538         2.1915
  78   0.0000       0.094064         2.5596
  79   0.0000       0.117549         3.1987
  80   0.0000       0.126028         3.4294
  81   0.0000       0.128794         3.5047

MULLIKEN ATOMIC CHARGES
-----------------------
   0 C :   -0.252111
   1 C :    0.009537
   2 O :   -0.315481
   3 C :    0.405352
   4 O :   -0.374833
   5 C :   -0.244548
   6 C :    0.163592
   7 C :   -0.276092
   8 N :   -0.130997
   9 C :    0.210606
  10 S :   -0.439643
  11 N :   -0.208619
  12 C :    0.026905
  13 C :   -0.021179
  14 C :   -0.160759
  15 C :   -0.139517
  16 C :   -0.269204
  17 C :    0.295998
  18 O :   -0.355061
  19 C :   -0.201006
  20 H :    0.087936
  21 H :    0.101159
  22 H :    0.095646
  23 H :    0.098772
  24 H :    0.112566
  25 H :    0.115345
  26 H :    0.143044
  27 H :    0.097366
  28 H :    0.198764
  29 H :    0.199663
  30 H :    0.157851
  31 H :    0.155352
  32 H :    0.165146
  33 H :    0.135789
  34 H :    0.242210
  35 H :    0.170450
Sum of atomic charges:   -0.0000000

LOEWDIN ATOMIC CHARGES
----------------------
   0 C :    0.107545
   1 C :   -0.026182
   2 O :    0.308924
   3 C :   -0.423226
   4 O :    0.123705
   5 C :   -0.100215
   6 C :   -0.075100
   7 C :    0.129161
   8 N :    0.405819
   9 C :   -0.455771
  10 S :   -0.034862
  11 N :    0.395427
  12 C :   -0.054837
  13 C :   -0.045028
  14 C :    0.018309
  15 C :    0.043013
  16 C :    0.002083
  17 C :   -0.191989
  18 O :    0.397074
  19 C :    0.036165
  20 H :   -0.027047
  21 H :   -0.024810
  22 H :   -0.027404
  23 H :   -0.036453
  24 H :   -0.028537
  25 H :   -0.009118
  26 H :   -0.003642
  27 H :   -0.021330
  28 H :   -0.056880
  29 H :   -0.063667
  30 H :   -0.010302
  31 H :   -0.026304
  32 H :   -0.018337
  33 H :   -0.032951
  34 H :   -0.151909
  35 H :   -0.021323

  Mayer bond orders larger than 0.100000
B(  0-C ,  1-C ) :   0.9813 B(  0-C , 20-H ) :   0.9777 B(  0-C , 21-H ) :   0.9801
B(  0-C , 22-H ) :   0.9791 B(  1-C ,  2-O ) :   0.8902 B(  1-C , 23-H ) :   0.9625
B(  1-C , 24-H ) :   0.9724 B(  2-O ,  3-C ) :   1.1896 B(  3-C ,  4-O ) :   2.1117
B(  3-C ,  5-C ) :   0.9502 B(  5-C ,  6-C ) :   1.6764 B(  5-C , 12-C ) :   0.9610
B(  6-C ,  7-C ) :   0.9507 B(  6-C ,  8-N ) :   1.1377 B(  7-C , 25-H ) :   0.9759
B(  7-C , 26-H ) :   0.9555 B(  7-C , 27-H ) :   0.9846 B(  8-N ,  9-C ) :   1.1945
B(  8-N , 28-H ) :   0.9488 B(  9-C , 10-S ) :   1.6128 B(  9-C , 11-N ) :   1.2932
B( 11-N , 12-C ) :   0.9757 B( 11-N , 29-H ) :   0.9478 B( 12-C , 13-C ) :   0.9633
B( 12-C , 30-H ) :   1.0078 B( 13-C , 14-C ) :   1.3621 B( 13-C , 19-C ) :   1.3596
B( 14-C , 15-C ) :   1.3959 B( 14-C , 31-H ) :   0.9708 B( 15-C , 16-C ) :   1.3635
B( 15-C , 32-H ) :   0.9700 B( 16-C , 17-C ) :   1.3269 B( 16-C , 33-H ) :   0.9832
B( 17-C , 18-O ) :   1.1107 B( 17-C , 19-C ) :   1.3703 B( 18-O , 34-H ) :   0.9783
B( 19-C , 35-H ) :   0.9594

MP2 TOTAL ENERGY:    -1274.325656953 Eh
FINAL SINGLE POINT ENERGY     -1274.325656953057

DIPOLE MOMENT
-------------
                                X             Y             Z
Electronic contribution:     10.41555       9.04741       6.88370
Nuclear contribution   :    -11.85784     -10.63265      -6.45293
                        -----------------------------------------
Total Dipole Moment    :     -1.44229      -1.58524       0.43077
                        -----------------------------------------
Magnitude (a.u.)       :      2.18604
Magnitude (Debye)      :      5.55646

Rotational constants in cm-1:     0.011949     0.008833     0.006068
Rotational constants in MHz :   358.212572   264.793001   181.915287

                             ****ORCA TERMINATED NORMALLY****
TOTAL RUN TIME: 0 days 1 hours 46 minutes 0 seconds 123 msec
