                         Program Version 4.2.0 -  RELEASE  -
|  1> ! ri-mp2 cc-pvtz cc-pvtz/c TightSCF NoKeepInts
|  2>
|  3> %scf
|  4>   MaxCore 4096
|  5> end
|  6> *xyz  0  1
|  7>     C       14.0346943   15.5922917   15.3514099
|  8>     C       15.3066519   15.6867587   16.2098937
|  9>     O       16.4119712   15.8924995   15.3059103
| 10>     C       17.2015490   17.0132364   15.2777053
| 11>     O       17.9296673   17.2456977   14.3310319
| 12>     C       17.1036364   17.9391893   16.4446579
| 13>     C       16.8527925   19.2442841   16.1964131
| 14>     C       16.2820981   19.7963326   14.9082392
| 15>     N       17.1367621   20.2303743   17.1423823
| 16>     C       17.8998064   20.0175836   18.2602860
| 17>     S       18.3019748   21.2455322   19.2921936
| 18>     N       18.3346000   18.7310740   18.4698170
| 19>     C       17.9175015   17.5513402   17.6855765
| 20>     C       17.3451782   16.4175019   18.5217240
| 21>     C       17.8400303   15.1084519   18.3780614
| 22>     C       17.3012249   14.0557846   19.1365447
| 23>     C       16.2617725   14.3152913   20.0463097
| 24>     C       15.7705494   15.6196507   20.1942825
| 25>     O       14.7629473   15.8722221   21.0663923
| 26>     C       16.3071671   16.6655296   19.4365492
| 27>     H       13.8672085   16.5264987   14.8012384
| 28>     H       13.1576759   15.4020238   15.9820134
| 29>     H       14.1194681   14.7740716   14.6250739
| 30>     H       15.1793265   16.4992597   16.9334745
| 31>     H       15.4476030   14.7488845   16.7629518
| 32>     H       15.5191256   19.1258819   14.4935323
| 33>     H       17.0739729   19.8973004   14.1538506
| 34>     H       15.8157825   20.7795999   15.0429692
| 35>     H       16.8645832   21.1857972   16.9729562
| 36>     H       18.8904337   18.6036493   19.3065294
| 37>     H       18.8964136   17.2459086   17.2870408
| 38>     H       18.6388631   14.9041033   17.6687905
| 39>     H       17.6888902   13.0450306   19.0174610
| 40>     H       15.8428146   13.5046358   20.6339019
| 41>     H       14.5681984   15.0473590   21.5369649
| 42>     H       15.9140649   17.6693692   19.5638707
| 43> *
| 44>
| 45>                          ****END OF INPUT****

CARTESIAN COORDINATES (ANGSTROEM)
---------------------------------
  C     14.034694   15.592292   15.351410
  C     15.306652   15.686759   16.209894
  O     16.411971   15.892499   15.305910
  C     17.201549   17.013236   15.277705
  O     17.929667   17.245698   14.331032
  C     17.103636   17.939189   16.444658
  C     16.852792   19.244284   16.196413
  C     16.282098   19.796333   14.908239
  N     17.136762   20.230374   17.142382
  C     17.899806   20.017584   18.260286
  S     18.301975   21.245532   19.292194
  N     18.334600   18.731074   18.469817
  C     17.917502   17.551340   17.685576
  C     17.345178   16.417502   18.521724
  C     17.840030   15.108452   18.378061
  C     17.301225   14.055785   19.136545
  C     16.261772   14.315291   20.046310
  C     15.770549   15.619651   20.194282
  O     14.762947   15.872222   21.066392
  C     16.307167   16.665530   19.436549
  H     13.867208   16.526499   14.801238
  H     13.157676   15.402024   15.982013
  H     14.119468   14.774072   14.625074
  H     15.179326   16.499260   16.933474
  H     15.447603   14.748884   16.762952
  H     15.519126   19.125882   14.493532
  H     17.073973   19.897300   14.153851
  H     15.815782   20.779600   15.042969
  H     16.864583   21.185797   16.972956
  H     18.890434   18.603649   19.306529
  H     18.896414   17.245909   17.287041
  H     18.638863   14.904103   17.668791
  H     17.688890   13.045031   19.017461
  H     15.842815   13.504636   20.633902
  H     14.568198   15.047359   21.536965
  H     15.914065   17.669369   19.563871

 Total Charge           Charge          ....    0
 Multiplicity           Mult            ....    1
 Number of Electrons    NEL             ....  154
 Basis Dimension        Dim             ....  828

ORBITAL ENERGIES
----------------

  NO   OCC          E(Eh)            E(eV)
   0   2.0000     -91.890195     -2500.4593
   1   2.0000     -20.605750      -560.7110
   2   2.0000     -20.600288      -560.5623
   3   2.0000     -20.549619      -559.1836
   4   2.0000     -15.626794      -425.2267
   5   2.0000     -15.611321      -424.8056
   6   2.0000     -11.396690      -310.1197
   7   2.0000     -11.385787      -309.8230
   8   2.0000     -11.328239      -308.2570
   9   2.0000     -11.324352      -308.1513
  10   2.0000     -11.317314      -307.9598
  11   2.0000     -11.298420      -307.4456
  12   2.0000     -11.271075      -306.7015
  13   2.0000     -11.265345      -306.5456
  14   2.0000     -11.257582      -306.3344
  15   2.0000     -11.256999      -306.3185
  16   2.0000     -11.254070      -306.2388
  17   2.0000     -11.248837      -306.0964
  18   2.0000     -11.248447      -306.0858
  19   2.0000     -11.230229      -305.5901
  20   2.0000      -8.895272      -242.0527
  21   2.0000      -6.576847      -178.9651
  22   2.0000      -6.574844      -178.9106
  23   2.0000      -6.574256      -178.8946
  24   2.0000      -1.446017       -39.3481
  25   2.0000      -1.425509       -38.7901
  26   2.0000      -1.359976       -37.0068
  27   2.0000      -1.339880       -36.4600
  28   2.0000      -1.239941       -33.7405
  29   2.0000      -1.167608       -31.7722
  30   2.0000      -1.126154       -30.6442
  31   2.0000      -1.052219       -28.6323
  32   2.0000      -1.036794       -28.2126
  33   2.0000      -1.025747       -27.9120
  34   2.0000      -1.003866       -27.3166
  35   2.0000      -0.989840       -26.9349
  36   2.0000      -0.927755       -25.2455
  37   2.0000      -0.883708       -24.0469
  38   2.0000      -0.852999       -23.2113
  39   2.0000      -0.845047       -22.9949
  40   2.0000      -0.844262       -22.9735
  41   2.0000      -0.837277       -22.7835
  42   2.0000      -0.759543       -20.6682
  43   2.0000      -0.740272       -20.1438
  44   2.0000      -0.725207       -19.7339
  45   2.0000      -0.704246       -19.1635
  46   2.0000      -0.694045       -18.8859
  47   2.0000      -0.677627       -18.4392
  48   2.0000      -0.677493       -18.4355
  49   2.0000      -0.669698       -18.2234
  50   2.0000      -0.651715       -17.7341
  51   2.0000      -0.646122       -17.5819
  52   2.0000      -0.635002       -17.2793
  53   2.0000      -0.615202       -16.7405
  54   2.0000      -0.609673       -16.5901
  55   2.0000      -0.605172       -16.4676
  56   2.0000      -0.599894       -16.3239
  57   2.0000      -0.584634       -15.9087
  58   2.0000      -0.578210       -15.7339
  59   2.0000      -0.568854       -15.4793
  60   2.0000      -0.561496       -15.2791
  61   2.0000      -0.554403       -15.0861
  62   2.0000      -0.548834       -14.9345
  63   2.0000      -0.531182       -14.4542
  64   2.0000      -0.527993       -14.3674
  65   2.0000      -0.518182       -14.1005
  66   2.0000      -0.505680       -13.7603
  67   2.0000      -0.503927       -13.7126
  68   2.0000      -0.489340       -13.3156
  69   2.0000      -0.468442       -12.7469
  70   2.0000      -0.454150       -12.3580
  71   2.0000      -0.447491       -12.1769
  72   2.0000      -0.359212        -9.7747
  73   2.0000      -0.351650        -9.5689
  74   2.0000      -0.332980        -9.0608
  75   2.0000      -0.329034        -8.9535
  76   2.0000      -0.319809        -8.7024
  77   0.0000       0.085114         2.3161
  78   0.0000       0.093945         2.5564
  79   0.0000       0.118858         3.2343
  80   0.0000       0.125688         3.4201
  81   0.0000       0.129042         3.5114

MULLIKEN ATOMIC CHARGES
-----------------------
   0 C :   -0.257874
   1 C :    0.022770
   2 O :   -0.309279
   3 C :    0.399003
   4 O :   -0.379445
   5 C :   -0.224875
   6 C :    0.152493
   7 C :   -0.286196
   8 N :   -0.133751
   9 C :    0.213341
  10 S :   -0.440463
  11 N :   -0.217273
  12 C :    0.034170
  13 C :    0.001567
  14 C :   -0.189985
  15 C :   -0.146141
  16 C :   -0.268024
  17 C :    0.307464
  18 O :   -0.353149
  19 C :   -0.224054
  20 H :    0.087593
  21 H :    0.090793
  22 H :    0.105988
  23 H :    0.098556
  24 H :    0.114885
  25 H :    0.114371
  26 H :    0.145380
  27 H :    0.098845
  28 H :    0.197910
  29 H :    0.200913
  30 H :    0.164051
  31 H :    0.157105
  32 H :    0.167096
  33 H :    0.136085
  34 H :    0.242018
  35 H :    0.178108
Sum of atomic charges:   -0.0000000

LOEWDIN ATOMIC CHARGES
----------------------
   0 C :    0.106043
   1 C :   -0.021494
   2 O :    0.310955
   3 C :   -0.419860
   4 O :    0.122779
   5 C :   -0.096773
   6 C :   -0.085045
   7 C :    0.129664
   8 N :    0.404407
   9 C :   -0.454294
  10 S :   -0.036112
  11 N :    0.395318
  12 C :   -0.054797
  13 C :   -0.044113
  14 C :    0.019178
  15 C :    0.044191
  16 C :    0.001504
  17 C :   -0.191101
  18 O :    0.397397
  19 C :    0.032883
  20 H :   -0.030617
  21 H :   -0.026107
  22 H :   -0.024339
  23 H :   -0.039446
  24 H :   -0.025421
  25 H :   -0.010512
  26 H :   -0.003179
  27 H :   -0.020248
  28 H :   -0.058118
  29 H :   -0.064124
  30 H :   -0.008612
  31 H :   -0.025506
  32 H :   -0.018128
  33 H :   -0.033238
  34 H :   -0.151946
  35 H :   -0.021190

  Mayer bond orders larger than 0.100000
B(  0-C ,  1-C ) :   0.9800 B(  0-C , 20-H ) :   0.9782 B(  0-C , 21-H ) :   0.9771
B(  0-C , 22-H ) :   0.9803 B(  1-C ,  2-O ) :   0.8864 B(  1-C , 23-H ) :   0.9538
B(  1-C , 24-H ) :   0.9753 B(  2-O ,  3-C ) :   1.2033 B(  3-C ,  4-O ) :   2.1238
B(  3-C ,  5-C ) :   0.9182 B(  5-C ,  6-C ) :   1.7082 B(  5-C , 12-C ) :   0.9522
B(  6-C ,  7-C ) :   0.9409 B(  6-C ,  8-N ) :   1.1235 B(  7-C , 25-H ) :   0.9768
B(  7-C , 26-H ) :   0.9576 B(  7-C , 27-H ) :   0.9856 B(  8-N ,  9-C ) :   1.1992
B(  8-N , 28-H ) :   0.9490 B(  9-C , 10-S ) :   1.6127 B(  9-C , 11-N ) :   1.2860
B( 11-N , 12-C ) :   0.9812 B( 11-N , 29-H ) :   0.9466 B( 12-C , 13-C ) :   0.9616
B( 12-C , 30-H ) :   1.0040 B( 13-C , 14-C ) :   1.3663 B( 13-C , 19-C ) :   1.3470
B( 14-C , 15-C ) :   1.3990 B( 14-C , 31-H ) :   0.9726 B( 15-C , 16-C ) :   1.3619
B( 15-C , 32-H ) :   0.9694 B( 16-C , 17-C ) :   1.3273 B( 16-C , 33-H ) :   0.9829
B( 17-C , 18-O ) :   1.1127 B( 17-C , 19-C ) :   1.3658 B( 18-O , 34-H ) :   0.9784
B( 19-C , 35-H ) :   0.9561

MP2 TOTAL ENERGY:    -1274.325575624 Eh
FINAL SINGLE POINT ENERGY     -1274.325575624079

DIPOLE MOMENT
-------------
                                X             Y             Z
Electronic contribution:     10.25774       8.22138       7.53752
Nuclear contribution   :    -11.74387      -9.91918      -7.26455
                        -----------------------------------------
Total Dipole Moment    :     -1.48613      -1.69780       0.27297
                        -----------------------------------------
Magnitude (a.u.)       :      2.27280
Magnitude (Debye)      :      5.77700

Rotational constants in cm-1:     0.011771     0.008943     0.006165
Rotational constants in MHz :   352.890130   268.105952   184.815694

                             ****ORCA TERMINATED NORMALLY****
TOTAL RUN TIME: 0 days 2 hours 5 minutes 0 seconds 626 msec
