                         Program Version 4.2.0 -  RELEASE  -
|  1> ! ri-mp2 cc-pvtz cc-pvtz/c TightSCF NoKeepInts
|  2>
|  3> %scf
|  4>   MaxCore 4096
|  5> end
|  6> *xyz  0  1
|  7>     C       15.6818531   14.5517613   14.1077879
|  8>     C       14.8600057   15.2414985   15.2098359
|  9>     O       15.7480662   16.1226473   15.9217884
| 10>     C       15.5756341   17.4791301   15.8802521
| 11>     O       14.7285467   18.0091552   15.1813411
| 12>     C       16.5347129   18.2095648   16.7829894
| 13>     C       16.7093252   19.5518747   16.6710373
| 14>     C       15.8511548   20.5268272   15.8913055
| 15>     N       17.7771947   20.1944152   17.3017865
| 16>     C       18.8225806   19.5487984   17.9042882
| 17>     S       20.1063302   20.3701412   18.5470634
| 18>     N       18.7613716   18.1786729   17.9282188
| 19>     C       17.6144022   17.3652379   17.4820969
| 20>     C       17.0807483   16.4549545   18.5805974
| 21>     C       17.2444212   15.0597797   18.4989705
| 22>     C       16.7545184   14.2232616   19.5160953
| 23>     C       16.0992303   14.7871864   20.6243369
| 24>     C       15.9388270   16.1772661   20.7093508
| 25>     O       15.3078910   16.7242658   21.7788488
| 26>     C       16.4274514   17.0071414   19.6954182
| 27>     H       16.0662314   15.2915960   13.3944305
| 28>     H       15.0604916   13.8355849   13.5564913
| 29>     H       16.5321992   14.0094146   14.5392645
| 30>     H       14.0034361   15.7698958   14.7700456
| 31>     H       14.4703341   14.4826199   15.9005551
| 32>     H       14.7945090   20.4171742   16.1674204
| 33>     H       15.9300624   20.3356491   14.8135311
| 34>     H       16.1250498   21.5743512   16.0634676
| 35>     H       17.8450850   21.1991241   17.2717233
| 36>     H       19.5309657   17.7311536   18.4097443
| 37>     H       18.0929507   16.7752779   16.6875898
| 38>     H       17.7456501   14.6230265   17.6393638
| 39>     H       16.8825230   13.1447108   19.4435155
| 40>     H       15.7192510   14.1454335   21.4123607
| 41>     H       15.0635689   16.0002126   22.3745035
| 42>     H       16.3004266   18.0811949   19.7805836
| 43> *
| 44>
| 45>                          ****END OF INPUT****

CARTESIAN COORDINATES (ANGSTROEM)
---------------------------------
  C     15.681853   14.551761   14.107788
  C     14.860006   15.241499   15.209836
  O     15.748066   16.122647   15.921788
  C     15.575634   17.479130   15.880252
  O     14.728547   18.009155   15.181341
  C     16.534713   18.209565   16.782989
  C     16.709325   19.551875   16.671037
  C     15.851155   20.526827   15.891305
  N     17.777195   20.194415   17.301786
  C     18.822581   19.548798   17.904288
  S     20.106330   20.370141   18.547063
  N     18.761372   18.178673   17.928219
  C     17.614402   17.365238   17.482097
  C     17.080748   16.454954   18.580597
  C     17.244421   15.059780   18.498970
  C     16.754518   14.223262   19.516095
  C     16.099230   14.787186   20.624337
  C     15.938827   16.177266   20.709351
  O     15.307891   16.724266   21.778849
  C     16.427451   17.007141   19.695418
  H     16.066231   15.291596   13.394431
  H     15.060492   13.835585   13.556491
  H     16.532199   14.009415   14.539264
  H     14.003436   15.769896   14.770046
  H     14.470334   14.482620   15.900555
  H     14.794509   20.417174   16.167420
  H     15.930062   20.335649   14.813531
  H     16.125050   21.574351   16.063468
  H     17.845085   21.199124   17.271723
  H     19.530966   17.731154   18.409744
  H     18.092951   16.775278   16.687590
  H     17.745650   14.623026   17.639364
  H     16.882523   13.144711   19.443516
  H     15.719251   14.145433   21.412361
  H     15.063569   16.000213   22.374503
  H     16.300427   18.081195   19.780584

 Total Charge           Charge          ....    0
 Multiplicity           Mult            ....    1
 Number of Electrons    NEL             ....  154
 Basis Dimension        Dim             ....  828

ORBITAL ENERGIES
----------------

  NO   OCC          E(Eh)            E(eV)
   0   2.0000     -91.888638     -2500.4170
   1   2.0000     -20.601919      -560.6067
   2   2.0000     -20.595514      -560.4324
   3   2.0000     -20.540880      -558.9458
   4   2.0000     -15.628969      -425.2859
   5   2.0000     -15.606773      -424.6819
   6   2.0000     -11.395971      -310.1001
   7   2.0000     -11.383249      -309.7540
   8   2.0000     -11.337255      -308.5024
   9   2.0000     -11.312603      -307.8316
  10   2.0000     -11.307264      -307.6863
  11   2.0000     -11.295821      -307.3749
  12   2.0000     -11.259862      -306.3964
  13   2.0000     -11.259464      -306.3856
  14   2.0000     -11.254111      -306.2399
  15   2.0000     -11.251412      -306.1665
  16   2.0000     -11.242575      -305.9260
  17   2.0000     -11.237998      -305.8015
  18   2.0000     -11.237923      -305.7994
  19   2.0000     -11.229844      -305.5796
  20   2.0000      -8.893711      -242.0102
  21   2.0000      -6.575285      -178.9226
  22   2.0000      -6.573286      -178.8682
  23   2.0000      -6.572696      -178.8522
  24   2.0000      -1.451039       -39.4848
  25   2.0000      -1.415175       -38.5089
  26   2.0000      -1.354729       -36.8641
  27   2.0000      -1.340201       -36.4687
  28   2.0000      -1.238046       -33.6889
  29   2.0000      -1.156683       -31.4750
  30   2.0000      -1.120784       -30.4981
  31   2.0000      -1.042847       -28.3773
  32   2.0000      -1.039626       -28.2897
  33   2.0000      -1.014015       -27.5927
  34   2.0000      -0.996230       -27.1088
  35   2.0000      -0.984368       -26.7860
  36   2.0000      -0.921372       -25.0718
  37   2.0000      -0.891660       -24.2633
  38   2.0000      -0.846169       -23.0254
  39   2.0000      -0.837176       -22.7807
  40   2.0000      -0.833243       -22.6737
  41   2.0000      -0.816846       -22.2275
  42   2.0000      -0.763452       -20.7746
  43   2.0000      -0.732840       -19.9416
  44   2.0000      -0.721628       -19.6365
  45   2.0000      -0.694408       -18.8958
  46   2.0000      -0.687118       -18.6974
  47   2.0000      -0.680052       -18.5052
  48   2.0000      -0.673811       -18.3353
  49   2.0000      -0.657938       -17.9034
  50   2.0000      -0.646520       -17.5927
  51   2.0000      -0.640246       -17.4220
  52   2.0000      -0.630072       -17.1451
  53   2.0000      -0.608906       -16.5692
  54   2.0000      -0.605709       -16.4822
  55   2.0000      -0.599650       -16.3173
  56   2.0000      -0.598148       -16.2764
  57   2.0000      -0.577442       -15.7130
  58   2.0000      -0.569709       -15.5026
  59   2.0000      -0.567743       -15.4491
  60   2.0000      -0.563116       -15.3232
  61   2.0000      -0.541959       -14.7475
  62   2.0000      -0.540652       -14.7119
  63   2.0000      -0.531316       -14.4578
  64   2.0000      -0.523322       -14.2403
  65   2.0000      -0.512767       -13.9531
  66   2.0000      -0.500565       -13.6211
  67   2.0000      -0.496272       -13.5042
  68   2.0000      -0.484695       -13.1892
  69   2.0000      -0.462930       -12.5970
  70   2.0000      -0.454245       -12.3606
  71   2.0000      -0.449372       -12.2280
  72   2.0000      -0.352921        -9.6035
  73   2.0000      -0.348900        -9.4941
  74   2.0000      -0.327761        -8.9188
  75   2.0000      -0.320109        -8.7106
  76   2.0000      -0.317766        -8.6468
  77   0.0000       0.078032         2.1234
  78   0.0000       0.106107         2.8873
  79   0.0000       0.122785         3.3411
  80   0.0000       0.132989         3.6188
  81   0.0000       0.135509         3.6874

MULLIKEN ATOMIC CHARGES
-----------------------
   0 C :   -0.269514
   1 C :    0.011309
   2 O :   -0.343251
   3 C :    0.446950
   4 O :   -0.438753
   5 C :   -0.225353
   6 C :    0.171013
   7 C :   -0.269022
   8 N :   -0.126066
   9 C :    0.209835
  10 S :   -0.442243
  11 N :   -0.214261
  12 C :    0.050779
  13 C :    0.048366
  14 C :   -0.177258
  15 C :   -0.135985
  16 C :   -0.275467
  17 C :    0.316472
  18 O :   -0.357042
  19 C :   -0.246900
  20 H :    0.097956
  21 H :    0.093021
  22 H :    0.091157
  23 H :    0.126186
  24 H :    0.105266
  25 H :    0.133672
  26 H :    0.128659
  27 H :    0.094337
  28 H :    0.199871
  29 H :    0.200371
  30 H :    0.153070
  31 H :    0.151263
  32 H :    0.159613
  33 H :    0.129394
  34 H :    0.240380
  35 H :    0.162178
Sum of atomic charges:   -0.0000000

LOEWDIN ATOMIC CHARGES
----------------------
   0 C :    0.103751
   1 C :   -0.012423
   2 O :    0.312637
   3 C :   -0.413831
   4 O :    0.093321
   5 C :   -0.094370
   6 C :   -0.056452
   7 C :    0.130872
   8 N :    0.407109
   9 C :   -0.456906
  10 S :   -0.036811
  11 N :    0.394791
  12 C :   -0.055070
  13 C :   -0.039424
  14 C :    0.016730
  15 C :    0.039014
  16 C :   -0.000413
  17 C :   -0.189529
  18 O :    0.394916
  19 C :    0.033515
  20 H :   -0.026246
  21 H :   -0.025764
  22 H :   -0.030073
  23 H :   -0.028011
  24 H :   -0.028196
  25 H :   -0.004174
  26 H :   -0.005301
  27 H :   -0.023717
  28 H :   -0.057156
  29 H :   -0.064268
  30 H :   -0.014412
  31 H :   -0.030038
  32 H :   -0.021597
  33 H :   -0.035546
  34 H :   -0.154127
  35 H :   -0.022801

  Mayer bond orders larger than 0.100000
B(  0-C ,  1-C ) :   0.9701 B(  0-C , 20-H ) :   0.9790 B(  0-C , 21-H ) :   0.9758
B(  0-C , 22-H ) :   0.9791 B(  1-C ,  2-O ) :   0.8868 B(  1-C , 23-H ) :   0.9735
B(  1-C , 24-H ) :   0.9809 B(  2-O ,  3-C ) :   1.1766 B(  3-C ,  4-O ) :   1.9597
B(  3-C ,  5-C ) :   1.0701 B(  5-C ,  6-C ) :   1.6433 B(  5-C , 12-C ) :   0.9542
B(  6-C ,  7-C ) :   0.9656 B(  6-C ,  8-N ) :   1.1534 B(  7-C , 25-H ) :   0.9615
B(  7-C , 26-H ) :   0.9587 B(  7-C , 27-H ) :   0.9905 B(  8-N ,  9-C ) :   1.1877
B(  8-N , 28-H ) :   0.9464 B(  9-C , 10-S ) :   1.6060 B(  9-C , 11-N ) :   1.3089
B( 11-N , 12-C ) :   0.9700 B( 11-N , 29-H ) :   0.9484 B( 12-C , 13-C ) :   0.9643
B( 12-C , 30-H ) :   1.0016 B( 13-C , 14-C ) :   1.3546 B( 13-C , 19-C ) :   1.3817
B( 14-C , 15-C ) :   1.3963 B( 14-C , 31-H ) :   0.9713 B( 15-C , 16-C ) :   1.3598
B( 15-C , 32-H ) :   0.9710 B( 16-C , 17-C ) :   1.3340 B( 16-C , 33-H ) :   0.9853
B( 17-C , 18-O ) :   1.1039 B( 17-C , 19-C ) :   1.3648 B( 18-O , 34-H ) :   0.9800
B( 19-C , 35-H ) :   0.9596

MP2 TOTAL ENERGY:    -1274.343200053 Eh
FINAL SINGLE POINT ENERGY     -1274.343200053086

DIPOLE MOMENT
-------------
                                X             Y             Z
Electronic contribution:      7.94388       9.97178      10.33414
Nuclear contribution   :     -9.10007     -11.60602     -10.69969
                        -----------------------------------------
Total Dipole Moment    :     -1.15619      -1.63424      -0.36555
                        -----------------------------------------
Magnitude (a.u.)       :      2.03498
Magnitude (Debye)      :      5.17252

Rotational constants in cm-1:     0.010390     0.008757     0.005869
Rotational constants in MHz :   311.495557   262.520713   175.960572

                             ****ORCA TERMINATED NORMALLY****
TOTAL RUN TIME: 0 days 1 hours 43 minutes 54 seconds 732 msec
