                         Program Version 4.2.0 -  RELEASE  -
|  1> ! ri-mp2 cc-pvtz cc-pvtz/c TightSCF NoKeepInts
|  2>
|  3> %scf
|  4>   MaxCore 4096
|  5> end
|  6> *xyz  0  1
|  7>     C       13.6579278   16.1924565   14.7870567
|  8>     C       14.9795491   15.7021858   15.4025053
|  9>     O       16.0532138   16.4586849   14.8213109
| 10>     C       17.1770549   16.5672249   15.5804195
| 11>     O       18.0322451   15.7002613   15.5805421
| 12>     C       17.1584683   17.7016002   16.5578261
| 13>     C       16.7339969   18.9399882   16.2012614
| 14>     C       16.0539612   19.3404552   14.9077342
| 15>     N       16.9770732   20.0411382   17.0255132
| 16>     C       17.8270827   20.0282603   18.0992647
| 17>     S       18.1532295   21.3960848   18.9696053
| 18>     N       18.4119769   18.8237300   18.4017973
| 19>     C       18.0814699   17.5323658   17.7672742
| 20>     C       17.5887527   16.4738743   18.7441093
| 21>     C       18.1719719   15.1943726   18.7653085
| 22>     C       17.7090268   14.2129026   19.6575820
| 23>     C       16.6531011   14.5135002   20.5351123
| 24>     C       16.0670710   15.7865718   20.5127015
| 25>     O       15.0419560   16.0771346   21.3526859
| 26>     C       16.5290912   16.7610437   19.6221891
| 27>     H       12.8200985   15.5823615   15.1462224
| 28>     H       13.6901041   16.1184010   13.6927244
| 29>     H       13.4596379   17.2348169   15.0612215
| 30>     H       14.9421212   15.8475723   16.4914448
| 31>     H       15.1249445   14.6320544   15.2024371
| 32>     H       16.5643320   18.9012509   14.0410695
| 33>     H       16.0498411   20.4264579   14.7530141
| 34>     H       15.0127146   19.0007350   14.8925409
| 35>     H       16.5768356   20.9377228   16.7990710
| 36>     H       19.0236919   18.8386005   19.2082938
| 37>     H       19.0645570   17.2541287   17.3594244
| 38>     H       18.9788675   14.9566254   18.0753979
| 39>     H       18.1658617   13.2247097   19.6622577
| 40>     H       16.2919082   13.7578272   21.2248287
| 41>     H       14.8996865   15.3017575   21.9163819
| 42>     H       16.0635776   17.7411423   19.6198705
| 43> *
| 44>
| 45>                          ****END OF INPUT****

CARTESIAN COORDINATES (ANGSTROEM)
---------------------------------
  C     13.657928   16.192456   14.787057
  C     14.979549   15.702186   15.402505
  O     16.053214   16.458685   14.821311
  C     17.177055   16.567225   15.580419
  O     18.032245   15.700261   15.580542
  C     17.158468   17.701600   16.557826
  C     16.733997   18.939988   16.201261
  C     16.053961   19.340455   14.907734
  N     16.977073   20.041138   17.025513
  C     17.827083   20.028260   18.099265
  S     18.153229   21.396085   18.969605
  N     18.411977   18.823730   18.401797
  C     18.081470   17.532366   17.767274
  C     17.588753   16.473874   18.744109
  C     18.171972   15.194373   18.765308
  C     17.709027   14.212903   19.657582
  C     16.653101   14.513500   20.535112
  C     16.067071   15.786572   20.512701
  O     15.041956   16.077135   21.352686
  C     16.529091   16.761044   19.622189
  H     12.820099   15.582361   15.146222
  H     13.690104   16.118401   13.692724
  H     13.459638   17.234817   15.061222
  H     14.942121   15.847572   16.491445
  H     15.124944   14.632054   15.202437
  H     16.564332   18.901251   14.041070
  H     16.049841   20.426458   14.753014
  H     15.012715   19.000735   14.892541
  H     16.576836   20.937723   16.799071
  H     19.023692   18.838600   19.208294
  H     19.064557   17.254129   17.359424
  H     18.978867   14.956625   18.075398
  H     18.165862   13.224710   19.662258
  H     16.291908   13.757827   21.224829
  H     14.899686   15.301758   21.916382
  H     16.063578   17.741142   19.619871

 Total Charge           Charge          ....    0
 Multiplicity           Mult            ....    1
 Number of Electrons    NEL             ....  154
 Basis Dimension        Dim             ....  828

ORBITAL ENERGIES
----------------

  NO   OCC          E(Eh)            E(eV)
   0   2.0000     -91.889939     -2500.4524
   1   2.0000     -20.596088      -560.4480
   2   2.0000     -20.587666      -560.2189
   3   2.0000     -20.554283      -559.3105
   4   2.0000     -15.630273      -425.3214
   5   2.0000     -15.607894      -424.7124
   6   2.0000     -11.393537      -310.0339
   7   2.0000     -11.384988      -309.8013
   8   2.0000     -11.338591      -308.5388
   9   2.0000     -11.312558      -307.8304
  10   2.0000     -11.306319      -307.6606
  11   2.0000     -11.304644      -307.6150
  12   2.0000     -11.261843      -306.4503
  13   2.0000     -11.259846      -306.3960
  14   2.0000     -11.259606      -306.3895
  15   2.0000     -11.252423      -306.1940
  16   2.0000     -11.242353      -305.9200
  17   2.0000     -11.238599      -305.8178
  18   2.0000     -11.237444      -305.7864
  19   2.0000     -11.235050      -305.7212
  20   2.0000      -8.895017      -242.0457
  21   2.0000      -6.576591      -178.9581
  22   2.0000      -6.574589      -178.9037
  23   2.0000      -6.573999      -178.8876
  24   2.0000      -1.453107       -39.5411
  25   2.0000      -1.415844       -38.5271
  26   2.0000      -1.360503       -37.0212
  27   2.0000      -1.341488       -36.5038
  28   2.0000      -1.238769       -33.7086
  29   2.0000      -1.156864       -31.4799
  30   2.0000      -1.123560       -30.5736
  31   2.0000      -1.045828       -28.4584
  32   2.0000      -1.038868       -28.2690
  33   2.0000      -1.014436       -27.6042
  34   2.0000      -1.002118       -27.2690
  35   2.0000      -0.987451       -26.8699
  36   2.0000      -0.923561       -25.1314
  37   2.0000      -0.883107       -24.0306
  38   2.0000      -0.850484       -23.1428
  39   2.0000      -0.840453       -22.8699
  40   2.0000      -0.832750       -22.6603
  41   2.0000      -0.831414       -22.6239
  42   2.0000      -0.760351       -20.6902
  43   2.0000      -0.737013       -20.0551
  44   2.0000      -0.729507       -19.8509
  45   2.0000      -0.693630       -18.8746
  46   2.0000      -0.687757       -18.7148
  47   2.0000      -0.683699       -18.6044
  48   2.0000      -0.675061       -18.3693
  49   2.0000      -0.656413       -17.8619
  50   2.0000      -0.652682       -17.7604
  51   2.0000      -0.641011       -17.4428
  52   2.0000      -0.631642       -17.1878
  53   2.0000      -0.623178       -16.9575
  54   2.0000      -0.606707       -16.5093
  55   2.0000      -0.602747       -16.4016
  56   2.0000      -0.599474       -16.3125
  57   2.0000      -0.578581       -15.7440
  58   2.0000      -0.575352       -15.6561
  59   2.0000      -0.568018       -15.4566
  60   2.0000      -0.560167       -15.2429
  61   2.0000      -0.551208       -14.9991
  62   2.0000      -0.548290       -14.9197
  63   2.0000      -0.522477       -14.2173
  64   2.0000      -0.520362       -14.1598
  65   2.0000      -0.512367       -13.9422
  66   2.0000      -0.503800       -13.7091
  67   2.0000      -0.497358       -13.5338
  68   2.0000      -0.483595       -13.1593
  69   2.0000      -0.465593       -12.6694
  70   2.0000      -0.462260       -12.5787
  71   2.0000      -0.452835       -12.3223
  72   2.0000      -0.355411        -9.6712
  73   2.0000      -0.348655        -9.4874
  74   2.0000      -0.329046        -8.9538
  75   2.0000      -0.319781        -8.7017
  76   2.0000      -0.319062        -8.6821
  77   0.0000       0.073769         2.0074
  78   0.0000       0.105952         2.8831
  79   0.0000       0.119903         3.2627
  80   0.0000       0.132726         3.6117
  81   0.0000       0.137356         3.7377

MULLIKEN ATOMIC CHARGES
-----------------------
   0 C :   -0.283252
   1 C :    0.039417
   2 O :   -0.366566
   3 C :    0.464518
   4 O :   -0.384320
   5 C :   -0.227504
   6 C :    0.148759
   7 C :   -0.289755
   8 N :   -0.129337
   9 C :    0.206300
  10 S :   -0.440060
  11 N :   -0.213499
  12 C :    0.052515
  13 C :    0.030675
  14 C :   -0.188135
  15 C :   -0.131042
  16 C :   -0.277758
  17 C :    0.314210
  18 O :   -0.358012
  19 C :   -0.256735
  20 H :    0.105247
  21 H :    0.104904
  22 H :    0.089978
  23 H :    0.091238
  24 H :    0.110460
  25 H :    0.130919
  26 H :    0.109217
  27 H :    0.121880
  28 H :    0.198795
  29 H :    0.200089
  30 H :    0.158853
  31 H :    0.167057
  32 H :    0.162261
  33 H :    0.130222
  34 H :    0.240739
  35 H :    0.167722
Sum of atomic charges:   -0.0000000

LOEWDIN ATOMIC CHARGES
----------------------
   0 C :    0.109503
   1 C :   -0.019604
   2 O :    0.295014
   3 C :   -0.423558
   4 O :    0.128203
   5 C :   -0.097214
   6 C :   -0.070074
   7 C :    0.127550
   8 N :    0.405293
   9 C :   -0.457586
  10 S :   -0.036085
  11 N :    0.395911
  12 C :   -0.048951
  13 C :   -0.042681
  14 C :    0.023366
  15 C :    0.042523
  16 C :   -0.000822
  17 C :   -0.193375
  18 O :    0.393584
  19 C :    0.027392
  20 H :   -0.022350
  21 H :   -0.024000
  22 H :   -0.032220
  23 H :   -0.030596
  24 H :   -0.026347
  25 H :   -0.006490
  26 H :   -0.018885
  27 H :   -0.013670
  28 H :   -0.058102
  29 H :   -0.063511
  30 H :   -0.006641
  31 H :   -0.022517
  32 H :   -0.019870
  33 H :   -0.035491
  34 H :   -0.153971
  35 H :   -0.023730

  Mayer bond orders larger than 0.100000
B(  0-C ,  1-C ) :   0.9756 B(  0-C , 20-H ) :   0.9770 B(  0-C , 21-H ) :   0.9756
B(  0-C , 22-H ) :   0.9783 B(  1-C ,  2-O ) :   0.9023 B(  1-C , 23-H ) :   0.9641
B(  1-C , 24-H ) :   0.9817 B(  2-O ,  3-C ) :   1.0788 B(  3-C ,  4-O ) :   2.0663
B(  3-C ,  5-C ) :   0.9945 B(  5-C ,  6-C ) :   1.6793 B(  5-C , 12-C ) :   0.9475
B(  6-C ,  7-C ) :   0.9485 B(  6-C ,  8-N ) :   1.1328 B(  7-C , 25-H ) :   0.9665
B(  7-C , 26-H ) :   0.9890 B(  7-C , 27-H ) :   0.9662 B(  8-N ,  9-C ) :   1.1865
B(  8-N , 28-H ) :   0.9479 B(  9-C , 10-S ) :   1.6124 B(  9-C , 11-N ) :   1.3003
B( 11-N , 12-C ) :   0.9824 B( 11-N , 29-H ) :   0.9486 B( 12-C , 13-C ) :   0.9709
B( 12-C , 30-H ) :   0.9937 B( 13-C , 14-C ) :   1.3834 B( 13-C , 19-C ) :   1.3585
B( 14-C , 15-C ) :   1.3957 B( 14-C , 31-H ) :   0.9608 B( 15-C , 16-C ) :   1.3606
B( 15-C , 32-H ) :   0.9705 B( 16-C , 17-C ) :   1.3321 B( 16-C , 33-H ) :   0.9852
B( 17-C , 18-O ) :   1.1062 B( 17-C , 19-C ) :   1.3653 B( 18-O , 34-H ) :   0.9799
B( 19-C , 35-H ) :   0.9590

MP2 TOTAL ENERGY:    -1274.326142178 Eh
FINAL SINGLE POINT ENERGY     -1274.326142177623

DIPOLE MOMENT
-------------
                                X             Y             Z
Electronic contribution:     11.26732       7.45699       9.04779
Nuclear contribution   :    -12.71910      -8.72355      -9.56603
                        -----------------------------------------
Total Dipole Moment    :     -1.45178      -1.26656      -0.51824
                        -----------------------------------------
Magnitude (a.u.)       :      1.99510
Magnitude (Debye)      :      5.07113

Rotational constants in cm-1:     0.010205     0.009275     0.006138
Rotational constants in MHz :   305.933294   278.061948   184.004683

                             ****ORCA TERMINATED NORMALLY****
TOTAL RUN TIME: 0 days 1 hours 45 minutes 5 seconds 899 msec
