                         Program Version 4.2.0 -  RELEASE  -
|  1> ! ri-mp2 cc-pvtz cc-pvtz/c TightSCF NoKeepInts
|  2>
|  3> %scf
|  4>   MaxCore 4096
|  5> end
|  6> *xyz  0  1
|  7>     C       14.2297706   16.8205805   15.9068249
|  8>     C       15.1853536   15.6525582   15.5881811
|  9>     O       16.3510330   16.0649929   14.8377904
| 10>     C       17.4588991   16.5907153   15.4485750
| 11>     O       18.5702478   16.1396205   15.2429103
| 12>     C       17.2143723   17.6638213   16.4507083
| 13>     C       16.8017835   18.8877633   16.0431721
| 14>     C       16.3167673   19.2820126   14.6630447
| 15>     N       16.8755163   19.9870357   16.8999757
| 16>     C       17.5596711   19.9903597   18.0875159
| 17>     S       17.6988448   21.3560487   19.0094547
| 18>     N       18.1452573   18.8050563   18.4614976
| 19>     C       17.9671975   17.5126767   17.7696633
| 20>     C       17.4020596   16.3919949   18.6277815
| 21>     C       17.9703943   15.1068563   18.5744285
| 22>     C       17.4314586   14.0564955   19.3358486
| 23>     C       16.3121671   14.2931164   20.1524475
| 24>     C       15.7393736   15.5715747   20.2006497
| 25>     O       14.6510820   15.7997732   20.9777542
| 26>     C       16.2772100   16.6151238   19.4406226
| 27>     H       14.5928722   17.4329412   16.7390777
| 28>     H       13.2507368   16.4263394   16.2057884
| 29>     H       14.0775083   17.4546483   15.0255824
| 30>     H       15.4836425   15.1417073   16.5143929
| 31>     H       14.6340331   14.9248567   14.9785689
| 32>     H       16.3238735   18.4495356   13.9505888
| 33>     H       16.9573461   20.0648167   14.2371703
| 34>     H       15.2914136   19.6691234   14.7024222
| 35>     H       16.4871233   20.8730396   16.6169849
| 36>     H       18.6409151   18.8341177   19.3437713
| 37>     H       19.0094761   17.2913991   17.4945217
| 38>     H       18.8279095   14.9206629   17.9305476
| 39>     H       17.8795547   13.0652142   19.2881415
| 40>     H       15.8921870   13.4841133   20.7412303
| 41>     H       14.4632300   14.9825849   21.4639479
| 42>     H       15.8167188   17.5967231   19.4864168
| 43> *
| 44>
| 45>                          ****END OF INPUT****

CARTESIAN COORDINATES (ANGSTROEM)
---------------------------------
  C     14.229771   16.820580   15.906825
  C     15.185354   15.652558   15.588181
  O     16.351033   16.064993   14.837790
  C     17.458899   16.590715   15.448575
  O     18.570248   16.139620   15.242910
  C     17.214372   17.663821   16.450708
  C     16.801783   18.887763   16.043172
  C     16.316767   19.282013   14.663045
  N     16.875516   19.987036   16.899976
  C     17.559671   19.990360   18.087516
  S     17.698845   21.356049   19.009455
  N     18.145257   18.805056   18.461498
  C     17.967198   17.512677   17.769663
  C     17.402060   16.391995   18.627782
  C     17.970394   15.106856   18.574428
  C     17.431459   14.056495   19.335849
  C     16.312167   14.293116   20.152448
  C     15.739374   15.571575   20.200650
  O     14.651082   15.799773   20.977754
  C     16.277210   16.615124   19.440623
  H     14.592872   17.432941   16.739078
  H     13.250737   16.426339   16.205788
  H     14.077508   17.454648   15.025582
  H     15.483642   15.141707   16.514393
  H     14.634033   14.924857   14.978569
  H     16.323874   18.449536   13.950589
  H     16.957346   20.064817   14.237170
  H     15.291414   19.669123   14.702422
  H     16.487123   20.873040   16.616985
  H     18.640915   18.834118   19.343771
  H     19.009476   17.291399   17.494522
  H     18.827910   14.920663   17.930548
  H     17.879555   13.065214   19.288141
  H     15.892187   13.484113   20.741230
  H     14.463230   14.982585   21.463948
  H     15.816719   17.596723   19.486417

 Total Charge           Charge          ....    0
 Multiplicity           Mult            ....    1
 Number of Electrons    NEL             ....  154
 Basis Dimension        Dim             ....  828

ORBITAL ENERGIES
----------------

  NO   OCC          E(Eh)            E(eV)
   0   2.0000     -91.889530     -2500.4412
   1   2.0000     -20.602159      -560.6132
   2   2.0000     -20.593830      -560.3866
   3   2.0000     -20.554422      -559.3142
   4   2.0000     -15.626879      -425.2290
   5   2.0000     -15.609746      -424.7628
   6   2.0000     -11.397344      -310.1375
   7   2.0000     -11.385640      -309.8190
   8   2.0000     -11.330992      -308.3320
   9   2.0000     -11.320021      -308.0334
  10   2.0000     -11.310538      -307.7754
  11   2.0000     -11.306966      -307.6782
  12   2.0000     -11.267157      -306.5949
  13   2.0000     -11.262525      -306.4689
  14   2.0000     -11.260513      -306.4141
  15   2.0000     -11.259973      -306.3994
  16   2.0000     -11.249108      -306.1038
  17   2.0000     -11.244839      -305.9876
  18   2.0000     -11.242702      -305.9295
  19   2.0000     -11.233140      -305.6693
  20   2.0000      -8.894632      -242.0353
  21   2.0000      -6.576213      -178.9479
  22   2.0000      -6.574203      -178.8931
  23   2.0000      -6.573619      -178.8773
  24   2.0000      -1.447192       -39.3801
  25   2.0000      -1.421880       -38.6913
  26   2.0000      -1.360605       -37.0239
  27   2.0000      -1.340164       -36.4677
  28   2.0000      -1.239047       -33.7162
  29   2.0000      -1.163975       -31.6734
  30   2.0000      -1.126175       -30.6448
  31   2.0000      -1.049671       -28.5630
  32   2.0000      -1.037436       -28.2301
  33   2.0000      -1.021570       -27.7983
  34   2.0000      -1.005760       -27.3681
  35   2.0000      -0.990103       -26.9421
  36   2.0000      -0.927069       -25.2268
  37   2.0000      -0.892673       -24.2909
  38   2.0000      -0.851842       -23.1798
  39   2.0000      -0.842949       -22.9378
  40   2.0000      -0.839800       -22.8521
  41   2.0000      -0.831796       -22.6343
  42   2.0000      -0.755410       -20.5557
  43   2.0000      -0.737653       -20.0726
  44   2.0000      -0.730275       -19.8718
  45   2.0000      -0.699887       -19.0449
  46   2.0000      -0.690361       -18.7857
  47   2.0000      -0.680462       -18.5163
  48   2.0000      -0.675292       -18.3756
  49   2.0000      -0.664201       -18.0738
  50   2.0000      -0.653529       -17.7834
  51   2.0000      -0.643203       -17.5024
  52   2.0000      -0.639169       -17.3927
  53   2.0000      -0.614155       -16.7120
  54   2.0000      -0.608673       -16.5628
  55   2.0000      -0.606234       -16.4965
  56   2.0000      -0.603600       -16.4248
  57   2.0000      -0.590501       -16.0683
  58   2.0000      -0.581084       -15.8121
  59   2.0000      -0.576851       -15.6969
  60   2.0000      -0.564378       -15.3575
  61   2.0000      -0.555957       -15.1284
  62   2.0000      -0.542346       -14.7580
  63   2.0000      -0.531081       -14.4514
  64   2.0000      -0.523608       -14.2481
  65   2.0000      -0.513992       -13.9864
  66   2.0000      -0.502873       -13.6839
  67   2.0000      -0.495909       -13.4944
  68   2.0000      -0.490948       -13.3594
  69   2.0000      -0.465675       -12.6717
  70   2.0000      -0.458146       -12.4668
  71   2.0000      -0.452714       -12.3190
  72   2.0000      -0.354839        -9.6557
  73   2.0000      -0.354229        -9.6391
  74   2.0000      -0.329366        -8.9625
  75   2.0000      -0.327453        -8.9105
  76   2.0000      -0.319419        -8.6918
  77   0.0000       0.085561         2.3282
  78   0.0000       0.100375         2.7313
  79   0.0000       0.120076         3.2674
  80   0.0000       0.124435         3.3861
  81   0.0000       0.128425         3.4946

MULLIKEN ATOMIC CHARGES
-----------------------
   0 C :   -0.328335
   1 C :    0.033775
   2 O :   -0.344097
   3 C :    0.419300
   4 O :   -0.371423
   5 C :   -0.214876
   6 C :    0.150714
   7 C :   -0.336269
   8 N :   -0.137770
   9 C :    0.207423
  10 S :   -0.442776
  11 N :   -0.221145
  12 C :    0.067660
  13 C :    0.014364
  14 C :   -0.220363
  15 C :   -0.126830
  16 C :   -0.278314
  17 C :    0.312006
  18 O :   -0.354809
  19 C :   -0.249252
  20 H :    0.112807
  21 H :    0.121070
  22 H :    0.103173
  23 H :    0.103963
  24 H :    0.123225
  25 H :    0.133170
  26 H :    0.144106
  27 H :    0.119707
  28 H :    0.198603
  29 H :    0.201036
  30 H :    0.167736
  31 H :    0.175121
  32 H :    0.165806
  33 H :    0.133438
  34 H :    0.241701
  35 H :    0.176358
Sum of atomic charges:    0.0000000

LOEWDIN ATOMIC CHARGES
----------------------
   0 C :    0.102238
   1 C :   -0.013614
   2 O :    0.288983
   3 C :   -0.418169
   4 O :    0.128690
   5 C :   -0.084746
   6 C :   -0.086464
   7 C :    0.125078
   8 N :    0.404017
   9 C :   -0.455490
  10 S :   -0.038272
  11 N :    0.395805
  12 C :   -0.051131
  13 C :   -0.045009
  14 C :    0.017965
  15 C :    0.044073
  16 C :   -0.000146
  17 C :   -0.191460
  18 O :    0.395929
  19 C :    0.028663
  20 H :   -0.034888
  21 H :   -0.022923
  22 H :   -0.029342
  23 H :   -0.027710
  24 H :   -0.019702
  25 H :   -0.010807
  26 H :   -0.009809
  27 H :   -0.017419
  28 H :   -0.056127
  29 H :   -0.064249
  30 H :   -0.004221
  31 H :   -0.021526
  32 H :   -0.018208
  33 H :   -0.034280
  34 H :   -0.152720
  35 H :   -0.023007

  Mayer bond orders larger than 0.100000
B(  0-C ,  1-C ) :   0.9581 B(  0-C , 20-H ) :   0.9715 B(  0-C , 21-H ) :   0.9792
B(  0-C , 22-H ) :   0.9748 B(  1-C ,  2-O ) :   0.8998 B(  1-C , 23-H ) :   0.9733
B(  1-C , 24-H ) :   0.9847 B(  2-O ,  3-C ) :   1.1384 B(  3-C ,  4-O ) :   2.1165
B(  3-C ,  5-C ) :   0.9204 B(  5-C ,  6-C ) :   1.7160 B(  5-C , 12-C ) :   0.9351
B(  6-C ,  7-C ) :   0.9494 B(  6-C ,  8-N ) :   1.1093 B(  7-C , 25-H ) :   0.9744
B(  7-C , 26-H ) :   0.9689 B(  7-C , 27-H ) :   0.9660 B(  8-N ,  9-C ) :   1.1975
B(  8-N , 28-H ) :   0.9501 B(  9-C , 10-S ) :   1.6116 B(  9-C , 11-N ) :   1.2891
B( 11-N , 12-C ) :   0.9863 B( 11-N , 29-H ) :   0.9483 B( 12-C , 13-C ) :   0.9640
B( 12-C , 30-H ) :   0.9913 B( 13-C , 14-C ) :   1.3843 B( 13-C , 19-C ) :   1.3502
B( 14-C , 15-C ) :   1.3927 B( 14-C , 31-H ) :   0.9608 B( 15-C , 16-C ) :   1.3627
B( 15-C , 32-H ) :   0.9694 B( 16-C , 17-C ) :   1.3295 B( 16-C , 33-H ) :   0.9843
B( 17-C , 18-O ) :   1.1114 B( 17-C , 19-C ) :   1.3681 B( 18-O , 34-H ) :   0.9789
B( 19-C , 35-H ) :   0.9555

MP2 TOTAL ENERGY:    -1274.326116252 Eh
FINAL SINGLE POINT ENERGY     -1274.326116251557

DIPOLE MOMENT
-------------
                                X             Y             Z
Electronic contribution:      9.42625       5.87339       6.86881
Nuclear contribution   :    -10.93293      -7.34292      -7.10349
                        -----------------------------------------
Total Dipole Moment    :     -1.50668      -1.46953      -0.23468
                        -----------------------------------------
Magnitude (a.u.)       :      2.11771
Magnitude (Debye)      :      5.38279

Rotational constants in cm-1:     0.011763     0.009108     0.006642
Rotational constants in MHz :   352.646921   273.049687   199.118285

                             ****ORCA TERMINATED NORMALLY****
TOTAL RUN TIME: 0 days 1 hours 47 minutes 33 seconds 497 msec
