                         Program Version 4.2.0 -  RELEASE  -
|  1> ! ri-mp2 cc-pvtz cc-pvtz/c TightSCF NoKeepInts
|  2>
|  3> %scf
|  4>   MaxCore 4096
|  5> end
|  6> *xyz  0  1
|  7>     C       14.8410816   15.2599352   16.0424728
|  8>     C       14.9681079   16.1076210   14.7550317
|  9>     O       16.3042686   16.6171729   14.5277378
| 10>     C       17.2497971   16.6076983   15.5107520
| 11>     O       18.0229206   15.6747460   15.6373707
| 12>     C       17.1870690   17.7588785   16.4714667
| 13>     C       16.8809891   19.0199841   16.0709289
| 14>     C       16.3631642   19.4619608   14.7164810
| 15>     N       17.0959158   20.1086009   16.9197348
| 16>     C       17.8183977   20.0524021   18.0813580
| 17>     S       18.1269709   21.4042846   18.9824840
| 18>     N       18.2915182   18.8173322   18.4469833
| 19>     C       17.9538241   17.5440608   17.7809556
| 20>     C       17.2899843   16.5299746   18.7027965
| 21>     C       17.7724607   15.2113279   18.7817335
| 22>     C       17.1484935   14.2706900   19.6180253
| 23>     C       16.0325118   14.6521320   20.3823604
| 24>     C       15.5483428   15.9650933   20.3042491
| 25>     O       14.4656960   16.3340022   21.0340355
| 26>     C       16.1708843   16.8989799   19.4698673
| 27>     H       15.5599351   14.4300323   16.0424946
| 28>     H       13.8351418   14.8290130   16.1135777
| 29>     H       15.0039406   15.8663527   16.9414537
| 30>     H       14.6692744   15.4994037   13.8913352
| 31>     H       14.2663837   16.9486254   14.8220448
| 32>     H       15.3270163   19.1370503   14.5678523
| 33>     H       16.9715851   19.0388710   13.9068573
| 34>     H       16.3869004   20.5514449   14.5903597
| 35>     H       16.7788857   21.0264494   16.6510074
| 36>     H       18.8091999   18.8003092   19.3167686
| 37>     H       18.9578923   17.2022964   17.4890958
| 38>     H       18.6258822   14.9110172   18.1776260
| 39>     H       17.5278089   13.2513986   19.6659693
| 40>     H       15.5465670   13.9279753   21.0277808
| 41>     H       14.2075222   15.5726659   21.5752041
| 42>     H       15.7806660   17.9102174   19.4217479
| 43> *
| 44>
| 45>                          ****END OF INPUT****

CARTESIAN COORDINATES (ANGSTROEM)
---------------------------------
  C     14.841082   15.259935   16.042473
  C     14.968108   16.107621   14.755032
  O     16.304269   16.617173   14.527738
  C     17.249797   16.607698   15.510752
  O     18.022921   15.674746   15.637371
  C     17.187069   17.758879   16.471467
  C     16.880989   19.019984   16.070929
  C     16.363164   19.461961   14.716481
  N     17.095916   20.108601   16.919735
  C     17.818398   20.052402   18.081358
  S     18.126971   21.404285   18.982484
  N     18.291518   18.817332   18.446983
  C     17.953824   17.544061   17.780956
  C     17.289984   16.529975   18.702797
  C     17.772461   15.211328   18.781734
  C     17.148493   14.270690   19.618025
  C     16.032512   14.652132   20.382360
  C     15.548343   15.965093   20.304249
  O     14.465696   16.334002   21.034036
  C     16.170884   16.898980   19.469867
  H     15.559935   14.430032   16.042495
  H     13.835142   14.829013   16.113578
  H     15.003941   15.866353   16.941454
  H     14.669274   15.499404   13.891335
  H     14.266384   16.948625   14.822045
  H     15.327016   19.137050   14.567852
  H     16.971585   19.038871   13.906857
  H     16.386900   20.551445   14.590360
  H     16.778886   21.026449   16.651007
  H     18.809200   18.800309   19.316769
  H     18.957892   17.202296   17.489096
  H     18.625882   14.911017   18.177626
  H     17.527809   13.251399   19.665969
  H     15.546567   13.927975   21.027781
  H     14.207522   15.572666   21.575204
  H     15.780666   17.910217   19.421748

 Total Charge           Charge          ....    0
 Multiplicity           Mult            ....    1
 Number of Electrons    NEL             ....  154
 Basis Dimension        Dim             ....  828

ORBITAL ENERGIES
----------------

  NO   OCC          E(Eh)            E(eV)
   0   2.0000     -91.890003     -2500.4541
   1   2.0000     -20.596178      -560.4505
   2   2.0000     -20.585001      -560.1464
   3   2.0000     -20.552157      -559.2526
   4   2.0000     -15.630508      -425.3277
   5   2.0000     -15.607747      -424.7084
   6   2.0000     -11.394922      -310.0716
   7   2.0000     -11.384802      -309.7962
   8   2.0000     -11.339643      -308.5674
   9   2.0000     -11.312668      -307.8333
  10   2.0000     -11.308663      -307.7244
  11   2.0000     -11.306121      -307.6552
  12   2.0000     -11.262094      -306.4572
  13   2.0000     -11.260551      -306.4152
  14   2.0000     -11.259422      -306.3845
  15   2.0000     -11.252541      -306.1972
  16   2.0000     -11.242555      -305.9255
  17   2.0000     -11.238451      -305.8138
  18   2.0000     -11.234694      -305.7116
  19   2.0000     -11.230084      -305.5861
  20   2.0000      -8.895079      -242.0474
  21   2.0000      -6.576653      -178.9598
  22   2.0000      -6.574651      -178.9054
  23   2.0000      -6.574060      -178.8893
  24   2.0000      -1.446463       -39.3603
  25   2.0000      -1.415975       -38.5306
  26   2.0000      -1.356552       -36.9137
  27   2.0000      -1.341779       -36.5117
  28   2.0000      -1.238976       -33.7142
  29   2.0000      -1.156779       -31.4776
  30   2.0000      -1.122822       -30.5535
  31   2.0000      -1.044883       -28.4327
  32   2.0000      -1.033171       -28.1140
  33   2.0000      -1.014576       -27.6080
  34   2.0000      -1.002711       -27.2852
  35   2.0000      -0.987511       -26.8715
  36   2.0000      -0.924227       -25.1495
  37   2.0000      -0.897498       -24.4222
  38   2.0000      -0.851096       -23.1595
  39   2.0000      -0.839210       -22.8361
  40   2.0000      -0.832517       -22.6539
  41   2.0000      -0.823467       -22.4077
  42   2.0000      -0.743971       -20.2445
  43   2.0000      -0.730272       -19.8717
  44   2.0000      -0.727931       -19.8080
  45   2.0000      -0.693140       -18.8613
  46   2.0000      -0.686540       -18.6817
  47   2.0000      -0.679124       -18.4799
  48   2.0000      -0.676538       -18.4095
  49   2.0000      -0.664378       -18.0787
  50   2.0000      -0.651043       -17.7158
  51   2.0000      -0.647608       -17.6223
  52   2.0000      -0.635534       -17.2938
  53   2.0000      -0.625469       -17.0199
  54   2.0000      -0.606783       -16.5114
  55   2.0000      -0.602238       -16.3877
  56   2.0000      -0.599758       -16.3202
  57   2.0000      -0.579417       -15.7667
  58   2.0000      -0.575373       -15.6567
  59   2.0000      -0.564772       -15.3682
  60   2.0000      -0.555264       -15.1095
  61   2.0000      -0.545428       -14.8418
  62   2.0000      -0.539570       -14.6825
  63   2.0000      -0.533213       -14.5095
  64   2.0000      -0.519549       -14.1376
  65   2.0000      -0.511299       -13.9131
  66   2.0000      -0.498893       -13.5756
  67   2.0000      -0.492033       -13.3889
  68   2.0000      -0.484841       -13.1932
  69   2.0000      -0.467474       -12.7206
  70   2.0000      -0.457569       -12.4511
  71   2.0000      -0.448912       -12.2155
  72   2.0000      -0.355342        -9.6694
  73   2.0000      -0.348374        -9.4797
  74   2.0000      -0.329111        -8.9556
  75   2.0000      -0.320066        -8.7094
  76   2.0000      -0.319009        -8.6807
  77   0.0000       0.073077         1.9885
  78   0.0000       0.105775         2.8783
  79   0.0000       0.119960         3.2643
  80   0.0000       0.132120         3.5952
  81   0.0000       0.137539         3.7426

MULLIKEN ATOMIC CHARGES
-----------------------
   0 C :   -0.325338
   1 C :    0.050901
   2 O :   -0.385170
   3 C :    0.495748
   4 O :   -0.391456
   5 C :   -0.249904
   6 C :    0.154821
   7 C :   -0.292243
   8 N :   -0.128105
   9 C :    0.205476
  10 S :   -0.439923
  11 N :   -0.214716
  12 C :    0.059621
  13 C :    0.007651
  14 C :   -0.179368
  15 C :   -0.136635
  16 C :   -0.273485
  17 C :    0.317521
  18 O :   -0.359038
  19 C :   -0.249131
  20 H :    0.120541
  21 H :    0.110851
  22 H :    0.112515
  23 H :    0.114099
  24 H :    0.080448
  25 H :    0.121016
  26 H :    0.135082
  27 H :    0.107669
  28 H :    0.198451
  29 H :    0.200156
  30 H :    0.158821
  31 H :    0.169557
  32 H :    0.162726
  33 H :    0.130927
  34 H :    0.240585
  35 H :    0.169332
Sum of atomic charges:   -0.0000000

LOEWDIN ATOMIC CHARGES
----------------------
   0 C :    0.108263
   1 C :   -0.013823
   2 O :    0.286404
   3 C :   -0.423995
   4 O :    0.126253
   5 C :   -0.097517
   6 C :   -0.068077
   7 C :    0.127401
   8 N :    0.405489
   9 C :   -0.458468
  10 S :   -0.035933
  11 N :    0.396268
  12 C :   -0.048452
  13 C :   -0.042923
  14 C :    0.024763
  15 C :    0.042550
  16 C :   -0.000830
  17 C :   -0.193658
  18 O :    0.394028
  19 C :    0.027510
  20 H :   -0.020987
  21 H :   -0.022968
  22 H :   -0.028219
  23 H :   -0.023325
  24 H :   -0.037364
  25 H :   -0.012957
  26 H :   -0.005969
  27 H :   -0.019294
  28 H :   -0.058288
  29 H :   -0.063348
  30 H :   -0.006697
  31 H :   -0.022617
  32 H :   -0.019833
  33 H :   -0.035401
  34 H :   -0.153978
  35 H :   -0.024008

  Mayer bond orders larger than 0.100000
B(  0-C ,  1-C ) :   0.9661 B(  0-C , 20-H ) :   0.9692 B(  0-C , 21-H ) :   0.9749
B(  0-C , 22-H ) :   0.9673 B(  1-C ,  2-O ) :   0.9031 B(  1-C , 23-H ) :   0.9812
B(  1-C , 24-H ) :   0.9762 B(  2-O ,  3-C ) :   1.0781 B(  3-C ,  4-O ) :   2.0489
B(  3-C ,  5-C ) :   1.0023 B(  5-C ,  6-C ) :   1.6813 B(  5-C , 12-C ) :   0.9450
B(  6-C ,  7-C ) :   0.9476 B(  6-C ,  8-N ) :   1.1370 B(  7-C , 25-H ) :   0.9678
B(  7-C , 26-H ) :   0.9643 B(  7-C , 27-H ) :   0.9891 B(  8-N ,  9-C ) :   1.1854
B(  8-N , 28-H ) :   0.9474 B(  9-C , 10-S ) :   1.6120 B(  9-C , 11-N ) :   1.3016
B( 11-N , 12-C ) :   0.9815 B( 11-N , 29-H ) :   0.9486 B( 12-C , 13-C ) :   0.9674
B( 12-C , 30-H ) :   0.9949 B( 13-C , 14-C ) :   1.3862 B( 13-C , 19-C ) :   1.3553
B( 14-C , 15-C ) :   1.3970 B( 14-C , 31-H ) :   0.9590 B( 15-C , 16-C ) :   1.3596
B( 15-C , 32-H ) :   0.9704 B( 16-C , 17-C ) :   1.3324 B( 16-C , 33-H ) :   0.9848
B( 17-C , 18-O ) :   1.1064 B( 17-C , 19-C ) :   1.3609 B( 18-O , 34-H ) :   0.9801
B( 19-C , 35-H ) :   0.9601

MP2 TOTAL ENERGY:    -1274.324825945 Eh
FINAL SINGLE POINT ENERGY     -1274.324825944930

DIPOLE MOMENT
-------------
                                X             Y             Z
Electronic contribution:      8.83387       8.90506       7.21614
Nuclear contribution   :    -10.33242     -10.09546      -7.88128
                        -----------------------------------------
Total Dipole Moment    :     -1.49855      -1.19039      -0.66514
                        -----------------------------------------
Magnitude (a.u.)       :      2.02610
Magnitude (Debye)      :      5.14994

Rotational constants in cm-1:     0.011330     0.009327     0.006274
Rotational constants in MHz :   339.669061   279.629595   188.076202

                             ****ORCA TERMINATED NORMALLY****
TOTAL RUN TIME: 0 days 2 hours 7 minutes 48 seconds 71 msec
