                         Program Version 4.2.0 -  RELEASE  -
|  1> ! ri-mp2 cc-pvtz cc-pvtz/c TightSCF NoKeepInts
|  2>
|  3> %scf
|  4>   MaxCore 4096
|  5> end
|  6> *xyz  0  1
|  7>     C       14.5997012   15.0673445   15.6308598
|  8>     C       15.0706907   15.8060004   14.3561434
|  9>     O       15.9811567   16.8840469   14.6641996
| 10>     C       16.9710927   16.7288195   15.5907622
| 11>     O       17.6208292   15.7000380   15.6772636
| 12>     C       17.1011889   17.8594182   16.5695641
| 13>     C       16.8477384   19.1525351   16.2383240
| 14>     C       16.2031054   19.6779867   14.9709574
| 15>     N       17.2325989   20.1934808   17.0871709
| 16>     C       18.0553388   20.0451435   18.1712773
| 17>     S       18.5536588   21.3397785   19.0718949
| 18>     N       18.4619114   18.7666947   18.4589244
| 19>     C       17.9723912   17.5451030   17.7908684
| 20>     C       17.3242012   16.5520963   18.7465279
| 21>     C       17.7740520   15.2210867   18.8111420
| 22>     C       17.1686214   14.3037179   19.6861894
| 23>     C       16.1044921   14.7213173   20.5038425
| 24>     C       15.6524661   16.0465723   20.4393134
| 25>     O       14.6211482   16.4508181   21.2230110
| 26>     C       16.2567315   16.9571415   19.5666399
| 27>     H       15.4074624   14.4770719   16.0813260
| 28>     H       13.7852353   14.3747455   15.3868766
| 29>     H       14.2275464   15.7775234   16.3799351
| 30>     H       15.5696730   15.0844662   13.6954551
| 31>     H       14.2022494   16.2085134   13.8192062
| 32>     H       15.1588471   19.3487249   14.9020716
| 33>     H       16.7331503   19.3115082   14.0827886
| 34>     H       16.2047757   20.7733762   14.9150097
| 35>     H       16.9605275   21.1402517   16.8762461
| 36>     H       19.0510225   18.6820643   19.2776650
| 37>     H       18.9156716   17.1429692   17.3931609
| 38>     H       18.5858412   14.8935695   18.1657347
| 39>     H       17.5214081   13.2746001   19.7229246
| 40>     H       15.6330036   14.0156586   21.1796411
| 41>     H       14.3632603   15.6967781   21.7741592
| 42>     H       15.8942110   17.9790387   19.5309234
| 43> *
| 44>
| 45>                          ****END OF INPUT****

CARTESIAN COORDINATES (ANGSTROEM)
---------------------------------
  C     14.599701   15.067345   15.630860
  C     15.070691   15.806000   14.356143
  O     15.981157   16.884047   14.664200
  C     16.971093   16.728820   15.590762
  O     17.620829   15.700038   15.677264
  C     17.101189   17.859418   16.569564
  C     16.847738   19.152535   16.238324
  C     16.203105   19.677987   14.970957
  N     17.232599   20.193481   17.087171
  C     18.055339   20.045143   18.171277
  S     18.553659   21.339779   19.071895
  N     18.461911   18.766695   18.458924
  C     17.972391   17.545103   17.790868
  C     17.324201   16.552096   18.746528
  C     17.774052   15.221087   18.811142
  C     17.168621   14.303718   19.686189
  C     16.104492   14.721317   20.503843
  C     15.652466   16.046572   20.439313
  O     14.621148   16.450818   21.223011
  C     16.256732   16.957141   19.566640
  H     15.407462   14.477072   16.081326
  H     13.785235   14.374745   15.386877
  H     14.227546   15.777523   16.379935
  H     15.569673   15.084466   13.695455
  H     14.202249   16.208513   13.819206
  H     15.158847   19.348725   14.902072
  H     16.733150   19.311508   14.082789
  H     16.204776   20.773376   14.915010
  H     16.960527   21.140252   16.876246
  H     19.051022   18.682064   19.277665
  H     18.915672   17.142969   17.393161
  H     18.585841   14.893569   18.165735
  H     17.521408   13.274600   19.722925
  H     15.633004   14.015659   21.179641
  H     14.363260   15.696778   21.774159
  H     15.894211   17.979039   19.530923

 Total Charge           Charge          ....    0
 Multiplicity           Mult            ....    1
 Number of Electrons    NEL             ....  154
 Basis Dimension        Dim             ....  828

ORBITAL ENERGIES
----------------

  NO   OCC          E(Eh)            E(eV)
   0   2.0000     -91.888298     -2500.4077
   1   2.0000     -20.593998      -560.3912
   2   2.0000     -20.593393      -560.3747
   3   2.0000     -20.547259      -559.1194
   4   2.0000     -15.628705      -425.2787
   5   2.0000     -15.606144      -424.6648
   6   2.0000     -11.395392      -310.0844
   7   2.0000     -11.383012      -309.7475
   8   2.0000     -11.337641      -308.5129
   9   2.0000     -11.309556      -307.7487
  10   2.0000     -11.304631      -307.6146
  11   2.0000     -11.303711      -307.5896
  12   2.0000     -11.259912      -306.3978
  13   2.0000     -11.258728      -306.3656
  14   2.0000     -11.256531      -306.3058
  15   2.0000     -11.249638      -306.1182
  16   2.0000     -11.239752      -305.8492
  17   2.0000     -11.235798      -305.7416
  18   2.0000     -11.232491      -305.6516
  19   2.0000     -11.227045      -305.5034
  20   2.0000      -8.893380      -242.0012
  21   2.0000      -6.574957      -178.9137
  22   2.0000      -6.572954      -178.8592
  23   2.0000      -6.572366      -178.8432
  24   2.0000      -1.449945       -39.4550
  25   2.0000      -1.413155       -38.4539
  26   2.0000      -1.355588       -36.8874
  27   2.0000      -1.339891       -36.4603
  28   2.0000      -1.237199       -33.6659
  29   2.0000      -1.153964       -31.4009
  30   2.0000      -1.121154       -30.5081
  31   2.0000      -1.042849       -28.3774
  32   2.0000      -1.032427       -28.0938
  33   2.0000      -1.011466       -27.5234
  34   2.0000      -0.999360       -27.1940
  35   2.0000      -0.984472       -26.7889
  36   2.0000      -0.921796       -25.0833
  37   2.0000      -0.896803       -24.4032
  38   2.0000      -0.847976       -23.0746
  39   2.0000      -0.836251       -22.7555
  40   2.0000      -0.829728       -22.5780
  41   2.0000      -0.816654       -22.2223
  42   2.0000      -0.746621       -20.3166
  43   2.0000      -0.733751       -19.9664
  44   2.0000      -0.726933       -19.7808
  45   2.0000      -0.691391       -18.8137
  46   2.0000      -0.685923       -18.6649
  47   2.0000      -0.677788       -18.4436
  48   2.0000      -0.669985       -18.2312
  49   2.0000      -0.659223       -17.9384
  50   2.0000      -0.652490       -17.7552
  51   2.0000      -0.645249       -17.5581
  52   2.0000      -0.632325       -17.2064
  53   2.0000      -0.618150       -16.8207
  54   2.0000      -0.603775       -16.4296
  55   2.0000      -0.599506       -16.3134
  56   2.0000      -0.596719       -16.2376
  57   2.0000      -0.577889       -15.7252
  58   2.0000      -0.574255       -15.6263
  59   2.0000      -0.563426       -15.3316
  60   2.0000      -0.554106       -15.0780
  61   2.0000      -0.547250       -14.8914
  62   2.0000      -0.537137       -14.6162
  63   2.0000      -0.529524       -14.4091
  64   2.0000      -0.517234       -14.0746
  65   2.0000      -0.509572       -13.8662
  66   2.0000      -0.498636       -13.5686
  67   2.0000      -0.494346       -13.4518
  68   2.0000      -0.480155       -13.0657
  69   2.0000      -0.463637       -12.6162
  70   2.0000      -0.458262       -12.4700
  71   2.0000      -0.449517       -12.2320
  72   2.0000      -0.353026        -9.6063
  73   2.0000      -0.346049        -9.4165
  74   2.0000      -0.327399        -8.9090
  75   2.0000      -0.317460        -8.6385
  76   2.0000      -0.316205        -8.6044
  77   0.0000       0.075596         2.0571
  78   0.0000       0.108853         2.9620
  79   0.0000       0.120935         3.2908
  80   0.0000       0.134429         3.6580
  81   0.0000       0.141115         3.8399

MULLIKEN ATOMIC CHARGES
-----------------------
   0 C :   -0.320496
   1 C :    0.049212
   2 O :   -0.369965
   3 C :    0.445350
   4 O :   -0.417020
   5 C :   -0.177771
   6 C :    0.151706
   7 C :   -0.279821
   8 N :   -0.127840
   9 C :    0.208280
  10 S :   -0.441960
  11 N :   -0.211820
  12 C :    0.044904
  13 C :    0.032476
  14 C :   -0.178211
  15 C :   -0.134006
  16 C :   -0.277613
  17 C :    0.315193
  18 O :   -0.358722
  19 C :   -0.253394
  20 H :    0.127983
  21 H :    0.102512
  22 H :    0.099001
  23 H :    0.101245
  24 H :    0.103752
  25 H :    0.126349
  26 H :    0.127223
  27 H :    0.101418
  28 H :    0.198739
  29 H :    0.199668
  30 H :    0.156112
  31 H :    0.162242
  32 H :    0.161182
  33 H :    0.129097
  34 H :    0.240179
  35 H :    0.164818
Sum of atomic charges:   -0.0000000

LOEWDIN ATOMIC CHARGES
----------------------
   0 C :    0.105840
   1 C :   -0.013850
   2 O :    0.294226
   3 C :   -0.416906
   4 O :    0.111370
   5 C :   -0.093638
   6 C :   -0.065307
   7 C :    0.125846
   8 N :    0.405472
   9 C :   -0.457949
  10 S :   -0.037469
  11 N :    0.396270
  12 C :   -0.048209
  13 C :   -0.040901
  14 C :    0.024360
  15 C :    0.040504
  16 C :   -0.001156
  17 C :   -0.192772
  18 O :    0.393323
  19 C :    0.029570
  20 H :   -0.023508
  21 H :   -0.025404
  22 H :   -0.028123
  23 H :   -0.028501
  24 H :   -0.025350
  25 H :   -0.009756
  26 H :   -0.008214
  27 H :   -0.021163
  28 H :   -0.058607
  29 H :   -0.063428
  30 H :   -0.007819
  31 H :   -0.023684
  32 H :   -0.020805
  33 H :   -0.035944
  34 H :   -0.154623
  35 H :   -0.023693

  Mayer bond orders larger than 0.100000
B(  0-C ,  1-C ) :   0.9575 B(  0-C , 20-H ) :   0.9702 B(  0-C , 21-H ) :   0.9763
B(  0-C , 22-H ) :   0.9737 B(  1-C ,  2-O ) :   0.9040 B(  1-C , 23-H ) :   0.9836
B(  1-C , 24-H ) :   0.9828 B(  2-O ,  3-C ) :   1.0948 B(  3-C ,  4-O ) :   2.0006
B(  3-C ,  5-C ) :   1.0347 B(  5-C ,  6-C ) :   1.6598 B(  5-C , 12-C ) :   0.9477
B(  6-C ,  7-C ) :   0.9556 B(  6-C ,  8-N ) :   1.1393 B(  7-C , 25-H ) :   0.9640
B(  7-C , 26-H ) :   0.9652 B(  7-C , 27-H ) :   0.9902 B(  8-N ,  9-C ) :   1.1852
B(  8-N , 28-H ) :   0.9470 B(  9-C , 10-S ) :   1.6092 B(  9-C , 11-N ) :   1.3046
B( 11-N , 12-C ) :   0.9783 B( 11-N , 29-H ) :   0.9485 B( 12-C , 13-C ) :   0.9695
B( 12-C , 30-H ) :   0.9960 B( 13-C , 14-C ) :   1.3781 B( 13-C , 19-C ) :   1.3642
B( 14-C , 15-C ) :   1.3958 B( 14-C , 31-H ) :   0.9625 B( 15-C , 16-C ) :   1.3593
B( 15-C , 32-H ) :   0.9707 B( 16-C , 17-C ) :   1.3331 B( 16-C , 33-H ) :   0.9856
B( 17-C , 18-O ) :   1.1044 B( 17-C , 19-C ) :   1.3658 B( 18-O , 34-H ) :   0.9804
B( 19-C , 35-H ) :   0.9598

MP2 TOTAL ENERGY:    -1274.333834189 Eh
FINAL SINGLE POINT ENERGY     -1274.333834189229

DIPOLE MOMENT
-------------
                                X             Y             Z
Electronic contribution:      9.30975       9.89181       8.61218
Nuclear contribution   :    -10.76741     -11.19461      -9.59430
                        -----------------------------------------
Total Dipole Moment    :     -1.45766      -1.30279      -0.98213
                        -----------------------------------------
Magnitude (a.u.)       :      2.18783
Magnitude (Debye)      :      5.56103

Rotational constants in cm-1:     0.010784     0.009234     0.005964
Rotational constants in MHz :   323.296311   276.828936   178.793772

                             ****ORCA TERMINATED NORMALLY****
TOTAL RUN TIME: 0 days 1 hours 41 minutes 46 seconds 500 msec
