                         Program Version 4.2.0 -  RELEASE  -
|  1> ! ri-mp2 cc-pvtz cc-pvtz/c TightSCF NoKeepInts
|  2>
|  3> %scf
|  4>   MaxCore 4096
|  5> end
|  6> *xyz  0  1
|  7>     C       15.0144277   14.1430530   15.7171043
|  8>     C       15.9019992   15.0161028   14.8136136
|  9>     O       16.4970743   16.0234378   15.6518887
| 10>     C       16.1933594   17.3471603   15.4876243
| 11>     O       15.4911983   17.7496192   14.5755529
| 12>     C       16.8159982   18.2155215   16.5486522
| 13>     C       16.8772344   19.5638782   16.3989169
| 14>     C       16.1562212   20.4050875   15.3658348
| 15>     N       17.6752284   20.3458804   17.2371881
| 16>     C       18.5833626   19.8452777   18.1302682
| 17>     S       19.5644572   20.8298595   19.0268639
| 18>     N       18.6536088   18.4788229   18.2286049
| 19>     C       17.7543192   17.5244127   17.5530388
| 20>     C       17.0435410   16.5975505   18.5308912
| 21>     C       17.3932444   15.2369869   18.6114381
| 22>     C       16.7347351   14.3830480   19.5122102
| 23>     C       15.7212030   14.8950624   20.3404677
| 24>     C       15.3747725   16.2513733   20.2650926
| 25>     O       14.3976550   16.7484162   21.0646406
| 26>     C       16.0322389   17.0987943   19.3678422
| 27>     H       15.6044113   13.6988609   16.5284167
| 28>     H       14.5554841   13.3317157   15.1394089
| 29>     H       14.2119355   14.7435578   16.1637829
| 30>     H       16.6903456   14.3959423   14.3682636
| 31>     H       15.3034086   15.4435510   13.9980464
| 32>     H       15.0793097   20.1932372   15.3794298
| 33>     H       16.5225362   20.1769574   14.3568224
| 34>     H       16.2779276   21.4826415   15.5271655
| 35>     H       17.6485595   21.3500085   17.1599119
| 36>     H       19.3087059   18.1396871   18.9215781
| 37>     H       18.4809242   16.9646757   16.9472990
| 38>     H       18.1716863   14.8391561   17.9660214
| 39>     H       17.0092253   13.3310481   19.5656771
| 40>     H       15.2095170   14.2397215   21.0375376
| 41>     H       14.0819850   16.0230450   21.6240468
| 42>     H       15.7551595   18.1468491   19.3268576
| 43> *
| 44>
| 45>                          ****END OF INPUT****

CARTESIAN COORDINATES (ANGSTROEM)
---------------------------------
  C     15.014428   14.143053   15.717104
  C     15.901999   15.016103   14.813614
  O     16.497074   16.023438   15.651889
  C     16.193359   17.347160   15.487624
  O     15.491198   17.749619   14.575553
  C     16.815998   18.215522   16.548652
  C     16.877234   19.563878   16.398917
  C     16.156221   20.405088   15.365835
  N     17.675228   20.345880   17.237188
  C     18.583363   19.845278   18.130268
  S     19.564457   20.829860   19.026864
  N     18.653609   18.478823   18.228605
  C     17.754319   17.524413   17.553039
  C     17.043541   16.597551   18.530891
  C     17.393244   15.236987   18.611438
  C     16.734735   14.383048   19.512210
  C     15.721203   14.895062   20.340468
  C     15.374773   16.251373   20.265093
  O     14.397655   16.748416   21.064641
  C     16.032239   17.098794   19.367842
  H     15.604411   13.698861   16.528417
  H     14.555484   13.331716   15.139409
  H     14.211935   14.743558   16.163783
  H     16.690346   14.395942   14.368264
  H     15.303409   15.443551   13.998046
  H     15.079310   20.193237   15.379430
  H     16.522536   20.176957   14.356822
  H     16.277928   21.482641   15.527165
  H     17.648560   21.350009   17.159912
  H     19.308706   18.139687   18.921578
  H     18.480924   16.964676   16.947299
  H     18.171686   14.839156   17.966021
  H     17.009225   13.331048   19.565677
  H     15.209517   14.239721   21.037538
  H     14.081985   16.023045   21.624047
  H     15.755159   18.146849   19.326858

 Total Charge           Charge          ....    0
 Multiplicity           Mult            ....    1
 Number of Electrons    NEL             ....  154
 Basis Dimension        Dim             ....  828

ORBITAL ENERGIES
----------------

  NO   OCC          E(Eh)            E(eV)
   0   2.0000     -91.888611     -2500.4162
   1   2.0000     -20.601597      -560.5980
   2   2.0000     -20.596375      -560.4559
   3   2.0000     -20.540613      -558.9385
   4   2.0000     -15.628921      -425.2846
   5   2.0000     -15.606841      -424.6837
   6   2.0000     -11.395711      -310.0930
   7   2.0000     -11.383300      -309.7553
   8   2.0000     -11.337099      -308.4982
   9   2.0000     -11.313556      -307.8575
  10   2.0000     -11.307341      -307.6884
  11   2.0000     -11.294926      -307.3506
  12   2.0000     -11.260529      -306.4146
  13   2.0000     -11.259357      -306.3827
  14   2.0000     -11.254907      -306.2616
  15   2.0000     -11.251355      -306.1649
  16   2.0000     -11.243555      -305.9527
  17   2.0000     -11.238835      -305.8243
  18   2.0000     -11.238499      -305.8151
  19   2.0000     -11.225453      -305.4601
  20   2.0000      -8.893684      -242.0095
  21   2.0000      -6.575258      -178.9219
  22   2.0000      -6.573259      -178.8675
  23   2.0000      -6.572669      -178.8514
  24   2.0000      -1.450687       -39.4752
  25   2.0000      -1.416048       -38.5326
  26   2.0000      -1.354530       -36.8586
  27   2.0000      -1.340113       -36.4663
  28   2.0000      -1.238040       -33.6888
  29   2.0000      -1.157457       -31.4960
  30   2.0000      -1.120956       -30.5028
  31   2.0000      -1.042891       -28.3785
  32   2.0000      -1.038392       -28.2561
  33   2.0000      -1.014956       -27.6184
  34   2.0000      -0.995853       -27.0985
  35   2.0000      -0.984411       -26.7872
  36   2.0000      -0.921607       -25.0782
  37   2.0000      -0.890374       -24.2283
  38   2.0000      -0.846134       -23.0245
  39   2.0000      -0.837790       -22.7974
  40   2.0000      -0.834027       -22.6950
  41   2.0000      -0.815428       -22.1889
  42   2.0000      -0.763173       -20.7670
  43   2.0000      -0.733270       -19.9533
  44   2.0000      -0.721484       -19.6326
  45   2.0000      -0.695601       -18.9283
  46   2.0000      -0.689013       -18.7490
  47   2.0000      -0.679651       -18.4942
  48   2.0000      -0.670089       -18.2341
  49   2.0000      -0.661568       -18.0022
  50   2.0000      -0.645945       -17.5771
  51   2.0000      -0.641418       -17.4539
  52   2.0000      -0.634286       -17.2598
  53   2.0000      -0.606896       -16.5145
  54   2.0000      -0.602150       -16.3853
  55   2.0000      -0.598862       -16.2959
  56   2.0000      -0.596992       -16.2450
  57   2.0000      -0.577415       -15.7123
  58   2.0000      -0.569204       -15.4888
  59   2.0000      -0.566067       -15.4035
  60   2.0000      -0.562471       -15.3056
  61   2.0000      -0.547607       -14.9012
  62   2.0000      -0.537813       -14.6346
  63   2.0000      -0.528470       -14.3804
  64   2.0000      -0.524077       -14.2609
  65   2.0000      -0.513027       -13.9602
  66   2.0000      -0.500439       -13.6176
  67   2.0000      -0.497182       -13.5290
  68   2.0000      -0.483093       -13.1456
  69   2.0000      -0.462770       -12.5926
  70   2.0000      -0.453179       -12.3316
  71   2.0000      -0.449251       -12.2247
  72   2.0000      -0.353013        -9.6060
  73   2.0000      -0.349690        -9.5156
  74   2.0000      -0.327807        -8.9201
  75   2.0000      -0.320796        -8.7293
  76   2.0000      -0.317851        -8.6492
  77   0.0000       0.078294         2.1305
  78   0.0000       0.104460         2.8425
  79   0.0000       0.124194         3.3795
  80   0.0000       0.132982         3.6186
  81   0.0000       0.137935         3.7534

MULLIKEN ATOMIC CHARGES
-----------------------
   0 C :   -0.270301
   1 C :    0.010732
   2 O :   -0.342817
   3 C :    0.442613
   4 O :   -0.437968
   5 C :   -0.229108
   6 C :    0.174485
   7 C :   -0.269077
   8 N :   -0.126409
   9 C :    0.210641
  10 S :   -0.442568
  11 N :   -0.215762
  12 C :    0.060404
  13 C :    0.055062
  14 C :   -0.193554
  15 C :   -0.128823
  16 C :   -0.277522
  17 C :    0.317243
  18 O :   -0.356901
  19 C :   -0.249973
  20 H :    0.091977
  21 H :    0.096936
  22 H :    0.100284
  23 H :    0.096741
  24 H :    0.125288
  25 H :    0.133542
  26 H :    0.129000
  27 H :    0.094316
  28 H :    0.199685
  29 H :    0.200499
  30 H :    0.151784
  31 H :    0.152508
  32 H :    0.163253
  33 H :    0.130415
  34 H :    0.240533
  35 H :    0.162841
Sum of atomic charges:   -0.0000000

LOEWDIN ATOMIC CHARGES
----------------------
   0 C :    0.104834
   1 C :   -0.013093
   2 O :    0.311810
   3 C :   -0.414075
   4 O :    0.093643
   5 C :   -0.094567
   6 C :   -0.056924
   7 C :    0.130958
   8 N :    0.407049
   9 C :   -0.456448
  10 S :   -0.037008
  11 N :    0.394609
  12 C :   -0.054775
  13 C :   -0.039414
  14 C :    0.017367
  15 C :    0.039833
  16 C :   -0.000410
  17 C :   -0.189399
  18 O :    0.395086
  19 C :    0.033693
  20 H :   -0.029246
  21 H :   -0.027393
  22 H :   -0.024665
  23 H :   -0.030228
  24 H :   -0.028437
  25 H :   -0.004260
  26 H :   -0.005133
  27 H :   -0.023729
  28 H :   -0.057171
  29 H :   -0.064442
  30 H :   -0.014192
  31 H :   -0.029925
  32 H :   -0.021794
  33 H :   -0.035345
  34 H :   -0.154036
  35 H :   -0.022773

  Mayer bond orders larger than 0.100000
B(  0-C ,  1-C ) :   0.9710 B(  0-C , 20-H ) :   0.9747 B(  0-C , 21-H ) :   0.9768
B(  0-C , 22-H ) :   0.9776 B(  1-C ,  2-O ) :   0.8903 B(  1-C , 23-H ) :   0.9840
B(  1-C , 24-H ) :   0.9741 B(  2-O ,  3-C ) :   1.1804 B(  3-C ,  4-O ) :   1.9632
B(  3-C ,  5-C ) :   1.0634 B(  5-C ,  6-C ) :   1.6440 B(  5-C , 12-C ) :   0.9540
B(  6-C ,  7-C ) :   0.9654 B(  6-C ,  8-N ) :   1.1540 B(  7-C , 25-H ) :   0.9614
B(  7-C , 26-H ) :   0.9589 B(  7-C , 27-H ) :   0.9904 B(  8-N ,  9-C ) :   1.1880
B(  8-N , 28-H ) :   0.9464 B(  9-C , 10-S ) :   1.6051 B(  9-C , 11-N ) :   1.3096
B( 11-N , 12-C ) :   0.9680 B( 11-N , 29-H ) :   0.9484 B( 12-C , 13-C ) :   0.9646
B( 12-C , 30-H ) :   1.0005 B( 13-C , 14-C ) :   1.3514 B( 13-C , 19-C ) :   1.3796
B( 14-C , 15-C ) :   1.3903 B( 14-C , 31-H ) :   0.9710 B( 15-C , 16-C ) :   1.3602
B( 15-C , 32-H ) :   0.9699 B( 16-C , 17-C ) :   1.3330 B( 16-C , 33-H ) :   0.9849
B( 17-C , 18-O ) :   1.1043 B( 17-C , 19-C ) :   1.3649 B( 18-O , 34-H ) :   0.9799
B( 19-C , 35-H ) :   0.9595

MP2 TOTAL ENERGY:    -1274.344385884 Eh
FINAL SINGLE POINT ENERGY     -1274.344385884263

DIPOLE MOMENT
-------------
                                X             Y             Z
Electronic contribution:      8.11074      11.68110       7.78268
Nuclear contribution   :     -8.99814     -13.45101      -8.24280
                        -----------------------------------------
Total Dipole Moment    :     -0.88740      -1.76991      -0.46011
                        -----------------------------------------
Magnitude (a.u.)       :      2.03267
Magnitude (Debye)      :      5.16665

Rotational constants in cm-1:     0.011769     0.008450     0.005924
Rotational constants in MHz :   352.813165   253.335022   177.582496

                             ****ORCA TERMINATED NORMALLY****
TOTAL RUN TIME: 0 days 1 hours 36 minutes 37 seconds 69 msec
