                         Program Version 4.2.0 -  RELEASE  -
|  1> ! ri-mp2 cc-pvtz cc-pvtz/c TightSCF NoKeepInts
|  2>
|  3> %scf
|  4>   MaxCore 4096
|  5> end
|  6> *xyz  0  1
|  7>     C       13.8353726   16.1957136   15.2152995
|  8>     C       15.1742407   15.5654363   14.7948291
|  9>     O       16.1412659   16.6233778   14.6959224
| 10>     C       17.1736262   16.6055513   15.5826930
| 11>     O       17.9199018   15.6462635   15.6764268
| 12>     C       17.1671722   17.7357997   16.5691457
| 13>     C       16.7861097   18.9943341   16.2285293
| 14>     C       16.1203141   19.4448340   14.9434636
| 15>     N       17.0453466   20.0719093   17.0790331
| 16>     C       17.8670424   20.0140343   18.1725727
| 17>     S       18.2147105   21.3560242   19.0744761
| 18>     N       18.4048378   18.7866833   18.4680038
| 19>     C       18.0517072   17.5179813   17.8015026
| 20>     C       17.5020218   16.4656833   18.7550138
| 21>     C       18.0869502   15.1887625   18.8278464
| 22>     C       17.5749274   14.2172331   19.7041402
| 23>     C       16.4685870   14.5255951   20.5143020
| 24>     C       15.8818278   15.7964764   20.4411124
| 25>     O       14.8096182   16.0949226   21.2172999
| 26>     C       16.3934089   16.7611857   19.5673311
| 27>     H       13.9278128   16.6856785   16.1928541
| 28>     H       13.0569977   15.4266050   15.2911378
| 29>     H       13.5093975   16.9414880   14.4798246
| 30>     H       15.4790045   14.8042031   15.5273319
| 31>     H       15.0613441   15.0758841   13.8188140
| 32>     H       16.6833834   19.0967444   14.0682307
| 33>     H       16.0483279   20.5362845   14.8621100
| 34>     H       15.1026113   19.0425424   14.8716901
| 35>     H       16.6775118   20.9841603   16.8610252
| 36>     H       18.9919200   18.7672405   19.2923991
| 37>     H       19.0363401   17.2158122   17.4155469
| 38>     H       18.9326519   14.9448081   18.1889153
| 39>     H       18.0325509   13.2304891   19.7478509
| 40>     H       16.0691521   13.7776287   21.1910786
| 41>     H       14.6311203   15.3223760   21.7743276
| 42>     H       15.9278846   17.7402537   19.5259196
| 43> *
| 44>
| 45>                          ****END OF INPUT****

CARTESIAN COORDINATES (ANGSTROEM)
---------------------------------
  C     13.835373   16.195714   15.215299
  C     15.174241   15.565436   14.794829
  O     16.141266   16.623378   14.695922
  C     17.173626   16.605551   15.582693
  O     17.919902   15.646263   15.676427
  C     17.167172   17.735800   16.569146
  C     16.786110   18.994334   16.228529
  C     16.120314   19.444834   14.943464
  N     17.045347   20.071909   17.079033
  C     17.867042   20.014034   18.172573
  S     18.214710   21.356024   19.074476
  N     18.404838   18.786683   18.468004
  C     18.051707   17.517981   17.801503
  C     17.502022   16.465683   18.755014
  C     18.086950   15.188762   18.827846
  C     17.574927   14.217233   19.704140
  C     16.468587   14.525595   20.514302
  C     15.881828   15.796476   20.441112
  O     14.809618   16.094923   21.217300
  C     16.393409   16.761186   19.567331
  H     13.927813   16.685679   16.192854
  H     13.056998   15.426605   15.291138
  H     13.509398   16.941488   14.479825
  H     15.479005   14.804203   15.527332
  H     15.061344   15.075884   13.818814
  H     16.683383   19.096744   14.068231
  H     16.048328   20.536285   14.862110
  H     15.102611   19.042542   14.871690
  H     16.677512   20.984160   16.861025
  H     18.991920   18.767240   19.292399
  H     19.036340   17.215812   17.415547
  H     18.932652   14.944808   18.188915
  H     18.032551   13.230489   19.747851
  H     16.069152   13.777629   21.191079
  H     14.631120   15.322376   21.774328
  H     15.927885   17.740254   19.525920

 Total Charge           Charge          ....    0
 Multiplicity           Mult            ....    1
 Number of Electrons    NEL             ....  154
 Basis Dimension        Dim             ....  828

ORBITAL ENERGIES
----------------

  NO   OCC          E(Eh)            E(eV)
   0   2.0000     -91.889286     -2500.4346
   1   2.0000     -20.594378      -560.4015
   2   2.0000     -20.590590      -560.2984
   3   2.0000     -20.550211      -559.1997
   4   2.0000     -15.629998      -425.3139
   5   2.0000     -15.606999      -424.6880
   6   2.0000     -11.394100      -310.0492
   7   2.0000     -11.384042      -309.7755
   8   2.0000     -11.338963      -308.5489
   9   2.0000     -11.310590      -307.7768
  10   2.0000     -11.305425      -307.6363
  11   2.0000     -11.302475      -307.5560
  12   2.0000     -11.260222      -306.4062
  13   2.0000     -11.260168      -306.4048
  14   2.0000     -11.257648      -306.3362
  15   2.0000     -11.250548      -306.1430
  16   2.0000     -11.240651      -305.8737
  17   2.0000     -11.236885      -305.7712
  18   2.0000     -11.233580      -305.6813
  19   2.0000     -11.233448      -305.6777
  20   2.0000      -8.894361      -242.0279
  21   2.0000      -6.575935      -178.9403
  22   2.0000      -6.573935      -178.8859
  23   2.0000      -6.573344      -178.8698
  24   2.0000      -1.453472       -39.5510
  25   2.0000      -1.414133       -38.4805
  26   2.0000      -1.358018       -36.9535
  27   2.0000      -1.341064       -36.4922
  28   2.0000      -1.238211       -33.6934
  29   2.0000      -1.154992       -31.4289
  30   2.0000      -1.122314       -30.5397
  31   2.0000      -1.044540       -28.4234
  32   2.0000      -1.037073       -28.2202
  33   2.0000      -1.012513       -27.5519
  34   2.0000      -1.000742       -27.2316
  35   2.0000      -0.986138       -26.8342
  36   2.0000      -0.922431       -25.1006
  37   2.0000      -0.889223       -24.1970
  38   2.0000      -0.848524       -23.0895
  39   2.0000      -0.837400       -22.7868
  40   2.0000      -0.830701       -22.6045
  41   2.0000      -0.822386       -22.3783
  42   2.0000      -0.760773       -20.7017
  43   2.0000      -0.736819       -20.0499
  44   2.0000      -0.728071       -19.8118
  45   2.0000      -0.692659       -18.8482
  46   2.0000      -0.684954       -18.6385
  47   2.0000      -0.680647       -18.5213
  48   2.0000      -0.675823       -18.3901
  49   2.0000      -0.659689       -17.9510
  50   2.0000      -0.652408       -17.7529
  51   2.0000      -0.643706       -17.5161
  52   2.0000      -0.635152       -17.2834
  53   2.0000      -0.605807       -16.4848
  54   2.0000      -0.601045       -16.3553
  55   2.0000      -0.597786       -16.2666
  56   2.0000      -0.595486       -16.2040
  57   2.0000      -0.582589       -15.8530
  58   2.0000      -0.575029       -15.6473
  59   2.0000      -0.570894       -15.5348
  60   2.0000      -0.561160       -15.2699
  61   2.0000      -0.554716       -15.0946
  62   2.0000      -0.545902       -14.8548
  63   2.0000      -0.518604       -14.1119
  64   2.0000      -0.517328       -14.0772
  65   2.0000      -0.512277       -13.9398
  66   2.0000      -0.504976       -13.7411
  67   2.0000      -0.496180       -13.5018
  68   2.0000      -0.481986       -13.1155
  69   2.0000      -0.463378       -12.6092
  70   2.0000      -0.456592       -12.4245
  71   2.0000      -0.454927       -12.3792
  72   2.0000      -0.354217        -9.6387
  73   2.0000      -0.347050        -9.4437
  74   2.0000      -0.328337        -8.9345
  75   2.0000      -0.318491        -8.6666
  76   2.0000      -0.317287        -8.6338
  77   0.0000       0.073113         1.9895
  78   0.0000       0.106899         2.9089
  79   0.0000       0.120196         3.2707
  80   0.0000       0.134120         3.6496
  81   0.0000       0.139176         3.7872

MULLIKEN ATOMIC CHARGES
-----------------------
   0 C :   -0.298027
   1 C :    0.044846
   2 O :   -0.368014
   3 C :    0.453971
   4 O :   -0.399635
   5 C :   -0.206246
   6 C :    0.155839
   7 C :   -0.286513
   8 N :   -0.127819
   9 C :    0.206503
  10 S :   -0.440620
  11 N :   -0.211003
  12 C :    0.045289
  13 C :    0.031279
  14 C :   -0.175452
  15 C :   -0.133296
  16 C :   -0.277892
  17 C :    0.313865
  18 O :   -0.358674
  19 C :   -0.255045
  20 H :    0.102797
  21 H :    0.111285
  22 H :    0.093464
  23 H :    0.100273
  24 H :    0.105195
  25 H :    0.128953
  26 H :    0.105343
  27 H :    0.125893
  28 H :    0.198856
  29 H :    0.199775
  30 H :    0.156339
  31 H :    0.162203
  32 H :    0.161473
  33 H :    0.129315
  34 H :    0.240436
  35 H :    0.165046
Sum of atomic charges:   -0.0000000

LOEWDIN ATOMIC CHARGES
----------------------
   0 C :    0.102308
   1 C :   -0.015199
   2 O :    0.300119
   3 C :   -0.422268
   4 O :    0.118397
   5 C :   -0.096455
   6 C :   -0.065710
   7 C :    0.126429
   8 N :    0.405864
   9 C :   -0.458088
  10 S :   -0.036393
  11 N :    0.396122
  12 C :   -0.048639
  13 C :   -0.041574
  14 C :    0.024320
  15 C :    0.041394
  16 C :   -0.001108
  17 C :   -0.193016
  18 O :    0.393204
  19 C :    0.028378
  20 H :   -0.027486
  21 H :   -0.023831
  22 H :   -0.030324
  23 H :   -0.024334
  24 H :   -0.026397
  25 H :   -0.007539
  26 H :   -0.020404
  27 H :   -0.010891
  28 H :   -0.058318
  29 H :   -0.063359
  30 H :   -0.007360
  31 H :   -0.023234
  32 H :   -0.020455
  33 H :   -0.035818
  34 H :   -0.154409
  35 H :   -0.023926

  Mayer bond orders larger than 0.100000
B(  0-C ,  1-C ) :   0.9676 B(  0-C , 20-H ) :   0.9745 B(  0-C , 21-H ) :   0.9782
B(  0-C , 22-H ) :   0.9774 B(  1-C ,  2-O ) :   0.8926 B(  1-C , 23-H ) :   0.9712
B(  1-C , 24-H ) :   0.9856 B(  2-O ,  3-C ) :   1.0926 B(  3-C ,  4-O ) :   2.0336
B(  3-C ,  5-C ) :   1.0212 B(  5-C ,  6-C ) :   1.6623 B(  5-C , 12-C ) :   0.9514
B(  6-C ,  7-C ) :   0.9556 B(  6-C ,  8-N ) :   1.1399 B(  7-C , 25-H ) :   0.9656
B(  7-C , 26-H ) :   0.9893 B(  7-C , 27-H ) :   0.9655 B(  8-N ,  9-C ) :   1.1849
B(  8-N , 28-H ) :   0.9470 B(  9-C , 10-S ) :   1.6109 B(  9-C , 11-N ) :   1.3039
B( 11-N , 12-C ) :   0.9792 B( 11-N , 29-H ) :   0.9486 B( 12-C , 13-C ) :   0.9699
B( 12-C , 30-H ) :   0.9951 B( 13-C , 14-C ) :   1.3784 B( 13-C , 19-C ) :   1.3626
B( 14-C , 15-C ) :   1.3966 B( 14-C , 31-H ) :   0.9625 B( 15-C , 16-C ) :   1.3597
B( 15-C , 32-H ) :   0.9707 B( 16-C , 17-C ) :   1.3325 B( 16-C , 33-H ) :   0.9856
B( 17-C , 18-O ) :   1.1047 B( 17-C , 19-C ) :   1.3665 B( 18-O , 34-H ) :   0.9802
B( 19-C , 35-H ) :   0.9602

MP2 TOTAL ENERGY:    -1274.329197435 Eh
FINAL SINGLE POINT ENERGY     -1274.329197435399

DIPOLE MOMENT
-------------
                                X             Y             Z
Electronic contribution:     10.71121       7.63853       8.90870
Nuclear contribution   :    -12.08072      -8.95155      -9.71333
                        -----------------------------------------
Total Dipole Moment    :     -1.36951      -1.31302      -0.80463
                        -----------------------------------------
Magnitude (a.u.)       :      2.06083
Magnitude (Debye)      :      5.23821

Rotational constants in cm-1:     0.010323     0.009289     0.006141
Rotational constants in MHz :   309.469216   278.481657   184.093068

                             ****ORCA TERMINATED NORMALLY****
TOTAL RUN TIME: 0 days 1 hours 52 minutes 49 seconds 661 msec
