                         Program Version 4.2.0 -  RELEASE  -
|  1> ! ri-mp2 cc-pvtz cc-pvtz/c TightSCF NoKeepInts
|  2>
|  3> %scf
|  4>   MaxCore 4096
|  5> end
|  6> *xyz  0  1
|  7>     C       14.9158586   14.9453902   14.0147952
|  8>     C       15.1632466   15.0413836   15.5353497
|  9>     O       16.1901463   16.0097018   15.8277487
| 10>     C       15.9596054   17.3545650   15.7191725
| 11>     O       15.1245033   17.8236563   14.9660715
| 12>     C       16.7525416   18.1519987   16.7210017
| 13>     C       16.8559903   19.5017355   16.6097770
| 14>     C       16.0487757   20.4123144   15.7073744
| 15>     N       17.7922144   20.2165557   17.3605180
| 16>     C       18.7899738   19.6442933   18.1019399
| 17>     S       19.9262731   20.5514701   18.8903673
| 18>     N       18.8125252   18.2732899   18.1397622
| 19>     C       17.7857774   17.3843434   17.5640373
| 20>     C       17.1744517   16.4493238   18.5996925
| 21>     C       17.4686356   15.0733583   18.5851187
| 22>     C       16.9030863   14.2127049   19.5409886
| 23>     C       16.0396922   14.7333073   20.5203326
| 24>     C       15.7491388   16.1046316   20.5393196
| 25>     O       14.9171083   16.6099483   21.4844921
| 26>     C       16.3131376   16.9584942   19.5862698
| 27>     H       14.3997199   15.8331732   13.6308830
| 28>     H       14.2885123   14.0753500   13.7869214
| 29>     H       15.8635690   14.8334502   13.4739470
| 30>     H       14.2313082   15.3020582   16.0548654
| 31>     H       15.4903609   14.0600520   15.9021384
| 32>     H       14.9737463   20.2615235   15.8696973
| 33>     H       16.2547125   20.1930002   14.6519587
| 34>     H       16.2571981   21.4761379   15.8710431
| 35>     H       17.8000786   21.2232958   17.3233211
| 36>     H       19.5412982   17.8802160   18.7218147
| 37>     H       18.3967594   16.8202434   16.8450655
| 38>     H       18.1325236   14.6698403   17.8251456
| 39>     H       17.1347921   13.1491953   19.5217156
| 40>     H       15.6011814   14.0729820   21.2612904
| 41>     H       14.6562660   15.8789680   22.0645536
| 42>     H       16.0822913   18.0180477   19.6195097
| 43> *
| 44>
| 45>                          ****END OF INPUT****

CARTESIAN COORDINATES (ANGSTROEM)
---------------------------------
  C     14.915859   14.945390   14.014795
  C     15.163247   15.041384   15.535350
  O     16.190146   16.009702   15.827749
  C     15.959605   17.354565   15.719173
  O     15.124503   17.823656   14.966071
  C     16.752542   18.151999   16.721002
  C     16.855990   19.501735   16.609777
  C     16.048776   20.412314   15.707374
  N     17.792214   20.216556   17.360518
  C     18.789974   19.644293   18.101940
  S     19.926273   20.551470   18.890367
  N     18.812525   18.273290   18.139762
  C     17.785777   17.384343   17.564037
  C     17.174452   16.449324   18.599692
  C     17.468636   15.073358   18.585119
  C     16.903086   14.212705   19.540989
  C     16.039692   14.733307   20.520333
  C     15.749139   16.104632   20.539320
  O     14.917108   16.609948   21.484492
  C     16.313138   16.958494   19.586270
  H     14.399720   15.833173   13.630883
  H     14.288512   14.075350   13.786921
  H     15.863569   14.833450   13.473947
  H     14.231308   15.302058   16.054865
  H     15.490361   14.060052   15.902138
  H     14.973746   20.261523   15.869697
  H     16.254713   20.193000   14.651959
  H     16.257198   21.476138   15.871043
  H     17.800079   21.223296   17.323321
  H     19.541298   17.880216   18.721815
  H     18.396759   16.820243   16.845066
  H     18.132524   14.669840   17.825146
  H     17.134792   13.149195   19.521716
  H     15.601181   14.072982   21.261290
  H     14.656266   15.878968   22.064554
  H     16.082291   18.018048   19.619510

 Total Charge           Charge          ....    0
 Multiplicity           Mult            ....    1
 Number of Electrons    NEL             ....  154
 Basis Dimension        Dim             ....  828

ORBITAL ENERGIES
----------------

  NO   OCC          E(Eh)            E(eV)
   0   2.0000     -91.888921     -2500.4247
   1   2.0000     -20.596829      -560.4682
   2   2.0000     -20.596257      -560.4526
   3   2.0000     -20.542966      -559.0025
   4   2.0000     -15.629327      -425.2956
   5   2.0000     -15.606906      -424.6855
   6   2.0000     -11.395879      -310.0976
   7   2.0000     -11.383506      -309.7609
   8   2.0000     -11.337454      -308.5078
   9   2.0000     -11.314017      -307.8701
  10   2.0000     -11.307349      -307.6886
  11   2.0000     -11.299491      -307.4748
  12   2.0000     -11.261029      -306.4282
  13   2.0000     -11.258675      -306.3641
  14   2.0000     -11.255498      -306.2777
  15   2.0000     -11.251924      -306.1804
  16   2.0000     -11.243771      -305.9586
  17   2.0000     -11.239082      -305.8310
  18   2.0000     -11.238879      -305.8255
  19   2.0000     -11.219372      -305.2946
  20   2.0000      -8.893990      -242.0178
  21   2.0000      -6.575562      -178.9301
  22   2.0000      -6.573564      -178.8758
  23   2.0000      -6.572973      -178.8597
  24   2.0000      -1.448476       -39.4150
  25   2.0000      -1.416484       -38.5445
  26   2.0000      -1.355162       -36.8758
  27   2.0000      -1.340446       -36.4754
  28   2.0000      -1.238257       -33.6947
  29   2.0000      -1.157698       -31.5026
  30   2.0000      -1.120885       -30.5008
  31   2.0000      -1.042834       -28.3770
  32   2.0000      -1.034749       -28.1570
  33   2.0000      -1.015221       -27.6256
  34   2.0000      -0.995634       -27.0926
  35   2.0000      -0.984069       -26.7779
  36   2.0000      -0.921843       -25.0846
  37   2.0000      -0.891550       -24.2603
  38   2.0000      -0.846940       -23.0464
  39   2.0000      -0.838284       -22.8109
  40   2.0000      -0.834395       -22.7050
  41   2.0000      -0.819992       -22.3131
  42   2.0000      -0.754234       -20.5238
  43   2.0000      -0.732977       -19.9453
  44   2.0000      -0.721181       -19.6243
  45   2.0000      -0.695625       -18.9289
  46   2.0000      -0.688819       -18.7437
  47   2.0000      -0.679936       -18.5020
  48   2.0000      -0.670260       -18.2387
  49   2.0000      -0.650230       -17.6937
  50   2.0000      -0.648837       -17.6558
  51   2.0000      -0.645596       -17.5676
  52   2.0000      -0.633262       -17.2319
  53   2.0000      -0.607552       -16.5323
  54   2.0000      -0.603341       -16.4177
  55   2.0000      -0.599510       -16.3135
  56   2.0000      -0.598478       -16.2854
  57   2.0000      -0.581089       -15.8122
  58   2.0000      -0.574258       -15.6264
  59   2.0000      -0.569859       -15.5066
  60   2.0000      -0.563187       -15.3251
  61   2.0000      -0.540369       -14.7042
  62   2.0000      -0.535615       -14.5748
  63   2.0000      -0.524288       -14.2666
  64   2.0000      -0.518850       -14.1186
  65   2.0000      -0.512880       -13.9562
  66   2.0000      -0.501202       -13.6384
  67   2.0000      -0.497800       -13.5458
  68   2.0000      -0.485186       -13.2026
  69   2.0000      -0.463507       -12.6127
  70   2.0000      -0.455624       -12.3982
  71   2.0000      -0.442229       -12.0337
  72   2.0000      -0.352903        -9.6030
  73   2.0000      -0.349936        -9.5222
  74   2.0000      -0.328092        -8.9278
  75   2.0000      -0.321408        -8.7460
  76   2.0000      -0.318144        -8.6571
  77   0.0000       0.075826         2.0633
  78   0.0000       0.104770         2.8509
  79   0.0000       0.125148         3.4055
  80   0.0000       0.132667         3.6100
  81   0.0000       0.136916         3.7257

MULLIKEN ATOMIC CHARGES
-----------------------
   0 C :   -0.289952
   1 C :    0.045153
   2 O :   -0.357070
   3 C :    0.437583
   4 O :   -0.433560
   5 C :   -0.218861
   6 C :    0.174566
   7 C :   -0.268283
   8 N :   -0.125601
   9 C :    0.210636
  10 S :   -0.441819
  11 N :   -0.215689
  12 C :    0.064194
  13 C :    0.042257
  14 C :   -0.182429
  15 C :   -0.132376
  16 C :   -0.276882
  17 C :    0.316478
  18 O :   -0.356774
  19 C :   -0.249745
  20 H :    0.125228
  21 H :    0.092289
  22 H :    0.090650
  23 H :    0.089756
  24 H :    0.103499
  25 H :    0.133756
  26 H :    0.128514
  27 H :    0.094895
  28 H :    0.199628
  29 H :    0.200496
  30 H :    0.152205
  31 H :    0.152353
  32 H :    0.161121
  33 H :    0.130245
  34 H :    0.240638
  35 H :    0.162902
Sum of atomic charges:    0.0000000

LOEWDIN ATOMIC CHARGES
----------------------
   0 C :    0.104610
   1 C :   -0.013968
   2 O :    0.301352
   3 C :   -0.413597
   4 O :    0.104691
   5 C :   -0.095520
   6 C :   -0.055911
   7 C :    0.130971
   8 N :    0.407224
   9 C :   -0.456640
  10 S :   -0.036427
  11 N :    0.394561
  12 C :   -0.054689
  13 C :   -0.039080
  14 C :    0.017136
  15 C :    0.038563
  16 C :   -0.001030
  17 C :   -0.189750
  18 O :    0.395059
  19 C :    0.032770
  20 H :   -0.026813
  21 H :   -0.029755
  22 H :   -0.029007
  23 H :   -0.028902
  24 H :   -0.024934
  25 H :   -0.004405
  26 H :   -0.005136
  27 H :   -0.023634
  28 H :   -0.057202
  29 H :   -0.064408
  30 H :   -0.013487
  31 H :   -0.029079
  32 H :   -0.021376
  33 H :   -0.035466
  34 H :   -0.153926
  35 H :   -0.022796

  Mayer bond orders larger than 0.100000
B(  0-C ,  1-C ) :   0.9754 B(  0-C , 20-H ) :   0.9717 B(  0-C , 21-H ) :   0.9778
B(  0-C , 22-H ) :   0.9753 B(  1-C ,  2-O ) :   0.8992 B(  1-C , 23-H ) :   0.9750
B(  1-C , 24-H ) :   0.9828 B(  2-O ,  3-C ) :   1.1381 B(  3-C ,  4-O ) :   1.9602
B(  3-C ,  5-C ) :   1.0756 B(  5-C ,  6-C ) :   1.6338 B(  5-C , 12-C ) :   0.9549
B(  6-C ,  7-C ) :   0.9660 B(  6-C ,  8-N ) :   1.1536 B(  7-C , 25-H ) :   0.9608
B(  7-C , 26-H ) :   0.9589 B(  7-C , 27-H ) :   0.9909 B(  8-N ,  9-C ) :   1.1871
B(  8-N , 28-H ) :   0.9463 B(  9-C , 10-S ) :   1.6061 B(  9-C , 11-N ) :   1.3096
B( 11-N , 12-C ) :   0.9667 B( 11-N , 29-H ) :   0.9484 B( 12-C , 13-C ) :   0.9628
B( 12-C , 30-H ) :   1.0010 B( 13-C , 14-C ) :   1.3541 B( 13-C , 19-C ) :   1.3806
B( 14-C , 15-C ) :   1.3930 B( 14-C , 31-H ) :   0.9715 B( 15-C , 16-C ) :   1.3600
B( 15-C , 32-H ) :   0.9706 B( 16-C , 17-C ) :   1.3340 B( 16-C , 33-H ) :   0.9850
B( 17-C , 18-O ) :   1.1045 B( 17-C , 19-C ) :   1.3646 B( 18-O , 34-H ) :   0.9798
B( 19-C , 35-H ) :   0.9597

MP2 TOTAL ENERGY:    -1274.337638232 Eh
FINAL SINGLE POINT ENERGY     -1274.337638231750

DIPOLE MOMENT
-------------
                                X             Y             Z
Electronic contribution:      9.48743       9.57896      10.40430
Nuclear contribution   :    -10.59272     -11.23301     -10.67528
                        -----------------------------------------
Total Dipole Moment    :     -1.10529      -1.65404      -0.27098
                        -----------------------------------------
Magnitude (a.u.)       :      2.00773
Magnitude (Debye)      :      5.10323

Rotational constants in cm-1:     0.010812     0.008743     0.005793
Rotational constants in MHz :   324.139845   262.110151   173.671390

                             ****ORCA TERMINATED NORMALLY****
TOTAL RUN TIME: 0 days 1 hours 39 minutes 46 seconds 531 msec
