                         Program Version 4.2.0 -  RELEASE  -
|  1> ! ri-mp2 cc-pvtz cc-pvtz/c TightSCF NoKeepInts
|  2>
|  3> %scf
|  4>   MaxCore 4096
|  5> end
|  6> *xyz  0  1
|  7>     C       15.0787420   14.5056810   14.3737068
|  8>     C       14.6121551   15.9748193   14.4557152
|  9>     O       15.6051172   16.9234532   14.9269658
| 10>     C       16.6416008   16.6698595   15.7883765
| 11>     O       17.1950417   15.5897323   15.8989585
| 12>     C       16.9753773   17.8221381   16.6954873
| 13>     C       16.8358494   19.1218551   16.3198419
| 14>     C       16.1438791   19.6698256   15.0867488
| 15>     N       17.4063141   20.1484714   17.0770776
| 16>     C       18.3105809   19.9574223   18.0863899
| 17>     S       19.0298602   21.2266445   18.8657364
| 18>     N       18.6056180   18.6556865   18.4014361
| 19>     C       17.9210603   17.4695333   17.8517983
| 20>     C       17.2737934   16.6008858   18.9225523
| 21>     C       17.5896495   15.2341218   19.0249974
| 22>     C       16.9927842   14.4347057   20.0142616
| 23>     C       16.0731349   15.0074666   20.9095612
| 24>     C       15.7550143   16.3688698   20.8082903
| 25>     O       14.8641908   16.9234102   21.6686969
| 26>     C       16.3503362   17.1617886   19.8219732
| 27>     H       16.0136264   14.4214865   13.8053148
| 28>     H       14.3209321   13.8947086   13.8688990
| 29>     H       15.2319797   14.0804381   15.3735639
| 30>     H       14.2653886   16.2954667   13.4649784
| 31>     H       13.7452070   16.0136702   15.1280061
| 32>     H       15.0681158   19.4571829   15.1190627
| 33>     H       16.5531772   19.2156940   14.1755787
| 34>     H       16.2582527   20.7555482   14.9808818
| 35>     H       17.2169113   21.1096648   16.8425650
| 36>     H       19.2597016   18.5407862   19.1652828
| 37>     H       18.7735214   16.9474205   17.3932202
| 38>     H       18.2894099   14.7876685   18.3223083
| 39>     H       17.2402660   13.3767400   20.0795530
| 40>     H       15.6088363   14.3934243   21.6739364
| 41>     H       14.5873329   16.2295391   22.2856554
| 42>     H       16.0942418   18.2141910   19.7606214
| 43> *
| 44>
| 45>                          ****END OF INPUT****

CARTESIAN COORDINATES (ANGSTROEM)
---------------------------------
  C     15.078742   14.505681   14.373707
  C     14.612155   15.974819   14.455715
  O     15.605117   16.923453   14.926966
  C     16.641601   16.669860   15.788376
  O     17.195042   15.589732   15.898959
  C     16.975377   17.822138   16.695487
  C     16.835849   19.121855   16.319842
  C     16.143879   19.669826   15.086749
  N     17.406314   20.148471   17.077078
  C     18.310581   19.957422   18.086390
  S     19.029860   21.226644   18.865736
  N     18.605618   18.655687   18.401436
  C     17.921060   17.469533   17.851798
  C     17.273793   16.600886   18.922552
  C     17.589650   15.234122   19.024997
  C     16.992784   14.434706   20.014262
  C     16.073135   15.007467   20.909561
  C     15.755014   16.368870   20.808290
  O     14.864191   16.923410   21.668697
  C     16.350336   17.161789   19.821973
  H     16.013626   14.421486   13.805315
  H     14.320932   13.894709   13.868899
  H     15.231980   14.080438   15.373564
  H     14.265389   16.295467   13.464978
  H     13.745207   16.013670   15.128006
  H     15.068116   19.457183   15.119063
  H     16.553177   19.215694   14.175579
  H     16.258253   20.755548   14.980882
  H     17.216911   21.109665   16.842565
  H     19.259702   18.540786   19.165283
  H     18.773521   16.947420   17.393220
  H     18.289410   14.787669   18.322308
  H     17.240266   13.376740   20.079553
  H     15.608836   14.393424   21.673936
  H     14.587333   16.229539   22.285655
  H     16.094242   18.214191   19.760621

 Total Charge           Charge          ....    0
 Multiplicity           Mult            ....    1
 Number of Electrons    NEL             ....  154
 Basis Dimension        Dim             ....  828

ORBITAL ENERGIES
----------------

  NO   OCC          E(Eh)            E(eV)
   0   2.0000     -91.887053     -2500.3738
   1   2.0000     -20.597819      -560.4952
   2   2.0000     -20.591839      -560.3324
   3   2.0000     -20.545511      -559.0718
   4   2.0000     -15.627099      -425.2350
   5   2.0000     -15.604814      -424.6286
   6   2.0000     -11.398625      -310.1724
   7   2.0000     -11.381528      -309.7071
   8   2.0000     -11.336117      -308.4714
   9   2.0000     -11.307861      -307.7025
  10   2.0000     -11.307245      -307.6858
  11   2.0000     -11.303270      -307.5776
  12   2.0000     -11.259336      -306.3821
  13   2.0000     -11.257778      -306.3397
  14   2.0000     -11.254954      -306.2629
  15   2.0000     -11.248037      -306.0746
  16   2.0000     -11.238132      -305.8051
  17   2.0000     -11.234091      -305.6952
  18   2.0000     -11.230946      -305.6096
  19   2.0000     -11.224177      -305.4254
  20   2.0000      -8.892149      -241.9677
  21   2.0000      -6.573729      -178.8803
  22   2.0000      -6.571724      -178.8257
  23   2.0000      -6.571139      -178.8098
  24   2.0000      -1.445274       -39.3279
  25   2.0000      -1.411583       -38.4111
  26   2.0000      -1.357216       -36.9317
  27   2.0000      -1.338682       -36.4274
  28   2.0000      -1.235987       -33.6329
  29   2.0000      -1.152118       -31.3507
  30   2.0000      -1.119312       -30.4580
  31   2.0000      -1.042184       -28.3593
  32   2.0000      -1.034000       -28.1366
  33   2.0000      -1.009774       -27.4773
  34   2.0000      -0.997519       -27.1439
  35   2.0000      -0.982323       -26.7304
  36   2.0000      -0.920393       -25.0452
  37   2.0000      -0.895538       -24.3688
  38   2.0000      -0.847264       -23.0552
  39   2.0000      -0.835134       -22.7251
  40   2.0000      -0.828100       -22.5338
  41   2.0000      -0.818800       -22.2807
  42   2.0000      -0.743709       -20.2374
  43   2.0000      -0.727249       -19.7895
  44   2.0000      -0.724432       -19.7128
  45   2.0000      -0.689859       -18.7720
  46   2.0000      -0.683763       -18.6061
  47   2.0000      -0.678359       -18.4591
  48   2.0000      -0.672089       -18.2885
  49   2.0000      -0.665826       -18.1180
  50   2.0000      -0.644949       -17.5500
  51   2.0000      -0.643007       -17.4971
  52   2.0000      -0.632647       -17.2152
  53   2.0000      -0.604802       -16.4575
  54   2.0000      -0.601264       -16.3612
  55   2.0000      -0.597868       -16.2688
  56   2.0000      -0.595196       -16.1961
  57   2.0000      -0.579604       -15.7718
  58   2.0000      -0.572223       -15.5710
  59   2.0000      -0.570942       -15.5361
  60   2.0000      -0.558614       -15.2007
  61   2.0000      -0.545052       -14.8316
  62   2.0000      -0.537735       -14.6325
  63   2.0000      -0.525764       -14.3068
  64   2.0000      -0.515522       -14.0281
  65   2.0000      -0.509861       -13.8740
  66   2.0000      -0.497921       -13.5491
  67   2.0000      -0.493251       -13.4220
  68   2.0000      -0.479325       -13.0431
  69   2.0000      -0.462041       -12.5728
  70   2.0000      -0.454702       -12.3731
  71   2.0000      -0.445290       -12.1170
  72   2.0000      -0.351752        -9.5717
  73   2.0000      -0.344391        -9.3714
  74   2.0000      -0.326227        -8.8771
  75   2.0000      -0.316259        -8.6058
  76   2.0000      -0.314548        -8.5593
  77   0.0000       0.077825         2.1177
  78   0.0000       0.111351         3.0300
  79   0.0000       0.121894         3.3169
  80   0.0000       0.135724         3.6932
  81   0.0000       0.138527         3.7695

MULLIKEN ATOMIC CHARGES
-----------------------
   0 C :   -0.284823
   1 C :    0.046858
   2 O :   -0.367113
   3 C :    0.420781
   4 O :   -0.415607
   5 C :   -0.149322
   6 C :    0.154809
   7 C :   -0.282564
   8 N :   -0.128924
   9 C :    0.207429
  10 S :   -0.444184
  11 N :   -0.211175
  12 C :    0.039956
  13 C :    0.032052
  14 C :   -0.172928
  15 C :   -0.134569
  16 C :   -0.277452
  17 C :    0.314021
  18 O :   -0.358861
  19 C :   -0.250796
  20 H :    0.108082
  21 H :    0.095597
  22 H :    0.112837
  23 H :    0.095235
  24 H :    0.088100
  25 H :    0.127410
  26 H :    0.125224
  27 H :    0.102153
  28 H :    0.198529
  29 H :    0.199793
  30 H :    0.156587
  31 H :    0.160545
  32 H :    0.160199
  33 H :    0.128278
  34 H :    0.239866
  35 H :    0.163980
Sum of atomic charges:   -0.0000000

LOEWDIN ATOMIC CHARGES
----------------------
   0 C :    0.102959
   1 C :   -0.010096
   2 O :    0.290696
   3 C :   -0.411875
   4 O :    0.117525
   5 C :   -0.091571
   6 C :   -0.065337
   7 C :    0.124541
   8 N :    0.405053
   9 C :   -0.458834
  10 S :   -0.039039
  11 N :    0.396401
  12 C :   -0.048306
  13 C :   -0.040533
  14 C :    0.023812
  15 C :    0.040326
  16 C :   -0.001457
  17 C :   -0.192525
  18 O :    0.393141
  19 C :    0.029781
  20 H :   -0.024082
  21 H :   -0.028261
  22 H :   -0.025168
  23 H :   -0.025641
  24 H :   -0.030118
  25 H :   -0.009859
  26 H :   -0.009303
  27 H :   -0.021445
  28 H :   -0.058994
  29 H :   -0.063306
  30 H :   -0.008551
  31 H :   -0.023968
  32 H :   -0.021139
  33 H :   -0.036230
  34 H :   -0.154906
  35 H :   -0.023693

  Mayer bond orders larger than 0.100000
B(  0-C ,  1-C ) :   0.9810 B(  0-C , 20-H ) :   0.9734 B(  0-C , 21-H ) :   0.9726
B(  0-C , 22-H ) :   0.9729 B(  1-C ,  2-O ) :   0.9072 B(  1-C , 23-H ) :   0.9798
B(  1-C , 24-H ) :   0.9768 B(  2-O ,  3-C ) :   1.1021 B(  3-C ,  4-O ) :   1.9947
B(  3-C ,  5-C ) :   1.0378 B(  5-C ,  6-C ) :   1.6668 B(  5-C , 12-C ) :   0.9474
B(  6-C ,  7-C ) :   0.9538 B(  6-C ,  8-N ) :   1.1314 B(  7-C , 25-H ) :   0.9639
B(  7-C , 26-H ) :   0.9656 B(  7-C , 27-H ) :   0.9916 B(  8-N ,  9-C ) :   1.1873
B(  8-N , 28-H ) :   0.9471 B(  9-C , 10-S ) :   1.6065 B(  9-C , 11-N ) :   1.3061
B( 11-N , 12-C ) :   0.9755 B( 11-N , 29-H ) :   0.9486 B( 12-C , 13-C ) :   0.9726
B( 12-C , 30-H ) :   0.9967 B( 13-C , 14-C ) :   1.3759 B( 13-C , 19-C ) :   1.3662
B( 14-C , 15-C ) :   1.3965 B( 14-C , 31-H ) :   0.9635 B( 15-C , 16-C ) :   1.3588
B( 15-C , 32-H ) :   0.9712 B( 16-C , 17-C ) :   1.3332 B( 16-C , 33-H ) :   0.9860
B( 17-C , 18-O ) :   1.1037 B( 17-C , 19-C ) :   1.3670 B( 18-O , 34-H ) :   0.9807
B( 19-C , 35-H ) :   0.9600

MP2 TOTAL ENERGY:    -1274.328014358 Eh
FINAL SINGLE POINT ENERGY     -1274.328014358132

DIPOLE MOMENT
-------------
                                X             Y             Z
Electronic contribution:      9.11296      10.56235      11.11756
Nuclear contribution   :    -10.72594     -11.80865     -12.16894
                        -----------------------------------------
Total Dipole Moment    :     -1.61299      -1.24630      -1.05138
                        -----------------------------------------
Magnitude (a.u.)       :      2.29356
Magnitude (Debye)      :      5.82976

Rotational constants in cm-1:     0.010009     0.009113     0.005594
Rotational constants in MHz :   300.072358   273.213635   167.704429

                             ****ORCA TERMINATED NORMALLY****
TOTAL RUN TIME: 0 days 1 hours 56 minutes 49 seconds 449 msec
