                         Program Version 4.2.0 -  RELEASE  -
|  1> ! ri-mp2 cc-pvtz cc-pvtz/c TightSCF NoKeepInts
|  2>
|  3> %scf
|  4>   MaxCore 4096
|  5> end
|  6> *xyz  0  1
|  7>     C       14.5727471   14.8593416   16.4851830
|  8>     C       14.9756103   16.1266814   15.7133482
|  9>     O       16.2910496   15.8989176   15.1663698
| 10>     C       17.3314631   16.7863352   15.2608919
| 11>     O       18.3076273   16.7075972   14.5395151
| 12>     C       17.2265014   17.8239767   16.3229954
| 13>     C       17.0936441   19.1079481   15.9251554
| 14>     C       16.6832438   19.5482936   14.5368550
| 15>     N       17.3818106   20.1667566   16.7874597
| 16>     C       18.0398298   20.0188843   17.9804494
| 17>     S       18.4557844   21.3182019   18.9150280
| 18>     N       18.3578872   18.7338804   18.3502480
| 19>     C       17.9149947   17.5106101   17.6514194
| 20>     C       17.1752674   16.5209229   18.5356564
| 21>     C       17.6839475   15.2252553   18.7384260
| 22>     C       17.0085095   14.3174365   19.5717407
| 23>     C       15.8146588   14.7083065   20.2027760
| 24>     C       15.3065506   15.9990137   20.0004465
| 25>     O       14.1507011   16.3769938   20.6013909
| 26>     C       15.9829167   16.9020562   19.1740714
| 27>     H       15.3133928   14.6165854   17.2541592
| 28>     H       14.4970567   14.0027411   15.8039783
| 29>     H       13.6012213   14.9969507   16.9749959
| 30>     H       14.2606203   16.3156508   14.9021326
| 31>     H       14.9403437   16.9789790   16.4019777
| 32>     H       17.5119192   19.4009427   13.8307919
| 33>     H       16.3967561   20.6062583   14.4989533
| 34>     H       15.8302518   18.9636055   14.1713012
| 35>     H       17.1983444   21.1161653   16.5036356
| 36>     H       18.8350784   18.6549713   19.2396939
| 37>     H       18.8930251   17.0944451   17.3669424
| 38>     H       18.6049599   14.9198339   18.2475935
| 39>     H       17.4089391   13.3162277   19.7233079
| 40>     H       15.2885465   14.0088968   20.8443927
| 41>     H       13.8691134   15.6488994   21.1761609
| 42>     H       15.5826867   17.9014375   19.0385569
| 43> *
| 44>
| 45>                          ****END OF INPUT****

CARTESIAN COORDINATES (ANGSTROEM)
---------------------------------
  C     14.572747   14.859342   16.485183
  C     14.975610   16.126681   15.713348
  O     16.291050   15.898918   15.166370
  C     17.331463   16.786335   15.260892
  O     18.307627   16.707597   14.539515
  C     17.226501   17.823977   16.322995
  C     17.093644   19.107948   15.925155
  C     16.683244   19.548294   14.536855
  N     17.381811   20.166757   16.787460
  C     18.039830   20.018884   17.980449
  S     18.455784   21.318202   18.915028
  N     18.357887   18.733880   18.350248
  C     17.914995   17.510610   17.651419
  C     17.175267   16.520923   18.535656
  C     17.683947   15.225255   18.738426
  C     17.008509   14.317436   19.571741
  C     15.814659   14.708307   20.202776
  C     15.306551   15.999014   20.000446
  O     14.150701   16.376994   20.601391
  C     15.982917   16.902056   19.174071
  H     15.313393   14.616585   17.254159
  H     14.497057   14.002741   15.803978
  H     13.601221   14.996951   16.974996
  H     14.260620   16.315651   14.902133
  H     14.940344   16.978979   16.401978
  H     17.511919   19.400943   13.830792
  H     16.396756   20.606258   14.498953
  H     15.830252   18.963605   14.171301
  H     17.198344   21.116165   16.503636
  H     18.835078   18.654971   19.239694
  H     18.893025   17.094445   17.366942
  H     18.604960   14.919834   18.247594
  H     17.408939   13.316228   19.723308
  H     15.288547   14.008897   20.844393
  H     13.869113   15.648899   21.176161
  H     15.582687   17.901438   19.038557

 Total Charge           Charge          ....    0
 Multiplicity           Mult            ....    1
 Number of Electrons    NEL             ....  154
 Basis Dimension        Dim             ....  828

ORBITAL ENERGIES
----------------

  NO   OCC          E(Eh)            E(eV)
   0   2.0000     -91.888821     -2500.4220
   1   2.0000     -20.605663      -560.7086
   2   2.0000     -20.601485      -560.5949
   3   2.0000     -20.552165      -559.2528
   4   2.0000     -15.625324      -425.1867
   5   2.0000     -15.610139      -424.7735
   6   2.0000     -11.397365      -310.1381
   7   2.0000     -11.384624      -309.7914
   8   2.0000     -11.325559      -308.1841
   9   2.0000     -11.323667      -308.1327
  10   2.0000     -11.315794      -307.9184
  11   2.0000     -11.301880      -307.5398
  12   2.0000     -11.270453      -306.6846
  13   2.0000     -11.264553      -306.5241
  14   2.0000     -11.260577      -306.4159
  15   2.0000     -11.255984      -306.2909
  16   2.0000     -11.253410      -306.2208
  17   2.0000     -11.248941      -306.0992
  18   2.0000     -11.248564      -306.0890
  19   2.0000     -11.225543      -305.4626
  20   2.0000      -8.893917      -242.0158
  21   2.0000      -6.575498      -178.9284
  22   2.0000      -6.573489      -178.8737
  23   2.0000      -6.572908      -178.8579
  24   2.0000      -1.447305       -39.3832
  25   2.0000      -1.425351       -38.7858
  26   2.0000      -1.361986       -37.0615
  27   2.0000      -1.338614       -36.4255
  28   2.0000      -1.238591       -33.7038
  29   2.0000      -1.167294       -31.7637
  30   2.0000      -1.127039       -30.6683
  31   2.0000      -1.052359       -28.6361
  32   2.0000      -1.036250       -28.1978
  33   2.0000      -1.025142       -27.8955
  34   2.0000      -1.004952       -27.3461
  35   2.0000      -0.989427       -26.9237
  36   2.0000      -0.927629       -25.2421
  37   2.0000      -0.881770       -23.9942
  38   2.0000      -0.852824       -23.2065
  39   2.0000      -0.844521       -22.9806
  40   2.0000      -0.843638       -22.9566
  41   2.0000      -0.837168       -22.7805
  42   2.0000      -0.758286       -20.6340
  43   2.0000      -0.739475       -20.1221
  44   2.0000      -0.732141       -19.9226
  45   2.0000      -0.704462       -19.1694
  46   2.0000      -0.694007       -18.8849
  47   2.0000      -0.681651       -18.5487
  48   2.0000      -0.676541       -18.4096
  49   2.0000      -0.661206       -17.9923
  50   2.0000      -0.653696       -17.7880
  51   2.0000      -0.640748       -17.4356
  52   2.0000      -0.637801       -17.3554
  53   2.0000      -0.615693       -16.7539
  54   2.0000      -0.613882       -16.7046
  55   2.0000      -0.606683       -16.5087
  56   2.0000      -0.604105       -16.4385
  57   2.0000      -0.584219       -15.8974
  58   2.0000      -0.579579       -15.7712
  59   2.0000      -0.568267       -15.4633
  60   2.0000      -0.561476       -15.2786
  61   2.0000      -0.552713       -15.0401
  62   2.0000      -0.539455       -14.6793
  63   2.0000      -0.535918       -14.5831
  64   2.0000      -0.526636       -14.3305
  65   2.0000      -0.515490       -14.0272
  66   2.0000      -0.504444       -13.7266
  67   2.0000      -0.501476       -13.6459
  68   2.0000      -0.492593       -13.4042
  69   2.0000      -0.467096       -12.7103
  70   2.0000      -0.455299       -12.3893
  71   2.0000      -0.450069       -12.2470
  72   2.0000      -0.359080        -9.7711
  73   2.0000      -0.352096        -9.5810
  74   2.0000      -0.332995        -9.0613
  75   2.0000      -0.327675        -8.9165
  76   2.0000      -0.317927        -8.6512
  77   0.0000       0.087852         2.3906
  78   0.0000       0.096104         2.6151
  79   0.0000       0.118700         3.2300
  80   0.0000       0.124801         3.3960
  81   0.0000       0.132491         3.6053

MULLIKEN ATOMIC CHARGES
-----------------------
   0 C :   -0.276994
   1 C :    0.023016
   2 O :   -0.308437
   3 C :    0.412553
   4 O :   -0.380963
   5 C :   -0.241399
   6 C :    0.159851
   7 C :   -0.301121
   8 N :   -0.133014
   9 C :    0.214507
  10 S :   -0.443507
  11 N :   -0.212123
  12 C :    0.042279
  13 C :    0.010904
  14 C :   -0.189184
  15 C :   -0.131025
  16 C :   -0.270498
  17 C :    0.314305
  18 O :   -0.358712
  19 C :   -0.244593
  20 H :    0.107251
  21 H :    0.110287
  22 H :    0.090969
  23 H :    0.110905
  24 H :    0.094802
  25 H :    0.145714
  26 H :    0.100581
  27 H :    0.115950
  28 H :    0.196297
  29 H :    0.199749
  30 H :    0.163804
  31 H :    0.161028
  32 H :    0.164958
  33 H :    0.134522
  34 H :    0.242416
  35 H :    0.174924
Sum of atomic charges:   -0.0000000

LOEWDIN ATOMIC CHARGES
----------------------
   0 C :    0.107614
   1 C :   -0.018891
   2 O :    0.310562
   3 C :   -0.416773
   4 O :    0.125228
   5 C :   -0.091684
   6 C :   -0.093612
   7 C :    0.129089
   8 N :    0.402926
   9 C :   -0.453447
  10 S :   -0.038596
  11 N :    0.395306
  12 C :   -0.054395
  13 C :   -0.044536
  14 C :    0.016844
  15 C :    0.045346
  16 C :    0.003555
  17 C :   -0.189746
  18 O :    0.396963
  19 C :    0.034407
  20 H :   -0.025744
  21 H :   -0.027009
  22 H :   -0.026019
  23 H :   -0.031359
  24 H :   -0.041521
  25 H :   -0.002979
  26 H :   -0.018735
  27 H :   -0.011842
  28 H :   -0.059441
  29 H :   -0.064335
  30 H :   -0.006697
  31 H :   -0.025185
  32 H :   -0.018274
  33 H :   -0.033351
  34 H :   -0.151839
  35 H :   -0.021830

  Mayer bond orders larger than 0.100000
B(  0-C ,  1-C ) :   0.9785 B(  0-C , 20-H ) :   0.9718 B(  0-C , 21-H ) :   0.9805
B(  0-C , 22-H ) :   0.9748 B(  1-C ,  2-O ) :   0.9027 B(  1-C , 23-H ) :   0.9780
B(  1-C , 24-H ) :   0.9553 B(  2-O ,  3-C ) :   1.1984 B(  3-C ,  4-O ) :   2.1233
B(  3-C ,  5-C ) :   0.9167 B(  5-C ,  6-C ) :   1.7188 B(  5-C , 12-C ) :   0.9545
B(  6-C ,  7-C ) :   0.9319 B(  6-C ,  8-N ) :   1.1161 B(  7-C , 25-H ) :   0.9610
B(  7-C , 26-H ) :   0.9868 B(  7-C , 27-H ) :   0.9780 B(  8-N ,  9-C ) :   1.2002
B(  8-N , 28-H ) :   0.9494 B(  9-C , 10-S ) :   1.6095 B(  9-C , 11-N ) :   1.2881
B( 11-N , 12-C ) :   0.9808 B( 11-N , 29-H ) :   0.9479 B( 12-C , 13-C ) :   0.9622
B( 12-C , 30-H ) :   0.9994 B( 13-C , 14-C ) :   1.3714 B( 13-C , 19-C ) :   1.3546
B( 14-C , 15-C ) :   1.3895 B( 14-C , 31-H ) :   0.9679 B( 15-C , 16-C ) :   1.3673
B( 15-C , 32-H ) :   0.9704 B( 16-C , 17-C ) :   1.3268 B( 16-C , 33-H ) :   0.9841
B( 17-C , 18-O ) :   1.1063 B( 17-C , 19-C ) :   1.3635 B( 18-O , 34-H ) :   0.9782
B( 19-C , 35-H ) :   0.9574

MP2 TOTAL ENERGY:    -1274.326959429 Eh
FINAL SINGLE POINT ENERGY     -1274.326959429244

DIPOLE MOMENT
-------------
                                X             Y             Z
Electronic contribution:      9.31110       9.22125       5.13107
Nuclear contribution   :    -11.04140     -10.61208      -4.94434
                        -----------------------------------------
Total Dipole Moment    :     -1.73029      -1.39083       0.18673
                        -----------------------------------------
Magnitude (a.u.)       :      2.22782
Magnitude (Debye)      :      5.66268

Rotational constants in cm-1:     0.012546     0.008760     0.006313
Rotational constants in MHz :   376.113245   262.620797   189.246395

                             ****ORCA TERMINATED NORMALLY****
TOTAL RUN TIME: 0 days 1 hours 40 minutes 26 seconds 380 msec
