                         Program Version 4.2.0 -  RELEASE  -
|  1> ! ri-mp2 cc-pvtz cc-pvtz/c TightSCF NoKeepInts
|  2>
|  3> %scf
|  4>   MaxCore 4096
|  5> end
|  6> *xyz  0  1
|  7>     C       14.0774268   15.0695413   15.4584805
|  8>     C       15.1806714   15.8259327   16.2158887
|  9>     O       16.2977977   15.9506329   15.3158596
| 10>     C       17.0667369   17.0803526   15.2256407
| 11>     O       17.6998196   17.3278981   14.2163627
| 12>     C       17.0782246   17.9869168   16.4150736
| 13>     C       16.8947053   19.3096967   16.1963490
| 14>     C       16.2891483   19.9201736   14.9506596
| 15>     N       17.2816862   20.2637396   17.1384960
| 16>     C       18.0879476   19.9925030   18.2117535
| 17>     S       18.6153128   21.1808455   19.2336252
| 18>     N       18.4569937   18.6806144   18.3826742
| 19>     C       17.9284426   17.5377598   17.6115855
| 20>     C       17.3328848   16.4434984   18.4805736
| 21>     C       17.8347267   15.1305358   18.4199686
| 22>     C       17.2776425   14.1183572   19.2194838
| 23>     C       16.2147859   14.4231980   20.0874301
| 24>     C       15.7185400   15.7324111   20.1538610
| 25>     O       14.6891479   16.0286048   20.9858649
| 26>     C       16.2728990   16.7378592   19.3553009
| 27>     H       13.1947446   14.9352234   16.0954457
| 28>     H       14.4323134   14.0782963   15.1493932
| 29>     H       13.7742261   15.6228239   14.5608057
| 30>     H       14.7910431   16.8062248   16.5203100
| 31>     H       15.4600848   15.2558226   17.1086653
| 32>     H       15.4895982   19.2873546   14.5459024
| 33>     H       17.0523777   20.0224128   14.1675156
| 34>     H       15.8588569   20.9116343   15.1358735
| 35>     H       17.0578139   21.2355996   16.9935398
| 36>     H       19.0448047   18.5093382   19.1891347
| 37>     H       18.8658948   17.1780248   17.1622897
| 38>     H       18.6528295   14.8912700   17.7446434
| 39>     H       17.6692047   13.1036389   19.1642822
| 40>     H       15.7818112   13.6436320   20.7060889
| 41>     H       14.4862208   15.2302958   21.4971248
| 42>     H       15.8796354   17.7473365   19.4220536
| 43> *
| 44>
| 45>                          ****END OF INPUT****

CARTESIAN COORDINATES (ANGSTROEM)
---------------------------------
  C     14.077427   15.069541   15.458480
  C     15.180671   15.825933   16.215889
  O     16.297798   15.950633   15.315860
  C     17.066737   17.080353   15.225641
  O     17.699820   17.327898   14.216363
  C     17.078225   17.986917   16.415074
  C     16.894705   19.309697   16.196349
  C     16.289148   19.920174   14.950660
  N     17.281686   20.263740   17.138496
  C     18.087948   19.992503   18.211753
  S     18.615313   21.180846   19.233625
  N     18.456994   18.680614   18.382674
  C     17.928443   17.537760   17.611586
  C     17.332885   16.443498   18.480574
  C     17.834727   15.130536   18.419969
  C     17.277642   14.118357   19.219484
  C     16.214786   14.423198   20.087430
  C     15.718540   15.732411   20.153861
  O     14.689148   16.028605   20.985865
  C     16.272899   16.737859   19.355301
  H     13.194745   14.935223   16.095446
  H     14.432313   14.078296   15.149393
  H     13.774226   15.622824   14.560806
  H     14.791043   16.806225   16.520310
  H     15.460085   15.255823   17.108665
  H     15.489598   19.287355   14.545902
  H     17.052378   20.022413   14.167516
  H     15.858857   20.911634   15.135873
  H     17.057814   21.235600   16.993540
  H     19.044805   18.509338   19.189135
  H     18.865895   17.178025   17.162290
  H     18.652829   14.891270   17.744643
  H     17.669205   13.103639   19.164282
  H     15.781811   13.643632   20.706089
  H     14.486221   15.230296   21.497125
  H     15.879635   17.747336   19.422054

 Total Charge           Charge          ....    0
 Multiplicity           Mult            ....    1
 Number of Electrons    NEL             ....  154
 Basis Dimension        Dim             ....  828

ORBITAL ENERGIES
----------------

  NO   OCC          E(Eh)            E(eV)
   0   2.0000     -91.890066     -2500.4558
   1   2.0000     -20.605773      -560.7116
   2   2.0000     -20.598700      -560.5191
   3   2.0000     -20.549442      -559.1788
   4   2.0000     -15.626973      -425.2316
   5   2.0000     -15.610877      -424.7936
   6   2.0000     -11.395408      -310.0848
   7   2.0000     -11.385408      -309.8127
   8   2.0000     -11.329028      -308.2785
   9   2.0000     -11.324280      -308.1493
  10   2.0000     -11.316988      -307.9509
  11   2.0000     -11.296845      -307.4028
  12   2.0000     -11.270281      -306.6799
  13   2.0000     -11.265585      -306.5521
  14   2.0000     -11.257095      -306.3211
  15   2.0000     -11.256846      -306.3143
  16   2.0000     -11.254599      -306.2532
  17   2.0000     -11.249130      -306.1044
  18   2.0000     -11.248388      -306.0842
  19   2.0000     -11.228929      -305.5547
  20   2.0000      -8.895143      -242.0492
  21   2.0000      -6.576717      -178.9616
  22   2.0000      -6.574715      -178.9071
  23   2.0000      -6.574127      -178.8911
  24   2.0000      -1.446574       -39.3633
  25   2.0000      -1.425548       -38.7911
  26   2.0000      -1.359816       -37.0025
  27   2.0000      -1.340209       -36.4689
  28   2.0000      -1.240061       -33.7438
  29   2.0000      -1.167631       -31.7728
  30   2.0000      -1.125621       -30.6297
  31   2.0000      -1.052013       -28.6267
  32   2.0000      -1.036151       -28.1951
  33   2.0000      -1.025583       -27.9075
  34   2.0000      -1.003431       -27.3047
  35   2.0000      -0.989315       -26.9206
  36   2.0000      -0.927629       -25.2421
  37   2.0000      -0.878678       -23.9100
  38   2.0000      -0.852975       -23.2106
  39   2.0000      -0.844867       -22.9900
  40   2.0000      -0.844418       -22.9778
  41   2.0000      -0.837858       -22.7993
  42   2.0000      -0.759858       -20.6768
  43   2.0000      -0.740460       -20.1489
  44   2.0000      -0.726287       -19.7633
  45   2.0000      -0.704513       -19.1708
  46   2.0000      -0.693281       -18.8651
  47   2.0000      -0.677576       -18.4378
  48   2.0000      -0.676276       -18.4024
  49   2.0000      -0.670673       -18.2499
  50   2.0000      -0.651411       -17.7258
  51   2.0000      -0.649202       -17.6657
  52   2.0000      -0.637156       -17.3379
  53   2.0000      -0.615429       -16.7467
  54   2.0000      -0.609751       -16.5922
  55   2.0000      -0.604755       -16.4562
  56   2.0000      -0.589442       -16.0395
  57   2.0000      -0.583208       -15.8699
  58   2.0000      -0.575972       -15.6730
  59   2.0000      -0.570546       -15.5253
  60   2.0000      -0.563041       -15.3211
  61   2.0000      -0.556399       -15.1404
  62   2.0000      -0.547473       -14.8975
  63   2.0000      -0.531417       -14.4606
  64   2.0000      -0.524179       -14.2636
  65   2.0000      -0.516977       -14.0677
  66   2.0000      -0.505915       -13.7667
  67   2.0000      -0.503343       -13.6967
  68   2.0000      -0.488238       -13.2856
  69   2.0000      -0.469444       -12.7742
  70   2.0000      -0.453704       -12.3459
  71   2.0000      -0.447252       -12.1703
  72   2.0000      -0.359103        -9.7717
  73   2.0000      -0.352529        -9.5928
  74   2.0000      -0.333661        -9.0794
  75   2.0000      -0.328772        -8.9463
  76   2.0000      -0.319553        -8.6955
  77   0.0000       0.083569         2.2740
  78   0.0000       0.094650         2.5755
  79   0.0000       0.117083         3.1860
  80   0.0000       0.125765         3.4222
  81   0.0000       0.129637         3.5276

MULLIKEN ATOMIC CHARGES
-----------------------
   0 C :   -0.254169
   1 C :    0.017885
   2 O :   -0.303301
   3 C :    0.400929
   4 O :   -0.377209
   5 C :   -0.232534
   6 C :    0.159731
   7 C :   -0.282665
   8 N :   -0.132253
   9 C :    0.212354
  10 S :   -0.440660
  11 N :   -0.210800
  12 C :    0.021239
  13 C :   -0.020667
  14 C :   -0.169694
  15 C :   -0.136972
  16 C :   -0.269360
  17 C :    0.297449
  18 O :   -0.354607
  19 C :   -0.203243
  20 H :    0.088404
  21 H :    0.101097
  22 H :    0.096889
  23 H :    0.095807
  24 H :    0.109409
  25 H :    0.113089
  26 H :    0.145242
  27 H :    0.098500
  28 H :    0.197992
  29 H :    0.199430
  30 H :    0.161348
  31 H :    0.157856
  32 H :    0.164985
  33 H :    0.135750
  34 H :    0.242133
  35 H :    0.170615
Sum of atomic charges:   -0.0000000

LOEWDIN ATOMIC CHARGES
----------------------
   0 C :    0.108660
   1 C :   -0.024658
   2 O :    0.310288
   3 C :   -0.420197
   4 O :    0.123614
   5 C :   -0.096499
   6 C :   -0.082416
   7 C :    0.129346
   8 N :    0.404909
   9 C :   -0.454988
  10 S :   -0.035998
  11 N :    0.395512
  12 C :   -0.055188
  13 C :   -0.045995
  14 C :    0.017494
  15 C :    0.043784
  16 C :    0.002108
  17 C :   -0.191849
  18 O :    0.397326
  19 C :    0.035101
  20 H :   -0.026264
  21 H :   -0.024980
  22 H :   -0.027125
  23 H :   -0.036642
  24 H :   -0.030692
  25 H :   -0.010009
  26 H :   -0.003277
  27 H :   -0.020582
  28 H :   -0.057736
  29 H :   -0.063898
  30 H :   -0.009367
  31 H :   -0.025941
  32 H :   -0.018044
  33 H :   -0.032919
  34 H :   -0.151909
  35 H :   -0.020968

  Mayer bond orders larger than 0.100000
B(  0-C ,  1-C ) :   0.9818 B(  0-C , 20-H ) :   0.9778 B(  0-C , 21-H ) :   0.9796
B(  0-C , 22-H ) :   0.9794 B(  1-C ,  2-O ) :   0.8979 B(  1-C , 23-H ) :   0.9634
B(  1-C , 24-H ) :   0.9693 B(  2-O ,  3-C ) :   1.2046 B(  3-C ,  4-O ) :   2.1189
B(  3-C ,  5-C ) :   0.9305 B(  5-C ,  6-C ) :   1.6944 B(  5-C , 12-C ) :   0.9598
B(  6-C ,  7-C ) :   0.9440 B(  6-C ,  8-N ) :   1.1283 B(  7-C , 25-H ) :   0.9776
B(  7-C , 26-H ) :   0.9570 B(  7-C , 27-H ) :   0.9851 B(  8-N ,  9-C ) :   1.1974
B(  8-N , 28-H ) :   0.9491 B(  9-C , 10-S ) :   1.6125 B(  9-C , 11-N ) :   1.2891
B( 11-N , 12-C ) :   0.9790 B( 11-N , 29-H ) :   0.9476 B( 12-C , 13-C ) :   0.9597
B( 12-C , 30-H ) :   1.0062 B( 13-C , 14-C ) :   1.3664 B( 13-C , 19-C ) :   1.3602
B( 14-C , 15-C ) :   1.3964 B( 14-C , 31-H ) :   0.9693 B( 15-C , 16-C ) :   1.3640
B( 15-C , 32-H ) :   0.9700 B( 16-C , 17-C ) :   1.3261 B( 16-C , 33-H ) :   0.9832
B( 17-C , 18-O ) :   1.1114 B( 17-C , 19-C ) :   1.3706 B( 18-O , 34-H ) :   0.9783
B( 19-C , 35-H ) :   0.9591

MP2 TOTAL ENERGY:    -1274.325815557 Eh
FINAL SINGLE POINT ENERGY     -1274.325815557153

DIPOLE MOMENT
-------------
                                X             Y             Z
Electronic contribution:     10.49433       9.04654       6.95405
Nuclear contribution   :    -12.01193     -10.65814      -6.58611
                        -----------------------------------------
Total Dipole Moment    :     -1.51760      -1.61160       0.36794
                        -----------------------------------------
Magnitude (a.u.)       :      2.24405
Magnitude (Debye)      :      5.70391

Rotational constants in cm-1:     0.011905     0.008824     0.006085
Rotational constants in MHz :   356.891208   264.539067   182.423162

                             ****ORCA TERMINATED NORMALLY****
TOTAL RUN TIME: 0 days 1 hours 47 minutes 7 seconds 999 msec
