                         Program Version 4.2.0 -  RELEASE  -
|  1> ! ri-mp2 cc-pvtz cc-pvtz/c TightSCF NoKeepInts
|  2>
|  3> %scf
|  4>   MaxCore 4096
|  5> end
|  6> *xyz  0  1
|  7>     C       14.4868232   15.2551702   16.1022428
|  8>     C       14.9421446   16.4400175   15.2321220
|  9>     O       16.2878540   16.1640081   14.7895636
| 10>     C       17.4026749   16.5226406   15.5040030
| 11>     O       18.4326348   15.8787456   15.4276056
| 12>     C       17.2611748   17.6776746   16.4412046
| 13>     C       16.9738647   18.9131491   15.9637767
| 14>     C       16.5461838   19.2675748   14.5530272
| 15>     N       17.1382213   20.0443747   16.7652456
| 16>     C       17.8112820   20.0478990   17.9588509
| 17>     S       18.0686782   21.4425870   18.8090013
| 18>     N       18.2814444   18.8352068   18.4008185
| 19>     C       17.9827207   17.5291800   17.7795577
| 20>     C       17.3034225   16.5231457   18.6957996
| 21>     C       17.7428504   15.1877054   18.7280821
| 22>     C       17.0997518   14.2443278   19.5465386
| 23>     C       16.0058816   14.6395364   20.3356373
| 24>     C       15.5619100   15.9685606   20.2996230
| 25>     O       14.4985075   16.3499539   21.0507967
| 26>     C       16.2033461   16.9055779   19.4831126
| 27>     H       15.1007041   15.1776319   17.0086291
| 28>     H       14.5722131   14.3121154   15.5476804
| 29>     H       13.4412570   15.3801670   16.4087438
| 30>     H       14.2844645   16.4991708   14.3552181
| 31>     H       14.8447886   17.3790054   15.7880582
| 32>     H       16.9185246   18.5450659   13.8158388
| 33>     H       16.9400282   20.2453485   14.2472959
| 34>     H       15.4539335   19.3067939   14.4670655
| 35>     H       16.8312162   20.9461445   16.4358500
| 36>     H       18.7702333   18.8644091   19.2869841
| 37>     H       19.0008779   17.1912486   17.5345063
| 38>     H       18.5791376   14.8781021   18.1041867
| 39>     H       17.4470570   13.2125175   19.5621709
| 40>     H       15.5051426   13.9132472   20.9673853
| 41>     H       14.2243308   15.5835485   21.5769387
| 42>     H       15.8417200   17.9284484   19.4648391
| 43> *
| 44>
| 45>                          ****END OF INPUT****

CARTESIAN COORDINATES (ANGSTROEM)
---------------------------------
  C     14.486823   15.255170   16.102243
  C     14.942145   16.440017   15.232122
  O     16.287854   16.164008   14.789564
  C     17.402675   16.522641   15.504003
  O     18.432635   15.878746   15.427606
  C     17.261175   17.677675   16.441205
  C     16.973865   18.913149   15.963777
  C     16.546184   19.267575   14.553027
  N     17.138221   20.044375   16.765246
  C     17.811282   20.047899   17.958851
  S     18.068678   21.442587   18.809001
  N     18.281444   18.835207   18.400818
  C     17.982721   17.529180   17.779558
  C     17.303422   16.523146   18.695800
  C     17.742850   15.187705   18.728082
  C     17.099752   14.244328   19.546539
  C     16.005882   14.639536   20.335637
  C     15.561910   15.968561   20.299623
  O     14.498508   16.349954   21.050797
  C     16.203346   16.905578   19.483113
  H     15.100704   15.177632   17.008629
  H     14.572213   14.312115   15.547680
  H     13.441257   15.380167   16.408744
  H     14.284464   16.499171   14.355218
  H     14.844789   17.379005   15.788058
  H     16.918525   18.545066   13.815839
  H     16.940028   20.245348   14.247296
  H     15.453933   19.306794   14.467065
  H     16.831216   20.946144   16.435850
  H     18.770233   18.864409   19.286984
  H     19.000878   17.191249   17.534506
  H     18.579138   14.878102   18.104187
  H     17.447057   13.212517   19.562171
  H     15.505143   13.913247   20.967385
  H     14.224331   15.583548   21.576939
  H     15.841720   17.928448   19.464839

 Total Charge           Charge          ....    0
 Multiplicity           Mult            ....    1
 Number of Electrons    NEL             ....  154
 Basis Dimension        Dim             ....  828

ORBITAL ENERGIES
----------------

  NO   OCC          E(Eh)            E(eV)
   0   2.0000     -91.890302     -2500.4622
   1   2.0000     -20.602703      -560.6280
   2   2.0000     -20.599827      -560.5498
   3   2.0000     -20.550094      -559.1965
   4   2.0000     -15.628879      -425.2834
   5   2.0000     -15.609879      -424.7664
   6   2.0000     -11.398935      -310.1808
   7   2.0000     -11.386169      -309.8334
   8   2.0000     -11.334820      -308.4361
   9   2.0000     -11.317248      -307.9580
  10   2.0000     -11.309967      -307.7598
  11   2.0000     -11.306236      -307.6583
  12   2.0000     -11.267047      -306.5919
  13   2.0000     -11.264550      -306.5240
  14   2.0000     -11.263403      -306.4928
  15   2.0000     -11.257461      -306.3311
  16   2.0000     -11.246502      -306.0329
  17   2.0000     -11.242459      -305.9229
  18   2.0000     -11.239594      -305.8449
  19   2.0000     -11.228981      -305.5561
  20   2.0000      -8.895401      -242.0562
  21   2.0000      -6.576980      -178.9687
  22   2.0000      -6.574970      -178.9140
  23   2.0000      -6.574386      -178.8981
  24   2.0000      -1.448873       -39.4258
  25   2.0000      -1.419563       -38.6283
  26   2.0000      -1.361836       -37.0574
  27   2.0000      -1.341459       -36.5029
  28   2.0000      -1.239673       -33.7332
  29   2.0000      -1.161663       -31.6104
  30   2.0000      -1.126737       -30.6601
  31   2.0000      -1.048863       -28.5410
  32   2.0000      -1.037470       -28.2310
  33   2.0000      -1.019277       -27.7359
  34   2.0000      -1.006092       -27.3772
  35   2.0000      -0.990179       -26.9441
  36   2.0000      -0.926858       -25.2211
  37   2.0000      -0.889385       -24.2014
  38   2.0000      -0.854709       -23.2578
  39   2.0000      -0.842361       -22.9218
  40   2.0000      -0.837148       -22.7799
  41   2.0000      -0.834789       -22.7158
  42   2.0000      -0.751194       -20.4410
  43   2.0000      -0.740548       -20.1513
  44   2.0000      -0.732084       -19.9210
  45   2.0000      -0.697483       -18.9795
  46   2.0000      -0.689429       -18.7603
  47   2.0000      -0.682294       -18.5662
  48   2.0000      -0.676059       -18.3965
  49   2.0000      -0.661634       -18.0040
  50   2.0000      -0.655801       -17.8453
  51   2.0000      -0.645150       -17.5554
  52   2.0000      -0.637858       -17.3570
  53   2.0000      -0.616165       -16.7667
  54   2.0000      -0.610109       -16.6019
  55   2.0000      -0.607359       -16.5271
  56   2.0000      -0.602831       -16.4039
  57   2.0000      -0.584779       -15.9127
  58   2.0000      -0.577694       -15.7198
  59   2.0000      -0.567722       -15.4485
  60   2.0000      -0.562372       -15.3029
  61   2.0000      -0.552902       -15.0452
  62   2.0000      -0.548531       -14.9263
  63   2.0000      -0.532799       -14.4982
  64   2.0000      -0.520299       -14.1580
  65   2.0000      -0.512838       -13.9550
  66   2.0000      -0.504840       -13.7374
  67   2.0000      -0.501542       -13.6476
  68   2.0000      -0.487103       -13.2547
  69   2.0000      -0.470290       -12.7972
  70   2.0000      -0.455947       -12.4070
  71   2.0000      -0.449722       -12.2376
  72   2.0000      -0.356650        -9.7049
  73   2.0000      -0.352440        -9.5904
  74   2.0000      -0.329727        -8.9723
  75   2.0000      -0.324895        -8.8409
  76   2.0000      -0.320020        -8.7082
  77   0.0000       0.082214         2.2372
  78   0.0000       0.103194         2.8080
  79   0.0000       0.116356         3.1662
  80   0.0000       0.129268         3.5176
  81   0.0000       0.130429         3.5491

MULLIKEN ATOMIC CHARGES
-----------------------
   0 C :   -0.275143
   1 C :    0.019907
   2 O :   -0.327033
   3 C :    0.417893
   4 O :   -0.382361
   5 C :   -0.225362
   6 C :    0.151802
   7 C :   -0.319131
   8 N :   -0.136819
   9 C :    0.208812
  10 S :   -0.441556
  11 N :   -0.221214
  12 C :    0.064686
  13 C :   -0.000947
  14 C :   -0.207378
  15 C :   -0.129798
  16 C :   -0.274318
  17 C :    0.307575
  18 O :   -0.356946
  19 C :   -0.230449
  20 H :    0.110252
  21 H :    0.108382
  22 H :    0.091852
  23 H :    0.115508
  24 H :    0.094271
  25 H :    0.138623
  26 H :    0.124423
  27 H :    0.121693
  28 H :    0.198302
  29 H :    0.201929
  30 H :    0.166631
  31 H :    0.175409
  32 H :    0.164148
  33 H :    0.132373
  34 H :    0.241379
  35 H :    0.172603
Sum of atomic charges:   -0.0000000

LOEWDIN ATOMIC CHARGES
----------------------
   0 C :    0.107771
   1 C :   -0.023508
   2 O :    0.306281
   3 C :   -0.417219
   4 O :    0.120244
   5 C :   -0.088325
   6 C :   -0.087890
   7 C :    0.127964
   8 N :    0.402876
   9 C :   -0.456542
  10 S :   -0.037326
  11 N :    0.396076
  12 C :   -0.049537
  13 C :   -0.045456
  14 C :    0.020062
  15 C :    0.044249
  16 C :   -0.000103
  17 C :   -0.191494
  18 O :    0.395351
  19 C :    0.027217
  20 H :   -0.024649
  21 H :   -0.023102
  22 H :   -0.026415
  23 H :   -0.025201
  24 H :   -0.039672
  25 H :   -0.006124
  26 H :   -0.012644
  27 H :   -0.016425
  28 H :   -0.057635
  29 H :   -0.063600
  30 H :   -0.004432
  31 H :   -0.021243
  32 H :   -0.018514
  33 H :   -0.034613
  34 H :   -0.153105
  35 H :   -0.023320

  Mayer bond orders larger than 0.100000
B(  0-C ,  1-C ) :   0.9808 B(  0-C , 20-H ) :   0.9684 B(  0-C , 21-H ) :   0.9783
B(  0-C , 22-H ) :   0.9760 B(  1-C ,  2-O ) :   0.8939 B(  1-C , 23-H ) :   0.9799
B(  1-C , 24-H ) :   0.9617 B(  2-O ,  3-C ) :   1.1661 B(  3-C ,  4-O ) :   2.0945
B(  3-C ,  5-C ) :   0.9285 B(  5-C ,  6-C ) :   1.7148 B(  5-C , 12-C ) :   0.9365
B(  6-C ,  7-C ) :   0.9369 B(  6-C ,  8-N ) :   1.1134 B(  7-C , 25-H ) :   0.9719
B(  7-C , 26-H ) :   0.9817 B(  7-C , 27-H ) :   0.9652 B(  8-N ,  9-C ) :   1.1938
B(  8-N , 28-H ) :   0.9498 B(  9-C , 10-S ) :   1.6112 B(  9-C , 11-N ) :   1.2921
B( 11-N , 12-C ) :   0.9849 B( 11-N , 29-H ) :   0.9479 B( 12-C , 13-C ) :   0.9672
B( 12-C , 30-H ) :   0.9903 B( 13-C , 14-C ) :   1.3893 B( 13-C , 19-C ) :   1.3574
B( 14-C , 15-C ) :   1.3918 B( 14-C , 31-H ) :   0.9592 B( 15-C , 16-C ) :   1.3609
B( 15-C , 32-H ) :   0.9704 B( 16-C , 17-C ) :   1.3315 B( 16-C , 33-H ) :   0.9847
B( 17-C , 18-O ) :   1.1095 B( 17-C , 19-C ) :   1.3667 B( 18-O , 34-H ) :   0.9793
B( 19-C , 35-H ) :   0.9563

MP2 TOTAL ENERGY:    -1274.332796493 Eh
FINAL SINGLE POINT ENERGY     -1274.332796492762

DIPOLE MOMENT
-------------
                                X             Y             Z
Electronic contribution:      9.43961       8.33675       6.73435
Nuclear contribution   :    -11.10536      -9.39551      -7.13411
                        -----------------------------------------
Total Dipole Moment    :     -1.66576      -1.05876      -0.39976
                        -----------------------------------------
Magnitude (a.u.)       :      2.01383
Magnitude (Debye)      :      5.11876

Rotational constants in cm-1:     0.011637     0.009111     0.006402
Rotational constants in MHz :   348.879825   273.136598   191.919273

                             ****ORCA TERMINATED NORMALLY****
TOTAL RUN TIME: 0 days 1 hours 44 minutes 5 seconds 152 msec
