                         Program Version 4.2.0 -  RELEASE  -
|  1> ! ri-mp2 cc-pvtz cc-pvtz/c TightSCF NoKeepInts
|  2>
|  3> %scf
|  4>   MaxCore 4096
|  5> end
|  6> *xyz  0  1
|  7>     C       15.1714239   14.5542287   14.1144129
|  8>     C       14.6184418   15.9862805   14.2771875
|  9>     O       15.4408402   16.9135272   15.0366770
| 10>     C       16.4872106   16.6314084   15.8790269
| 11>     O       17.0138166   15.5379614   15.9883372
| 12>     C       16.8968200   17.7883266   16.7500728
| 13>     C       16.7789569   19.0869374   16.3618640
| 14>     C       16.0444714   19.6422605   15.1567926
| 15>     N       17.4152668   20.1057715   17.0760632
| 16>     C       18.3601925   19.9015202   18.0445227
| 17>     S       19.1539983   21.1589961   18.7686577
| 18>     N       18.6303123   18.5960554   18.3655979
| 19>     C       17.8848363   17.4240902   17.8673982
| 20>     C       17.2640840   16.5922785   18.9822548
| 21>     C       17.5485697   15.2195811   19.0967266
| 22>     C       16.9774488   14.4547380   20.1276632
| 23>     C       16.1156470   15.0683762   21.0529301
| 24>     C       15.8290066   16.4358422   20.9399765
| 25>     O       14.9942181   17.0299172   21.8297155
| 26>     C       16.3986850   17.1943156   19.9123021
| 27>     H       16.1819032   14.5675358   13.6868571
| 28>     H       14.5294521   13.9749013   13.4401262
| 29>     H       15.1987372   14.0274272   15.0766162
| 30>     H       14.4444390   16.4125399   13.2808892
| 31>     H       13.6389092   15.9126244   14.7671380
| 32>     H       14.9673902   19.4493678   15.2368284
| 33>     H       16.4063164   19.1772720   14.2312798
| 34>     H       16.1725841   20.7254436   15.0411165
| 35>     H       17.2434294   21.0689810   16.8364873
| 36>     H       19.3153483   18.4718014   19.1002722
| 37>     H       18.6989795   16.8695347   17.3783820
| 38>     H       18.2029154   14.7416369   18.3714303
| 39>     H       17.1995441   13.3917629   20.2018682
| 40>     H       15.6711857   14.4811072   21.8494354
| 41>     H       14.7238125   16.3536645   22.4686619
| 42>     H       16.1678070   18.2519864   19.8424319
| 43> *
| 44>
| 45>                          ****END OF INPUT****

CARTESIAN COORDINATES (ANGSTROEM)
---------------------------------
  C     15.171424   14.554229   14.114413
  C     14.618442   15.986280   14.277188
  O     15.440840   16.913527   15.036677
  C     16.487211   16.631408   15.879027
  O     17.013817   15.537961   15.988337
  C     16.896820   17.788327   16.750073
  C     16.778957   19.086937   16.361864
  C     16.044471   19.642260   15.156793
  N     17.415267   20.105771   17.076063
  C     18.360193   19.901520   18.044523
  S     19.153998   21.158996   18.768658
  N     18.630312   18.596055   18.365598
  C     17.884836   17.424090   17.867398
  C     17.264084   16.592278   18.982255
  C     17.548570   15.219581   19.096727
  C     16.977449   14.454738   20.127663
  C     16.115647   15.068376   21.052930
  C     15.829007   16.435842   20.939977
  O     14.994218   17.029917   21.829715
  C     16.398685   17.194316   19.912302
  H     16.181903   14.567536   13.686857
  H     14.529452   13.974901   13.440126
  H     15.198737   14.027427   15.076616
  H     14.444439   16.412540   13.280889
  H     13.638909   15.912624   14.767138
  H     14.967390   19.449368   15.236828
  H     16.406316   19.177272   14.231280
  H     16.172584   20.725444   15.041116
  H     17.243429   21.068981   16.836487
  H     19.315348   18.471801   19.100272
  H     18.698980   16.869535   17.378382
  H     18.202915   14.741637   18.371430
  H     17.199544   13.391763   20.201868
  H     15.671186   14.481107   21.849435
  H     14.723812   16.353665   22.468662
  H     16.167807   18.251986   19.842432

 Total Charge           Charge          ....    0
 Multiplicity           Mult            ....    1
 Number of Electrons    NEL             ....  154
 Basis Dimension        Dim             ....  828

ORBITAL ENERGIES
----------------

  NO   OCC          E(Eh)            E(eV)
   0   2.0000     -91.886690     -2500.3639
   1   2.0000     -20.601175      -560.5865
   2   2.0000     -20.590943      -560.3080
   3   2.0000     -20.543463      -559.0160
   4   2.0000     -15.626684      -425.2237
   5   2.0000     -15.604438      -424.6183
   6   2.0000     -11.399407      -310.1936
   7   2.0000     -11.381109      -309.6957
   8   2.0000     -11.335889      -308.4652
   9   2.0000     -11.307608      -307.6957
  10   2.0000     -11.306902      -307.6764
  11   2.0000     -11.302860      -307.5664
  12   2.0000     -11.259706      -306.3922
  13   2.0000     -11.257784      -306.3399
  14   2.0000     -11.254045      -306.2381
  15   2.0000     -11.247074      -306.0484
  16   2.0000     -11.237207      -305.7800
  17   2.0000     -11.233175      -305.6702
  18   2.0000     -11.230037      -305.5849
  19   2.0000     -11.225161      -305.4522
  20   2.0000      -8.891789      -241.9579
  21   2.0000      -6.573371      -178.8705
  22   2.0000      -6.571364      -178.8159
  23   2.0000      -6.570780      -178.8000
  24   2.0000      -1.444883       -39.3173
  25   2.0000      -1.410685       -38.3867
  26   2.0000      -1.357116       -36.9290
  27   2.0000      -1.338375       -36.4190
  28   2.0000      -1.235665       -33.6241
  29   2.0000      -1.151248       -31.3271
  30   2.0000      -1.118800       -30.4441
  31   2.0000      -1.042109       -28.3572
  32   2.0000      -1.034471       -28.1494
  33   2.0000      -1.008902       -27.4536
  34   2.0000      -0.997098       -27.1324
  35   2.0000      -0.981896       -26.7188
  36   2.0000      -0.920032       -25.0353
  37   2.0000      -0.897094       -24.4112
  38   2.0000      -0.846970       -23.0472
  39   2.0000      -0.834368       -22.7043
  40   2.0000      -0.827185       -22.5088
  41   2.0000      -0.817549       -22.2466
  42   2.0000      -0.743081       -20.2203
  43   2.0000      -0.726619       -19.7723
  44   2.0000      -0.723728       -19.6936
  45   2.0000      -0.689078       -18.7508
  46   2.0000      -0.683472       -18.5982
  47   2.0000      -0.677330       -18.4311
  48   2.0000      -0.672567       -18.3015
  49   2.0000      -0.665666       -18.1137
  50   2.0000      -0.645026       -17.5520
  51   2.0000      -0.642713       -17.4891
  52   2.0000      -0.632149       -17.2016
  53   2.0000      -0.603643       -16.4260
  54   2.0000      -0.599399       -16.3105
  55   2.0000      -0.596648       -16.2356
  56   2.0000      -0.594248       -16.1703
  57   2.0000      -0.584230       -15.8977
  58   2.0000      -0.571275       -15.5452
  59   2.0000      -0.570487       -15.5237
  60   2.0000      -0.558778       -15.2051
  61   2.0000      -0.543587       -14.7918
  62   2.0000      -0.538111       -14.6427
  63   2.0000      -0.526087       -14.3156
  64   2.0000      -0.514777       -14.0078
  65   2.0000      -0.509745       -13.8709
  66   2.0000      -0.498080       -13.5534
  67   2.0000      -0.492920       -13.4130
  68   2.0000      -0.479676       -13.0526
  69   2.0000      -0.462290       -12.5795
  70   2.0000      -0.452677       -12.3180
  71   2.0000      -0.445607       -12.1256
  72   2.0000      -0.351489        -9.5645
  73   2.0000      -0.343550        -9.3485
  74   2.0000      -0.325874        -8.8675
  75   2.0000      -0.315866        -8.5952
  76   2.0000      -0.313558        -8.5324
  77   0.0000       0.079318         2.1584
  78   0.0000       0.112616         3.0644
  79   0.0000       0.121066         3.2944
  80   0.0000       0.136305         3.7090
  81   0.0000       0.139059         3.7840

MULLIKEN ATOMIC CHARGES
-----------------------
   0 C :   -0.287706
   1 C :    0.049478
   2 O :   -0.359540
   3 C :    0.410839
   4 O :   -0.421864
   5 C :   -0.143788
   6 C :    0.157296
   7 C :   -0.283811
   8 N :   -0.129041
   9 C :    0.207567
  10 S :   -0.444813
  11 N :   -0.210856
  12 C :    0.038676
  13 C :    0.032526
  14 C :   -0.169701
  15 C :   -0.134552
  16 C :   -0.277183
  17 C :    0.314130
  18 O :   -0.359010
  19 C :   -0.249948
  20 H :    0.107045
  21 H :    0.097114
  22 H :    0.115022
  23 H :    0.091222
  24 H :    0.091039
  25 H :    0.129677
  26 H :    0.123099
  27 H :    0.102762
  28 H :    0.198416
  29 H :    0.199759
  30 H :    0.155995
  31 H :    0.159386
  32 H :    0.159620
  33 H :    0.127917
  34 H :    0.239735
  35 H :    0.163492
Sum of atomic charges:    0.0000000

LOEWDIN ATOMIC CHARGES
----------------------
   0 C :    0.102416
   1 C :   -0.008381
   2 O :    0.292983
   3 C :   -0.412566
   4 O :    0.114094
   5 C :   -0.089821
   6 C :   -0.065159
   7 C :    0.124115
   8 N :    0.404917
   9 C :   -0.459046
  10 S :   -0.039495
  11 N :    0.396543
  12 C :   -0.048238
  13 C :   -0.040293
  14 C :    0.024161
  15 C :    0.040458
  16 C :   -0.001396
  17 C :   -0.192380
  18 O :    0.393090
  19 C :    0.030045
  20 H :   -0.025039
  21 H :   -0.027865
  22 H :   -0.024316
  23 H :   -0.027633
  24 H :   -0.028262
  25 H :   -0.009530
  26 H :   -0.010110
  27 H :   -0.021530
  28 H :   -0.059154
  29 H :   -0.063200
  30 H :   -0.008856
  31 H :   -0.024158
  32 H :   -0.021291
  33 H :   -0.036322
  34 H :   -0.155026
  35 H :   -0.023755

  Mayer bond orders larger than 0.100000
B(  0-C ,  1-C ) :   0.9819 B(  0-C , 20-H ) :   0.9738 B(  0-C , 21-H ) :   0.9726
B(  0-C , 22-H ) :   0.9728 B(  1-C ,  2-O ) :   0.9023 B(  1-C , 23-H ) :   0.9790
B(  1-C , 24-H ) :   0.9781 B(  2-O ,  3-C ) :   1.1330 B(  3-C ,  4-O ) :   1.9844
B(  3-C ,  5-C ) :   1.0446 B(  5-C ,  6-C ) :   1.6629 B(  5-C , 12-C ) :   0.9488
B(  6-C ,  7-C ) :   0.9529 B(  6-C ,  8-N ) :   1.1311 B(  7-C , 25-H ) :   0.9634
B(  7-C , 26-H ) :   0.9663 B(  7-C , 27-H ) :   0.9921 B(  8-N ,  9-C ) :   1.1873
B(  8-N , 28-H ) :   0.9471 B(  9-C , 10-S ) :   1.6057 B(  9-C , 11-N ) :   1.3067
B( 11-N , 12-C ) :   0.9762 B( 11-N , 29-H ) :   0.9487 B( 12-C , 13-C ) :   0.9744
B( 12-C , 30-H ) :   0.9971 B( 13-C , 14-C ) :   1.3755 B( 13-C , 19-C ) :   1.3673
B( 14-C , 15-C ) :   1.3968 B( 14-C , 31-H ) :   0.9638 B( 15-C , 16-C ) :   1.3588
B( 15-C , 32-H ) :   0.9713 B( 16-C , 17-C ) :   1.3333 B( 16-C , 33-H ) :   0.9861
B( 17-C , 18-O ) :   1.1033 B( 17-C , 19-C ) :   1.3672 B( 18-O , 34-H ) :   0.9808
B( 19-C , 35-H ) :   0.9600

MP2 TOTAL ENERGY:    -1274.329550838 Eh
FINAL SINGLE POINT ENERGY     -1274.329550838194

DIPOLE MOMENT
-------------
                                X             Y             Z
Electronic contribution:      8.86205      10.29558      11.92908
Nuclear contribution   :    -10.46506     -11.51899     -13.07798
                        -----------------------------------------
Total Dipole Moment    :     -1.60300      -1.22341      -1.14891
                        -----------------------------------------
Magnitude (a.u.)       :      2.32085
Magnitude (Debye)      :      5.89913

Rotational constants in cm-1:     0.009884     0.009024     0.005506
Rotational constants in MHz :   296.327818   270.528890   165.067057

                             ****ORCA TERMINATED NORMALLY****
TOTAL RUN TIME: 0 days 1 hours 52 minutes 37 seconds 902 msec
