                         Program Version 4.2.0 -  RELEASE  -
|  1> ! ri-mp2 cc-pvtz cc-pvtz/c TightSCF NoKeepInts
|  2>
|  3> %scf
|  4>   MaxCore 4096
|  5> end
|  6> *xyz  0  1
|  7>     C       14.3784730   15.0368619   14.7249700
|  8>     C       15.7424667   14.7373905   15.3836928
|  9>     O       16.5294871   15.8938696   15.7729058
| 10>     C       16.2299012   17.2190900   15.5763950
| 11>     O       15.5156342   17.6265290   14.6777806
| 12>     C       16.8903736   18.1016214   16.6043002
| 13>     C       16.9596759   19.4472051   16.4299729
| 14>     C       16.2187152   20.2803802   15.4042324
| 15>     N       17.7862497   20.2362546   17.2333458
| 16>     C       18.7137196   19.7437067   18.1106114
| 17>     S       19.7258465   20.7349774   18.9643548
| 18>     N       18.7754011   18.3788244   18.2307262
| 19>     C       17.8505277   17.4209887   17.5961207
| 20>     C       17.1606026   16.5173899   18.6101252
| 21>     C       17.5199655   15.1614873   18.7219030
| 22>     C       16.8814041   14.3288517   19.6563714
| 23>     C       15.8784273   14.8577336   20.4869694
| 24>     C       15.5226114   16.2095582   20.3805736
| 25>     O       14.5560102   16.7229854   21.1824917
| 26>     C       16.1598677   17.0355875   19.4494439
| 27>     H       13.7716860   15.6996460   15.3546803
| 28>     H       13.8168497   14.1064924   14.5788039
| 29>     H       14.5078875   15.5019064   13.7396338
| 30>     H       15.5658371   14.1285883   16.2800129
| 31>     H       16.3348829   14.1244518   14.6923584
| 32>     H       16.5549613   20.0329042   14.3892699
| 33>     H       16.3554103   21.3589926   15.5449656
| 34>     H       15.1405931   20.0797861   15.4502900
| 35>     H       17.7660934   21.2390263   17.1387314
| 36>     H       19.4467162   18.0461847   18.9111615
| 37>     H       18.5560726   16.8450217   16.9806696
| 38>     H       18.2926560   14.7514712   18.0770523
| 39>     H       17.1645663   13.2807085   19.7357829
| 40>     H       15.3828887   14.2191775   21.2108628
| 41>     H       14.2582786   16.0135852   21.7714895
| 42>     H       15.8762599   18.0807643   19.3849484
| 43> *
| 44>
| 45>                          ****END OF INPUT****

CARTESIAN COORDINATES (ANGSTROEM)
---------------------------------
  C     14.378473   15.036862   14.724970
  C     15.742467   14.737391   15.383693
  O     16.529487   15.893870   15.772906
  C     16.229901   17.219090   15.576395
  O     15.515634   17.626529   14.677781
  C     16.890374   18.101621   16.604300
  C     16.959676   19.447205   16.429973
  C     16.218715   20.280380   15.404232
  N     17.786250   20.236255   17.233346
  C     18.713720   19.743707   18.110611
  S     19.725846   20.734977   18.964355
  N     18.775401   18.378824   18.230726
  C     17.850528   17.420989   17.596121
  C     17.160603   16.517390   18.610125
  C     17.519966   15.161487   18.721903
  C     16.881404   14.328852   19.656371
  C     15.878427   14.857734   20.486969
  C     15.522611   16.209558   20.380574
  O     14.556010   16.722985   21.182492
  C     16.159868   17.035587   19.449444
  H     13.771686   15.699646   15.354680
  H     13.816850   14.106492   14.578804
  H     14.507887   15.501906   13.739634
  H     15.565837   14.128588   16.280013
  H     16.334883   14.124452   14.692358
  H     16.554961   20.032904   14.389270
  H     16.355410   21.358993   15.544966
  H     15.140593   20.079786   15.450290
  H     17.766093   21.239026   17.138731
  H     19.446716   18.046185   18.911161
  H     18.556073   16.845022   16.980670
  H     18.292656   14.751471   18.077052
  H     17.164566   13.280708   19.735783
  H     15.382889   14.219178   21.210863
  H     14.258279   16.013585   21.771489
  H     15.876260   18.080764   19.384948

 Total Charge           Charge          ....    0
 Multiplicity           Mult            ....    1
 Number of Electrons    NEL             ....  154
 Basis Dimension        Dim             ....  828

ORBITAL ENERGIES
----------------

  NO   OCC          E(Eh)            E(eV)
   0   2.0000     -91.888034     -2500.4005
   1   2.0000     -20.597011      -560.4732
   2   2.0000     -20.595209      -560.4241
   3   2.0000     -20.539868      -558.9182
   4   2.0000     -15.628224      -425.2656
   5   2.0000     -15.606070      -424.6628
   6   2.0000     -11.397182      -310.1331
   7   2.0000     -11.382597      -309.7362
   8   2.0000     -11.336159      -308.4726
   9   2.0000     -11.314207      -307.8752
  10   2.0000     -11.306349      -307.6614
  11   2.0000     -11.302313      -307.5516
  12   2.0000     -11.261052      -306.4288
  13   2.0000     -11.258063      -306.3475
  14   2.0000     -11.255785      -306.2855
  15   2.0000     -11.250805      -306.1500
  16   2.0000     -11.243967      -305.9639
  17   2.0000     -11.239078      -305.8309
  18   2.0000     -11.239022      -305.8293
  19   2.0000     -11.223129      -305.3969
  20   2.0000      -8.893114      -241.9939
  21   2.0000      -6.574690      -178.9064
  22   2.0000      -6.572689      -178.8520
  23   2.0000      -6.572101      -178.8360
  24   2.0000      -1.441723       -39.2313
  25   2.0000      -1.416663       -38.5494
  26   2.0000      -1.352827       -36.8123
  27   2.0000      -1.339468       -36.4488
  28   2.0000      -1.237397       -33.6713
  29   2.0000      -1.157626       -31.5006
  30   2.0000      -1.119741       -30.4697
  31   2.0000      -1.042440       -28.3662
  32   2.0000      -1.035817       -28.1860
  33   2.0000      -1.015374       -27.6297
  34   2.0000      -0.995438       -27.0872
  35   2.0000      -0.983431       -26.7605
  36   2.0000      -0.921174       -25.0664
  37   2.0000      -0.897517       -24.4227
  38   2.0000      -0.846245       -23.0275
  39   2.0000      -0.838219       -22.8091
  40   2.0000      -0.834476       -22.7073
  41   2.0000      -0.817742       -22.2519
  42   2.0000      -0.744044       -20.2465
  43   2.0000      -0.731989       -19.9184
  44   2.0000      -0.717284       -19.5183
  45   2.0000      -0.695407       -18.9230
  46   2.0000      -0.686808       -18.6890
  47   2.0000      -0.674229       -18.3467
  48   2.0000      -0.671411       -18.2700
  49   2.0000      -0.660770       -17.9805
  50   2.0000      -0.648257       -17.6400
  51   2.0000      -0.642435       -17.4816
  52   2.0000      -0.634455       -17.2644
  53   2.0000      -0.609154       -16.5759
  54   2.0000      -0.606514       -16.5041
  55   2.0000      -0.600652       -16.3446
  56   2.0000      -0.598890       -16.2966
  57   2.0000      -0.577422       -15.7125
  58   2.0000      -0.571132       -15.5413
  59   2.0000      -0.568340       -15.4653
  60   2.0000      -0.559539       -15.2258
  61   2.0000      -0.540548       -14.7091
  62   2.0000      -0.535199       -14.5635
  63   2.0000      -0.524943       -14.2844
  64   2.0000      -0.522125       -14.2077
  65   2.0000      -0.512274       -13.9397
  66   2.0000      -0.500775       -13.6268
  67   2.0000      -0.496853       -13.5200
  68   2.0000      -0.484590       -13.1864
  69   2.0000      -0.462211       -12.5774
  70   2.0000      -0.451444       -12.2844
  71   2.0000      -0.440105       -11.9759
  72   2.0000      -0.351933        -9.5766
  73   2.0000      -0.349833        -9.5194
  74   2.0000      -0.327381        -8.9085
  75   2.0000      -0.321640        -8.7523
  76   2.0000      -0.317292        -8.6339
  77   0.0000       0.077943         2.1209
  78   0.0000       0.104640         2.8474
  79   0.0000       0.125312         3.4099
  80   0.0000       0.132987         3.6188
  81   0.0000       0.138043         3.7563

MULLIKEN ATOMIC CHARGES
-----------------------
   0 C :   -0.293110
   1 C :    0.050331
   2 O :   -0.363529
   3 C :    0.435703
   4 O :   -0.428483
   5 C :   -0.225920
   6 C :    0.177009
   7 C :   -0.267107
   8 N :   -0.126601
   9 C :    0.211005
  10 S :   -0.443626
  11 N :   -0.216296
  12 C :    0.068109
  13 C :    0.047218
  14 C :   -0.190058
  15 C :   -0.131508
  16 C :   -0.278125
  17 C :    0.317182
  18 O :   -0.356701
  19 C :   -0.250854
  20 H :    0.102472
  21 H :    0.096844
  22 H :    0.118800
  23 H :    0.097362
  24 H :    0.092917
  25 H :    0.129421
  26 H :    0.094312
  27 H :    0.132257
  28 H :    0.199546
  29 H :    0.200370
  30 H :    0.151427
  31 H :    0.153475
  32 H :    0.162051
  33 H :    0.130446
  34 H :    0.240620
  35 H :    0.163042
Sum of atomic charges:    0.0000000

LOEWDIN ATOMIC CHARGES
----------------------
   0 C :    0.103038
   1 C :   -0.008643
   2 O :    0.295193
   3 C :   -0.413808
   4 O :    0.106557
   5 C :   -0.095179
   6 C :   -0.056697
   7 C :    0.130360
   8 N :    0.406972
   9 C :   -0.456595
  10 S :   -0.037776
  11 N :    0.394524
  12 C :   -0.054872
  13 C :   -0.038548
  14 C :    0.017124
  15 C :    0.038239
  16 C :   -0.001478
  17 C :   -0.189653
  18 O :    0.395115
  19 C :    0.032874
  20 H :   -0.026137
  21 H :   -0.027353
  22 H :   -0.024693
  23 H :   -0.027499
  24 H :   -0.028652
  25 H :   -0.005152
  26 H :   -0.023927
  27 H :   -0.004825
  28 H :   -0.057343
  29 H :   -0.064647
  30 H :   -0.013861
  31 H :   -0.029066
  32 H :   -0.021364
  33 H :   -0.035487
  34 H :   -0.153940
  35 H :   -0.022801

  Mayer bond orders larger than 0.100000
B(  0-C ,  1-C ) :   0.9786 B(  0-C , 20-H ) :   0.9753 B(  0-C , 21-H ) :   0.9731
B(  0-C , 22-H ) :   0.9725 B(  1-C ,  2-O ) :   0.8989 B(  1-C , 23-H ) :   0.9742
B(  1-C , 24-H ) :   0.9800 B(  2-O ,  3-C ) :   1.1456 B(  3-C ,  4-O ) :   1.9783
B(  3-C ,  5-C ) :   1.0592 B(  5-C ,  6-C ) :   1.6393 B(  5-C , 12-C ) :   0.9588
B(  6-C ,  7-C ) :   0.9650 B(  6-C ,  8-N ) :   1.1512 B(  7-C , 25-H ) :   0.9587
B(  7-C , 26-H ) :   0.9908 B(  7-C , 27-H ) :   0.9617 B(  8-N ,  9-C ) :   1.1885
B(  8-N , 28-H ) :   0.9466 B(  9-C , 10-S ) :   1.6037 B(  9-C , 11-N ) :   1.3106
B( 11-N , 12-C ) :   0.9666 B( 11-N , 29-H ) :   0.9487 B( 12-C , 13-C ) :   0.9626
B( 12-C , 30-H ) :   1.0005 B( 13-C , 14-C ) :   1.3498 B( 13-C , 19-C ) :   1.3813
B( 14-C , 15-C ) :   1.3914 B( 14-C , 31-H ) :   0.9720 B( 15-C , 16-C ) :   1.3594
B( 15-C , 32-H ) :   0.9703 B( 16-C , 17-C ) :   1.3334 B( 16-C , 33-H ) :   0.9850
B( 17-C , 18-O ) :   1.1045 B( 17-C , 19-C ) :   1.3642 B( 18-O , 34-H ) :   0.9798
B( 19-C , 35-H ) :   0.9596

MP2 TOTAL ENERGY:    -1274.331985875 Eh
FINAL SINGLE POINT ENERGY     -1274.331985874500

DIPOLE MOMENT
-------------
                                X             Y             Z
Electronic contribution:      9.86282       9.95494       9.09152
Nuclear contribution   :    -10.91665     -11.76090      -9.39878
                        -----------------------------------------
Total Dipole Moment    :     -1.05384      -1.80595      -0.30726
                        -----------------------------------------
Magnitude (a.u.)       :      2.11340
Magnitude (Debye)      :      5.37183

Rotational constants in cm-1:     0.011263     0.008635     0.005873
Rotational constants in MHz :   337.667347   258.861881   176.069969

                             ****ORCA TERMINATED NORMALLY****
TOTAL RUN TIME: 0 days 1 hours 53 minutes 54 seconds 417 msec
