                         Program Version 4.2.0 -  RELEASE  -
|  1> ! ri-mp2 cc-pvtz cc-pvtz/c TightSCF NoKeepInts
|  2>
|  3> %scf
|  4>   MaxCore 4096
|  5> end
|  6> *xyz  0  1
|  7>     C       14.5557467   15.6002306   16.2662733
|  8>     C       15.0020823   16.3560015   15.0001158
|  9>     O       16.3886920   16.0573946   14.7297501
| 10>     C       17.4542710   16.4986586   15.4762631
| 11>     O       18.5282229   15.9284377   15.4242139
| 12>     C       17.2129967   17.6313899   16.4222463
| 13>     C       16.9208684   18.8648046   15.9382051
| 14>     C       16.5960628   19.2418520   14.5051556
| 15>     N       17.0221562   19.9963117   16.7497345
| 16>     C       17.6671265   20.0196781   17.9577036
| 17>     S       17.8706230   21.4215690   18.8105979
| 18>     N       18.1655828   18.8217689   18.4058342
| 19>     C       17.9014619   17.5080396   17.7856451
| 20>     C       17.2555061   16.4828279   18.7060202
| 21>     C       17.6649911   15.1380884   18.6591957
| 22>     C       17.0599549   14.1777148   19.4867176
| 23>     C       16.0357628   14.5652463   20.3675789
| 24>     C       15.6234487   15.9040156   20.4142067
| 25>     O       14.6281239   16.2788958   21.2564074
| 26>     C       16.2266376   16.8582920   19.5884600
| 27>     H       15.0045724   16.0292535   17.1672283
| 28>     H       14.8407762   14.5419794   16.2083419
| 29>     H       13.4662097   15.6536818   16.3795951
| 30>     H       14.3988411   16.0029046   14.1535972
| 31>     H       14.8128378   17.4274111   15.1160148
| 32>     H       16.8208935   18.4399155   13.7920362
| 33>     H       17.1913116   20.1069993   14.1850798
| 34>     H       15.5379308   19.5075620   14.3938771
| 35>     H       16.7026067   20.8901155   16.4106636
| 36>     H       18.6408051   18.8638386   19.2988482
| 37>     H       18.9340691   17.1996062   17.5631085
| 38>     H       18.4507985   14.8353197   17.9696424
| 39>     H       17.3840933   13.1393320   19.4402765
| 40>     H       15.5649409   13.8260869   21.0073233
| 41>     H       14.3688741   15.4968786   21.7667959
| 42>     H       15.8871209   17.8878978   19.6352461
| 43> *
| 44>
| 45>                          ****END OF INPUT****

CARTESIAN COORDINATES (ANGSTROEM)
---------------------------------
  C     14.555747   15.600231   16.266273
  C     15.002082   16.356002   15.000116
  O     16.388692   16.057395   14.729750
  C     17.454271   16.498659   15.476263
  O     18.528223   15.928438   15.424214
  C     17.212997   17.631390   16.422246
  C     16.920868   18.864805   15.938205
  C     16.596063   19.241852   14.505156
  N     17.022156   19.996312   16.749734
  C     17.667126   20.019678   17.957704
  S     17.870623   21.421569   18.810598
  N     18.165583   18.821769   18.405834
  C     17.901462   17.508040   17.785645
  C     17.255506   16.482828   18.706020
  C     17.664991   15.138088   18.659196
  C     17.059955   14.177715   19.486718
  C     16.035763   14.565246   20.367579
  C     15.623449   15.904016   20.414207
  O     14.628124   16.278896   21.256407
  C     16.226638   16.858292   19.588460
  H     15.004572   16.029253   17.167228
  H     14.840776   14.541979   16.208342
  H     13.466210   15.653682   16.379595
  H     14.398841   16.002905   14.153597
  H     14.812838   17.427411   15.116015
  H     16.820894   18.439915   13.792036
  H     17.191312   20.106999   14.185080
  H     15.537931   19.507562   14.393877
  H     16.702607   20.890115   16.410664
  H     18.640805   18.863839   19.298848
  H     18.934069   17.199606   17.563108
  H     18.450799   14.835320   17.969642
  H     17.384093   13.139332   19.440276
  H     15.564941   13.826087   21.007323
  H     14.368874   15.496879   21.766796
  H     15.887121   17.887898   19.635246

 Total Charge           Charge          ....    0
 Multiplicity           Mult            ....    1
 Number of Electrons    NEL             ....  154
 Basis Dimension        Dim             ....  828

ORBITAL ENERGIES
----------------

  NO   OCC          E(Eh)            E(eV)
   0   2.0000     -91.890216     -2500.4599
   1   2.0000     -20.602776      -560.6300
   2   2.0000     -20.599282      -560.5350
   3   2.0000     -20.550489      -559.2072
   4   2.0000     -15.628178      -425.2643
   5   2.0000     -15.609843      -424.7654
   6   2.0000     -11.400889      -310.2340
   7   2.0000     -11.385963      -309.8278
   8   2.0000     -11.335631      -308.4582
   9   2.0000     -11.316805      -307.9459
  10   2.0000     -11.310755      -307.7813
  11   2.0000     -11.308116      -307.7095
  12   2.0000     -11.268094      -306.6204
  13   2.0000     -11.266252      -306.5703
  14   2.0000     -11.264624      -306.5260
  15   2.0000     -11.257162      -306.3230
  16   2.0000     -11.245746      -306.0123
  17   2.0000     -11.241575      -305.8988
  18   2.0000     -11.238593      -305.8177
  19   2.0000     -11.228780      -305.5506
  20   2.0000      -8.895319      -242.0539
  21   2.0000      -6.576901      -178.9666
  22   2.0000      -6.574887      -178.9118
  23   2.0000      -6.574305      -178.8959
  24   2.0000      -1.448112       -39.4051
  25   2.0000      -1.419017       -38.6134
  26   2.0000      -1.361727       -37.0545
  27   2.0000      -1.341862       -36.5139
  28   2.0000      -1.240040       -33.7432
  29   2.0000      -1.160986       -31.5920
  30   2.0000      -1.126556       -30.6552
  31   2.0000      -1.048432       -28.5293
  32   2.0000      -1.037561       -28.2335
  33   2.0000      -1.019228       -27.7346
  34   2.0000      -1.006763       -27.3954
  35   2.0000      -0.990372       -26.9494
  36   2.0000      -0.926979       -25.2244
  37   2.0000      -0.894508       -24.3408
  38   2.0000      -0.854649       -23.2562
  39   2.0000      -0.842046       -22.9132
  40   2.0000      -0.836251       -22.7556
  41   2.0000      -0.832535       -22.6544
  42   2.0000      -0.749051       -20.3827
  43   2.0000      -0.740407       -20.1475
  44   2.0000      -0.731937       -19.9170
  45   2.0000      -0.696626       -18.9562
  46   2.0000      -0.689395       -18.7594
  47   2.0000      -0.682439       -18.5701
  48   2.0000      -0.675017       -18.3682
  49   2.0000      -0.663248       -18.0479
  50   2.0000      -0.653878       -17.7929
  51   2.0000      -0.645245       -17.5580
  52   2.0000      -0.638025       -17.3615
  53   2.0000      -0.621322       -16.9070
  54   2.0000      -0.612182       -16.6583
  55   2.0000      -0.606944       -16.5158
  56   2.0000      -0.602556       -16.3964
  57   2.0000      -0.587364       -15.9830
  58   2.0000      -0.577059       -15.7026
  59   2.0000      -0.567654       -15.4466
  60   2.0000      -0.563969       -15.3464
  61   2.0000      -0.553549       -15.0628
  62   2.0000      -0.541377       -14.7316
  63   2.0000      -0.537044       -14.6137
  64   2.0000      -0.520580       -14.1657
  65   2.0000      -0.512358       -13.9420
  66   2.0000      -0.504882       -13.7385
  67   2.0000      -0.501614       -13.6496
  68   2.0000      -0.484792       -13.1919
  69   2.0000      -0.468117       -12.7381
  70   2.0000      -0.456141       -12.4122
  71   2.0000      -0.450772       -12.2661
  72   2.0000      -0.358151        -9.7458
  73   2.0000      -0.350705        -9.5432
  74   2.0000      -0.329745        -8.9728
  75   2.0000      -0.324555        -8.8316
  76   2.0000      -0.320623        -8.7246
  77   0.0000       0.084726         2.3055
  78   0.0000       0.104646         2.8476
  79   0.0000       0.115720         3.1489
  80   0.0000       0.126937         3.4541
  81   0.0000       0.130077         3.5396

MULLIKEN ATOMIC CHARGES
-----------------------
   0 C :   -0.301230
   1 C :    0.029189
   2 O :   -0.327815
   3 C :    0.437015
   4 O :   -0.382582
   5 C :   -0.221743
   6 C :    0.133384
   7 C :   -0.329827
   8 N :   -0.139073
   9 C :    0.208702
  10 S :   -0.442415
  11 N :   -0.229164
  12 C :    0.073413
  13 C :   -0.002680
  14 C :   -0.210024
  15 C :   -0.136840
  16 C :   -0.269531
  17 C :    0.315058
  18 O :   -0.356404
  19 C :   -0.240143
  20 H :    0.114021
  21 H :    0.111612
  22 H :    0.101205
  23 H :    0.123518
  24 H :    0.084748
  25 H :    0.135115
  26 H :    0.134630
  27 H :    0.123248
  28 H :    0.197157
  29 H :    0.205189
  30 H :    0.168563
  31 H :    0.180238
  32 H :    0.164848
  33 H :    0.132534
  34 H :    0.241087
  35 H :    0.174998
Sum of atomic charges:   -0.0000000

LOEWDIN ATOMIC CHARGES
----------------------
   0 C :    0.108266
   1 C :   -0.021922
   2 O :    0.302791
   3 C :   -0.414663
   4 O :    0.120162
   5 C :   -0.084089
   6 C :   -0.090896
   7 C :    0.123806
   8 N :    0.402972
   9 C :   -0.457990
  10 S :   -0.037738
  11 N :    0.396611
  12 C :   -0.048160
  13 C :   -0.045008
  14 C :    0.020166
  15 C :    0.045404
  16 C :    0.000006
  17 C :   -0.191211
  18 O :    0.395841
  19 C :    0.026291
  20 H :   -0.031003
  21 H :   -0.022331
  22 H :   -0.025758
  23 H :   -0.020992
  24 H :   -0.039019
  25 H :   -0.008062
  26 H :   -0.009783
  27 H :   -0.018255
  28 H :   -0.056744
  29 H :   -0.063255
  30 H :   -0.003917
  31 H :   -0.021445
  32 H :   -0.018409
  33 H :   -0.034754
  34 H :   -0.153172
  35 H :   -0.023742

  Mayer bond orders larger than 0.100000
B(  0-C ,  1-C ) :   0.9691 B(  0-C , 20-H ) :   0.9668 B(  0-C , 21-H ) :   0.9750
B(  0-C , 22-H ) :   0.9769 B(  1-C ,  2-O ) :   0.8978 B(  1-C , 23-H ) :   0.9820
B(  1-C , 24-H ) :   0.9669 B(  2-O ,  3-C ) :   1.1658 B(  3-C ,  4-O ) :   2.0854
B(  3-C ,  5-C ) :   0.9241 B(  5-C ,  6-C ) :   1.7227 B(  5-C , 12-C ) :   0.9334
B(  6-C ,  7-C ) :   0.9340 B(  6-C ,  8-N ) :   1.1078 B(  7-C , 25-H ) :   0.9749
B(  7-C , 26-H ) :   0.9744 B(  7-C , 27-H ) :   0.9662 B(  8-N ,  9-C ) :   1.1973
B(  8-N , 28-H ) :   0.9512 B(  9-C , 10-S ) :   1.6096 B(  9-C , 11-N ) :   1.2923
B( 11-N , 12-C ) :   0.9769 B( 11-N , 29-H ) :   0.9465 B( 12-C , 13-C ) :   0.9746
B( 12-C , 30-H ) :   0.9888 B( 13-C , 14-C ) :   1.3900 B( 13-C , 19-C ) :   1.3451
B( 14-C , 15-C ) :   1.3974 B( 14-C , 31-H ) :   0.9566 B( 15-C , 16-C ) :   1.3593
B( 15-C , 32-H ) :   0.9697 B( 16-C , 17-C ) :   1.3328 B( 16-C , 33-H ) :   0.9842
B( 17-C , 18-O ) :   1.1095 B( 17-C , 19-C ) :   1.3624 B( 18-O , 34-H ) :   0.9794
B( 19-C , 35-H ) :   0.9581

MP2 TOTAL ENERGY:    -1274.330205840 Eh
FINAL SINGLE POINT ENERGY     -1274.330205839700

DIPOLE MOMENT
-------------
                                X             Y             Z
Electronic contribution:      8.90418       7.51309       6.77722
Nuclear contribution   :    -10.55730      -8.61217      -7.28781
                        -----------------------------------------
Total Dipole Moment    :     -1.65312      -1.09908      -0.51059
                        -----------------------------------------
Magnitude (a.u.)       :      2.04975
Magnitude (Debye)      :      5.21006

Rotational constants in cm-1:     0.011516     0.009248     0.006358
Rotational constants in MHz :   345.243798   277.236491   190.616006

                             ****ORCA TERMINATED NORMALLY****
TOTAL RUN TIME: 0 days 1 hours 44 minutes 39 seconds 920 msec
