                         Program Version 4.2.0 -  RELEASE  -
|  1> ! ri-mp2 cc-pvtz cc-pvtz/c TightSCF NoKeepInts
|  2>
|  3> %scf
|  4>   MaxCore 4096
|  5> end
|  6> *xyz  0  1
|  7>     C       14.2392075   14.8910994   15.0758179
|  8>     C       15.1736394   15.7160942   14.1828087
|  9>     O       15.6213617   16.8003257   15.0176780
| 10>     C       16.7332997   16.6481930   15.7902014
| 11>     O       17.2304356   15.5480905   15.9650613
| 12>     C       17.1298551   17.8328046   16.6322232
| 13>     C       16.8644646   19.1378563   16.3530450
| 14>     C       15.9333630   19.7237324   15.3009504
| 15>     N       17.4148743   20.1492364   17.1595418
| 16>     C       18.3242609   19.9359996   18.1675760
| 17>     S       18.9607101   21.1750760   19.0579318
| 18>     N       18.7162674   18.6423152   18.3891116
| 19>     C       18.1355294   17.4668114   17.7330780
| 20>     C       17.4835972   16.5712894   18.7649919
| 21>     C       17.9679809   15.2781966   18.9983305
| 22>     C       17.3232216   14.4484092   19.9269987
| 23>     C       16.1956684   14.9222143   20.6294389
| 24>     C       15.7151486   16.2235956   20.4034029
| 25>     O       14.6271406   16.7285189   21.0589463
| 26>     C       16.3629532   17.0403210   19.4735089
| 27>     H       14.8411941   14.4225229   15.8697255
| 28>     H       13.7689889   14.0845730   14.5086186
| 29>     H       13.4756695   15.5118836   15.5565268
| 30>     H       15.9636098   15.1226427   13.6996305
| 31>     H       14.5369684   16.1394457   13.3892885
| 32>     H       15.4780740   19.0067955   14.6197834
| 33>     H       16.4644920   20.4274927   14.6536693
| 34>     H       15.0892909   20.2402628   15.7760414
| 35>     H       17.1573076   21.1138183   17.0078291
| 36>     H       19.3585972   18.4958594   19.1607889
| 37>     H       19.0206435   17.0060219   17.2645478
| 38>     H       18.8266269   14.9128811   18.4389592
| 39>     H       17.6991446   13.4412187   20.0886833
| 40>     H       15.7063106   14.2710224   21.3431151
| 41>     H       14.2589634   16.0797366   21.6785335
| 42>     H       15.9881394   18.0436432   19.3016160
| 43> *
| 44>
| 45>                          ****END OF INPUT****

CARTESIAN COORDINATES (ANGSTROEM)
---------------------------------
  C     14.239207   14.891099   15.075818
  C     15.173639   15.716094   14.182809
  O     15.621362   16.800326   15.017678
  C     16.733300   16.648193   15.790201
  O     17.230436   15.548090   15.965061
  C     17.129855   17.832805   16.632223
  C     16.864465   19.137856   16.353045
  C     15.933363   19.723732   15.300950
  N     17.414874   20.149236   17.159542
  C     18.324261   19.936000   18.167576
  S     18.960710   21.175076   19.057932
  N     18.716267   18.642315   18.389112
  C     18.135529   17.466811   17.733078
  C     17.483597   16.571289   18.764992
  C     17.967981   15.278197   18.998331
  C     17.323222   14.448409   19.926999
  C     16.195668   14.922214   20.629439
  C     15.715149   16.223596   20.403403
  O     14.627141   16.728519   21.058946
  C     16.362953   17.040321   19.473509
  H     14.841194   14.422523   15.869725
  H     13.768989   14.084573   14.508619
  H     13.475670   15.511884   15.556527
  H     15.963610   15.122643   13.699630
  H     14.536968   16.139446   13.389288
  H     15.478074   19.006795   14.619783
  H     16.464492   20.427493   14.653669
  H     15.089291   20.240263   15.776041
  H     17.157308   21.113818   17.007829
  H     19.358597   18.495859   19.160789
  H     19.020643   17.006022   17.264548
  H     18.826627   14.912881   18.438959
  H     17.699145   13.441219   20.088683
  H     15.706311   14.271022   21.343115
  H     14.258963   16.079737   21.678534
  H     15.988139   18.043643   19.301616

 Total Charge           Charge          ....    0
 Multiplicity           Mult            ....    1
 Number of Electrons    NEL             ....  154
 Basis Dimension        Dim             ....  828

ORBITAL ENERGIES
----------------

  NO   OCC          E(Eh)            E(eV)
   0   2.0000     -91.885469     -2500.3307
   1   2.0000     -20.604216      -560.6692
   2   2.0000     -20.590638      -560.2998
   3   2.0000     -20.544263      -559.0378
   4   2.0000     -15.627361      -425.2421
   5   2.0000     -15.603820      -424.6015
   6   2.0000     -11.396273      -310.1083
   7   2.0000     -11.381726      -309.7125
   8   2.0000     -11.338902      -308.5472
   9   2.0000     -11.308226      -307.7125
  10   2.0000     -11.301897      -307.5403
  11   2.0000     -11.300064      -307.4904
  12   2.0000     -11.264882      -306.5330
  13   2.0000     -11.256534      -306.3059
  14   2.0000     -11.250560      -306.1433
  15   2.0000     -11.246324      -306.0280
  16   2.0000     -11.237693      -305.7932
  17   2.0000     -11.232037      -305.6393
  18   2.0000     -11.229272      -305.5640
  19   2.0000     -11.221001      -305.3390
  20   2.0000      -8.890633      -241.9264
  21   2.0000      -6.572219      -178.8392
  22   2.0000      -6.570209      -178.7845
  23   2.0000      -6.569626      -178.7686
  24   2.0000      -1.456802       -39.6416
  25   2.0000      -1.403723       -38.1972
  26   2.0000      -1.356909       -36.9234
  27   2.0000      -1.336002       -36.3545
  28   2.0000      -1.237149       -33.6645
  29   2.0000      -1.152247       -31.3542
  30   2.0000      -1.117895       -30.4195
  31   2.0000      -1.041676       -28.3454
  32   2.0000      -1.034314       -28.1451
  33   2.0000      -1.009635       -27.4736
  34   2.0000      -0.997685       -27.1484
  35   2.0000      -0.981632       -26.7116
  36   2.0000      -0.919157       -25.0115
  37   2.0000      -0.889690       -24.2097
  38   2.0000      -0.846638       -23.0382
  39   2.0000      -0.833044       -22.6683
  40   2.0000      -0.827541       -22.5185
  41   2.0000      -0.816387       -22.2150
  42   2.0000      -0.757175       -20.6038
  43   2.0000      -0.736817       -20.0498
  44   2.0000      -0.726162       -19.7599
  45   2.0000      -0.689198       -18.7540
  46   2.0000      -0.684012       -18.6129
  47   2.0000      -0.679836       -18.4993
  48   2.0000      -0.670190       -18.2368
  49   2.0000      -0.653138       -17.7728
  50   2.0000      -0.648079       -17.6351
  51   2.0000      -0.642089       -17.4721
  52   2.0000      -0.630743       -17.1634
  53   2.0000      -0.610180       -16.6038
  54   2.0000      -0.604330       -16.4447
  55   2.0000      -0.597457       -16.2576
  56   2.0000      -0.590934       -16.0801
  57   2.0000      -0.581531       -15.8243
  58   2.0000      -0.571492       -15.5511
  59   2.0000      -0.561746       -15.2859
  60   2.0000      -0.559226       -15.2173
  61   2.0000      -0.542984       -14.7753
  62   2.0000      -0.532633       -14.4937
  63   2.0000      -0.524458       -14.2712
  64   2.0000      -0.515842       -14.0368
  65   2.0000      -0.506160       -13.7733
  66   2.0000      -0.500865       -13.6292
  67   2.0000      -0.491788       -13.3822
  68   2.0000      -0.482615       -13.1326
  69   2.0000      -0.463876       -12.6227
  70   2.0000      -0.455737       -12.4012
  71   2.0000      -0.448142       -12.1946
  72   2.0000      -0.354521        -9.6470
  73   2.0000      -0.342015        -9.3067
  74   2.0000      -0.324794        -8.8381
  75   2.0000      -0.315139        -8.5754
  76   2.0000      -0.313850        -8.5403
  77   0.0000       0.078792         2.1440
  78   0.0000       0.112789         3.0691
  79   0.0000       0.121319         3.3012
  80   0.0000       0.136389         3.7113
  81   0.0000       0.142746         3.8843

MULLIKEN ATOMIC CHARGES
-----------------------
   0 C :   -0.289163
   1 C :    0.035506
   2 O :   -0.346449
   3 C :    0.435535
   4 O :   -0.426846
   5 C :   -0.235170
   6 C :    0.191839
   7 C :   -0.299776
   8 N :   -0.139667
   9 C :    0.209065
  10 S :   -0.446903
  11 N :   -0.200768
  12 C :    0.072489
  13 C :    0.029677
  14 C :   -0.133799
  15 C :   -0.136202
  16 C :   -0.276379
  17 C :    0.301823
  18 O :   -0.362467
  19 C :   -0.255625
  20 H :    0.115685
  21 H :    0.092192
  22 H :    0.098327
  23 H :    0.110808
  24 H :    0.097325
  25 H :    0.141545
  26 H :    0.115863
  27 H :    0.114775
  28 H :    0.199666
  29 H :    0.197942
  30 H :    0.149411
  31 H :    0.147142
  32 H :    0.158405
  33 H :    0.133567
  34 H :    0.239386
  35 H :    0.161240
Sum of atomic charges:   -0.0000000

LOEWDIN ATOMIC CHARGES
----------------------
   0 C :    0.101599
   1 C :   -0.017173
   2 O :    0.312087
   3 C :   -0.418383
   4 O :    0.110127
   5 C :   -0.085470
   6 C :   -0.065344
   7 C :    0.128145
   8 N :    0.400247
   9 C :   -0.456784
  10 S :   -0.040302
  11 N :    0.396949
  12 C :   -0.052692
  13 C :   -0.044094
  14 C :    0.024197
  15 C :    0.042127
  16 C :    0.001825
  17 C :   -0.183589
  18 O :    0.385363
  19 C :    0.031506
  20 H :   -0.021318
  21 H :   -0.031729
  22 H :   -0.027552
  23 H :   -0.025909
  24 H :   -0.026889
  25 H :   -0.021007
  26 H :   -0.017926
  27 H :   -0.012874
  28 H :   -0.054971
  29 H :   -0.058550
  30 H :   -0.006757
  31 H :   -0.024260
  32 H :   -0.022389
  33 H :   -0.037872
  34 H :   -0.156328
  35 H :   -0.024010

  Mayer bond orders larger than 0.100000
B(  0-C ,  1-C ) :   0.9659 B(  0-C , 20-H ) :   0.9752 B(  0-C , 21-H ) :   0.9767
B(  0-C , 22-H ) :   0.9765 B(  1-C ,  2-O ) :   0.8842 B(  1-C , 23-H ) :   0.9752
B(  1-C , 24-H ) :   0.9859 B(  2-O ,  3-C ) :   1.1612 B(  3-C ,  4-O ) :   1.9691
B(  3-C ,  5-C ) :   1.0708 B(  5-C ,  6-C ) :   1.6285 B(  5-C , 12-C ) :   0.9604
B(  6-C ,  7-C ) :   0.9555 B(  6-C ,  8-N ) :   1.1471 B(  7-C , 25-H ) :   0.9697
B(  7-C , 26-H ) :   0.9691 B(  7-C , 27-H ) :   0.9682 B(  8-N ,  9-C ) :   1.1842
B(  8-N , 28-H ) :   0.9491 B(  9-C , 10-S ) :   1.6054 B(  9-C , 11-N ) :   1.3093
B( 11-N , 12-C ) :   0.9834 B( 11-N , 29-H ) :   0.9499 B( 12-C , 13-C ) :   0.9639
B( 12-C , 30-H ) :   0.9965 B( 13-C , 14-C ) :   1.3690 B( 13-C , 19-C ) :   1.3732
B( 14-C , 15-C ) :   1.3978 B( 14-C , 31-H ) :   0.9683 B( 15-C , 16-C ) :   1.3636
B( 15-C , 32-H ) :   0.9721 B( 16-C , 17-C ) :   1.3430 B( 16-C , 33-H ) :   0.9812
B( 17-C , 18-O ) :   1.1068 B( 17-C , 19-C ) :   1.3666 B( 18-O , 34-H ) :   0.9806
B( 19-C , 35-H ) :   0.9607

MP2 TOTAL ENERGY:    -1274.339676345 Eh
FINAL SINGLE POINT ENERGY     -1274.339676345131

DIPOLE MOMENT
-------------
                                X             Y             Z
Electronic contribution:     10.58960       9.61247       9.66535
Nuclear contribution   :    -11.97192     -10.80260     -10.91263
                        -----------------------------------------
Total Dipole Moment    :     -1.38232      -1.19012      -1.24728
                        -----------------------------------------
Magnitude (a.u.)       :      2.20973
Magnitude (Debye)      :      5.61670

Rotational constants in cm-1:     0.010905     0.008958     0.005988
Rotational constants in MHz :   326.931377   268.555622   179.529346

                             ****ORCA TERMINATED NORMALLY****
TOTAL RUN TIME: 0 days 1 hours 36 minutes 36 seconds 657 msec
