                         Program Version 4.2.0 -  RELEASE  -
|  1> ! ri-mp2 cc-pvtz cc-pvtz/c TightSCF NoKeepInts
|  2>
|  3> %scf
|  4>   MaxCore 4096
|  5> end
|  6> *xyz  0  1
|  7>     C       14.5708023   15.4607292   16.2083478
|  8>     C       14.9570274   16.4038482   15.0529417
|  9>     O       16.3326490   16.1594965   14.6888860
| 10>     C       17.4035550   16.5017292   15.4763559
| 11>     O       18.4340187   15.8547234   15.4451960
| 12>     C       17.2159886   17.6445794   16.4241193
| 13>     C       16.9304703   18.8836268   15.9498073
| 14>     C       16.5651824   19.2662835   14.5278090
| 15>     N       17.0673334   20.0106023   16.7626277
| 16>     C       17.7349139   20.0190108   17.9584609
| 17>     S       17.9746649   21.4140256   18.8132121
| 18>     N       18.2211829   18.8114480   18.3940431
| 19>     C       17.9275088   17.5044193   17.7731734
| 20>     C       17.2713659   16.4925245   18.7002986
| 21>     C       17.6955693   15.1516413   18.6953366
| 22>     C       17.0788689   14.2044553   19.5294867
| 23>     C       16.0280555   14.6014927   20.3741191
| 24>     C       15.6006968   15.9363865   20.3779907
| 25>     O       14.5795178   16.3200747   21.1845280
| 26>     C       16.2154480   16.8773226   19.5455336
| 27>     H       15.1133784   15.7092144   17.1262939
| 28>     H       14.7951932   14.4184479   15.9483047
| 29>     H       13.4977411   15.5353265   16.4222612
| 30>     H       14.3176863   16.1814011   14.1887257
| 31>     H       14.7744002   17.4433933   15.3438650
| 32>     H       16.8738102   18.5095962   13.7964225
| 33>     H       17.0654598   20.1961342   14.2276248
| 34>     H       15.4852461   19.4223893   14.4211041
| 35>     H       16.7529553   20.9102382   16.4343711
| 36>     H       18.7100876   18.8425095   19.2800909
| 37>     H       18.9504818   17.1778769   17.5328855
| 38>     H       18.5004604   14.8411753   18.0317631
| 39>     H       17.4140624   13.1686440   19.5154163
| 40>     H       15.5480971   13.8724087   21.0186226
| 41>     H       14.3172618   15.5483249   21.7088541
| 42>     H       15.8658584   17.9044999   19.5591209
| 43> *
| 44>
| 45>                          ****END OF INPUT****

CARTESIAN COORDINATES (ANGSTROEM)
---------------------------------
  C     14.570802   15.460729   16.208348
  C     14.957027   16.403848   15.052942
  O     16.332649   16.159496   14.688886
  C     17.403555   16.501729   15.476356
  O     18.434019   15.854723   15.445196
  C     17.215989   17.644579   16.424119
  C     16.930470   18.883627   15.949807
  C     16.565182   19.266283   14.527809
  N     17.067333   20.010602   16.762628
  C     17.734914   20.019011   17.958461
  S     17.974665   21.414026   18.813212
  N     18.221183   18.811448   18.394043
  C     17.927509   17.504419   17.773173
  C     17.271366   16.492524   18.700299
  C     17.695569   15.151641   18.695337
  C     17.078869   14.204455   19.529487
  C     16.028056   14.601493   20.374119
  C     15.600697   15.936386   20.377991
  O     14.579518   16.320075   21.184528
  C     16.215448   16.877323   19.545534
  H     15.113378   15.709214   17.126294
  H     14.795193   14.418448   15.948305
  H     13.497741   15.535326   16.422261
  H     14.317686   16.181401   14.188726
  H     14.774400   17.443393   15.343865
  H     16.873810   18.509596   13.796423
  H     17.065460   20.196134   14.227625
  H     15.485246   19.422389   14.421104
  H     16.752955   20.910238   16.434371
  H     18.710088   18.842509   19.280091
  H     18.950482   17.177877   17.532885
  H     18.500460   14.841175   18.031763
  H     17.414062   13.168644   19.515416
  H     15.548097   13.872409   21.018623
  H     14.317262   15.548325   21.708854
  H     15.865858   17.904500   19.559121

 Total Charge           Charge          ....    0
 Multiplicity           Mult            ....    1
 Number of Electrons    NEL             ....  154
 Basis Dimension        Dim             ....  828

ORBITAL ENERGIES
----------------

  NO   OCC          E(Eh)            E(eV)
   0   2.0000     -91.890327     -2500.4629
   1   2.0000     -20.601436      -560.5936
   2   2.0000     -20.599187      -560.5324
   3   2.0000     -20.550670      -559.2122
   4   2.0000     -15.628778      -425.2807
   5   2.0000     -15.609649      -424.7601
   6   2.0000     -11.399790      -310.2041
   7   2.0000     -11.385958      -309.8277
   8   2.0000     -11.336506      -308.4820
   9   2.0000     -11.316613      -307.9407
  10   2.0000     -11.309957      -307.7596
  11   2.0000     -11.307666      -307.6972
  12   2.0000     -11.267067      -306.5925
  13   2.0000     -11.265436      -306.5481
  14   2.0000     -11.263997      -306.5089
  15   2.0000     -11.256842      -306.3143
  16   2.0000     -11.245832      -306.0146
  17   2.0000     -11.241629      -305.9003
  18   2.0000     -11.238525      -305.8158
  19   2.0000     -11.228883      -305.5534
  20   2.0000      -8.895427      -242.0569
  21   2.0000      -6.577007      -178.9695
  22   2.0000      -6.574995      -178.9147
  23   2.0000      -6.574411      -178.8988
  24   2.0000      -1.448342       -39.4114
  25   2.0000      -1.418933       -38.6111
  26   2.0000      -1.361586       -37.0506
  27   2.0000      -1.342008       -36.5179
  28   2.0000      -1.239997       -33.7420
  29   2.0000      -1.160852       -31.5884
  30   2.0000      -1.126221       -30.6460
  31   2.0000      -1.048202       -28.5230
  32   2.0000      -1.036887       -28.2151
  33   2.0000      -1.018835       -27.7239
  34   2.0000      -1.006348       -27.3841
  35   2.0000      -0.990117       -26.9425
  36   2.0000      -0.926746       -25.2180
  37   2.0000      -0.893516       -24.3138
  38   2.0000      -0.854486       -23.2517
  39   2.0000      -0.842000       -22.9120
  40   2.0000      -0.836199       -22.7541
  41   2.0000      -0.832701       -22.6589
  42   2.0000      -0.748437       -20.3660
  43   2.0000      -0.739866       -20.1328
  44   2.0000      -0.731779       -19.9127
  45   2.0000      -0.696614       -18.9558
  46   2.0000      -0.688838       -18.7442
  47   2.0000      -0.682649       -18.5758
  48   2.0000      -0.675705       -18.3869
  49   2.0000      -0.662088       -18.0163
  50   2.0000      -0.655271       -17.8308
  51   2.0000      -0.645706       -17.5705
  52   2.0000      -0.637928       -17.3589
  53   2.0000      -0.620776       -16.8922
  54   2.0000      -0.611162       -16.6306
  55   2.0000      -0.606709       -16.5094
  56   2.0000      -0.602417       -16.3926
  57   2.0000      -0.585984       -15.9454
  58   2.0000      -0.576678       -15.6922
  59   2.0000      -0.566342       -15.4110
  60   2.0000      -0.563441       -15.3320
  61   2.0000      -0.551800       -15.0152
  62   2.0000      -0.544543       -14.8178
  63   2.0000      -0.535845       -14.5811
  64   2.0000      -0.520728       -14.1697
  65   2.0000      -0.512406       -13.9433
  66   2.0000      -0.503532       -13.7018
  67   2.0000      -0.501116       -13.6361
  68   2.0000      -0.484825       -13.1928
  69   2.0000      -0.469125       -12.7655
  70   2.0000      -0.457044       -12.4368
  71   2.0000      -0.449896       -12.2423
  72   2.0000      -0.357797        -9.7362
  73   2.0000      -0.351248        -9.5580
  74   2.0000      -0.329782        -8.9738
  75   2.0000      -0.324293        -8.8245
  76   2.0000      -0.320589        -8.7237
  77   0.0000       0.082174         2.2361
  78   0.0000       0.104292         2.8379
  79   0.0000       0.116503         3.1702
  80   0.0000       0.129099         3.5130
  81   0.0000       0.130130         3.5410

MULLIKEN ATOMIC CHARGES
-----------------------
   0 C :   -0.295564
   1 C :    0.028580
   2 O :   -0.333575
   3 C :    0.436686
   4 O :   -0.381669
   5 C :   -0.224245
   6 C :    0.137194
   7 C :   -0.325004
   8 N :   -0.137299
   9 C :    0.207788
  10 S :   -0.441796
  11 N :   -0.223909
  12 C :    0.067082
  13 C :   -0.016160
  14 C :   -0.195505
  15 C :   -0.137765
  16 C :   -0.267831
  17 C :    0.307820
  18 O :   -0.356985
  19 C :   -0.227244
  20 H :    0.116533
  21 H :    0.110637
  22 H :    0.097801
  23 H :    0.121856
  24 H :    0.084075
  25 H :    0.138953
  26 H :    0.128905
  27 H :    0.123018
  28 H :    0.197767
  29 H :    0.203653
  30 H :    0.167062
  31 H :    0.178511
  32 H :    0.164065
  33 H :    0.132689
  34 H :    0.241114
  35 H :    0.172762
Sum of atomic charges:   -0.0000000

LOEWDIN ATOMIC CHARGES
----------------------
   0 C :    0.109013
   1 C :   -0.022554
   2 O :    0.301864
   3 C :   -0.415774
   4 O :    0.121123
   5 C :   -0.087019
   6 C :   -0.086887
   7 C :    0.125825
   8 N :    0.403185
   9 C :   -0.458095
  10 S :   -0.037332
  11 N :    0.396436
  12 C :   -0.048683
  13 C :   -0.046120
  14 C :    0.020504
  15 C :    0.044829
  16 C :    0.000140
  17 C :   -0.191640
  18 O :    0.395573
  19 C :    0.026646
  20 H :   -0.028734
  21 H :   -0.022464
  22 H :   -0.025632
  23 H :   -0.021637
  24 H :   -0.039906
  25 H :   -0.007490
  26 H :   -0.011465
  27 H :   -0.017945
  28 H :   -0.056956
  29 H :   -0.063210
  30 H :   -0.004395
  31 H :   -0.021302
  32 H :   -0.018522
  33 H :   -0.034686
  34 H :   -0.153222
  35 H :   -0.023468

  Mayer bond orders larger than 0.100000
B(  0-C ,  1-C ) :   0.9735 B(  0-C , 20-H ) :   0.9654 B(  0-C , 21-H ) :   0.9767
B(  0-C , 22-H ) :   0.9766 B(  1-C ,  2-O ) :   0.8967 B(  1-C , 23-H ) :   0.9810
B(  1-C , 24-H ) :   0.9663 B(  2-O ,  3-C ) :   1.1555 B(  3-C ,  4-O ) :   2.0865
B(  3-C ,  5-C ) :   0.9306 B(  5-C ,  6-C ) :   1.7206 B(  5-C , 12-C ) :   0.9350
B(  6-C ,  7-C ) :   0.9345 B(  6-C ,  8-N ) :   1.1114 B(  7-C , 25-H ) :   0.9722
B(  7-C , 26-H ) :   0.9789 B(  7-C , 27-H ) :   0.9657 B(  8-N ,  9-C ) :   1.1947
B(  8-N , 28-H ) :   0.9505 B(  9-C , 10-S ) :   1.6109 B(  9-C , 11-N ) :   1.2930
B( 11-N , 12-C ) :   0.9810 B( 11-N , 29-H ) :   0.9472 B( 12-C , 13-C ) :   0.9721
B( 12-C , 30-H ) :   0.9900 B( 13-C , 14-C ) :   1.3923 B( 13-C , 19-C ) :   1.3530
B( 14-C , 15-C ) :   1.3946 B( 14-C , 31-H ) :   0.9568 B( 15-C , 16-C ) :   1.3603
B( 15-C , 32-H ) :   0.9703 B( 16-C , 17-C ) :   1.3326 B( 16-C , 33-H ) :   0.9841
B( 17-C , 18-O ) :   1.1097 B( 17-C , 19-C ) :   1.3642 B( 18-O , 34-H ) :   0.9794
B( 19-C , 35-H ) :   0.9578

MP2 TOTAL ENERGY:    -1274.331433928 Eh
FINAL SINGLE POINT ENERGY     -1274.331433927687

DIPOLE MOMENT
-------------
                                X             Y             Z
Electronic contribution:      9.02913       7.80510       6.70104
Nuclear contribution   :    -10.67640      -8.86929      -7.17087
                        -----------------------------------------
Total Dipole Moment    :     -1.64727      -1.06419      -0.46983
                        -----------------------------------------
Magnitude (a.u.)       :      2.01662
Magnitude (Debye)      :      5.12584

Rotational constants in cm-1:     0.011512     0.009235     0.006367
Rotational constants in MHz :   345.129366   276.852604   190.886348

                             ****ORCA TERMINATED NORMALLY****
TOTAL RUN TIME: 0 days 1 hours 45 minutes 13 seconds 801 msec
