                         Program Version 4.2.0 -  RELEASE  -
|  1> ! ri-mp2 cc-pvtz cc-pvtz/c TightSCF NoKeepInts
|  2>
|  3> %scf
|  4>   MaxCore 4096
|  5> end
|  6> *xyz  0  1
|  7>     C       14.8262881   14.8099764   15.5993427
|  8>     C       14.7602516   16.1753503   14.8797562
|  9>     O       16.0671357   16.7431934   14.6355135
| 10>     C       17.0587093   16.6293326   15.5648672
| 11>     O       17.7349132   15.6204284   15.6680127
| 12>     C       17.1735536   17.7907792   16.5069723
| 13>     C       16.9568932   19.0735744   16.1170544
| 14>     C       16.3814859   19.5569740   14.8006348
| 15>     N       17.3263500   20.1396974   16.9409121
| 16>     C       18.1040260   20.0184652   18.0613175
| 17>     S       18.5876804   21.3376187   18.9336472
| 18>     N       18.4774722   18.7451813   18.4113031
| 19>     C       17.9929686   17.5073199   17.7697627
| 20>     C       17.2887837   16.5585126   18.7304070
| 21>     C       17.6865321   15.2130559   18.8277642
| 22>     C       17.0260033   14.3339591   19.7021385
| 23>     C       15.9585785   14.8046169   20.4859342
| 24>     C       15.5581480   16.1443196   20.3885111
| 25>     O       14.5228790   16.5996605   21.1381114
| 26>     C       16.2166688   17.0166006   19.5159159
| 27>     H       15.4734117   14.1126806   15.0517853
| 28>     H       13.8264686   14.3642463   15.6640193
| 29>     H       15.2119667   14.9130887   16.6220951
| 30>     H       14.2344149   16.0603680   13.9231041
| 31>     H       14.1748281   16.8665784   15.5000986
| 32>     H       16.9146441   19.1077160   13.9529435
| 33>     H       16.4543571   20.6448230   14.6800333
| 34>     H       15.3219696   19.2874717   14.7152626
| 35>     H       17.0817395   21.0825683   16.6834933
| 36>     H       19.0362120   18.6819369   19.2530481
| 37>     H       18.9432344   17.0749580   17.4232108
| 38>     H       18.5010831   14.8443369   18.2082179
| 39>     H       17.3393615   13.2932763   19.7644849
| 40>     H       15.4448241   14.1284932   21.1612174
| 41>     H       14.2303495   15.8686268   21.7030033
| 42>     H       15.8928141   18.0502147   19.4541038
| 43> *
| 44>
| 45>                          ****END OF INPUT****

CARTESIAN COORDINATES (ANGSTROEM)
---------------------------------
  C     14.826288   14.809976   15.599343
  C     14.760252   16.175350   14.879756
  O     16.067136   16.743193   14.635513
  C     17.058709   16.629333   15.564867
  O     17.734913   15.620428   15.668013
  C     17.173554   17.790779   16.506972
  C     16.956893   19.073574   16.117054
  C     16.381486   19.556974   14.800635
  N     17.326350   20.139697   16.940912
  C     18.104026   20.018465   18.061318
  S     18.587680   21.337619   18.933647
  N     18.477472   18.745181   18.411303
  C     17.992969   17.507320   17.769763
  C     17.288784   16.558513   18.730407
  C     17.686532   15.213056   18.827764
  C     17.026003   14.333959   19.702139
  C     15.958578   14.804617   20.485934
  C     15.558148   16.144320   20.388511
  O     14.522879   16.599660   21.138111
  C     16.216669   17.016601   19.515916
  H     15.473412   14.112681   15.051785
  H     13.826469   14.364246   15.664019
  H     15.211967   14.913089   16.622095
  H     14.234415   16.060368   13.923104
  H     14.174828   16.866578   15.500099
  H     16.914644   19.107716   13.952943
  H     16.454357   20.644823   14.680033
  H     15.321970   19.287472   14.715263
  H     17.081740   21.082568   16.683493
  H     19.036212   18.681937   19.253048
  H     18.943234   17.074958   17.423211
  H     18.501083   14.844337   18.208218
  H     17.339361   13.293276   19.764485
  H     15.444824   14.128493   21.161217
  H     14.230350   15.868627   21.703003
  H     15.892814   18.050215   19.454104

 Total Charge           Charge          ....    0
 Multiplicity           Mult            ....    1
 Number of Electrons    NEL             ....  154
 Basis Dimension        Dim             ....  828

ORBITAL ENERGIES
----------------

  NO   OCC          E(Eh)            E(eV)
   0   2.0000     -91.889516     -2500.4408
   1   2.0000     -20.595431      -560.4302
   2   2.0000     -20.586460      -560.1861
   3   2.0000     -20.551658      -559.2391
   4   2.0000     -15.630196      -425.3192
   5   2.0000     -15.607266      -424.6953
   6   2.0000     -11.394676      -310.0649
   7   2.0000     -11.384341      -309.7837
   8   2.0000     -11.339245      -308.5565
   9   2.0000     -11.311862      -307.8114
  10   2.0000     -11.307694      -307.6980
  11   2.0000     -11.305339      -307.6339
  12   2.0000     -11.261003      -306.4275
  13   2.0000     -11.259763      -306.3937
  14   2.0000     -11.258744      -306.3660
  15   2.0000     -11.251768      -306.1762
  16   2.0000     -11.241901      -305.9077
  17   2.0000     -11.238016      -305.8019
  18   2.0000     -11.234391      -305.7033
  19   2.0000     -11.226588      -305.4910
  20   2.0000      -8.894593      -242.0342
  21   2.0000      -6.576167      -178.9466
  22   2.0000      -6.574166      -178.8921
  23   2.0000      -6.573575      -178.8761
  24   2.0000      -1.447604       -39.3913
  25   2.0000      -1.415194       -38.5094
  26   2.0000      -1.357213       -36.9317
  27   2.0000      -1.341182       -36.4954
  28   2.0000      -1.238393       -33.6984
  29   2.0000      -1.156122       -31.4597
  30   2.0000      -1.122298       -30.5393
  31   2.0000      -1.044250       -28.4155
  32   2.0000      -1.032686       -28.1008
  33   2.0000      -1.013704       -27.5843
  34   2.0000      -1.001266       -27.2458
  35   2.0000      -0.986096       -26.8330
  36   2.0000      -0.923307       -25.1245
  37   2.0000      -0.893512       -24.3137
  38   2.0000      -0.850525       -23.1440
  39   2.0000      -0.838694       -22.8220
  40   2.0000      -0.831864       -22.6362
  41   2.0000      -0.824974       -22.4487
  42   2.0000      -0.744845       -20.2683
  43   2.0000      -0.729520       -19.8513
  44   2.0000      -0.727733       -19.8026
  45   2.0000      -0.692858       -18.8536
  46   2.0000      -0.684949       -18.6384
  47   2.0000      -0.680614       -18.5204
  48   2.0000      -0.676608       -18.4114
  49   2.0000      -0.665959       -18.1217
  50   2.0000      -0.649179       -17.6651
  51   2.0000      -0.645234       -17.5577
  52   2.0000      -0.635025       -17.2799
  53   2.0000      -0.618186       -16.8217
  54   2.0000      -0.605902       -16.4874
  55   2.0000      -0.601508       -16.3679
  56   2.0000      -0.598844       -16.2954
  57   2.0000      -0.577432       -15.7127
  58   2.0000      -0.574487       -15.6326
  59   2.0000      -0.566196       -15.4070
  60   2.0000      -0.553711       -15.0672
  61   2.0000      -0.550113       -14.9693
  62   2.0000      -0.539296       -14.6750
  63   2.0000      -0.528773       -14.3886
  64   2.0000      -0.518409       -14.1066
  65   2.0000      -0.511394       -13.9157
  66   2.0000      -0.498393       -13.5620
  67   2.0000      -0.492426       -13.3996
  68   2.0000      -0.482351       -13.1254
  69   2.0000      -0.465117       -12.6565
  70   2.0000      -0.458377       -12.4731
  71   2.0000      -0.449331       -12.2269
  72   2.0000      -0.354615        -9.6496
  73   2.0000      -0.348227        -9.4757
  74   2.0000      -0.328606        -8.9418
  75   2.0000      -0.318999        -8.6804
  76   2.0000      -0.318449        -8.6654
  77   0.0000       0.072643         1.9767
  78   0.0000       0.106591         2.9005
  79   0.0000       0.120560         3.2806
  80   0.0000       0.132901         3.6164
  81   0.0000       0.138457         3.7676

MULLIKEN ATOMIC CHARGES
-----------------------
   0 C :   -0.290538
   1 C :    0.035544
   2 O :   -0.380251
   3 C :    0.447192
   4 O :   -0.388664
   5 C :   -0.206736
   6 C :    0.156436
   7 C :   -0.284652
   8 N :   -0.127288
   9 C :    0.207162
  10 S :   -0.440283
  11 N :   -0.213444
  12 C :    0.054841
  13 C :    0.019616
  14 C :   -0.184442
  15 C :   -0.131841
  16 C :   -0.277599
  17 C :    0.312075
  18 O :   -0.358135
  19 C :   -0.247182
  20 H :    0.114633
  21 H :    0.100395
  22 H :    0.112206
  23 H :    0.109309
  24 H :    0.081830
  25 H :    0.132126
  26 H :    0.104901
  27 H :    0.121904
  28 H :    0.198580
  29 H :    0.199751
  30 H :    0.157808
  31 H :    0.165270
  32 H :    0.162037
  33 H :    0.130498
  34 H :    0.240544
  35 H :    0.166400
Sum of atomic charges:   -0.0000000

LOEWDIN ATOMIC CHARGES
----------------------
   0 C :    0.107954
   1 C :   -0.019024
   2 O :    0.288206
   3 C :   -0.420584
   4 O :    0.127076
   5 C :   -0.097616
   6 C :   -0.066073
   7 C :    0.126542
   8 N :    0.405663
   9 C :   -0.457911
  10 S :   -0.036278
  11 N :    0.396114
  12 C :   -0.048887
  13 C :   -0.042839
  14 C :    0.023653
  15 C :    0.041096
  16 C :   -0.001146
  17 C :   -0.193001
  18 O :    0.393580
  19 C :    0.028133
  20 H :   -0.021179
  21 H :   -0.026064
  22 H :   -0.024431
  23 H :   -0.022483
  24 H :   -0.037231
  25 H :   -0.006383
  26 H :   -0.020155
  27 H :   -0.011217
  28 H :   -0.058312
  29 H :   -0.063497
  30 H :   -0.007263
  31 H :   -0.022989
  32 H :   -0.020162
  33 H :   -0.035528
  34 H :   -0.154165
  35 H :   -0.023598

  Mayer bond orders larger than 0.100000
B(  0-C ,  1-C ) :   0.9792 B(  0-C , 20-H ) :   0.9723 B(  0-C , 21-H ) :   0.9742
B(  0-C , 22-H ) :   0.9683 B(  1-C ,  2-O ) :   0.9048 B(  1-C , 23-H ) :   0.9779
B(  1-C , 24-H ) :   0.9745 B(  2-O ,  3-C ) :   1.0695 B(  3-C ,  4-O ) :   2.0479
B(  3-C ,  5-C ) :   1.0098 B(  5-C ,  6-C ) :   1.6641 B(  5-C , 12-C ) :   0.9483
B(  6-C ,  7-C ) :   0.9518 B(  6-C ,  8-N ) :   1.1417 B(  7-C , 25-H ) :   0.9646
B(  7-C , 26-H ) :   0.9892 B(  7-C , 27-H ) :   0.9675 B(  8-N ,  9-C ) :   1.1841
B(  8-N , 28-H ) :   0.9472 B(  9-C , 10-S ) :   1.6114 B(  9-C , 11-N ) :   1.3028
B( 11-N , 12-C ) :   0.9810 B( 11-N , 29-H ) :   0.9487 B( 12-C , 13-C ) :   0.9671
B( 12-C , 30-H ) :   0.9954 B( 13-C , 14-C ) :   1.3820 B( 13-C , 19-C ) :   1.3626
B( 14-C , 15-C ) :   1.3951 B( 14-C , 31-H ) :   0.9616 B( 15-C , 16-C ) :   1.3594
B( 15-C , 32-H ) :   0.9707 B( 16-C , 17-C ) :   1.3323 B( 16-C , 33-H ) :   0.9852
B( 17-C , 18-O ) :   1.1059 B( 17-C , 19-C ) :   1.3675 B( 18-O , 34-H ) :   0.9801
B( 19-C , 35-H ) :   0.9591

MP2 TOTAL ENERGY:    -1274.326291302 Eh
FINAL SINGLE POINT ENERGY     -1274.326291302445

DIPOLE MOMENT
-------------
                                X             Y             Z
Electronic contribution:      9.45481       9.73167       7.85257
Nuclear contribution   :    -11.03233     -10.86976      -8.53765
                        -----------------------------------------
Total Dipole Moment    :     -1.57752      -1.13809      -0.68508
                        -----------------------------------------
Magnitude (a.u.)       :      2.06232
Magnitude (Debye)      :      5.24199

Rotational constants in cm-1:     0.011141     0.009184     0.006093
Rotational constants in MHz :   333.985640   275.326482   182.658170

                             ****ORCA TERMINATED NORMALLY****
TOTAL RUN TIME: 0 days 2 hours 8 minutes 32 seconds 940 msec
