                         Program Version 4.2.0 -  RELEASE  -
|  1> ! ri-mp2 cc-pvtz cc-pvtz/c TightSCF NoKeepInts
|  2>
|  3> %scf
|  4>   MaxCore 4096
|  5> end
|  6> *xyz  0  1
|  7>     C       14.8660589   14.7195419   16.5385535
|  8>     C       15.4611111   15.3748644   15.2831819
|  9>     O       16.8385061   15.7286504   15.5140933
| 10>     C       17.1922072   16.9987777   15.1767043
| 11>     O       17.3809944   17.2937904   14.0104313
| 12>     C       17.1197886   17.9847265   16.3078162
| 13>     C       16.9985428   19.3081142   16.0293440
| 14>     C       16.5153624   19.9245038   14.7326947
| 15>     N       17.3090791   20.2810690   16.9810645
| 16>     C       17.9873052   20.0298923   18.1423500
| 17>     S       18.4433670   21.2413236   19.1716272
| 18>     N       18.2930319   18.7167658   18.3956643
| 19>     C       17.8038852   17.5599452   17.6197869
| 20>     C       17.0712381   16.5523105   18.4923748
| 21>     C       17.5502723   15.2358743   18.6237980
| 22>     C       16.9087890   14.3256746   19.4809979
| 23>     C       15.7839476   14.7374411   20.2164938
| 24>     C       15.3114333   16.0516321   20.0949707
| 25>     O       14.2271969   16.4523165   20.8050056
| 26>     C       15.9520279   16.9557050   19.2413228
| 27>     H       15.5192004   13.9199936   16.9085694
| 28>     H       13.8861937   14.2823265   16.3124220
| 29>     H       14.7245427   15.4588103   17.3322011
| 30>     H       15.4093473   14.6722067   14.4411684
| 31>     H       14.8614364   16.2574269   15.0198367
| 32>     H       15.7137005   19.3234371   14.2859110
| 33>     H       17.3337100   19.9725564   14.0023950
| 34>     H       16.1217378   20.9390377   14.8669227
| 35>     H       17.1248876   21.2520264   16.7846673
| 36>     H       18.7765113   18.5586392   19.2710405
| 37>     H       18.7717419   17.1434425   17.3059027
| 38>     H       18.4206619   14.9163845   18.0563669
| 39>     H       17.2839356   13.3077826   19.5730093
| 40>     H       15.2854635   14.0376245   20.8792020
| 41>     H       13.9577733   15.7120141   21.3694301
| 42>     H       15.5820115   17.9733719   19.1706790
| 43> *
| 44>
| 45>                          ****END OF INPUT****

CARTESIAN COORDINATES (ANGSTROEM)
---------------------------------
  C     14.866059   14.719542   16.538553
  C     15.461111   15.374864   15.283182
  O     16.838506   15.728650   15.514093
  C     17.192207   16.998778   15.176704
  O     17.380994   17.293790   14.010431
  C     17.119789   17.984727   16.307816
  C     16.998543   19.308114   16.029344
  C     16.515362   19.924504   14.732695
  N     17.309079   20.281069   16.981064
  C     17.987305   20.029892   18.142350
  S     18.443367   21.241324   19.171627
  N     18.293032   18.716766   18.395664
  C     17.803885   17.559945   17.619787
  C     17.071238   16.552311   18.492375
  C     17.550272   15.235874   18.623798
  C     16.908789   14.325675   19.480998
  C     15.783948   14.737441   20.216494
  C     15.311433   16.051632   20.094971
  O     14.227197   16.452316   20.805006
  C     15.952028   16.955705   19.241323
  H     15.519200   13.919994   16.908569
  H     13.886194   14.282326   16.312422
  H     14.724543   15.458810   17.332201
  H     15.409347   14.672207   14.441168
  H     14.861436   16.257427   15.019837
  H     15.713700   19.323437   14.285911
  H     17.333710   19.972556   14.002395
  H     16.121738   20.939038   14.866923
  H     17.124888   21.252026   16.784667
  H     18.776511   18.558639   19.271041
  H     18.771742   17.143442   17.305903
  H     18.420662   14.916384   18.056367
  H     17.283936   13.307783   19.573009
  H     15.285463   14.037624   20.879202
  H     13.957773   15.712014   21.369430
  H     15.582012   17.973372   19.170679

 Total Charge           Charge          ....    0
 Multiplicity           Mult            ....    1
 Number of Electrons    NEL             ....  154
 Basis Dimension        Dim             ....  828

ORBITAL ENERGIES
----------------

  NO   OCC          E(Eh)            E(eV)
   0   2.0000     -91.891115     -2500.4844
   1   2.0000     -20.599990      -560.5542
   2   2.0000     -20.581656      -560.0553
   3   2.0000     -20.552425      -559.2599
   4   2.0000     -15.630427      -425.3255
   5   2.0000     -15.609516      -424.7565
   6   2.0000     -11.392867      -310.0157
   7   2.0000     -11.385456      -309.8140
   8   2.0000     -11.337366      -308.5054
   9   2.0000     -11.317326      -307.9601
  10   2.0000     -11.312966      -307.8415
  11   2.0000     -11.299596      -307.4776
  12   2.0000     -11.264495      -306.5225
  13   2.0000     -11.258819      -306.3680
  14   2.0000     -11.258028      -306.3465
  15   2.0000     -11.254916      -306.2618
  16   2.0000     -11.247340      -306.0557
  17   2.0000     -11.242458      -305.9228
  18   2.0000     -11.241625      -305.9002
  19   2.0000     -11.221563      -305.3542
  20   2.0000      -8.896158      -242.0768
  21   2.0000      -6.577722      -178.9889
  22   2.0000      -6.575732      -178.9348
  23   2.0000      -6.575133      -178.9185
  24   2.0000      -1.449737       -39.4494
  25   2.0000      -1.419772       -38.6340
  26   2.0000      -1.355487       -36.8847
  27   2.0000      -1.342589       -36.5337
  28   2.0000      -1.240899       -33.7666
  29   2.0000      -1.160767       -31.5861
  30   2.0000      -1.123220       -30.5644
  31   2.0000      -1.046084       -28.4654
  32   2.0000      -1.033626       -28.1264
  33   2.0000      -1.018873       -27.7250
  34   2.0000      -1.000735       -27.2314
  35   2.0000      -0.987700       -26.8767
  36   2.0000      -0.924969       -25.1697
  37   2.0000      -0.881489       -23.9865
  38   2.0000      -0.848909       -23.1000
  39   2.0000      -0.841631       -22.9019
  40   2.0000      -0.837759       -22.7966
  41   2.0000      -0.827139       -22.5076
  42   2.0000      -0.762225       -20.7412
  43   2.0000      -0.736362       -20.0374
  44   2.0000      -0.724175       -19.7058
  45   2.0000      -0.698282       -19.0012
  46   2.0000      -0.689234       -18.7550
  47   2.0000      -0.680487       -18.5170
  48   2.0000      -0.674568       -18.3559
  49   2.0000      -0.664816       -18.0906
  50   2.0000      -0.648286       -17.6408
  51   2.0000      -0.643875       -17.5207
  52   2.0000      -0.633386       -17.2353
  53   2.0000      -0.609908       -16.5964
  54   2.0000      -0.604813       -16.4578
  55   2.0000      -0.602204       -16.3868
  56   2.0000      -0.601203       -16.3596
  57   2.0000      -0.580117       -15.7858
  58   2.0000      -0.574200       -15.6248
  59   2.0000      -0.567349       -15.4384
  60   2.0000      -0.563517       -15.3341
  61   2.0000      -0.548553       -14.9269
  62   2.0000      -0.540815       -14.7163
  63   2.0000      -0.525646       -14.3036
  64   2.0000      -0.515482       -14.0270
  65   2.0000      -0.510376       -13.8880
  66   2.0000      -0.506696       -13.7879
  67   2.0000      -0.501906       -13.6576
  68   2.0000      -0.482041       -13.1170
  69   2.0000      -0.464031       -12.6269
  70   2.0000      -0.453221       -12.3328
  71   2.0000      -0.450562       -12.2604
  72   2.0000      -0.355908        -9.6847
  73   2.0000      -0.351360        -9.5610
  74   2.0000      -0.330058        -8.9813
  75   2.0000      -0.324641        -8.8339
  76   2.0000      -0.320792        -8.7292
  77   0.0000       0.072327         1.9681
  78   0.0000       0.100051         2.7225
  79   0.0000       0.121238         3.2990
  80   0.0000       0.129140         3.5141
  81   0.0000       0.130827         3.5600

MULLIKEN ATOMIC CHARGES
-----------------------
   0 C :   -0.305837
   1 C :    0.050941
   2 O :   -0.366999
   3 C :    0.429727
   4 O :   -0.378945
   5 C :   -0.223210
   6 C :    0.166737
   7 C :   -0.270250
   8 N :   -0.128477
   9 C :    0.207089
  10 S :   -0.437284
  11 N :   -0.209976
  12 C :    0.028988
  13 C :    0.016440
  14 C :   -0.153674
  15 C :   -0.158299
  16 C :   -0.258571
  17 C :    0.300824
  18 O :   -0.359060
  19 C :   -0.234685
  20 H :    0.104956
  21 H :    0.112280
  22 H :    0.107366
  23 H :    0.111723
  24 H :    0.079846
  25 H :    0.120632
  26 H :    0.138591
  27 H :    0.095511
  28 H :    0.200116
  29 H :    0.200575
  30 H :    0.152079
  31 H :    0.151420
  32 H :    0.166302
  33 H :    0.133554
  34 H :    0.240964
  35 H :    0.168604
Sum of atomic charges:   -0.0000000

LOEWDIN ATOMIC CHARGES
----------------------
   0 C :    0.107257
   1 C :   -0.016272
   2 O :    0.289963
   3 C :   -0.428551
   4 O :    0.127208
   5 C :   -0.103210
   6 C :   -0.059907
   7 C :    0.129285
   8 N :    0.407539
   9 C :   -0.458065
  10 S :   -0.033043
  11 N :    0.396093
  12 C :   -0.053824
  13 C :   -0.042107
  14 C :    0.022689
  15 C :    0.044246
  16 C :    0.001009
  17 C :   -0.192194
  18 O :    0.396205
  19 C :    0.031033
  20 H :   -0.026378
  21 H :   -0.026631
  22 H :   -0.028668
  23 H :   -0.026701
  24 H :   -0.031831
  25 H :   -0.008171
  26 H :   -0.004358
  27 H :   -0.022325
  28 H :   -0.056505
  29 H :   -0.063265
  30 H :   -0.012109
  31 H :   -0.027625
  32 H :   -0.020384
  33 H :   -0.034682
  34 H :   -0.153138
  35 H :   -0.022579

  Mayer bond orders larger than 0.100000
B(  0-C ,  1-C ) :   0.9736 B(  0-C , 20-H ) :   0.9714 B(  0-C , 21-H ) :   0.9795
B(  0-C , 22-H ) :   0.9732 B(  1-C ,  2-O ) :   0.8906 B(  1-C , 23-H ) :   0.9864
B(  1-C , 24-H ) :   0.9730 B(  2-O ,  3-C ) :   1.1035 B(  3-C ,  4-O ) :   2.0800
B(  3-C ,  5-C ) :   1.0192 B(  5-C ,  6-C ) :   1.6295 B(  5-C , 12-C ) :   0.9681
B(  6-C ,  7-C ) :   0.9619 B(  6-C ,  8-N ) :   1.1447 B(  7-C , 25-H ) :   0.9712
B(  7-C , 26-H ) :   0.9547 B(  7-C , 27-H ) :   0.9862 B(  8-N ,  9-C ) :   1.1881
B(  8-N , 28-H ) :   0.9480 B(  9-C , 10-S ) :   1.6145 B(  9-C , 11-N ) :   1.2993
B( 11-N , 12-C ) :   0.9770 B( 11-N , 29-H ) :   0.9479 B( 12-C , 13-C ) :   0.9550
B( 12-C , 30-H ) :   1.0055 B( 13-C , 14-C ) :   1.3630 B( 13-C , 19-C ) :   1.3653
B( 14-C , 15-C ) :   1.3912 B( 14-C , 31-H ) :   0.9712 B( 15-C , 16-C ) :   1.3537
B( 15-C , 32-H ) :   0.9705 B( 16-C , 17-C ) :   1.3352 B( 16-C , 33-H ) :   0.9838
B( 17-C , 18-O ) :   1.1065 B( 17-C , 19-C ) :   1.3631 B( 18-O , 34-H ) :   0.9793
B( 19-C , 35-H ) :   0.9603

MP2 TOTAL ENERGY:    -1274.318723427 Eh
FINAL SINGLE POINT ENERGY     -1274.318723426551

DIPOLE MOMENT
-------------
                                X             Y             Z
Electronic contribution:      8.59517      10.29677       5.79017
Nuclear contribution   :     -9.84330     -11.86014      -5.84376
                        -----------------------------------------
Total Dipole Moment    :     -1.24813      -1.56337      -0.05359
                        -----------------------------------------
Magnitude (a.u.)       :      2.00121
Magnitude (Debye)      :      5.08667

Rotational constants in cm-1:     0.012182     0.009001     0.006053
Rotational constants in MHz :   365.220152   269.856511   181.453541

                             ****ORCA TERMINATED NORMALLY****
TOTAL RUN TIME: 0 days 1 hours 43 minutes 40 seconds 247 msec
