                         Program Version 4.2.0 -  RELEASE  -
|  1> ! ri-mp2 cc-pvtz cc-pvtz/c TightSCF NoKeepInts
|  2>
|  3> %scf
|  4>   MaxCore 4096
|  5> end
|  6> *xyz  0  1
|  7>     C       15.0654756   14.4150289   14.4919692
|  8>     C       15.1271009   15.2578506   15.7768314
|  9>     O       16.2540103   16.1424610   15.6626224
| 10>     C       16.0138495   17.4833484   15.6006812
| 11>     O       15.1881673   17.9460911   14.8329840
| 12>     C       16.7566535   18.2613922   16.6531324
| 13>     C       16.8174044   19.6168055   16.6014493
| 14>     C       16.0000339   20.5363076   15.7178118
| 15>     N       17.7115711   20.3282350   17.4046969
| 16>     C       18.7082331   19.7559463   18.1479068
| 17>     S       19.7938079   20.6634762   19.0043522
| 18>     N       18.7744877   18.3857490   18.1288973
| 19>     C       17.7934880   17.4902532   17.4875105
| 20>     C       17.1897699   16.4880581   18.4627666
| 21>     C       17.5754024   15.1353020   18.4276185
| 22>     C       17.0124008   14.2095307   19.3220823
| 23>     C       16.0596753   14.6414169   20.2608445
| 24>     C       15.6789201   15.9899546   20.3016124
| 25>     O       14.7600173   16.4097560   21.2071768
| 26>     C       16.2398724   16.9086259   19.4089429
| 27>     H       14.9180320   15.0607483   13.6167976
| 28>     H       14.2323381   13.7033841   14.5372723
| 29>     H       15.9954929   13.8500529   14.3534426
| 30>     H       14.1883365   15.8134150   15.9109379
| 31>     H       15.2616412   14.5978352   16.6436877
| 32>     H       14.9275441   20.3393170   15.8430167
| 33>     H       16.2416884   20.3718464   14.6599147
| 34>     H       16.1640262   21.5986512   15.9334946
| 35>     H       17.6884566   21.3354759   17.4091428
| 36>     H       19.5016839   17.9915757   18.7122363
| 37>     H       18.4390372   16.9792587   16.7589045
| 38>     H       18.3080618   14.7997881   17.6981568
| 39>     H       17.3153401   13.1643435   19.2870295
| 40>     H       15.6230113   13.9305183   20.9547382
| 41>     H       14.5241656   15.6487056   21.7587804
| 42>     H       15.9378024   17.9494952   19.4585580
| 43> *
| 44>
| 45>                          ****END OF INPUT****

CARTESIAN COORDINATES (ANGSTROEM)
---------------------------------
  C     15.065476   14.415029   14.491969
  C     15.127101   15.257851   15.776831
  O     16.254010   16.142461   15.662622
  C     16.013849   17.483348   15.600681
  O     15.188167   17.946091   14.832984
  C     16.756653   18.261392   16.653132
  C     16.817404   19.616806   16.601449
  C     16.000034   20.536308   15.717812
  N     17.711571   20.328235   17.404697
  C     18.708233   19.755946   18.147907
  S     19.793808   20.663476   19.004352
  N     18.774488   18.385749   18.128897
  C     17.793488   17.490253   17.487510
  C     17.189770   16.488058   18.462767
  C     17.575402   15.135302   18.427618
  C     17.012401   14.209531   19.322082
  C     16.059675   14.641417   20.260844
  C     15.678920   15.989955   20.301612
  O     14.760017   16.409756   21.207177
  C     16.239872   16.908626   19.408943
  H     14.918032   15.060748   13.616798
  H     14.232338   13.703384   14.537272
  H     15.995493   13.850053   14.353443
  H     14.188336   15.813415   15.910938
  H     15.261641   14.597835   16.643688
  H     14.927544   20.339317   15.843017
  H     16.241688   20.371846   14.659915
  H     16.164026   21.598651   15.933495
  H     17.688457   21.335476   17.409143
  H     19.501684   17.991576   18.712236
  H     18.439037   16.979259   16.758904
  H     18.308062   14.799788   17.698157
  H     17.315340   13.164343   19.287029
  H     15.623011   13.930518   20.954738
  H     14.524166   15.648706   21.758780
  H     15.937802   17.949495   19.458558

 Total Charge           Charge          ....    0
 Multiplicity           Mult            ....    1
 Number of Electrons    NEL             ....  154
 Basis Dimension        Dim             ....  828

ORBITAL ENERGIES
----------------

  NO   OCC          E(Eh)            E(eV)
   0   2.0000     -91.890060     -2500.4556
   1   2.0000     -20.599510      -560.5412
   2   2.0000     -20.589377      -560.2654
   3   2.0000     -20.544176      -559.0354
   4   2.0000     -15.630580      -425.3297
   5   2.0000     -15.608161      -424.7196
   6   2.0000     -11.393353      -310.0289
   7   2.0000     -11.384730      -309.7943
   8   2.0000     -11.338582      -308.5385
   9   2.0000     -11.317132      -307.9548
  10   2.0000     -11.308874      -307.7301
  11   2.0000     -11.294977      -307.3520
  12   2.0000     -11.263695      -306.5007
  13   2.0000     -11.258536      -306.3603
  14   2.0000     -11.258442      -306.3578
  15   2.0000     -11.252762      -306.2032
  16   2.0000     -11.246805      -306.0411
  17   2.0000     -11.241994      -305.9102
  18   2.0000     -11.241572      -305.8987
  19   2.0000     -11.222001      -305.3662
  20   2.0000      -8.895119      -242.0485
  21   2.0000      -6.576688      -178.9608
  22   2.0000      -6.574693      -178.9065
  23   2.0000      -6.574099      -178.8903
  24   2.0000      -1.449851       -39.4524
  25   2.0000      -1.419176       -38.6177
  26   2.0000      -1.353708       -36.8363
  27   2.0000      -1.341560       -36.5057
  28   2.0000      -1.239493       -33.7283
  29   2.0000      -1.160505       -31.5790
  30   2.0000      -1.122254       -30.5381
  31   2.0000      -1.045111       -28.4389
  32   2.0000      -1.034860       -28.1600
  33   2.0000      -1.018229       -27.7074
  34   2.0000      -0.997142       -27.1336
  35   2.0000      -0.985631       -26.8204
  36   2.0000      -0.923531       -25.1306
  37   2.0000      -0.883642       -24.0451
  38   2.0000      -0.848130       -23.0788
  39   2.0000      -0.840537       -22.8722
  40   2.0000      -0.837100       -22.7787
  41   2.0000      -0.823931       -22.4203
  42   2.0000      -0.761259       -20.7149
  43   2.0000      -0.735808       -20.0224
  44   2.0000      -0.723650       -19.6915
  45   2.0000      -0.698182       -18.9985
  46   2.0000      -0.689729       -18.7685
  47   2.0000      -0.678517       -18.4634
  48   2.0000      -0.672471       -18.2989
  49   2.0000      -0.652103       -17.7446
  50   2.0000      -0.648775       -17.6541
  51   2.0000      -0.641939       -17.4681
  52   2.0000      -0.631876       -17.1942
  53   2.0000      -0.611532       -16.6406
  54   2.0000      -0.609501       -16.5854
  55   2.0000      -0.601794       -16.3756
  56   2.0000      -0.601159       -16.3584
  57   2.0000      -0.580330       -15.7916
  58   2.0000      -0.572218       -15.5708
  59   2.0000      -0.568371       -15.4662
  60   2.0000      -0.565177       -15.3792
  61   2.0000      -0.541772       -14.7424
  62   2.0000      -0.534373       -14.5410
  63   2.0000      -0.526726       -14.3330
  64   2.0000      -0.516118       -14.0443
  65   2.0000      -0.514470       -13.9995
  66   2.0000      -0.501952       -13.6588
  67   2.0000      -0.497219       -13.5300
  68   2.0000      -0.488153       -13.2833
  69   2.0000      -0.464296       -12.6341
  70   2.0000      -0.454044       -12.3552
  71   2.0000      -0.446914       -12.1612
  72   2.0000      -0.354457        -9.6453
  73   2.0000      -0.352415        -9.5897
  74   2.0000      -0.329400        -8.9634
  75   2.0000      -0.324460        -8.8290
  76   2.0000      -0.319400        -8.6913
  77   0.0000       0.073110         1.9894
  78   0.0000       0.101881         2.7723
  79   0.0000       0.124236         3.3806
  80   0.0000       0.131064         3.5664
  81   0.0000       0.134213         3.6521

MULLIKEN ATOMIC CHARGES
-----------------------
   0 C :   -0.265385
   1 C :    0.031087
   2 O :   -0.368290
   3 C :    0.450584
   4 O :   -0.422005
   5 C :   -0.255732
   6 C :    0.181666
   7 C :   -0.266654
   8 N :   -0.126581
   9 C :    0.211488
  10 S :   -0.440236
  11 N :   -0.217163
  12 C :    0.073629
  13 C :    0.033622
  14 C :   -0.193766
  15 C :   -0.130488
  16 C :   -0.276710
  17 C :    0.314891
  18 O :   -0.355800
  19 C :   -0.244323
  20 H :    0.107772
  21 H :    0.087277
  22 H :    0.090270
  23 H :    0.096201
  24 H :    0.115558
  25 H :    0.133263
  26 H :    0.130135
  27 H :    0.094886
  28 H :    0.199739
  29 H :    0.200948
  30 H :    0.152577
  31 H :    0.155650
  32 H :    0.164004
  33 H :    0.132317
  34 H :    0.241110
  35 H :    0.164459
Sum of atomic charges:   -0.0000000

LOEWDIN ATOMIC CHARGES
----------------------
   0 C :    0.105373
   1 C :   -0.017408
   2 O :    0.304101
   3 C :   -0.420393
   4 O :    0.104114
   5 C :   -0.099091
   6 C :   -0.055002
   7 C :    0.131815
   8 N :    0.407545
   9 C :   -0.456024
  10 S :   -0.035149
  11 N :    0.394330
  12 C :   -0.054636
  13 C :   -0.039014
  14 C :    0.017302
  15 C :    0.038827
  16 C :   -0.001199
  17 C :   -0.189690
  18 O :    0.395657
  19 C :    0.032733
  20 H :   -0.023119
  21 H :   -0.028866
  22 H :   -0.029210
  23 H :   -0.028345
  24 H :   -0.028826
  25 H :   -0.004297
  26 H :   -0.004412
  27 H :   -0.023443
  28 H :   -0.056947
  29 H :   -0.064485
  30 H :   -0.012634
  31 H :   -0.028212
  32 H :   -0.020650
  33 H :   -0.034881
  34 H :   -0.153333
  35 H :   -0.022531

  Mayer bond orders larger than 0.100000
B(  0-C ,  1-C ) :   0.9823 B(  0-C , 20-H ) :   0.9773 B(  0-C , 21-H ) :   0.9769
B(  0-C , 22-H ) :   0.9787 B(  1-C ,  2-O ) :   0.8791 B(  1-C , 23-H ) :   0.9721
B(  1-C , 24-H ) :   0.9728 B(  2-O ,  3-C ) :   1.1169 B(  3-C ,  4-O ) :   1.9880
B(  3-C ,  5-C ) :   1.0766 B(  5-C ,  6-C ) :   1.6273 B(  5-C , 12-C ) :   0.9522
B(  6-C ,  7-C ) :   0.9660 B(  6-C ,  8-N ) :   1.1565 B(  7-C , 25-H ) :   0.9610
B(  7-C , 26-H ) :   0.9585 B(  7-C , 27-H ) :   0.9902 B(  8-N ,  9-C ) :   1.1858
B(  8-N , 28-H ) :   0.9462 B(  9-C , 10-S ) :   1.6069 B(  9-C , 11-N ) :   1.3099
B( 11-N , 12-C ) :   0.9657 B( 11-N , 29-H ) :   0.9484 B( 12-C , 13-C ) :   0.9619
B( 12-C , 30-H ) :   1.0013 B( 13-C , 14-C ) :   1.3491 B( 13-C , 19-C ) :   1.3785
B( 14-C , 15-C ) :   1.3913 B( 14-C , 31-H ) :   0.9722 B( 15-C , 16-C ) :   1.3570
B( 15-C , 32-H ) :   0.9701 B( 16-C , 17-C ) :   1.3329 B( 16-C , 33-H ) :   0.9844
B( 17-C , 18-O ) :   1.1063 B( 17-C , 19-C ) :   1.3653 B( 18-O , 34-H ) :   0.9793
B( 19-C , 35-H ) :   0.9591

MP2 TOTAL ENERGY:    -1274.334706672 Eh
FINAL SINGLE POINT ENERGY     -1274.334706672280

DIPOLE MOMENT
-------------
                                X             Y             Z
Electronic contribution:      9.14630      10.70670       8.96928
Nuclear contribution   :    -10.19094     -12.30621      -9.01687
                        -----------------------------------------
Total Dipole Moment    :     -1.04465      -1.59951      -0.04759
                        -----------------------------------------
Magnitude (a.u.)       :      1.91102
Magnitude (Debye)      :      4.85742

Rotational constants in cm-1:     0.011633     0.008453     0.005902
Rotational constants in MHz :   348.760182   253.417300   176.929988

                             ****ORCA TERMINATED NORMALLY****
TOTAL RUN TIME: 0 days 1 hours 45 minutes 13 seconds 30 msec
