                         Program Version 4.2.0 -  RELEASE  -
|  1> ! ri-mp2 cc-pvtz cc-pvtz/c TightSCF NoKeepInts
|  2>
|  3> %scf
|  4>   MaxCore 4096
|  5> end
|  6> *xyz  0  1
|  7>     C       13.8358592   16.6004084   15.2230232
|  8>     C       15.0900881   15.7916432   15.5945621
|  9>     O       16.2091451   16.2790888   14.8282821
| 10>     C       17.3505411   16.6080315   15.4999809
| 11>     O       18.3840132   15.9804691   15.3600165
| 12>     C       17.1831734   17.6878650   16.5177784
| 13>     C       16.7224489   18.9116527   16.1597740
| 14>     C       16.1606524   19.3326579   14.8157231
| 15>     N       16.8348088   19.9965377   17.0313824
| 16>     C       17.6023064   19.9957475   18.1663338
| 17>     S       17.7823272   21.3501100   19.0978468
| 18>     N       18.2352176   18.8170829   18.4767790
| 19>     C       18.0261982   17.5306686   17.7828194
| 20>     C       17.5317268   16.4019067   18.6749606
| 21>     C       18.1247932   15.1289607   18.6016571
| 22>     C       17.6556014   14.0754914   19.4038847
| 23>     C       16.5820867   14.2965692   20.2837373
| 24>     C       15.9847662   15.5626785   20.3533103
| 25>     O       14.9410074   15.7761362   21.1932551
| 26>     C       16.4527400   16.6091559   19.5520220
| 27>     H       13.8805367   17.6081548   15.6490328
| 28>     H       12.9376759   16.1109923   15.6192627
| 29>     H       13.7299800   16.6788588   14.1336258
| 30>     H       15.2690518   15.8599496   16.6767901
| 31>     H       14.9275547   14.7334569   15.3508889
| 32>     H       16.4351137   18.6438450   14.0083423
| 33>     H       16.5452525   20.3162142   14.5172534
| 34>     H       15.0676476   19.3997509   14.8440741
| 35>     H       16.4053174   20.8774957   16.7962167
| 36>     H       18.7903348   18.8416189   19.3230805
| 37>     H       19.0501136   17.3234069   17.4372551
| 38>     H       18.9465195   14.9539694   17.9098796
| 39>     H       18.1218657   13.0937355   19.3382845
| 40>     H       16.2161620   13.4851202   20.9042785
| 41>     H       14.7991212   14.9591199   21.6950085
| 42>     H       15.9752515   17.5814489   19.6175976
| 43> *
| 44>
| 45>                          ****END OF INPUT****

CARTESIAN COORDINATES (ANGSTROEM)
---------------------------------
  C     13.835859   16.600408   15.223023
  C     15.090088   15.791643   15.594562
  O     16.209145   16.279089   14.828282
  C     17.350541   16.608031   15.499981
  O     18.384013   15.980469   15.360017
  C     17.183173   17.687865   16.517778
  C     16.722449   18.911653   16.159774
  C     16.160652   19.332658   14.815723
  N     16.834809   19.996538   17.031382
  C     17.602306   19.995748   18.166334
  S     17.782327   21.350110   19.097847
  N     18.235218   18.817083   18.476779
  C     18.026198   17.530669   17.782819
  C     17.531727   16.401907   18.674961
  C     18.124793   15.128961   18.601657
  C     17.655601   14.075491   19.403885
  C     16.582087   14.296569   20.283737
  C     15.984766   15.562679   20.353310
  O     14.941007   15.776136   21.193255
  C     16.452740   16.609156   19.552022
  H     13.880537   17.608155   15.649033
  H     12.937676   16.110992   15.619263
  H     13.729980   16.678859   14.133626
  H     15.269052   15.859950   16.676790
  H     14.927555   14.733457   15.350889
  H     16.435114   18.643845   14.008342
  H     16.545253   20.316214   14.517253
  H     15.067648   19.399751   14.844074
  H     16.405317   20.877496   16.796217
  H     18.790335   18.841619   19.323080
  H     19.050114   17.323407   17.437255
  H     18.946519   14.953969   17.909880
  H     18.121866   13.093735   19.338284
  H     16.216162   13.485120   20.904278
  H     14.799121   14.959120   21.695009
  H     15.975251   17.581449   19.617598

 Total Charge           Charge          ....    0
 Multiplicity           Mult            ....    1
 Number of Electrons    NEL             ....  154
 Basis Dimension        Dim             ....  828

ORBITAL ENERGIES
----------------

  NO   OCC          E(Eh)            E(eV)
   0   2.0000     -91.889790     -2500.4483
   1   2.0000     -20.599596      -560.5435
   2   2.0000     -20.592212      -560.3426
   3   2.0000     -20.555721      -559.3496
   4   2.0000     -15.628048      -425.2608
   5   2.0000     -15.609081      -424.7447
   6   2.0000     -11.396282      -310.1086
   7   2.0000     -11.385582      -309.8174
   8   2.0000     -11.335403      -308.4520
   9   2.0000     -11.316897      -307.9484
  10   2.0000     -11.309095      -307.7361
  11   2.0000     -11.305310      -307.6331
  12   2.0000     -11.264067      -306.5109
  13   2.0000     -11.262346      -306.4640
  14   2.0000     -11.262098      -306.4573
  15   2.0000     -11.257001      -306.3186
  16   2.0000     -11.246176      -306.0240
  17   2.0000     -11.242232      -305.9167
  18   2.0000     -11.239234      -305.8351
  19   2.0000     -11.236401      -305.7580
  20   2.0000      -8.894890      -242.0423
  21   2.0000      -6.576469      -178.9548
  22   2.0000      -6.574460      -178.9002
  23   2.0000      -6.573875      -178.8842
  24   2.0000      -1.451060       -39.4854
  25   2.0000      -1.419342       -38.6223
  26   2.0000      -1.362712       -37.0813
  27   2.0000      -1.340962       -36.4894
  28   2.0000      -1.239177       -33.7197
  29   2.0000      -1.160993       -31.5922
  30   2.0000      -1.125211       -30.6185
  31   2.0000      -1.047822       -28.5127
  32   2.0000      -1.039707       -28.2919
  33   2.0000      -1.018582       -27.7170
  34   2.0000      -1.004549       -27.3352
  35   2.0000      -0.989008       -26.9123
  36   2.0000      -0.925772       -25.1915
  37   2.0000      -0.885649       -24.0997
  38   2.0000      -0.852151       -23.1882
  39   2.0000      -0.842308       -22.9204
  40   2.0000      -0.836913       -22.7735
  41   2.0000      -0.834998       -22.7214
  42   2.0000      -0.759621       -20.6703
  43   2.0000      -0.737563       -20.0701
  44   2.0000      -0.731323       -19.9003
  45   2.0000      -0.697109       -18.9693
  46   2.0000      -0.688265       -18.7286
  47   2.0000      -0.685066       -18.6416
  48   2.0000      -0.675030       -18.3685
  49   2.0000      -0.661897       -18.0111
  50   2.0000      -0.652795       -17.7635
  51   2.0000      -0.640698       -17.4343
  52   2.0000      -0.632184       -17.2026
  53   2.0000      -0.622507       -16.9393
  54   2.0000      -0.610107       -16.6019
  55   2.0000      -0.606263       -16.4973
  56   2.0000      -0.602981       -16.4079
  57   2.0000      -0.581951       -15.8357
  58   2.0000      -0.575286       -15.6543
  59   2.0000      -0.574631       -15.6365
  60   2.0000      -0.562692       -15.3116
  61   2.0000      -0.556252       -15.1364
  62   2.0000      -0.545396       -14.8410
  63   2.0000      -0.527659       -14.3583
  64   2.0000      -0.521964       -14.2034
  65   2.0000      -0.514205       -13.9922
  66   2.0000      -0.501706       -13.6521
  67   2.0000      -0.498049       -13.5526
  68   2.0000      -0.488552       -13.2942
  69   2.0000      -0.468666       -12.7530
  70   2.0000      -0.461092       -12.5470
  71   2.0000      -0.452037       -12.3005
  72   2.0000      -0.356744        -9.7075
  73   2.0000      -0.351988        -9.5781
  74   2.0000      -0.329214        -8.9584
  75   2.0000      -0.324288        -8.8243
  76   2.0000      -0.319976        -8.7070
  77   0.0000       0.081238         2.2106
  78   0.0000       0.102764         2.7964
  79   0.0000       0.119594         3.2543
  80   0.0000       0.130065         3.5392
  81   0.0000       0.130857         3.5608

MULLIKEN ATOMIC CHARGES
-----------------------
   0 C :   -0.294600
   1 C :    0.024937
   2 O :   -0.352266
   3 C :    0.449966
   4 O :   -0.373857
   5 C :   -0.227146
   6 C :    0.141673
   7 C :   -0.324462
   8 N :   -0.135757
   9 C :    0.207013
  10 S :   -0.441978
  11 N :   -0.218888
  12 C :    0.066511
  13 C :    0.009501
  14 C :   -0.204383
  15 C :   -0.130517
  16 C :   -0.276083
  17 C :    0.313875
  18 O :   -0.356249
  19 C :   -0.247160
  20 H :    0.088186
  21 H :    0.111064
  22 H :    0.107300
  23 H :    0.104186
  24 H :    0.120244
  25 H :    0.137090
  26 H :    0.128921
  27 H :    0.123847
  28 H :    0.198655
  29 H :    0.200988
  30 H :    0.163827
  31 H :    0.174868
  32 H :    0.164248
  33 H :    0.132291
  34 H :    0.241254
  35 H :    0.172902
Sum of atomic charges:   -0.0000000

LOEWDIN ATOMIC CHARGES
----------------------
   0 C :    0.106598
   1 C :   -0.015937
   2 O :    0.295822
   3 C :   -0.421545
   4 O :    0.128929
   5 C :   -0.091150
   6 C :   -0.081349
   7 C :    0.126465
   8 N :    0.403823
   9 C :   -0.456759
  10 S :   -0.037605
  11 N :    0.395575
  12 C :   -0.049475
  13 C :   -0.044889
  14 C :    0.020429
  15 C :    0.044092
  16 C :   -0.000091
  17 C :   -0.192600
  18 O :    0.394921
  19 C :    0.026785
  20 H :   -0.033705
  21 H :   -0.022612
  22 H :   -0.024243
  23 H :   -0.029425
  24 H :   -0.025124
  25 H :   -0.008940
  26 H :   -0.013365
  27 H :   -0.017907
  28 H :   -0.056593
  29 H :   -0.063883
  30 H :   -0.004939
  31 H :   -0.021481
  32 H :   -0.018774
  33 H :   -0.034783
  34 H :   -0.153193
  35 H :   -0.023074

  Mayer bond orders larger than 0.100000
B(  0-C ,  1-C ) :   0.9728 B(  0-C , 20-H ) :   0.9778 B(  0-C , 21-H ) :   0.9780
B(  0-C , 22-H ) :   0.9744 B(  1-C ,  2-O ) :   0.8996 B(  1-C , 23-H ) :   0.9598
B(  1-C , 24-H ) :   0.9838 B(  2-O ,  3-C ) :   1.1169 B(  3-C ,  4-O ) :   2.0992
B(  3-C ,  5-C ) :   0.9377 B(  5-C ,  6-C ) :   1.7061 B(  5-C , 12-C ) :   0.9416
B(  6-C ,  7-C ) :   0.9493 B(  6-C ,  8-N ) :   1.1160 B(  7-C , 25-H ) :   0.9710
B(  7-C , 26-H ) :   0.9784 B(  7-C , 27-H ) :   0.9645 B(  8-N ,  9-C ) :   1.1944
B(  8-N , 28-H ) :   0.9506 B(  9-C , 10-S ) :   1.6115 B(  9-C , 11-N ) :   1.2927
B( 11-N , 12-C ) :   0.9859 B( 11-N , 29-H ) :   0.9483 B( 12-C , 13-C ) :   0.9660
B( 12-C , 30-H ) :   0.9915 B( 13-C , 14-C ) :   1.3863 B( 13-C , 19-C ) :   1.3535
B( 14-C , 15-C ) :   1.3952 B( 14-C , 31-H ) :   0.9590 B( 15-C , 16-C ) :   1.3619
B( 15-C , 32-H ) :   0.9701 B( 16-C , 17-C ) :   1.3312 B( 16-C , 33-H ) :   0.9844
B( 17-C , 18-O ) :   1.1093 B( 17-C , 19-C ) :   1.3640 B( 18-O , 34-H ) :   0.9794
B( 19-C , 35-H ) :   0.9573

MP2 TOTAL ENERGY:    -1274.327291719 Eh
FINAL SINGLE POINT ENERGY     -1274.327291718595

DIPOLE MOMENT
-------------
                                X             Y             Z
Electronic contribution:     10.38622       6.20942       8.26694
Nuclear contribution   :    -11.81771      -7.56230      -8.62407
                        -----------------------------------------
Total Dipole Moment    :     -1.43149      -1.35288      -0.35713
                        -----------------------------------------
Magnitude (a.u.)       :      2.00175
Magnitude (Debye)      :      5.08803

Rotational constants in cm-1:     0.010927     0.009127     0.006435
Rotational constants in MHz :   327.571868   273.617999   192.927131

                             ****ORCA TERMINATED NORMALLY****
TOTAL RUN TIME: 0 days 1 hours 54 minutes 1 seconds 531 msec
