                         Program Version 4.2.0 -  RELEASE  -
|  1> ! ri-mp2 cc-pvtz cc-pvtz/c TightSCF NoKeepInts
|  2>
|  3> %scf
|  4>   MaxCore 4096
|  5> end
|  6> *xyz  0  1
|  7>     C       14.0486420   15.2633550   14.6045023
|  8>     C       14.9493095   16.0997130   15.5277171
|  9>     O       16.2421651   16.1848368   14.9034362
| 10>     C       17.3200128   16.3842012   15.7144270
| 11>     O       18.2217909   15.5702219   15.7906659
| 12>     C       17.2569282   17.6163148   16.5626816
| 13>     C       16.9382162   18.8224073   16.0291744
| 14>     C       16.4311498   19.1006971   14.6274361
| 15>     N       17.1523521   19.9989149   16.7506160
| 16>     C       17.8913322   20.0730055   17.9015899
| 17>     S       18.1985564   21.5160621   18.6482399
| 18>     N       18.3826199   18.8878551   18.3907739
| 19>     C       18.0484229   17.5474198   17.8697445
| 20>     C       17.4107392   16.6193758   18.8935525
| 21>     C       17.8826778   15.3042666   19.0527725
| 22>     C       17.2844304   14.4384770   19.9834220
| 23>     C       16.2036826   14.8912961   20.7595092
| 24>     C       15.7277148   16.1997626   20.5984671
| 25>     O       14.6782556   16.6367276   21.3390166
| 26>     C       16.3241891   17.0589765   19.6699267
| 27>     H       14.4764442   14.2644358   14.4507557
| 28>     H       13.9414209   15.7470868   13.6256652
| 29>     H       13.0499101   15.1453465   15.0421868
| 30>     H       14.5179778   17.0948539   15.6921931
| 31>     H       15.0285804   15.5894705   16.4983549
| 32>     H       16.9410418   18.4711902   13.8868346
| 33>     H       16.6073895   20.1396314   14.3217177
| 34>     H       15.3547736   18.9113051   14.5475686
| 35>     H       16.8258688   20.8801792   16.3866868
| 36>     H       18.9166339   18.9692316   19.2470773
| 37>     H       19.0508829   17.1858232   17.5959480
| 38>     H       18.7096801   14.9486034   18.4414853
| 39>     H       17.6566140   13.4215097   20.0959516
| 40>     H       15.7381055   14.2250658   21.4783105
| 41>     H       14.4373586   15.9242560   21.9503417
| 42>     H       15.9411301   18.0681240   19.5592508
| 43> *
| 44>
| 45>                          ****END OF INPUT****

CARTESIAN COORDINATES (ANGSTROEM)
---------------------------------
  C     14.048642   15.263355   14.604502
  C     14.949310   16.099713   15.527717
  O     16.242165   16.184837   14.903436
  C     17.320013   16.384201   15.714427
  O     18.221791   15.570222   15.790666
  C     17.256928   17.616315   16.562682
  C     16.938216   18.822407   16.029174
  C     16.431150   19.100697   14.627436
  N     17.152352   19.998915   16.750616
  C     17.891332   20.073006   17.901590
  S     18.198556   21.516062   18.648240
  N     18.382620   18.887855   18.390774
  C     18.048423   17.547420   17.869744
  C     17.410739   16.619376   18.893552
  C     17.882678   15.304267   19.052772
  C     17.284430   14.438477   19.983422
  C     16.203683   14.891296   20.759509
  C     15.727715   16.199763   20.598467
  O     14.678256   16.636728   21.339017
  C     16.324189   17.058976   19.669927
  H     14.476444   14.264436   14.450756
  H     13.941421   15.747087   13.625665
  H     13.049910   15.145346   15.042187
  H     14.517978   17.094854   15.692193
  H     15.028580   15.589470   16.498355
  H     16.941042   18.471190   13.886835
  H     16.607390   20.139631   14.321718
  H     15.354774   18.911305   14.547569
  H     16.825869   20.880179   16.386687
  H     18.916634   18.969232   19.247077
  H     19.050883   17.185823   17.595948
  H     18.709680   14.948603   18.441485
  H     17.656614   13.421510   20.095952
  H     15.738105   14.225066   21.478310
  H     14.437359   15.924256   21.950342
  H     15.941130   18.068124   19.559251

 Total Charge           Charge          ....    0
 Multiplicity           Mult            ....    1
 Number of Electrons    NEL             ....  154
 Basis Dimension        Dim             ....  828

ORBITAL ENERGIES
----------------

  NO   OCC          E(Eh)            E(eV)
   0   2.0000     -91.890193     -2500.4593
   1   2.0000     -20.597267      -560.4801
   2   2.0000     -20.594839      -560.4141
   3   2.0000     -20.553971      -559.3020
   4   2.0000     -15.630015      -425.3143
   5   2.0000     -15.608587      -424.7313
   6   2.0000     -11.395439      -310.0857
   7   2.0000     -11.385509      -309.8155
   8   2.0000     -11.338045      -308.5239
   9   2.0000     -11.313993      -307.8694
  10   2.0000     -11.307337      -307.6883
  11   2.0000     -11.307160      -307.6835
  12   2.0000     -11.264874      -306.5328
  13   2.0000     -11.261344      -306.4368
  14   2.0000     -11.261290      -306.4353
  15   2.0000     -11.254022      -306.2375
  16   2.0000     -11.243623      -305.9545
  17   2.0000     -11.239767      -305.8496
  18   2.0000     -11.236397      -305.7579
  19   2.0000     -11.234974      -305.7192
  20   2.0000      -8.895283      -242.0529
  21   2.0000      -6.576859      -178.9654
  22   2.0000      -6.574853      -178.9109
  23   2.0000      -6.574265      -178.8948
  24   2.0000      -1.452730       -39.5308
  25   2.0000      -1.417003       -38.5586
  26   2.0000      -1.363213       -37.0949
  27   2.0000      -1.341668       -36.5086
  28   2.0000      -1.239199       -33.7203
  29   2.0000      -1.158380       -31.5211
  30   2.0000      -1.124542       -30.6003
  31   2.0000      -1.046655       -28.4809
  32   2.0000      -1.039926       -28.2978
  33   2.0000      -1.016070       -27.6487
  34   2.0000      -1.003763       -27.3138
  35   2.0000      -0.988303       -26.8931
  36   2.0000      -0.924834       -25.1660
  37   2.0000      -0.879630       -23.9359
  38   2.0000      -0.854781       -23.2598
  39   2.0000      -0.842560       -22.9272
  40   2.0000      -0.835626       -22.7386
  41   2.0000      -0.833509       -22.6809
  42   2.0000      -0.759433       -20.6652
  43   2.0000      -0.738293       -20.0900
  44   2.0000      -0.730919       -19.8893
  45   2.0000      -0.694819       -18.9070
  46   2.0000      -0.688422       -18.7329
  47   2.0000      -0.683482       -18.5985
  48   2.0000      -0.674225       -18.3466
  49   2.0000      -0.662395       -18.0247
  50   2.0000      -0.653838       -17.7918
  51   2.0000      -0.647325       -17.6146
  52   2.0000      -0.639249       -17.3948
  53   2.0000      -0.611521       -16.6403
  54   2.0000      -0.604279       -16.4433
  55   2.0000      -0.603579       -16.4242
  56   2.0000      -0.600394       -16.3376
  57   2.0000      -0.582065       -15.8388
  58   2.0000      -0.576748       -15.6941
  59   2.0000      -0.564632       -15.3644
  60   2.0000      -0.561953       -15.2915
  61   2.0000      -0.558852       -15.2071
  62   2.0000      -0.545974       -14.8567
  63   2.0000      -0.522993       -14.2314
  64   2.0000      -0.520233       -14.1563
  65   2.0000      -0.513603       -13.9759
  66   2.0000      -0.501766       -13.6537
  67   2.0000      -0.499055       -13.5800
  68   2.0000      -0.489169       -13.3110
  69   2.0000      -0.469608       -12.7787
  70   2.0000      -0.461277       -12.5520
  71   2.0000      -0.452738       -12.3196
  72   2.0000      -0.356268        -9.6946
  73   2.0000      -0.349727        -9.5165
  74   2.0000      -0.329419        -8.9639
  75   2.0000      -0.321418        -8.7462
  76   2.0000      -0.319628        -8.6975
  77   0.0000       0.076363         2.0779
  78   0.0000       0.105605         2.8736
  79   0.0000       0.116790         3.1780
  80   0.0000       0.131708         3.5840
  81   0.0000       0.134495         3.6598

MULLIKEN ATOMIC CHARGES
-----------------------
   0 C :   -0.255706
   1 C :    0.020168
   2 O :   -0.339814
   3 C :    0.431050
   4 O :   -0.375076
   5 C :   -0.225091
   6 C :    0.153237
   7 C :   -0.302865
   8 N :   -0.133307
   9 C :    0.206530
  10 S :   -0.440518
  11 N :   -0.216784
  12 C :    0.059343
  13 C :    0.023763
  14 C :   -0.201214
  15 C :   -0.129969
  16 C :   -0.278123
  17 C :    0.313462
  18 O :   -0.357287
  19 C :   -0.250872
  20 H :    0.107951
  21 H :    0.094764
  22 H :    0.089747
  23 H :    0.089793
  24 H :    0.108049
  25 H :    0.138122
  26 H :    0.114646
  27 H :    0.119706
  28 H :    0.197940
  29 H :    0.200890
  30 H :    0.161389
  31 H :    0.171821
  32 H :    0.163382
  33 H :    0.130872
  34 H :    0.240930
  35 H :    0.169070
Sum of atomic charges:   -0.0000000

LOEWDIN ATOMIC CHARGES
----------------------
   0 C :    0.111948
   1 C :   -0.026149
   2 O :    0.301419
   3 C :   -0.422588
   4 O :    0.127421
   5 C :   -0.092988
   6 C :   -0.075433
   7 C :    0.128073
   8 N :    0.404338
   9 C :   -0.457508
  10 S :   -0.036406
  11 N :    0.395959
  12 C :   -0.049421
  13 C :   -0.043504
  14 C :    0.021758
  15 C :    0.042781
  16 C :   -0.000790
  17 C :   -0.192768
  18 O :    0.393987
  19 C :    0.027407
  20 H :   -0.020985
  21 H :   -0.027262
  22 H :   -0.024843
  23 H :   -0.039206
  24 H :   -0.025818
  25 H :   -0.006144
  26 H :   -0.016459
  27 H :   -0.015696
  28 H :   -0.058059
  29 H :   -0.063502
  30 H :   -0.005800
  31 H :   -0.021900
  32 H :   -0.019389
  33 H :   -0.035248
  34 H :   -0.153646
  35 H :   -0.023578

  Mayer bond orders larger than 0.100000
B(  0-C ,  1-C ) :   0.9803 B(  0-C , 20-H ) :   0.9769 B(  0-C , 21-H ) :   0.9782
B(  0-C , 22-H ) :   0.9759 B(  1-C ,  2-O ) :   0.8981 B(  1-C , 23-H ) :   0.9710
B(  1-C , 24-H ) :   0.9737 B(  2-O ,  3-C ) :   1.1304 B(  3-C ,  4-O ) :   2.0928
B(  3-C ,  5-C ) :   0.9558 B(  5-C ,  6-C ) :   1.6947 B(  5-C , 12-C ) :   0.9449
B(  6-C ,  7-C ) :   0.9408 B(  6-C ,  8-N ) :   1.1257 B(  7-C , 25-H ) :   0.9674
B(  7-C , 26-H ) :   0.9863 B(  7-C , 27-H ) :   0.9670 B(  8-N ,  9-C ) :   1.1888
B(  8-N , 28-H ) :   0.9486 B(  9-C , 10-S ) :   1.6120 B(  9-C , 11-N ) :   1.2972
B( 11-N , 12-C ) :   0.9836 B( 11-N , 29-H ) :   0.9484 B( 12-C , 13-C ) :   0.9697
B( 12-C , 30-H ) :   0.9919 B( 13-C , 14-C ) :   1.3833 B( 13-C , 19-C ) :   1.3584
B( 14-C , 15-C ) :   1.3943 B( 14-C , 31-H ) :   0.9598 B( 15-C , 16-C ) :   1.3609
B( 15-C , 32-H ) :   0.9703 B( 16-C , 17-C ) :   1.3312 B( 16-C , 33-H ) :   0.9851
B( 17-C , 18-O ) :   1.1071 B( 17-C , 19-C ) :   1.3671 B( 18-O , 34-H ) :   0.9797
B( 19-C , 35-H ) :   0.9581

MP2 TOTAL ENERGY:    -1274.329455926 Eh
FINAL SINGLE POINT ENERGY     -1274.329455925605

DIPOLE MOMENT
-------------
                                X             Y             Z
Electronic contribution:     10.51640       8.90202       9.31765
Nuclear contribution   :    -12.08469     -10.04076      -9.74072
                        -----------------------------------------
Total Dipole Moment    :     -1.56828      -1.13874      -0.42307
                        -----------------------------------------
Magnitude (a.u.)       :      1.98374
Magnitude (Debye)      :      5.04228

Rotational constants in cm-1:     0.010232     0.009277     0.006070
Rotational constants in MHz :   306.746794   278.121765   181.981932

                             ****ORCA TERMINATED NORMALLY****
TOTAL RUN TIME: 0 days 1 hours 47 minutes 2 seconds 40 msec
