                         Program Version 4.2.0 -  RELEASE  -
|  1> ! ri-mp2 cc-pvtz cc-pvtz/c TightSCF NoKeepInts
|  2>
|  3> %scf
|  4>   MaxCore 4096
|  5> end
|  6> *xyz  0  1
|  7>     C       14.2105822   14.9782886   14.6583881
|  8>     C       14.8472325   16.1565158   15.4132689
|  9>     O       16.1415757   16.3874573   14.8317119
| 10>     C       17.1983414   16.4565777   15.6874453
| 11>     O       17.9931540   15.5404861   15.7927857
| 12>     C       17.2275103   17.6747628   16.5598758
| 13>     C       16.9515340   18.9108047   16.0715356
| 14>     C       16.4003168   19.2586772   14.7028473
| 15>     N       17.2471078   20.0535638   16.8184270
| 16>     C       18.0201113   20.0580518   17.9488995
| 17>     S       18.4206033   21.4621545   18.7251702
| 18>     N       18.4628967   18.8365336   18.3917089
| 19>     C       18.0487605   17.5299062   17.8434677
| 20>     C       17.3909152   16.6124285   18.8646277
| 21>     C       17.8278442   15.2844482   19.0169742
| 22>     C       17.2119194   14.4320822   19.9485240
| 23>     C       16.1491832   14.9116934   20.7333240
| 24>     C       15.7086813   16.2334266   20.5799777
| 25>     O       14.6770989   16.6967847   21.3296183
| 26>     C       16.3227513   17.0791782   19.6505894
| 27>     H       14.8328474   14.0791916   14.7540547
| 28>     H       14.1051600   15.2127399   13.5917895
| 29>     H       13.2161724   14.7522072   15.0619783
| 30>     H       14.2177022   17.0503723   15.3205668
| 31>     H       14.9311127   15.8971019   16.4786392
| 32>     H       16.9112886   18.6898812   13.9153061
| 33>     H       16.5314185   20.3194616   14.4554462
| 34>     H       15.3291827   19.0358044   14.6400440
| 35>     H       16.9543583   20.9600282   16.4896678
| 36>     H       19.0208052   18.8665207   19.2359889
| 37>     H       19.0241745   17.1262396   17.5335570
| 38>     H       18.6400766   14.9081404   18.3985606
| 39>     H       17.5562733   13.4047305   20.0546250
| 40>     H       15.6699560   14.2559306   21.4527274
| 41>     H       14.4200847   15.9884483   21.9391275
| 42>     H       15.9682669   18.0993795   19.5467537
| 43> *
| 44>
| 45>                          ****END OF INPUT****

CARTESIAN COORDINATES (ANGSTROEM)
---------------------------------
  C     14.210582   14.978289   14.658388
  C     14.847232   16.156516   15.413269
  O     16.141576   16.387457   14.831712
  C     17.198341   16.456578   15.687445
  O     17.993154   15.540486   15.792786
  C     17.227510   17.674763   16.559876
  C     16.951534   18.910805   16.071536
  C     16.400317   19.258677   14.702847
  N     17.247108   20.053564   16.818427
  C     18.020111   20.058052   17.948899
  S     18.420603   21.462155   18.725170
  N     18.462897   18.836534   18.391709
  C     18.048761   17.529906   17.843468
  C     17.390915   16.612429   18.864628
  C     17.827844   15.284448   19.016974
  C     17.211919   14.432082   19.948524
  C     16.149183   14.911693   20.733324
  C     15.708681   16.233427   20.579978
  O     14.677099   16.696785   21.329618
  C     16.322751   17.079178   19.650589
  H     14.832847   14.079192   14.754055
  H     14.105160   15.212740   13.591790
  H     13.216172   14.752207   15.061978
  H     14.217702   17.050372   15.320567
  H     14.931113   15.897102   16.478639
  H     16.911289   18.689881   13.915306
  H     16.531419   20.319462   14.455446
  H     15.329183   19.035804   14.640044
  H     16.954358   20.960028   16.489668
  H     19.020805   18.866521   19.235989
  H     19.024175   17.126240   17.533557
  H     18.640077   14.908140   18.398561
  H     17.556273   13.404730   20.054625
  H     15.669956   14.255931   21.452727
  H     14.420085   15.988448   21.939128
  H     15.968267   18.099380   19.546754

 Total Charge           Charge          ....    0
 Multiplicity           Mult            ....    1
 Number of Electrons    NEL             ....  154
 Basis Dimension        Dim             ....  828

ORBITAL ENERGIES
----------------

  NO   OCC          E(Eh)            E(eV)
   0   2.0000     -91.890219     -2500.4600
   1   2.0000     -20.596495      -560.4591
   2   2.0000     -20.590533      -560.2969
   3   2.0000     -20.554007      -559.3030
   4   2.0000     -15.630601      -425.3303
   5   2.0000     -15.608213      -424.7211
   6   2.0000     -11.394860      -310.0699
   7   2.0000     -11.385291      -309.8095
   8   2.0000     -11.339368      -308.5599
   9   2.0000     -11.313049      -307.8437
  10   2.0000     -11.307232      -307.6854
  11   2.0000     -11.306550      -307.6669
  12   2.0000     -11.263791      -306.5033
  13   2.0000     -11.260842      -306.4231
  14   2.0000     -11.260204      -306.4057
  15   2.0000     -11.252949      -306.2083
  16   2.0000     -11.242830      -305.9330
  17   2.0000     -11.239066      -305.8305
  18   2.0000     -11.235499      -305.7335
  19   2.0000     -11.231269      -305.6184
  20   2.0000      -8.895300      -242.0534
  21   2.0000      -6.576875      -178.9659
  22   2.0000      -6.574872      -178.9114
  23   2.0000      -6.574282      -178.8953
  24   2.0000      -1.452798       -39.5326
  25   2.0000      -1.416247       -38.5380
  26   2.0000      -1.362017       -37.0624
  27   2.0000      -1.341896       -36.5149
  28   2.0000      -1.239176       -33.7197
  29   2.0000      -1.157411       -31.4948
  30   2.0000      -1.123846       -30.5814
  31   2.0000      -1.045920       -28.4609
  32   2.0000      -1.037646       -28.2358
  33   2.0000      -1.015075       -27.6216
  34   2.0000      -1.003010       -27.2933
  35   2.0000      -0.987539       -26.8723
  36   2.0000      -0.924245       -25.1500
  37   2.0000      -0.880363       -23.9559
  38   2.0000      -0.853835       -23.2340
  39   2.0000      -0.841839       -22.9076
  40   2.0000      -0.834286       -22.7021
  41   2.0000      -0.832597       -22.6561
  42   2.0000      -0.758118       -20.6294
  43   2.0000      -0.737281       -20.0624
  44   2.0000      -0.730172       -19.8690
  45   2.0000      -0.694379       -18.8950
  46   2.0000      -0.688027       -18.7222
  47   2.0000      -0.681421       -18.5424
  48   2.0000      -0.674426       -18.3521
  49   2.0000      -0.663396       -18.0519
  50   2.0000      -0.652513       -17.7558
  51   2.0000      -0.646552       -17.5936
  52   2.0000      -0.638394       -17.3716
  53   2.0000      -0.609553       -16.5868
  54   2.0000      -0.603305       -16.4168
  55   2.0000      -0.600435       -16.3387
  56   2.0000      -0.598130       -16.2759
  57   2.0000      -0.582848       -15.8601
  58   2.0000      -0.577252       -15.7078
  59   2.0000      -0.567524       -15.4431
  60   2.0000      -0.563408       -15.3311
  61   2.0000      -0.556730       -15.1494
  62   2.0000      -0.544088       -14.8054
  63   2.0000      -0.521879       -14.2011
  64   2.0000      -0.515724       -14.0336
  65   2.0000      -0.512985       -13.9590
  66   2.0000      -0.502059       -13.6617
  67   2.0000      -0.497918       -13.5491
  68   2.0000      -0.486997       -13.2519
  69   2.0000      -0.469335       -12.7712
  70   2.0000      -0.458998       -12.4900
  71   2.0000      -0.452948       -12.3254
  72   2.0000      -0.356057        -9.6888
  73   2.0000      -0.349113        -9.4998
  74   2.0000      -0.329356        -8.9622
  75   2.0000      -0.320382        -8.7180
  76   2.0000      -0.319442        -8.6925
  77   0.0000       0.074370         2.0237
  78   0.0000       0.106147         2.8884
  79   0.0000       0.118687         3.2296
  80   0.0000       0.132377         3.6022
  81   0.0000       0.136848         3.7238

MULLIKEN ATOMIC CHARGES
-----------------------
   0 C :   -0.252823
   1 C :    0.028473
   2 O :   -0.357339
   3 C :    0.447108
   4 O :   -0.379905
   5 C :   -0.226338
   6 C :    0.152096
   7 C :   -0.296411
   8 N :   -0.130008
   9 C :    0.206224
  10 S :   -0.439909
  11 N :   -0.214265
  12 C :    0.057152
  13 C :    0.025058
  14 C :   -0.191343
  15 C :   -0.131082
  16 C :   -0.277806
  17 C :    0.313833
  18 O :   -0.357748
  19 C :   -0.252467
  20 H :    0.108695
  21 H :    0.095495
  22 H :    0.087972
  23 H :    0.089759
  24 H :    0.100028
  25 H :    0.135335
  26 H :    0.110706
  27 H :    0.120250
  28 H :    0.198320
  29 H :    0.200306
  30 H :    0.159533
  31 H :    0.168975
  32 H :    0.162681
  33 H :    0.130573
  34 H :    0.240806
  35 H :    0.168067
Sum of atomic charges:   -0.0000000

LOEWDIN ATOMIC CHARGES
----------------------
   0 C :    0.110069
   1 C :   -0.021844
   2 O :    0.299899
   3 C :   -0.426105
   4 O :    0.127555
   5 C :   -0.096025
   6 C :   -0.070736
   7 C :    0.127851
   8 N :    0.405050
   9 C :   -0.457866
  10 S :   -0.035911
  11 N :    0.396017
  12 C :   -0.049287
  13 C :   -0.043224
  14 C :    0.022851
  15 C :    0.042491
  16 C :   -0.000811
  17 C :   -0.193262
  18 O :    0.393684
  19 C :    0.027391
  20 H :   -0.020612
  21 H :   -0.026424
  22 H :   -0.026823
  23 H :   -0.036605
  24 H :   -0.026264
  25 H :   -0.006098
  26 H :   -0.017985
  27 H :   -0.014214
  28 H :   -0.058114
  29 H :   -0.063409
  30 H :   -0.006421
  31 H :   -0.022254
  32 H :   -0.019700
  33 H :   -0.035380
  34 H :   -0.153831
  35 H :   -0.023651

  Mayer bond orders larger than 0.100000
B(  0-C ,  1-C ) :   0.9842 B(  0-C , 20-H ) :   0.9765 B(  0-C , 21-H ) :   0.9784
B(  0-C , 22-H ) :   0.9757 B(  1-C ,  2-O ) :   0.8918 B(  1-C , 23-H ) :   0.9750
B(  1-C , 24-H ) :   0.9696 B(  2-O ,  3-C ) :   1.1068 B(  3-C ,  4-O ) :   2.0737
B(  3-C ,  5-C ) :   0.9863 B(  5-C ,  6-C ) :   1.6834 B(  5-C , 12-C ) :   0.9458
B(  6-C ,  7-C ) :   0.9446 B(  6-C ,  8-N ) :   1.1309 B(  7-C , 25-H ) :   0.9660
B(  7-C , 26-H ) :   0.9879 B(  7-C , 27-H ) :   0.9675 B(  8-N ,  9-C ) :   1.1866
B(  8-N , 28-H ) :   0.9480 B(  9-C , 10-S ) :   1.6124 B(  9-C , 11-N ) :   1.2998
B( 11-N , 12-C ) :   0.9832 B( 11-N , 29-H ) :   0.9486 B( 12-C , 13-C ) :   0.9698
B( 12-C , 30-H ) :   0.9928 B( 13-C , 14-C ) :   1.3831 B( 13-C , 19-C ) :   1.3588
B( 14-C , 15-C ) :   1.3952 B( 14-C , 31-H ) :   0.9603 B( 15-C , 16-C ) :   1.3605
B( 15-C , 32-H ) :   0.9705 B( 16-C , 17-C ) :   1.3318 B( 16-C , 33-H ) :   0.9851
B( 17-C , 18-O ) :   1.1065 B( 17-C , 19-C ) :   1.3664 B( 18-O , 34-H ) :   0.9798
B( 19-C , 35-H ) :   0.9586

MP2 TOTAL ENERGY:    -1274.327196321 Eh
FINAL SINGLE POINT ENERGY     -1274.327196321388

DIPOLE MOMENT
-------------
                                X             Y             Z
Electronic contribution:     10.50825       9.45085       9.26363
Nuclear contribution   :    -12.07106     -10.53957      -9.74097
                        -----------------------------------------
Total Dipole Moment    :     -1.56281      -1.08872      -0.47734
                        -----------------------------------------
Magnitude (a.u.)       :      1.96355
Magnitude (Debye)      :      4.99095

Rotational constants in cm-1:     0.010339     0.009243     0.005988
Rotational constants in MHz :   309.947189   277.113141   179.512400

                             ****ORCA TERMINATED NORMALLY****
TOTAL RUN TIME: 0 days 1 hours 37 minutes 55 seconds 795 msec
