                         Program Version 4.2.0 -  RELEASE  -
|  1> ! ri-mp2 cc-pvtz cc-pvtz/c TightSCF NoKeepInts
|  2>
|  3> %scf
|  4>   MaxCore 4096
|  5> end
|  6> *xyz  0  1
|  7>     C       15.2714660   14.0209781   16.3904756
|  8>     C       15.1735896   15.4377021   15.7999945
|  9>     O       16.4915098   15.8625339   15.4161322
| 10>     C       16.6340487   17.1813329   15.1080307
| 11>     O       16.3576172   17.5632834   13.9859068
| 12>     C       17.0150412   18.0770490   16.2606706
| 13>     C       17.1452733   19.4156025   16.0561232
| 14>     C       16.6186512   20.2265428   14.8890903
| 15>     N       17.8120701   20.2279420   16.9754574
| 16>     C       18.5864271   19.7583926   17.9996736
| 17>     S       19.4580599   20.7684345   18.9771448
| 18>     N       18.6258600   18.3970626   18.1544010
| 19>     C       17.7805572   17.4285999   17.4310723
| 20>     C       16.9679202   16.5792178   18.3970648
| 21>     C       17.5096774   15.3894088   18.9174847
| 22>     C       16.7903638   14.6269756   19.8535868
| 23>     C       15.5220137   15.0610749   20.2755543
| 24>     C       14.9894610   16.2564066   19.7736121
| 25>     O       13.7693155   16.6832314   20.1848572
| 26>     C       15.7109252   17.0174462   18.8485680
| 27>     H       15.6331265   13.3151828   15.6325443
| 28>     H       14.2877897   13.6798807   16.7347411
| 29>     H       15.9593420   13.9901911   17.2397175
| 30>     H       14.5096009   15.4360991   14.9250122
| 31>     H       14.7480692   16.1161439   16.5495588
| 32>     H       17.2245699   20.0485944   13.9911485
| 33>     H       16.6176396   21.3058416   15.0821153
| 34>     H       15.5863913   19.9412315   14.6497244
| 35>     H       17.8179438   21.2274498   16.8485473
| 36>     H       19.1849941   18.0816064   18.9369257
| 37>     H       18.5668859   16.8245718   16.9557793
| 38>     H       18.4915802   15.0537763   18.5938757
| 39>     H       17.2152976   13.7051281   20.2476333
| 40>     H       14.9616165   14.4740882   20.9960126
| 41>     H       13.4598532   16.0684894   20.8675806
| 42>     H       15.2924518   17.9525070   18.4921827
| 43> *
| 44>
| 45>                          ****END OF INPUT****

CARTESIAN COORDINATES (ANGSTROEM)
---------------------------------
  C     15.271466   14.020978   16.390476
  C     15.173590   15.437702   15.799994
  O     16.491510   15.862534   15.416132
  C     16.634049   17.181333   15.108031
  O     16.357617   17.563283   13.985907
  C     17.015041   18.077049   16.260671
  C     17.145273   19.415602   16.056123
  C     16.618651   20.226543   14.889090
  N     17.812070   20.227942   16.975457
  C     18.586427   19.758393   17.999674
  S     19.458060   20.768434   18.977145
  N     18.625860   18.397063   18.154401
  C     17.780557   17.428600   17.431072
  C     16.967920   16.579218   18.397065
  C     17.509677   15.389409   18.917485
  C     16.790364   14.626976   19.853587
  C     15.522014   15.061075   20.275554
  C     14.989461   16.256407   19.773612
  O     13.769315   16.683231   20.184857
  C     15.710925   17.017446   18.848568
  H     15.633126   13.315183   15.632544
  H     14.287790   13.679881   16.734741
  H     15.959342   13.990191   17.239718
  H     14.509601   15.436099   14.925012
  H     14.748069   16.116144   16.549559
  H     17.224570   20.048594   13.991148
  H     16.617640   21.305842   15.082115
  H     15.586391   19.941232   14.649724
  H     17.817944   21.227450   16.848547
  H     19.184994   18.081606   18.936926
  H     18.566886   16.824572   16.955779
  H     18.491580   15.053776   18.593876
  H     17.215298   13.705128   20.247633
  H     14.961616   14.474088   20.996013
  H     13.459853   16.068489   20.867581
  H     15.292452   17.952507   18.492183

 Total Charge           Charge          ....    0
 Multiplicity           Mult            ....    1
 Number of Electrons    NEL             ....  154
 Basis Dimension        Dim             ....  828

ORBITAL ENERGIES
----------------

  NO   OCC          E(Eh)            E(eV)
   0   2.0000     -91.891432     -2500.4930
   1   2.0000     -20.604382      -560.6737
   2   2.0000     -20.581567      -560.0529
   3   2.0000     -20.545727      -559.0776
   4   2.0000     -15.631885      -425.3652
   5   2.0000     -15.609460      -424.7550
   6   2.0000     -11.390767      -309.9585
   7   2.0000     -11.385554      -309.8167
   8   2.0000     -11.341107      -308.6072
   9   2.0000     -11.321926      -308.0853
  10   2.0000     -11.312667      -307.8333
  11   2.0000     -11.294678      -307.3438
  12   2.0000     -11.268494      -306.6313
  13   2.0000     -11.262770      -306.4755
  14   2.0000     -11.260578      -306.4159
  15   2.0000     -11.253637      -306.2270
  16   2.0000     -11.251097      -306.1579
  17   2.0000     -11.246173      -306.0239
  18   2.0000     -11.246030      -306.0200
  19   2.0000     -11.222579      -305.3819
  20   2.0000      -8.896477      -242.0854
  21   2.0000      -6.578043      -178.9976
  22   2.0000      -6.576050      -178.9434
  23   2.0000      -6.575453      -178.9272
  24   2.0000      -1.447667       -39.3930
  25   2.0000      -1.424057       -38.7506
  26   2.0000      -1.352292       -36.7977
  27   2.0000      -1.343918       -36.5699
  28   2.0000      -1.242069       -33.7984
  29   2.0000      -1.164673       -31.6924
  30   2.0000      -1.123373       -30.5685
  31   2.0000      -1.048427       -28.5292
  32   2.0000      -1.032273       -28.0896
  33   2.0000      -1.023189       -27.8424
  34   2.0000      -1.000503       -27.2251
  35   2.0000      -0.987627       -26.8747
  36   2.0000      -0.926343       -25.2071
  37   2.0000      -0.876253       -23.8441
  38   2.0000      -0.851272       -23.1643
  39   2.0000      -0.844612       -22.9830
  40   2.0000      -0.840450       -22.8698
  41   2.0000      -0.830137       -22.5892
  42   2.0000      -0.762637       -20.7524
  43   2.0000      -0.739444       -20.1213
  44   2.0000      -0.724399       -19.7119
  45   2.0000      -0.702749       -19.1228
  46   2.0000      -0.691160       -18.8074
  47   2.0000      -0.678907       -18.4740
  48   2.0000      -0.673391       -18.3239
  49   2.0000      -0.658814       -17.9272
  50   2.0000      -0.649525       -17.6745
  51   2.0000      -0.642596       -17.4859
  52   2.0000      -0.628816       -17.1109
  53   2.0000      -0.622255       -16.9324
  54   2.0000      -0.614492       -16.7212
  55   2.0000      -0.606096       -16.4927
  56   2.0000      -0.603943       -16.4341
  57   2.0000      -0.583672       -15.8825
  58   2.0000      -0.572446       -15.5770
  59   2.0000      -0.568117       -15.4593
  60   2.0000      -0.551175       -14.9982
  61   2.0000      -0.542680       -14.7671
  62   2.0000      -0.535000       -14.5581
  63   2.0000      -0.531100       -14.4520
  64   2.0000      -0.518345       -14.1049
  65   2.0000      -0.514378       -13.9969
  66   2.0000      -0.506993       -13.7960
  67   2.0000      -0.500181       -13.6106
  68   2.0000      -0.484725       -13.1900
  69   2.0000      -0.464310       -12.6345
  70   2.0000      -0.459912       -12.5148
  71   2.0000      -0.444062       -12.0836
  72   2.0000      -0.357145        -9.7184
  73   2.0000      -0.355614        -9.6767
  74   2.0000      -0.331838        -9.0298
  75   2.0000      -0.328050        -8.9267
  76   2.0000      -0.321597        -8.7511
  77   0.0000       0.071460         1.9445
  78   0.0000       0.097578         2.6552
  79   0.0000       0.119578         3.2539
  80   0.0000       0.125583         3.4173
  81   0.0000       0.128468         3.4958

MULLIKEN ATOMIC CHARGES
-----------------------
   0 C :   -0.277964
   1 C :    0.017215
   2 O :   -0.368235
   3 C :    0.486701
   4 O :   -0.397876
   5 C :   -0.316661
   6 C :    0.185948
   7 C :   -0.266304
   8 N :   -0.128038
   9 C :    0.215996
  10 S :   -0.439948
  11 N :   -0.221638
  12 C :    0.070764
  13 C :    0.054243
  14 C :   -0.211192
  15 C :   -0.126508
  16 C :   -0.273852
  17 C :    0.324684
  18 O :   -0.357726
  19 C :   -0.264934
  20 H :    0.105767
  21 H :    0.088058
  22 H :    0.106723
  23 H :    0.117546
  24 H :    0.095965
  25 H :    0.135112
  26 H :    0.094158
  27 H :    0.128454
  28 H :    0.199534
  29 H :    0.201548
  30 H :    0.149721
  31 H :    0.155885
  32 H :    0.165562
  33 H :    0.134106
  34 H :    0.242778
  35 H :    0.174408
Sum of atomic charges:   -0.0000000

LOEWDIN ATOMIC CHARGES
----------------------
   0 C :    0.112572
   1 C :   -0.023587
   2 O :    0.292375
   3 C :   -0.424787
   4 O :    0.120145
   5 C :   -0.103997
   6 C :   -0.051955
   7 C :    0.130580
   8 N :    0.408614
   9 C :   -0.456766
  10 S :   -0.033844
  11 N :    0.394680
  12 C :   -0.054222
  13 C :   -0.036620
  14 C :    0.015305
  15 C :    0.044589
  16 C :    0.001825
  17 C :   -0.190478
  18 O :    0.396252
  19 C :    0.034460
  20 H :   -0.026756
  21 H :   -0.025667
  22 H :   -0.029917
  23 H :   -0.029838
  24 H :   -0.038903
  25 H :   -0.003757
  26 H :   -0.023312
  27 H :   -0.005263
  28 H :   -0.056198
  29 H :   -0.064934
  30 H :   -0.011763
  31 H :   -0.028677
  32 H :   -0.019414
  33 H :   -0.033812
  34 H :   -0.151882
  35 H :   -0.025047

  Mayer bond orders larger than 0.100000
B(  0-C ,  1-C ) :   0.9755 B(  0-C , 20-H ) :   0.9797 B(  0-C , 21-H ) :   0.9762
B(  0-C , 22-H ) :   0.9719 B(  1-C ,  2-O ) :   0.8899 B(  1-C , 23-H ) :   0.9801
B(  1-C , 24-H ) :   0.9675 B(  2-O ,  3-C ) :   1.1066 B(  3-C ,  4-O ) :   2.0483
B(  3-C ,  5-C ) :   1.0516 B(  5-C ,  6-C ) :   1.6241 B(  5-C , 12-C ) :   0.9560
B(  6-C ,  7-C ) :   0.9671 B(  6-C ,  8-N ) :   1.1635 B(  7-C , 25-H ) :   0.9546
B(  7-C , 26-H ) :   0.9886 B(  7-C , 27-H ) :   0.9649 B(  8-N ,  9-C ) :   1.1858
B(  8-N , 28-H ) :   0.9467 B(  9-C , 10-S ) :   1.6025 B(  9-C , 11-N ) :   1.3120
B( 11-N , 12-C ) :   0.9487 B( 11-N , 29-H ) :   0.9473 B( 12-C , 13-C ) :   0.9752
B( 12-C , 30-H ) :   1.0030 B( 13-C , 14-C ) :   1.3557 B( 13-C , 19-C ) :   1.3463
B( 14-C , 15-C ) :   1.3853 B( 14-C , 31-H ) :   0.9743 B( 15-C , 16-C ) :   1.3611
B( 15-C , 32-H ) :   0.9700 B( 16-C , 17-C ) :   1.3346 B( 16-C , 33-H ) :   0.9839
B( 17-C , 18-O ) :   1.1069 B( 17-C , 19-C ) :   1.3561 B( 18-O , 34-H ) :   0.9783
B( 19-C , 35-H ) :   0.9596

MP2 TOTAL ENERGY:    -1274.326611566 Eh
FINAL SINGLE POINT ENERGY     -1274.326611565903

DIPOLE MOMENT
-------------
                                X             Y             Z
Electronic contribution:      8.25975      10.87188       4.21767
Nuclear contribution   :     -9.47261     -12.20484      -3.72239
                        -----------------------------------------
Total Dipole Moment    :     -1.21285      -1.33296       0.49528
                        -----------------------------------------
Magnitude (a.u.)       :      1.86898
Magnitude (Debye)      :      4.75058

Rotational constants in cm-1:     0.012700     0.008508     0.006134
Rotational constants in MHz :   380.724498   255.055484   183.877831

                             ****ORCA TERMINATED NORMALLY****
TOTAL RUN TIME: 0 days 1 hours 50 minutes 30 seconds 918 msec
