                         Program Version 4.2.0 -  RELEASE  -
|  1> ! ri-mp2 cc-pvtz cc-pvtz/c TightSCF NoKeepInts
|  2>
|  3> %scf
|  4>   MaxCore 4096
|  5> end
|  6> *xyz  0  1
|  7>     C       14.6998790   15.4531913   16.4861400
|  8>     C       15.6305647   15.1791503   15.2925568
|  9>     O       16.9689606   15.6471318   15.5538377
| 10>     C       17.2491948   16.9317372   15.2004438
| 11>     O       17.4273571   17.2249930   14.0318938
| 12>     C       17.1087646   17.9231178   16.3205372
| 13>     C       16.9068998   19.2336155   16.0300860
| 14>     C       16.3963535   19.8068809   14.7243733
| 15>     N       17.1479491   20.2311797   16.9764525
| 16>     C       17.8292265   20.0313507   18.1461024
| 17>     S       18.1979947   21.2765171   19.1700566
| 18>     N       18.2137996   18.7417940   18.4135121
| 19>     C       17.8063195   17.5507586   17.6420755
| 20>     C       17.1327189   16.4991250   18.5121921
| 21>     C       17.6517078   15.1934366   18.5905442
| 22>     C       17.0560196   14.2376657   19.4308955
| 23>     C       15.9375190   14.5927173   20.2046732
| 24>     C       15.4240406   15.8952735   20.1351313
| 25>     O       14.3442733   16.2407370   20.8801449
| 26>     C       16.0185691   16.8443075   19.2973263
| 27>     H       15.0324091   14.8961261   17.3685981
| 28>     H       13.6789745   15.1274677   16.2533118
| 29>     H       14.6647223   16.5213610   16.7299137
| 30>     H       15.6617609   14.0954778   15.1207570
| 31>     H       15.2295246   15.6457869   14.3819442
| 32>     H       15.6360113   19.1533005   14.2789509
| 33>     H       17.2152852   19.8974332   13.9988156
| 34>     H       15.9406520   20.7967137   14.8458192
| 35>     H       16.9051969   21.1872049   16.7707032
| 36>     H       18.6985755   18.6209660   19.2941088
| 37>     H       18.8014036   17.1945578   17.3393322
| 38>     H       18.5161809   14.9170920   17.9921725
| 39>     H       17.4619370   13.2286737   19.4808257
| 40>     H       15.4747864   13.8579018   20.8553353
| 41>     H       14.1073614   15.4745122   21.4241299
| 42>     H       15.6141065   17.8507439   19.2643063
| 43> *
| 44>
| 45>                          ****END OF INPUT****

CARTESIAN COORDINATES (ANGSTROEM)
---------------------------------
  C     14.699879   15.453191   16.486140
  C     15.630565   15.179150   15.292557
  O     16.968961   15.647132   15.553838
  C     17.249195   16.931737   15.200444
  O     17.427357   17.224993   14.031894
  C     17.108765   17.923118   16.320537
  C     16.906900   19.233615   16.030086
  C     16.396354   19.806881   14.724373
  N     17.147949   20.231180   16.976453
  C     17.829227   20.031351   18.146102
  S     18.197995   21.276517   19.170057
  N     18.213800   18.741794   18.413512
  C     17.806320   17.550759   17.642076
  C     17.132719   16.499125   18.512192
  C     17.651708   15.193437   18.590544
  C     17.056020   14.237666   19.430895
  C     15.937519   14.592717   20.204673
  C     15.424041   15.895274   20.135131
  O     14.344273   16.240737   20.880145
  C     16.018569   16.844307   19.297326
  H     15.032409   14.896126   17.368598
  H     13.678975   15.127468   16.253312
  H     14.664722   16.521361   16.729914
  H     15.661761   14.095478   15.120757
  H     15.229525   15.645787   14.381944
  H     15.636011   19.153301   14.278951
  H     17.215285   19.897433   13.998816
  H     15.940652   20.796714   14.845819
  H     16.905197   21.187205   16.770703
  H     18.698576   18.620966   19.294109
  H     18.801404   17.194558   17.339332
  H     18.516181   14.917092   17.992172
  H     17.461937   13.228674   19.480826
  H     15.474786   13.857902   20.855335
  H     14.107361   15.474512   21.424130
  H     15.614107   17.850744   19.264306

 Total Charge           Charge          ....    0
 Multiplicity           Mult            ....    1
 Number of Electrons    NEL             ....  154
 Basis Dimension        Dim             ....  828

ORBITAL ENERGIES
----------------

  NO   OCC          E(Eh)            E(eV)
   0   2.0000     -91.891085     -2500.4836
   1   2.0000     -20.599099      -560.5300
   2   2.0000     -20.582258      -560.0717
   3   2.0000     -20.553405      -559.2866
   4   2.0000     -15.630254      -425.3208
   5   2.0000     -15.609527      -424.7568
   6   2.0000     -11.393539      -310.0339
   7   2.0000     -11.385481      -309.8147
   8   2.0000     -11.336907      -308.4929
   9   2.0000     -11.316278      -307.9316
  10   2.0000     -11.313052      -307.8438
  11   2.0000     -11.300022      -307.4892
  12   2.0000     -11.263557      -306.4970
  13   2.0000     -11.258799      -306.3675
  14   2.0000     -11.257575      -306.3342
  15   2.0000     -11.255004      -306.2642
  16   2.0000     -11.246972      -306.0457
  17   2.0000     -11.241559      -305.8984
  18   2.0000     -11.241244      -305.8898
  19   2.0000     -11.222225      -305.3723
  20   2.0000      -8.896129      -242.0760
  21   2.0000      -6.577694      -178.9882
  22   2.0000      -6.575703      -178.9340
  23   2.0000      -6.575104      -178.9177
  24   2.0000      -1.449749       -39.4497
  25   2.0000      -1.418896       -38.6101
  26   2.0000      -1.355843       -36.8944
  27   2.0000      -1.342390       -36.5283
  28   2.0000      -1.240718       -33.7616
  29   2.0000      -1.160160       -31.5696
  30   2.0000      -1.123125       -30.5618
  31   2.0000      -1.045669       -28.4541
  32   2.0000      -1.032995       -28.1092
  33   2.0000      -1.017849       -27.6971
  34   2.0000      -1.001210       -27.2443
  35   2.0000      -0.988022       -26.8855
  36   2.0000      -0.924742       -25.1635
  37   2.0000      -0.888935       -24.1891
  38   2.0000      -0.848745       -23.0955
  39   2.0000      -0.841234       -22.8911
  40   2.0000      -0.837073       -22.7779
  41   2.0000      -0.821700       -22.3596
  42   2.0000      -0.758161       -20.6306
  43   2.0000      -0.735929       -20.0256
  44   2.0000      -0.725133       -19.7319
  45   2.0000      -0.697682       -18.9849
  46   2.0000      -0.690080       -18.7780
  47   2.0000      -0.675507       -18.3815
  48   2.0000      -0.674715       -18.3599
  49   2.0000      -0.668133       -18.1808
  50   2.0000      -0.648353       -17.6426
  51   2.0000      -0.646382       -17.5889
  52   2.0000      -0.635762       -17.3000
  53   2.0000      -0.609700       -16.5908
  54   2.0000      -0.604484       -16.4488
  55   2.0000      -0.601655       -16.3719
  56   2.0000      -0.590662       -16.0727
  57   2.0000      -0.579604       -15.7718
  58   2.0000      -0.577986       -15.7278
  59   2.0000      -0.571882       -15.5617
  60   2.0000      -0.565844       -15.3974
  61   2.0000      -0.550901       -14.9908
  62   2.0000      -0.541164       -14.7258
  63   2.0000      -0.524815       -14.2809
  64   2.0000      -0.514839       -14.0095
  65   2.0000      -0.514267       -13.9939
  66   2.0000      -0.506749       -13.7894
  67   2.0000      -0.501679       -13.6514
  68   2.0000      -0.477371       -12.9899
  69   2.0000      -0.463560       -12.6141
  70   2.0000      -0.453629       -12.3439
  71   2.0000      -0.451178       -12.2772
  72   2.0000      -0.356321        -9.6960
  73   2.0000      -0.349340        -9.5060
  74   2.0000      -0.330013        -8.9801
  75   2.0000      -0.324275        -8.8240
  76   2.0000      -0.320797        -8.7293
  77   0.0000       0.072307         1.9676
  78   0.0000       0.101803         2.7702
  79   0.0000       0.119598         3.2544
  80   0.0000       0.129790         3.5318
  81   0.0000       0.130812         3.5596

MULLIKEN ATOMIC CHARGES
-----------------------
   0 C :   -0.314124
   1 C :    0.043727
   2 O :   -0.371972
   3 C :    0.456152
   4 O :   -0.384688
   5 C :   -0.228724
   6 C :    0.152798
   7 C :   -0.272063
   8 N :   -0.128291
   9 C :    0.207041
  10 S :   -0.437050
  11 N :   -0.211709
  12 C :    0.033002
  13 C :    0.028504
  14 C :   -0.176292
  15 C :   -0.135433
  16 C :   -0.277704
  17 C :    0.313604
  18 O :   -0.358441
  19 C :   -0.239583
  20 H :    0.110682
  21 H :    0.117141
  22 H :    0.098921
  23 H :    0.110375
  24 H :    0.097726
  25 H :    0.120052
  26 H :    0.139118
  27 H :    0.095636
  28 H :    0.199896
  29 H :    0.200765
  30 H :    0.152157
  31 H :    0.152849
  32 H :    0.162920
  33 H :    0.132439
  34 H :    0.240954
  35 H :    0.169618
Sum of atomic charges:   -0.0000000

LOEWDIN ATOMIC CHARGES
----------------------
   0 C :    0.103516
   1 C :   -0.018103
   2 O :    0.291365
   3 C :   -0.424532
   4 O :    0.127541
   5 C :   -0.100541
   6 C :   -0.062310
   7 C :    0.129122
   8 N :    0.407410
   9 C :   -0.458027
  10 S :   -0.033070
  11 N :    0.396093
  12 C :   -0.053045
  13 C :   -0.041864
  14 C :    0.020659
  15 C :    0.039281
  16 C :   -0.001225
  17 C :   -0.192485
  18 O :    0.396098
  19 C :    0.035164
  20 H :   -0.024262
  21 H :   -0.026460
  22 H :   -0.033737
  23 H :   -0.022013
  24 H :   -0.029686
  25 H :   -0.007962
  26 H :   -0.004411
  27 H :   -0.022314
  28 H :   -0.056683
  29 H :   -0.063244
  30 H :   -0.011959
  31 H :   -0.027173
  32 H :   -0.020190
  33 H :   -0.034793
  34 H :   -0.153431
  35 H :   -0.022729

  Mayer bond orders larger than 0.100000
B(  0-C ,  1-C ) :   0.9657 B(  0-C , 20-H ) :   0.9727 B(  0-C , 21-H ) :   0.9773
B(  0-C , 22-H ) :   0.9699 B(  1-C ,  2-O ) :   0.8866 B(  1-C , 23-H ) :   0.9864
B(  1-C , 24-H ) :   0.9787 B(  2-O ,  3-C ) :   1.1126 B(  3-C ,  4-O ) :   2.0722
B(  3-C ,  5-C ) :   1.0104 B(  5-C ,  6-C ) :   1.6471 B(  5-C , 12-C ) :   0.9611
B(  6-C ,  7-C ) :   0.9613 B(  6-C ,  8-N ) :   1.1435 B(  7-C , 25-H ) :   0.9711
B(  7-C , 26-H ) :   0.9555 B(  7-C , 27-H ) :   0.9861 B(  8-N ,  9-C ) :   1.1880
B(  8-N , 28-H ) :   0.9479 B(  9-C , 10-S ) :   1.6152 B(  9-C , 11-N ) :   1.2981
B( 11-N , 12-C ) :   0.9790 B( 11-N , 29-H ) :   0.9476 B( 12-C , 13-C ) :   0.9559
B( 12-C , 30-H ) :   1.0050 B( 13-C , 14-C ) :   1.3668 B( 13-C , 19-C ) :   1.3583
B( 14-C , 15-C ) :   1.3970 B( 14-C , 31-H ) :   0.9695 B( 15-C , 16-C ) :   1.3542
B( 15-C , 32-H ) :   0.9707 B( 16-C , 17-C ) :   1.3346 B( 16-C , 33-H ) :   0.9847
B( 17-C , 18-O ) :   1.1071 B( 17-C , 19-C ) :   1.3606 B( 18-O , 34-H ) :   0.9795
B( 19-C , 35-H ) :   0.9596

MP2 TOTAL ENERGY:    -1274.319490671 Eh
FINAL SINGLE POINT ENERGY     -1274.319490671159

DIPOLE MOMENT
-------------
                                X             Y             Z
Electronic contribution:      8.64024       9.07181       6.01370
Nuclear contribution   :     -9.81725     -10.71576      -6.14112
                        -----------------------------------------
Total Dipole Moment    :     -1.17701      -1.64395      -0.12743
                        -----------------------------------------
Magnitude (a.u.)       :      2.02587
Magnitude (Debye)      :      5.14936

Rotational constants in cm-1:     0.012098     0.009186     0.006174
Rotational constants in MHz :   362.701253   275.399144   185.100606

                             ****ORCA TERMINATED NORMALLY****
TOTAL RUN TIME: 0 days 1 hours 46 minutes 10 seconds 622 msec
