                         Program Version 4.2.0 -  RELEASE  -
|  1> ! ri-mp2 cc-pvtz cc-pvtz/c TightSCF NoKeepInts
|  2>
|  3> %scf
|  4>   MaxCore 4096
|  5> end
|  6> *xyz  0  1
|  7>     C       14.4662223   16.5775087   16.1843273
|  8>     C       15.0762384   15.9640896   14.9042537
|  9>     O       16.5231240   15.8263873   14.8628015
| 10>     C       17.5476026   16.4843061   15.5070287
| 11>     O       18.6940013   16.0981530   15.3738248
| 12>     C       17.2248688   17.5723883   16.4701236
| 13>     C       16.8688763   18.7840629   15.9800056
| 14>     C       16.4828375   19.1039817   14.5486572
| 15>     N       16.8984706   19.9219498   16.7880731
| 16>     C       17.5259865   19.9798289   18.0047814
| 17>     S       17.6360690   21.3895234   18.8622010
| 18>     N       18.0837327   18.8105750   18.4616962
| 19>     C       17.9062774   17.4842127   17.8363255
| 20>     C       17.3092019   16.4143560   18.7377956
| 21>     C       17.8007043   15.0977138   18.6860799
| 22>     C       17.2437169   14.0952803   19.4974231
| 23>     C       16.1842835   14.4120475   20.3649579
| 24>     C       15.6887573   15.7223098   20.4139327
| 25>     O       14.6591010   16.0282762   21.2426771
| 26>     C       16.2448426   16.7185745   19.6049882
| 27>     H       14.9298808   16.1552059   17.0839327
| 28>     H       13.3975239   16.3346885   16.2305984
| 29>     H       14.5363880   17.6680789   16.2097609
| 30>     H       14.6428469   14.9659511   14.7582695
| 31>     H       14.7546423   16.5720223   14.0489178
| 32>     H       16.8974444   18.3830018   13.8332960
| 33>     H       16.8618277   20.0881506   14.2446235
| 34>     H       15.3936014   19.1127552   14.4251230
| 35>     H       16.5298610   20.7951665   16.4455353
| 36>     H       18.5427811   18.8791214   19.3614017
| 37>     H       18.9572854   17.2383725   17.6221573
| 38>     H       18.6136781   14.8501424   18.0060792
| 39>     H       17.6316181   13.0791138   19.4486823
| 40>     H       15.7502654   13.6402214   20.9920109
| 41>     H       14.4403129   15.2274113   21.7426309
| 42>     H       15.8421274   17.7250708   19.6530264
| 43> *
| 44>
| 45>                          ****END OF INPUT****

CARTESIAN COORDINATES (ANGSTROEM)
---------------------------------
  C     14.466222   16.577509   16.184327
  C     15.076238   15.964090   14.904254
  O     16.523124   15.826387   14.862801
  C     17.547603   16.484306   15.507029
  O     18.694001   16.098153   15.373825
  C     17.224869   17.572388   16.470124
  C     16.868876   18.784063   15.980006
  C     16.482837   19.103982   14.548657
  N     16.898471   19.921950   16.788073
  C     17.525986   19.979829   18.004781
  S     17.636069   21.389523   18.862201
  N     18.083733   18.810575   18.461696
  C     17.906277   17.484213   17.836326
  C     17.309202   16.414356   18.737796
  C     17.800704   15.097714   18.686080
  C     17.243717   14.095280   19.497423
  C     16.184283   14.412047   20.364958
  C     15.688757   15.722310   20.413933
  O     14.659101   16.028276   21.242677
  C     16.244843   16.718574   19.604988
  H     14.929881   16.155206   17.083933
  H     13.397524   16.334688   16.230598
  H     14.536388   17.668079   16.209761
  H     14.642847   14.965951   14.758269
  H     14.754642   16.572022   14.048918
  H     16.897444   18.383002   13.833296
  H     16.861828   20.088151   14.244623
  H     15.393601   19.112755   14.425123
  H     16.529861   20.795167   16.445535
  H     18.542781   18.879121   19.361402
  H     18.957285   17.238372   17.622157
  H     18.613678   14.850142   18.006079
  H     17.631618   13.079114   19.448682
  H     15.750265   13.640221   20.992011
  H     14.440313   15.227411   21.742631
  H     15.842127   17.725071   19.653026

 Total Charge           Charge          ....    0
 Multiplicity           Mult            ....    1
 Number of Electrons    NEL             ....  154
 Basis Dimension        Dim             ....  828

ORBITAL ENERGIES
----------------

  NO   OCC          E(Eh)            E(eV)
   0   2.0000     -91.889150     -2500.4309
   1   2.0000     -20.599953      -560.5532
   2   2.0000     -20.599695      -560.5462
   3   2.0000     -20.547815      -559.1345
   4   2.0000     -15.626686      -425.2238
   5   2.0000     -15.609265      -424.7497
   6   2.0000     -11.401382      -310.2474
   7   2.0000     -11.385079      -309.8037
   8   2.0000     -11.329341      -308.2870
   9   2.0000     -11.317205      -307.9568
  10   2.0000     -11.314577      -307.8853
  11   2.0000     -11.310399      -307.7716
  12   2.0000     -11.267877      -306.6145
  13   2.0000     -11.265129      -306.5397
  14   2.0000     -11.261595      -306.4436
  15   2.0000     -11.257830      -306.3411
  16   2.0000     -11.246083      -306.0215
  17   2.0000     -11.241835      -305.9059
  18   2.0000     -11.239757      -305.8493
  19   2.0000     -11.236851      -305.7702
  20   2.0000      -8.894258      -242.0251
  21   2.0000      -6.575842      -178.9378
  22   2.0000      -6.573828      -178.8830
  23   2.0000      -6.573248      -178.8672
  24   2.0000      -1.442212       -39.2446
  25   2.0000      -1.419418       -38.6243
  26   2.0000      -1.356429       -36.9103
  27   2.0000      -1.339800       -36.4578
  28   2.0000      -1.238489       -33.7010
  29   2.0000      -1.161381       -31.6028
  30   2.0000      -1.126272       -30.6474
  31   2.0000      -1.048549       -28.5325
  32   2.0000      -1.041914       -28.3519
  33   2.0000      -1.019474       -27.7413
  34   2.0000      -1.006230       -27.3809
  35   2.0000      -0.990505       -26.9530
  36   2.0000      -0.926938       -25.2233
  37   2.0000      -0.902945       -24.5704
  38   2.0000      -0.852583       -23.2000
  39   2.0000      -0.841533       -22.8993
  40   2.0000      -0.836790       -22.7702
  41   2.0000      -0.828204       -22.5366
  42   2.0000      -0.745772       -20.2935
  43   2.0000      -0.735368       -20.0104
  44   2.0000      -0.731653       -19.9093
  45   2.0000      -0.696671       -18.9574
  46   2.0000      -0.687632       -18.7114
  47   2.0000      -0.677102       -18.4249
  48   2.0000      -0.673405       -18.3243
  49   2.0000      -0.663370       -18.0512
  50   2.0000      -0.659645       -17.9499
  51   2.0000      -0.650926       -17.7126
  52   2.0000      -0.639831       -17.4107
  53   2.0000      -0.614972       -16.7342
  54   2.0000      -0.608691       -16.5633
  55   2.0000      -0.604530       -16.4501
  56   2.0000      -0.602034       -16.3822
  57   2.0000      -0.591929       -16.1072
  58   2.0000      -0.577659       -15.7189
  59   2.0000      -0.575470       -15.6593
  60   2.0000      -0.563777       -15.3411
  61   2.0000      -0.558445       -15.1961
  62   2.0000      -0.544451       -14.8153
  63   2.0000      -0.530955       -14.4480
  64   2.0000      -0.520006       -14.1501
  65   2.0000      -0.513746       -13.9797
  66   2.0000      -0.501829       -13.6555
  67   2.0000      -0.501566       -13.6483
  68   2.0000      -0.486500       -13.2383
  69   2.0000      -0.464824       -12.6485
  70   2.0000      -0.453711       -12.3461
  71   2.0000      -0.451389       -12.2829
  72   2.0000      -0.354535        -9.6474
  73   2.0000      -0.349914        -9.5216
  74   2.0000      -0.328733        -8.9453
  75   2.0000      -0.325050        -8.8450
  76   2.0000      -0.318742        -8.6734
  77   0.0000       0.088213         2.4004
  78   0.0000       0.105686         2.8759
  79   0.0000       0.114524         3.1164
  80   0.0000       0.126246         3.4353
  81   0.0000       0.130030         3.5383

MULLIKEN ATOMIC CHARGES
-----------------------
   0 C :   -0.335626
   1 C :    0.047889
   2 O :   -0.333285
   3 C :    0.430424
   4 O :   -0.384206
   5 C :   -0.205701
   6 C :    0.136522
   7 C :   -0.330705
   8 N :   -0.144369
   9 C :    0.210747
  10 S :   -0.444154
  11 N :   -0.229825
  12 C :    0.077144
  13 C :    0.014317
  14 C :   -0.222646
  15 C :   -0.130519
  16 C :   -0.276726
  17 C :    0.322648
  18 O :   -0.356258
  19 C :   -0.263235
  20 H :    0.128392
  21 H :    0.121171
  22 H :    0.105321
  23 H :    0.126868
  24 H :    0.086011
  25 H :    0.133750
  26 H :    0.129743
  27 H :    0.120883
  28 H :    0.198305
  29 H :    0.204684
  30 H :    0.170388
  31 H :    0.177459
  32 H :    0.164623
  33 H :    0.132371
  34 H :    0.241253
  35 H :    0.176342
Sum of atomic charges:   -0.0000000

LOEWDIN ATOMIC CHARGES
----------------------
   0 C :    0.102283
   1 C :   -0.012169
   2 O :    0.293546
   3 C :   -0.418188
   4 O :    0.118916
   5 C :   -0.080186
   6 C :   -0.093448
   7 C :    0.127202
   8 N :    0.402420
   9 C :   -0.456079
  10 S :   -0.039252
  11 N :    0.396685
  12 C :   -0.048424
  13 C :   -0.044197
  14 C :    0.018737
  15 C :    0.045461
  16 C :   -0.000423
  17 C :   -0.191501
  18 O :    0.395730
  19 C :    0.027672
  20 H :   -0.022743
  21 H :   -0.022145
  22 H :   -0.035029
  23 H :   -0.018116
  24 H :   -0.033857
  25 H :   -0.006726
  26 H :   -0.011026
  27 H :   -0.018630
  28 H :   -0.058269
  29 H :   -0.063845
  30 H :   -0.003424
  31 H :   -0.021170
  32 H :   -0.018317
  33 H :   -0.034813
  34 H :   -0.153210
  35 H :   -0.023467

  Mayer bond orders larger than 0.100000
B(  0-C ,  1-C ) :   0.9567 B(  0-C , 20-H ) :   0.9643 B(  0-C , 21-H ) :   0.9786
B(  0-C , 22-H ) :   0.9748 B(  1-C ,  2-O ) :   0.9079 B(  1-C , 23-H ) :   0.9789
B(  1-C , 24-H ) :   0.9756 B(  2-O ,  3-C ) :   1.1694 B(  3-C ,  4-O ) :   2.0869
B(  3-C ,  5-C ) :   0.9272 B(  5-C ,  6-C ) :   1.7289 B(  5-C , 12-C ) :   0.9317
B(  6-C ,  7-C ) :   0.9388 B(  6-C ,  8-N ) :   1.0916 B(  7-C , 25-H ) :   0.9743
B(  7-C , 26-H ) :   0.9798 B(  7-C , 27-H ) :   0.9651 B(  8-N ,  9-C ) :   1.2003
B(  8-N , 28-H ) :   0.9504 B(  9-C , 10-S ) :   1.6071 B(  9-C , 11-N ) :   1.2903
B( 11-N , 12-C ) :   0.9748 B( 11-N , 29-H ) :   0.9465 B( 12-C , 13-C ) :   0.9684
B( 12-C , 30-H ) :   0.9880 B( 13-C , 14-C ) :   1.3855 B( 13-C , 19-C ) :   1.3474
B( 14-C , 15-C ) :   1.3985 B( 14-C , 31-H ) :   0.9587 B( 15-C , 16-C ) :   1.3606
B( 15-C , 32-H ) :   0.9697 B( 16-C , 17-C ) :   1.3321 B( 16-C , 33-H ) :   0.9845
B( 17-C , 18-O ) :   1.1095 B( 17-C , 19-C ) :   1.3610 B( 18-O , 34-H ) :   0.9793
B( 19-C , 35-H ) :   0.9571

MP2 TOTAL ENERGY:    -1274.317884621 Eh
FINAL SINGLE POINT ENERGY     -1274.317884620627

DIPOLE MOMENT
-------------
                                X             Y             Z
Electronic contribution:      9.04993       5.90243       7.39760
Nuclear contribution   :    -10.77977      -7.20841      -7.93881
                        -----------------------------------------
Total Dipole Moment    :     -1.72984      -1.30598      -0.54121
                        -----------------------------------------
Magnitude (a.u.)       :      2.23401
Magnitude (Debye)      :      5.67841

Rotational constants in cm-1:     0.011403     0.009235     0.006468
Rotational constants in MHz :   341.847968   276.853889   193.897973

                             ****ORCA TERMINATED NORMALLY****
TOTAL RUN TIME: 0 days 2 hours 2 minutes 11 seconds 297 msec
