                         Program Version 4.2.0 -  RELEASE  -
|  1> ! ri-mp2 cc-pvtz cc-pvtz/c TightSCF NoKeepInts
|  2>
|  3> %scf
|  4>   MaxCore 4096
|  5> end
|  6> *xyz  0  1
|  7>     C       14.2871071   14.9744464   15.0190264
|  8>     C       15.1748245   15.8057546   14.0698515
|  9>     O       15.7576163   16.9035635   14.7983576
| 10>     C       16.7312083   16.6731769   15.7291054
| 11>     O       17.3010651   15.5980953   15.8236157
| 12>     C       17.0086447   17.8202296   16.6611867
| 13>     C       16.8057383   19.1211501   16.3203716
| 14>     C       16.0755683   19.6688211   15.1095818
| 15>     N       17.3278551   20.1531382   17.1047172
| 16>     C       18.2368608   19.9781258   18.1127079
| 17>     S       18.8946423   21.2586942   18.9270126
| 18>     N       18.5902247   18.6837426   18.3965866
| 19>     C       17.9658475   17.4814189   17.8117074
| 20>     C       17.3558587   16.5559916   18.8564958
| 21>     C       17.7447597   15.2065466   18.9345304
| 22>     C       17.1812614   14.3549474   19.8995305
| 23>     C       16.2217571   14.8576691   20.7950636
| 24>     C       15.8311321   16.2016814   20.7182403
| 25>     O       14.9019247   16.6885868   21.5789803
| 26>     C       16.3934912   17.0466624   19.7561331
| 27>     H       14.8851249   14.4890789   15.8006438
| 28>     H       13.7635175   14.1886865   14.4612949
| 29>     H       13.5350958   15.6098075   15.5029357
| 30>     H       15.9572707   15.1732318   13.6284429
| 31>     H       14.5557906   16.2006159   13.2541650
| 32>     H       16.5303745   19.3018133   14.1810424
| 33>     H       16.0894933   20.7645202   15.0623360
| 34>     H       15.0231558   19.3585022   15.1186663
| 35>     H       17.0943269   21.1102584   16.8945876
| 36>     H       19.2448246   18.5799536   19.1616056
| 37>     H       18.8435973   17.0125601   17.3435199
| 38>     H       18.4751805   14.8136317   18.2311981
| 39>     H       17.4849303   13.3107127   19.9457480
| 40>     H       15.7828833   14.2030972   21.5405881
| 41>     H       14.6530576   15.9664469   22.1750461
| 42>     H       16.0809884   18.0846409   19.7133774
| 43> *
| 44>
| 45>                          ****END OF INPUT****

CARTESIAN COORDINATES (ANGSTROEM)
---------------------------------
  C     14.287107   14.974446   15.019026
  C     15.174824   15.805755   14.069852
  O     15.757616   16.903564   14.798358
  C     16.731208   16.673177   15.729105
  O     17.301065   15.598095   15.823616
  C     17.008645   17.820230   16.661187
  C     16.805738   19.121150   16.320372
  C     16.075568   19.668821   15.109582
  N     17.327855   20.153138   17.104717
  C     18.236861   19.978126   18.112708
  S     18.894642   21.258694   18.927013
  N     18.590225   18.683743   18.396587
  C     17.965847   17.481419   17.811707
  C     17.355859   16.555992   18.856496
  C     17.744760   15.206547   18.934530
  C     17.181261   14.354947   19.899530
  C     16.221757   14.857669   20.795064
  C     15.831132   16.201681   20.718240
  O     14.901925   16.688587   21.578980
  C     16.393491   17.046662   19.756133
  H     14.885125   14.489079   15.800644
  H     13.763518   14.188686   14.461295
  H     13.535096   15.609808   15.502936
  H     15.957271   15.173232   13.628443
  H     14.555791   16.200616   13.254165
  H     16.530375   19.301813   14.181042
  H     16.089493   20.764520   15.062336
  H     15.023156   19.358502   15.118666
  H     17.094327   21.110258   16.894588
  H     19.244825   18.579954   19.161606
  H     18.843597   17.012560   17.343520
  H     18.475181   14.813632   18.231198
  H     17.484930   13.310713   19.945748
  H     15.782883   14.203097   21.540588
  H     14.653058   15.966447   22.175046
  H     16.080988   18.084641   19.713377

 Total Charge           Charge          ....    0
 Multiplicity           Mult            ....    1
 Number of Electrons    NEL             ....  154
 Basis Dimension        Dim             ....  828

ORBITAL ENERGIES
----------------

  NO   OCC          E(Eh)            E(eV)
   0   2.0000     -91.887836     -2500.3951
   1   2.0000     -20.603337      -560.6453
   2   2.0000     -20.591534      -560.3241
   3   2.0000     -20.545032      -559.0588
   4   2.0000     -15.628365      -425.2694
   5   2.0000     -15.605553      -424.6487
   6   2.0000     -11.396686      -310.1196
   7   2.0000     -11.382349      -309.7295
   8   2.0000     -11.338182      -308.5276
   9   2.0000     -11.307555      -307.6942
  10   2.0000     -11.304080      -307.5996
  11   2.0000     -11.301105      -307.5187
  12   2.0000     -11.261262      -306.4345
  13   2.0000     -11.258616      -306.3625
  14   2.0000     -11.254813      -306.2590
  15   2.0000     -11.247692      -306.0653
  16   2.0000     -11.237871      -305.7980
  17   2.0000     -11.233973      -305.6919
  18   2.0000     -11.230770      -305.6048
  19   2.0000     -11.226284      -305.4827
  20   2.0000      -8.892920      -241.9887
  21   2.0000      -6.574498      -178.9012
  22   2.0000      -6.572495      -178.8467
  23   2.0000      -6.571908      -178.8307
  24   2.0000      -1.453570       -39.5536
  25   2.0000      -1.411283       -38.4030
  26   2.0000      -1.356897       -36.9230
  27   2.0000      -1.339736       -36.4561
  28   2.0000      -1.236916       -33.6582
  29   2.0000      -1.152225       -31.3536
  30   2.0000      -1.120507       -30.4906
  31   2.0000      -1.042284       -28.3620
  32   2.0000      -1.033715       -28.1288
  33   2.0000      -1.009703       -27.4754
  34   2.0000      -0.998349       -27.1664
  35   2.0000      -0.983235       -26.7552
  36   2.0000      -0.920791       -25.0560
  37   2.0000      -0.894592       -24.3431
  38   2.0000      -0.847545       -23.0629
  39   2.0000      -0.834794       -22.7159
  40   2.0000      -0.827875       -22.5276
  41   2.0000      -0.815635       -22.1946
  42   2.0000      -0.752886       -20.4871
  43   2.0000      -0.735867       -20.0240
  44   2.0000      -0.725897       -19.7527
  45   2.0000      -0.690611       -18.7925
  46   2.0000      -0.685826       -18.6623
  47   2.0000      -0.679237       -18.4830
  48   2.0000      -0.669356       -18.2141
  49   2.0000      -0.653980       -17.7957
  50   2.0000      -0.652411       -17.7530
  51   2.0000      -0.644206       -17.5297
  52   2.0000      -0.630711       -17.1625
  53   2.0000      -0.612079       -16.6555
  54   2.0000      -0.602517       -16.3953
  55   2.0000      -0.598015       -16.2728
  56   2.0000      -0.594809       -16.1856
  57   2.0000      -0.579987       -15.7822
  58   2.0000      -0.573515       -15.6061
  59   2.0000      -0.563925       -15.3452
  60   2.0000      -0.558012       -15.1843
  61   2.0000      -0.547451       -14.8969
  62   2.0000      -0.536945       -14.6110
  63   2.0000      -0.529446       -14.4069
  64   2.0000      -0.515335       -14.0230
  65   2.0000      -0.508414       -13.8347
  66   2.0000      -0.497966       -13.5504
  67   2.0000      -0.493725       -13.4349
  68   2.0000      -0.481434       -13.1005
  69   2.0000      -0.464094       -12.6286
  70   2.0000      -0.459163       -12.4945
  71   2.0000      -0.450748       -12.2655
  72   2.0000      -0.353010        -9.6059
  73   2.0000      -0.344420        -9.3722
  74   2.0000      -0.326920        -8.8960
  75   2.0000      -0.317006        -8.6262
  76   2.0000      -0.314187        -8.5495
  77   0.0000       0.077586         2.1112
  78   0.0000       0.111726         3.0402
  79   0.0000       0.121495         3.3060
  80   0.0000       0.136130         3.7043
  81   0.0000       0.141672         3.8551

MULLIKEN ATOMIC CHARGES
-----------------------
   0 C :   -0.296946
   1 C :    0.031710
   2 O :   -0.351328
   3 C :    0.428423
   4 O :   -0.428070
   5 C :   -0.170821
   6 C :    0.159813
   7 C :   -0.279193
   8 N :   -0.128690
   9 C :    0.207571
  10 S :   -0.442701
  11 N :   -0.211014
  12 C :    0.042208
  13 C :    0.032576
  14 C :   -0.169178
  15 C :   -0.134575
  16 C :   -0.276939
  17 C :    0.314450
  18 O :   -0.359024
  19 C :   -0.251286
  20 H :    0.121031
  21 H :    0.095135
  22 H :    0.094626
  23 H :    0.105628
  24 H :    0.107083
  25 H :    0.124915
  26 H :    0.101034
  27 H :    0.129009
  28 H :    0.198859
  29 H :    0.199934
  30 H :    0.155264
  31 H :    0.159174
  32 H :    0.160016
  33 H :    0.128209
  34 H :    0.239880
  35 H :    0.163217
Sum of atomic charges:   -0.0000000

LOEWDIN ATOMIC CHARGES
----------------------
   0 C :    0.106178
   1 C :   -0.017200
   2 O :    0.303917
   3 C :   -0.413911
   4 O :    0.103165
   5 C :   -0.090925
   6 C :   -0.063662
   7 C :    0.125058
   8 N :    0.405459
   9 C :   -0.458689
  10 S :   -0.037849
  11 N :    0.396581
  12 C :   -0.048251
  13 C :   -0.040544
  14 C :    0.024640
  15 C :    0.040493
  16 C :   -0.001103
  17 C :   -0.192395
  18 O :    0.393122
  19 C :    0.029907
  20 H :   -0.023551
  21 H :   -0.026505
  22 H :   -0.029137
  23 H :   -0.028337
  24 H :   -0.025836
  25 H :   -0.009424
  26 H :   -0.021435
  27 H :   -0.009392
  28 H :   -0.058781
  29 H :   -0.063075
  30 H :   -0.008447
  31 H :   -0.024044
  32 H :   -0.021118
  33 H :   -0.036173
  34 H :   -0.154909
  35 H :   -0.023825

  Mayer bond orders larger than 0.100000
B(  0-C ,  1-C ) :   0.9630 B(  0-C , 20-H ) :   0.9734 B(  0-C , 21-H ) :   0.9761
B(  0-C , 22-H ) :   0.9765 B(  1-C ,  2-O ) :   0.8967 B(  1-C , 23-H ) :   0.9782
B(  1-C , 24-H ) :   0.9840 B(  2-O ,  3-C ) :   1.1421 B(  3-C ,  4-O ) :   1.9724
B(  3-C ,  5-C ) :   1.0483 B(  5-C ,  6-C ) :   1.6519 B(  5-C , 12-C ) :   0.9525
B(  6-C ,  7-C ) :   0.9549 B(  6-C ,  8-N ) :   1.1370 B(  7-C , 25-H ) :   0.9651
B(  7-C , 26-H ) :   0.9910 B(  7-C , 27-H ) :   0.9634 B(  8-N ,  9-C ) :   1.1852
B(  8-N , 28-H ) :   0.9469 B(  9-C , 10-S ) :   1.6078 B(  9-C , 11-N ) :   1.3066
B( 11-N , 12-C ) :   0.9769 B( 11-N , 29-H ) :   0.9485 B( 12-C , 13-C ) :   0.9730
B( 12-C , 30-H ) :   0.9973 B( 13-C , 14-C ) :   1.3750 B( 13-C , 19-C ) :   1.3667
B( 14-C , 15-C ) :   1.3970 B( 14-C , 31-H ) :   0.9637 B( 15-C , 16-C ) :   1.3586
B( 15-C , 32-H ) :   0.9712 B( 16-C , 17-C ) :   1.3335 B( 16-C , 33-H ) :   0.9860
B( 17-C , 18-O ) :   1.1033 B( 17-C , 19-C ) :   1.3672 B( 18-O , 34-H ) :   0.9807
B( 19-C , 35-H ) :   0.9602

MP2 TOTAL ENERGY:    -1274.342072764 Eh
FINAL SINGLE POINT ENERGY     -1274.342072763833

DIPOLE MOMENT
-------------
                                X             Y             Z
Electronic contribution:      9.99632       9.90686      10.15798
Nuclear contribution   :    -11.42296     -11.14624     -11.31420
                        -----------------------------------------
Total Dipole Moment    :     -1.42664      -1.23938      -1.15622
                        -----------------------------------------
Magnitude (a.u.)       :      2.21545
Magnitude (Debye)      :      5.63121

Rotational constants in cm-1:     0.010023     0.009268     0.005677
Rotational constants in MHz :   300.468301   277.833054   170.185875

                             ****ORCA TERMINATED NORMALLY****
TOTAL RUN TIME: 0 days 1 hours 36 minutes 42 seconds 225 msec
