                         Program Version 4.2.0 -  RELEASE  -
|  1> ! ri-mp2 cc-pvtz cc-pvtz/c TightSCF NoKeepInts
|  2>
|  3> %scf
|  4>   MaxCore 4096
|  5> end
|  6> *xyz  0  1
|  7>     C       13.7826988   16.4892170   14.7347147
|  8>     C       14.8601583   16.0539926   15.7444104
|  9>     O       16.1302912   16.0005631   15.0587707
| 10>     C       17.2906560   16.5395088   15.5566640
| 11>     O       18.3773734   16.0880038   15.2470056
| 12>     C       17.1538808   17.6324431   16.5635086
| 13>     C       16.7087184   18.8553180   16.1893055
| 14>     C       16.1060524   19.2431131   14.8563951
| 15>     N       16.8718657   19.9619104   17.0243664
| 16>     C       17.6802311   19.9762330   18.1306660
| 17>     S       17.9207352   21.3515861   19.0165417
| 18>     N       18.3009673   18.7933935   18.4504748
| 19>     C       18.0411481   17.4937837   17.7991819
| 20>     C       17.5720532   16.3884393   18.7324668
| 21>     C       18.1151280   15.0958360   18.6236892
| 22>     C       17.6704870   14.0619537   19.4644592
| 23>     C       16.6717328   14.3227123   20.4184121
| 24>     C       16.1235392   15.6085283   20.5230670
| 25>     O       15.1514723   15.8603690   21.4353292
| 26>     C       16.5669339   16.6357804   19.6837289
| 27>     H       12.7959434   16.5085764   15.2133643
| 28>     H       13.7388243   15.7825385   13.8962961
| 29>     H       13.9836248   17.4852403   14.3295926
| 30>     H       14.8594020   16.7535523   16.5888799
| 31>     H       14.6182080   15.0586623   16.1399784
| 32>     H       16.1960046   18.4514511   14.1032413
| 33>     H       16.6153782   20.1217739   14.4399778
| 34>     H       15.0437335   19.4921873   14.9637855
| 35>     H       16.4564131   20.8462303   16.7765390
| 36>     H       18.8903639   18.8294625   19.2729010
| 37>     H       19.0472906   17.2628511   17.4177843
| 38>     H       18.8790630   14.8908824   17.8760377
| 39>     H       18.0975101   13.0646499   19.3716052
| 40>     H       16.3248155   13.5264388   21.0688072
| 41>     H       15.0163286   15.0490976   21.9481713
| 42>     H       16.1279732   17.6237203   19.7778806
| 43> *
| 44>
| 45>                          ****END OF INPUT****

CARTESIAN COORDINATES (ANGSTROEM)
---------------------------------
  C     13.782699   16.489217   14.734715
  C     14.860158   16.053993   15.744410
  O     16.130291   16.000563   15.058771
  C     17.290656   16.539509   15.556664
  O     18.377373   16.088004   15.247006
  C     17.153881   17.632443   16.563509
  C     16.708718   18.855318   16.189305
  C     16.106052   19.243113   14.856395
  N     16.871866   19.961910   17.024366
  C     17.680231   19.976233   18.130666
  S     17.920735   21.351586   19.016542
  N     18.300967   18.793394   18.450475
  C     18.041148   17.493784   17.799182
  C     17.572053   16.388439   18.732467
  C     18.115128   15.095836   18.623689
  C     17.670487   14.061954   19.464459
  C     16.671733   14.322712   20.418412
  C     16.123539   15.608528   20.523067
  O     15.151472   15.860369   21.435329
  C     16.566934   16.635780   19.683729
  H     12.795943   16.508576   15.213364
  H     13.738824   15.782538   13.896296
  H     13.983625   17.485240   14.329593
  H     14.859402   16.753552   16.588880
  H     14.618208   15.058662   16.139978
  H     16.196005   18.451451   14.103241
  H     16.615378   20.121774   14.439978
  H     15.043734   19.492187   14.963785
  H     16.456413   20.846230   16.776539
  H     18.890364   18.829463   19.272901
  H     19.047291   17.262851   17.417784
  H     18.879063   14.890882   17.876038
  H     18.097510   13.064650   19.371605
  H     16.324815   13.526439   21.068807
  H     15.016329   15.049098   21.948171
  H     16.127973   17.623720   19.777881

 Total Charge           Charge          ....    0
 Multiplicity           Mult            ....    1
 Number of Electrons    NEL             ....  154
 Basis Dimension        Dim             ....  828

ORBITAL ENERGIES
----------------

  NO   OCC          E(Eh)            E(eV)
   0   2.0000     -91.889475     -2500.4397
   1   2.0000     -20.603545      -560.6510
   2   2.0000     -20.600037      -560.5555
   3   2.0000     -20.551374      -559.2313
   4   2.0000     -15.626977      -425.2317
   5   2.0000     -15.609600      -424.7588
   6   2.0000     -11.399803      -310.2044
   7   2.0000     -11.385554      -309.8167
   8   2.0000     -11.332166      -308.3639
   9   2.0000     -11.317464      -307.9639
  10   2.0000     -11.310647      -307.7783
  11   2.0000     -11.306132      -307.6555
  12   2.0000     -11.266260      -306.5705
  13   2.0000     -11.265234      -306.5426
  14   2.0000     -11.264024      -306.5097
  15   2.0000     -11.257841      -306.3414
  16   2.0000     -11.246483      -306.0324
  17   2.0000     -11.242637      -305.9277
  18   2.0000     -11.240238      -305.8624
  19   2.0000     -11.237553      -305.7894
  20   2.0000      -8.894587      -242.0340
  21   2.0000      -6.576170      -178.9467
  22   2.0000      -6.574156      -178.8919
  23   2.0000      -6.573575      -178.8761
  24   2.0000      -1.448691       -39.4209
  25   2.0000      -1.419732       -38.6329
  26   2.0000      -1.362349       -37.0714
  27   2.0000      -1.340591       -36.4793
  28   2.0000      -1.239207       -33.7205
  29   2.0000      -1.161825       -31.6149
  30   2.0000      -1.126638       -30.6574
  31   2.0000      -1.048804       -28.5394
  32   2.0000      -1.042743       -28.3745
  33   2.0000      -1.019555       -27.7435
  34   2.0000      -1.006217       -27.3806
  35   2.0000      -0.989738       -26.9321
  36   2.0000      -0.926563       -25.2131
  37   2.0000      -0.887832       -24.1591
  38   2.0000      -0.853982       -23.2380
  39   2.0000      -0.842711       -22.9313
  40   2.0000      -0.837994       -22.8030
  41   2.0000      -0.836335       -22.7578
  42   2.0000      -0.758758       -20.6469
  43   2.0000      -0.738450       -20.0942
  44   2.0000      -0.732756       -19.9393
  45   2.0000      -0.697510       -18.9802
  46   2.0000      -0.689723       -18.7683
  47   2.0000      -0.682741       -18.5783
  48   2.0000      -0.674495       -18.3539
  49   2.0000      -0.665986       -18.1224
  50   2.0000      -0.652409       -17.7530
  51   2.0000      -0.642600       -17.4860
  52   2.0000      -0.638343       -17.3702
  53   2.0000      -0.617112       -16.7925
  54   2.0000      -0.609096       -16.5744
  55   2.0000      -0.606592       -16.5062
  56   2.0000      -0.603203       -16.4140
  57   2.0000      -0.586207       -15.9515
  58   2.0000      -0.578195       -15.7335
  59   2.0000      -0.571439       -15.5496
  60   2.0000      -0.563273       -15.3274
  61   2.0000      -0.559358       -15.2209
  62   2.0000      -0.542221       -14.7546
  63   2.0000      -0.538134       -14.6434
  64   2.0000      -0.522881       -14.2283
  65   2.0000      -0.515484       -14.0270
  66   2.0000      -0.502890       -13.6843
  67   2.0000      -0.501340       -13.6421
  68   2.0000      -0.488900       -13.3036
  69   2.0000      -0.469307       -12.7705
  70   2.0000      -0.458257       -12.4698
  71   2.0000      -0.451354       -12.2820
  72   2.0000      -0.356107        -9.6902
  73   2.0000      -0.352181        -9.5833
  74   2.0000      -0.329050        -8.9539
  75   2.0000      -0.325076        -8.8458
  76   2.0000      -0.319559        -8.6956
  77   0.0000       0.086778         2.3614
  78   0.0000       0.103248         2.8095
  79   0.0000       0.116972         3.1830
  80   0.0000       0.128185         3.4881
  81   0.0000       0.129912         3.5351

MULLIKEN ATOMIC CHARGES
-----------------------
   0 C :   -0.272201
   1 C :    0.020876
   2 O :   -0.324115
   3 C :    0.418380
   4 O :   -0.379385
   5 C :   -0.225628
   6 C :    0.167316
   7 C :   -0.346776
   8 N :   -0.139626
   9 C :    0.207994
  10 S :   -0.443509
  11 N :   -0.221742
  12 C :    0.059442
  13 C :    0.029497
  14 C :   -0.223161
  15 C :   -0.127275
  16 C :   -0.276817
  17 C :    0.314661
  18 O :   -0.355753
  19 C :   -0.254289
  20 H :    0.096796
  21 H :    0.108445
  22 H :    0.091405
  23 H :    0.100990
  24 H :    0.122336
  25 H :    0.132336
  26 H :    0.141971
  27 H :    0.124252
  28 H :    0.197968
  29 H :    0.202167
  30 H :    0.167625
  31 H :    0.174767
  32 H :    0.164750
  33 H :    0.131633
  34 H :    0.241439
  35 H :    0.173228
Sum of atomic charges:   -0.0000000

LOEWDIN ATOMIC CHARGES
----------------------
   0 C :    0.106938
   1 C :   -0.014559
   2 O :    0.304034
   3 C :   -0.415368
   4 O :    0.121707
   5 C :   -0.084261
   6 C :   -0.092498
   7 C :    0.125066
   8 N :    0.402855
   9 C :   -0.456338
  10 S :   -0.038754
  11 N :    0.396036
  12 C :   -0.050026
  13 C :   -0.044024
  14 C :    0.019292
  15 C :    0.045057
  16 C :    0.000174
  17 C :   -0.191042
  18 O :    0.395058
  19 C :    0.027172
  20 H :   -0.023815
  21 H :   -0.023404
  22 H :   -0.033471
  23 H :   -0.038582
  24 H :   -0.025207
  25 H :   -0.009606
  26 H :   -0.009365
  27 H :   -0.017511
  28 H :   -0.056862
  29 H :   -0.063727
  30 H :   -0.003907
  31 H :   -0.021465
  32 H :   -0.018495
  33 H :   -0.034733
  34 H :   -0.153049
  35 H :   -0.023319

  Mayer bond orders larger than 0.100000
B(  0-C ,  1-C ) :   0.9721 B(  0-C , 20-H ) :   0.9754 B(  0-C , 21-H ) :   0.9778
B(  0-C , 22-H ) :   0.9784 B(  1-C ,  2-O ) :   0.9030 B(  1-C , 23-H ) :   0.9586
B(  1-C , 24-H ) :   0.9816 B(  2-O ,  3-C ) :   1.1757 B(  3-C ,  4-O ) :   2.1020
B(  3-C ,  5-C ) :   0.9207 B(  5-C ,  6-C ) :   1.7224 B(  5-C , 12-C ) :   0.9417
B(  6-C ,  7-C ) :   0.9347 B(  6-C ,  8-N ) :   1.1060 B(  7-C , 25-H ) :   0.9775
B(  7-C , 26-H ) :   0.9723 B(  7-C , 27-H ) :   0.9665 B(  8-N ,  9-C ) :   1.1983
B(  8-N , 28-H ) :   0.9511 B(  9-C , 10-S ) :   1.6100 B(  9-C , 11-N ) :   1.2905
B( 11-N , 12-C ) :   0.9861 B( 11-N , 29-H ) :   0.9475 B( 12-C , 13-C ) :   0.9690
B( 12-C , 30-H ) :   0.9899 B( 13-C , 14-C ) :   1.3836 B( 13-C , 19-C ) :   1.3534
B( 14-C , 15-C ) :   1.3938 B( 14-C , 31-H ) :   0.9604 B( 15-C , 16-C ) :   1.3625
B( 15-C , 32-H ) :   0.9695 B( 16-C , 17-C ) :   1.3304 B( 16-C , 33-H ) :   0.9850
B( 17-C , 18-O ) :   1.1091 B( 17-C , 19-C ) :   1.3661 B( 18-O , 34-H ) :   0.9792
B( 19-C , 35-H ) :   0.9565

MP2 TOTAL ENERGY:    -1274.329850984 Eh
FINAL SINGLE POINT ENERGY     -1274.329850984209

DIPOLE MOMENT
-------------
                                X             Y             Z
Electronic contribution:     10.97098       5.85557       9.31481
Nuclear contribution   :    -12.60982      -7.12027      -9.55973
                        -----------------------------------------
Total Dipole Moment    :     -1.63884      -1.26469      -0.24493
                        -----------------------------------------
Magnitude (a.u.)       :      2.08452
Magnitude (Debye)      :      5.29844

Rotational constants in cm-1:     0.010526     0.009149     0.006267
Rotational constants in MHz :   315.570769   274.292244   187.870555

                             ****ORCA TERMINATED NORMALLY****
TOTAL RUN TIME: 0 days 1 hours 50 minutes 19 seconds 236 msec
