                         Program Version 4.2.0 -  RELEASE  -
|  1> ! ri-mp2 cc-pvtz cc-pvtz/c TightSCF NoKeepInts
|  2>
|  3> %scf
|  4>   MaxCore 4096
|  5> end
|  6> *xyz  0  1
|  7>     C       13.7321111   16.0091125   14.3306208
|  8>     C       14.8647601   15.8580896   15.3600093
|  9>     O       16.0292684   16.5013903   14.8238687
| 10>     C       17.1104093   16.5532558   15.6468879
| 11>     O       17.9269601   15.6503528   15.6735605
| 12>     C       17.1206198   17.6998176   16.6145883
| 13>     C       16.6813822   18.9388792   16.2736680
| 14>     C       15.9364694   19.3431398   15.0172476
| 15>     N       16.9510623   20.0398933   17.0900919
| 16>     C       17.8354088   20.0290180   18.1352715
| 17>     S       18.1876344   21.3978982   18.9936729
| 18>     N       18.4300865   18.8254059   18.4195714
| 19>     C       18.0807372   17.5335317   17.7968600
| 20>     C       17.6203332   16.4808169   18.7959587
| 21>     C       18.2250198   15.2115205   18.8283590
| 22>     C       17.7943317   14.2380204   19.7452139
| 23>     C       16.7499022   14.5365693   20.6370709
| 24>     C       16.1432053   15.7996790   20.6043998
| 25>     O       15.1296681   16.0884913   21.4589822
| 26>     C       16.5732320   16.7662542   19.6895945
| 27>     H       12.8183843   15.5202316   14.6900489
| 28>     H       14.0152929   15.5461106   13.3768633
| 29>     H       13.5067021   17.0665812   14.1480084
| 30>     H       14.5670668   16.3236852   16.3094515
| 31>     H       15.0699316   14.7939816   15.5414826
| 32>     H       14.9141106   18.9479424   15.0264696
| 33>     H       16.4402668   18.9591467   14.1209198
| 34>     H       15.8674179   20.4314182   14.8979653
| 35>     H       16.5430095   20.9362344   16.8771749
| 36>     H       19.0662388   18.8408296   19.2069401
| 37>     H       19.0512164   17.2552407   17.3599801
| 38>     H       19.0225762   14.9747989   18.1274830
| 39>     H       18.2666772   13.2572536   19.7573208
| 40>     H       16.4134543   13.7868911   21.3455387
| 41>     H       15.0087249   15.3192647   22.0359177
| 42>     H       16.0933277   17.7392531   19.6809373
| 43> *
| 44>
| 45>                          ****END OF INPUT****

CARTESIAN COORDINATES (ANGSTROEM)
---------------------------------
  C     13.732111   16.009113   14.330621
  C     14.864760   15.858090   15.360009
  O     16.029268   16.501390   14.823869
  C     17.110409   16.553256   15.646888
  O     17.926960   15.650353   15.673561
  C     17.120620   17.699818   16.614588
  C     16.681382   18.938879   16.273668
  C     15.936469   19.343140   15.017248
  N     16.951062   20.039893   17.090092
  C     17.835409   20.029018   18.135272
  S     18.187634   21.397898   18.993673
  N     18.430087   18.825406   18.419571
  C     18.080737   17.533532   17.796860
  C     17.620333   16.480817   18.795959
  C     18.225020   15.211520   18.828359
  C     17.794332   14.238020   19.745214
  C     16.749902   14.536569   20.637071
  C     16.143205   15.799679   20.604400
  O     15.129668   16.088491   21.458982
  C     16.573232   16.766254   19.689594
  H     12.818384   15.520232   14.690049
  H     14.015293   15.546111   13.376863
  H     13.506702   17.066581   14.148008
  H     14.567067   16.323685   16.309452
  H     15.069932   14.793982   15.541483
  H     14.914111   18.947942   15.026470
  H     16.440267   18.959147   14.120920
  H     15.867418   20.431418   14.897965
  H     16.543010   20.936234   16.877175
  H     19.066239   18.840830   19.206940
  H     19.051216   17.255241   17.359980
  H     19.022576   14.974799   18.127483
  H     18.266677   13.257254   19.757321
  H     16.413454   13.786891   21.345539
  H     15.008725   15.319265   22.035918
  H     16.093328   17.739253   19.680937

 Total Charge           Charge          ....    0
 Multiplicity           Mult            ....    1
 Number of Electrons    NEL             ....  154
 Basis Dimension        Dim             ....  828

ORBITAL ENERGIES
----------------

  NO   OCC          E(Eh)            E(eV)
   0   2.0000     -91.890073     -2500.4560
   1   2.0000     -20.594956      -560.4172
   2   2.0000     -20.589210      -560.2609
   3   2.0000     -20.552995      -559.2754
   4   2.0000     -15.631009      -425.3414
   5   2.0000     -15.607679      -424.7065
   6   2.0000     -11.393212      -310.0251
   7   2.0000     -11.384902      -309.7989
   8   2.0000     -11.340310      -308.5855
   9   2.0000     -11.311163      -307.7924
  10   2.0000     -11.305752      -307.6452
  11   2.0000     -11.305527      -307.6390
  12   2.0000     -11.263070      -306.4837
  13   2.0000     -11.260853      -306.4234
  14   2.0000     -11.258307      -306.3541
  15   2.0000     -11.250980      -306.1547
  16   2.0000     -11.241069      -305.8850
  17   2.0000     -11.237599      -305.7906
  18   2.0000     -11.237456      -305.7867
  19   2.0000     -11.233753      -305.6860
  20   2.0000      -8.895149      -242.0493
  21   2.0000      -6.576722      -178.9617
  22   2.0000      -6.574721      -178.9073
  23   2.0000      -6.574130      -178.8912
  24   2.0000      -1.453965       -39.5644
  25   2.0000      -1.414702       -38.4960
  26   2.0000      -1.360642       -37.0249
  27   2.0000      -1.342027       -36.5184
  28   2.0000      -1.239019       -33.7154
  29   2.0000      -1.155621       -31.4461
  30   2.0000      -1.123030       -30.5592
  31   2.0000      -1.045309       -28.4443
  32   2.0000      -1.039446       -28.2848
  33   2.0000      -1.013290       -27.5730
  34   2.0000      -1.002065       -27.2676
  35   2.0000      -0.987040       -26.8587
  36   2.0000      -0.923245       -25.1228
  37   2.0000      -0.881912       -23.9981
  38   2.0000      -0.851451       -23.1691
  39   2.0000      -0.840589       -22.8736
  40   2.0000      -0.832046       -22.6411
  41   2.0000      -0.830880       -22.6094
  42   2.0000      -0.761017       -20.7083
  43   2.0000      -0.737312       -20.0633
  44   2.0000      -0.729034       -19.8380
  45   2.0000      -0.692599       -18.8466
  46   2.0000      -0.689325       -18.7575
  47   2.0000      -0.682633       -18.5754
  48   2.0000      -0.674400       -18.3514
  49   2.0000      -0.655598       -17.8397
  50   2.0000      -0.650854       -17.7106
  51   2.0000      -0.642020       -17.4702
  52   2.0000      -0.632488       -17.2109
  53   2.0000      -0.625543       -17.0219
  54   2.0000      -0.605948       -16.4887
  55   2.0000      -0.602058       -16.3828
  56   2.0000      -0.598304       -16.2807
  57   2.0000      -0.578964       -15.7544
  58   2.0000      -0.575525       -15.6608
  59   2.0000      -0.565904       -15.3990
  60   2.0000      -0.560065       -15.2401
  61   2.0000      -0.551421       -15.0049
  62   2.0000      -0.541377       -14.7316
  63   2.0000      -0.527620       -14.3573
  64   2.0000      -0.519743       -14.1429
  65   2.0000      -0.512257       -13.9392
  66   2.0000      -0.504076       -13.7166
  67   2.0000      -0.496682       -13.5154
  68   2.0000      -0.482701       -13.1350
  69   2.0000      -0.464988       -12.6530
  70   2.0000      -0.463908       -12.6236
  71   2.0000      -0.452680       -12.3180
  72   2.0000      -0.355660        -9.6780
  73   2.0000      -0.347580        -9.4581
  74   2.0000      -0.329118        -8.9558
  75   2.0000      -0.319452        -8.6927
  76   2.0000      -0.317873        -8.6498
  77   0.0000       0.072705         1.9784
  78   0.0000       0.107008         2.9118
  79   0.0000       0.119202         3.2436
  80   0.0000       0.133611         3.6357
  81   0.0000       0.138628         3.7723

MULLIKEN ATOMIC CHARGES
-----------------------
   0 C :   -0.266672
   1 C :    0.019161
   2 O :   -0.360998
   3 C :    0.475221
   4 O :   -0.385071
   5 C :   -0.253857
   6 C :    0.168958
   7 C :   -0.295028
   8 N :   -0.128747
   9 C :    0.205464
  10 S :   -0.439710
  11 N :   -0.212137
  12 C :    0.048290
  13 C :    0.030406
  14 C :   -0.179954
  15 C :   -0.132152
  16 C :   -0.277461
  17 C :    0.313657
  18 O :   -0.358738
  19 C :   -0.255821
  20 H :    0.095999
  21 H :    0.105828
  22 H :    0.091094
  23 H :    0.097003
  24 H :    0.112091
  25 H :    0.118613
  26 H :    0.135566
  27 H :    0.110129
  28 H :    0.198629
  29 H :    0.200050
  30 H :    0.157862
  31 H :    0.164583
  32 H :    0.161742
  33 H :    0.129434
  34 H :    0.240644
  35 H :    0.165923
Sum of atomic charges:   -0.0000000

LOEWDIN ATOMIC CHARGES
----------------------
   0 C :    0.110978
   1 C :   -0.025234
   2 O :    0.299673
   3 C :   -0.423302
   4 O :    0.127814
   5 C :   -0.097688
   6 C :   -0.067779
   7 C :    0.126777
   8 N :    0.405662
   9 C :   -0.458269
  10 S :   -0.035684
  11 N :    0.396212
  12 C :   -0.049113
  13 C :   -0.042033
  14 C :    0.024365
  15 C :    0.042256
  16 C :   -0.000874
  17 C :   -0.193192
  18 O :    0.393112
  19 C :    0.027560
  20 H :   -0.023206
  21 H :   -0.022722
  22 H :   -0.031356
  23 H :   -0.034987
  24 H :   -0.025564
  25 H :   -0.012923
  26 H :   -0.006035
  27 H :   -0.019199
  28 H :   -0.058208
  29 H :   -0.063210
  30 H :   -0.006923
  31 H :   -0.022826
  32 H :   -0.020132
  33 H :   -0.035684
  34 H :   -0.154143
  35 H :   -0.024123

  Mayer bond orders larger than 0.100000
B(  0-C ,  1-C ) :   0.9765 B(  0-C , 20-H ) :   0.9757 B(  0-C , 21-H ) :   0.9766
B(  0-C , 22-H ) :   0.9784 B(  1-C ,  2-O ) :   0.9009 B(  1-C , 23-H ) :   0.9666
B(  1-C , 24-H ) :   0.9795 B(  2-O ,  3-C ) :   1.0900 B(  3-C ,  4-O ) :   2.0672
B(  3-C ,  5-C ) :   1.0002 B(  5-C ,  6-C ) :   1.6650 B(  5-C , 12-C ) :   0.9553
B(  6-C ,  7-C ) :   0.9492 B(  6-C ,  8-N ) :   1.1362 B(  7-C , 25-H ) :   0.9670
B(  7-C , 26-H ) :   0.9645 B(  7-C , 27-H ) :   0.9898 B(  8-N ,  9-C ) :   1.1846
B(  8-N , 28-H ) :   0.9473 B(  9-C , 10-S ) :   1.6122 B(  9-C , 11-N ) :   1.3030
B( 11-N , 12-C ) :   0.9822 B( 11-N , 29-H ) :   0.9487 B( 12-C , 13-C ) :   0.9718
B( 12-C , 30-H ) :   0.9948 B( 13-C , 14-C ) :   1.3809 B( 13-C , 19-C ) :   1.3608
B( 14-C , 15-C ) :   1.3964 B( 14-C , 31-H ) :   0.9616 B( 15-C , 16-C ) :   1.3600
B( 15-C , 32-H ) :   0.9706 B( 16-C , 17-C ) :   1.3325 B( 16-C , 33-H ) :   0.9856
B( 17-C , 18-O ) :   1.1049 B( 17-C , 19-C ) :   1.3668 B( 18-O , 34-H ) :   0.9801
B( 19-C , 35-H ) :   0.9596

MP2 TOTAL ENERGY:    -1274.328012599 Eh
FINAL SINGLE POINT ENERGY     -1274.328012599066

DIPOLE MOMENT
-------------
                                X             Y             Z
Electronic contribution:     11.35467       7.62254      10.03301
Nuclear contribution   :    -12.84374      -8.81250     -10.60617
                        -----------------------------------------
Total Dipole Moment    :     -1.48908      -1.18996      -0.57317
                        -----------------------------------------
Magnitude (a.u.)       :      1.99045
Magnitude (Debye)      :      5.05931

Rotational constants in cm-1:     0.009795     0.009422     0.005971
Rotational constants in MHz :   293.658756   282.464618   179.004500

                             ****ORCA TERMINATED NORMALLY****
TOTAL RUN TIME: 0 days 1 hours 39 minutes 19 seconds 834 msec
