                         Program Version 4.2.0 -  RELEASE  -
|  1> ! ri-mp2 cc-pvtz cc-pvtz/c TightSCF NoKeepInts
|  2>
|  3> %scf
|  4>   MaxCore 4096
|  5> end
|  6> *xyz  0  1
|  7>     C       14.0270279   16.7835994   15.4449258
|  8>     C       15.1366739   15.7591790   15.7458160
|  9>     O       16.3031195   16.0241984   14.9369823
| 10>     C       17.4193377   16.6246049   15.4573340
| 11>     O       18.5416260   16.2763089   15.1422639
| 12>     C       17.1723389   17.6674985   16.4913825
| 13>     C       16.7421307   18.8926383   16.1083345
| 14>     C       16.2497719   19.2988161   14.7340322
| 15>     N       16.8311152   19.9847312   16.9728798
| 16>     C       17.5513223   19.9831696   18.1388977
| 17>     S       17.7111885   21.3424775   19.0668337
| 18>     N       18.1582801   18.7996089   18.4829700
| 19>     C       17.9662090   17.5118761   17.7862809
| 20>     C       17.4538406   16.3736488   18.6541859
| 21>     C       18.0180626   15.0907250   18.5386511
| 22>     C       17.5298285   14.0246027   19.3122308
| 23>     C       16.4661094   14.2432893   20.2045613
| 24>     C       15.8974786   15.5196640   20.3156484
| 25>     O       14.8626823   15.7307982   21.1670453
| 26>     C       16.3840809   16.5789300   19.5427423
| 27>     H       14.2296583   17.7451321   15.9273496
| 28>     H       13.0659268   16.4206908   15.8295277
| 29>     H       13.9219540   16.9405213   14.3640618
| 30>     H       15.3734542   15.7375970   16.8180877
| 31>     H       14.7592670   14.7636740   15.4778532
| 32>     H       16.1030677   18.4457832   14.0619335
| 33>     H       16.9751282   19.9641616   14.2483997
| 34>     H       15.2921949   19.8301041   14.7956005
| 35>     H       16.4331501   20.8717848   16.7069658
| 36>     H       18.6835763   18.8254281   19.3480867
| 37>     H       19.0010432   17.3066673   17.4728089
| 38>     H       18.8335863   14.9188240   17.8386452
| 39>     H       17.9743527   13.0351768   19.2162574
| 40>     H       16.0857205   13.4221374   20.8033997
| 41>     H       14.7057426   14.9033188   21.6467891
| 42>     H       15.9269528   17.5586339   19.6382347
| 43> *
| 44>
| 45>                          ****END OF INPUT****

CARTESIAN COORDINATES (ANGSTROEM)
---------------------------------
  C     14.027028   16.783599   15.444926
  C     15.136674   15.759179   15.745816
  O     16.303120   16.024198   14.936982
  C     17.419338   16.624605   15.457334
  O     18.541626   16.276309   15.142264
  C     17.172339   17.667499   16.491383
  C     16.742131   18.892638   16.108335
  C     16.249772   19.298816   14.734032
  N     16.831115   19.984731   16.972880
  C     17.551322   19.983170   18.138898
  S     17.711188   21.342478   19.066834
  N     18.158280   18.799609   18.482970
  C     17.966209   17.511876   17.786281
  C     17.453841   16.373649   18.654186
  C     18.018063   15.090725   18.538651
  C     17.529828   14.024603   19.312231
  C     16.466109   14.243289   20.204561
  C     15.897479   15.519664   20.315648
  O     14.862682   15.730798   21.167045
  C     16.384081   16.578930   19.542742
  H     14.229658   17.745132   15.927350
  H     13.065927   16.420691   15.829528
  H     13.921954   16.940521   14.364062
  H     15.373454   15.737597   16.818088
  H     14.759267   14.763674   15.477853
  H     16.103068   18.445783   14.061934
  H     16.975128   19.964162   14.248400
  H     15.292195   19.830104   14.795600
  H     16.433150   20.871785   16.706966
  H     18.683576   18.825428   19.348087
  H     19.001043   17.306667   17.472809
  H     18.833586   14.918824   17.838645
  H     17.974353   13.035177   19.216257
  H     16.085721   13.422137   20.803400
  H     14.705743   14.903319   21.646789
  H     15.926953   17.558634   19.638235

 Total Charge           Charge          ....    0
 Multiplicity           Mult            ....    1
 Number of Electrons    NEL             ....  154
 Basis Dimension        Dim             ....  828

ORBITAL ENERGIES
----------------

  NO   OCC          E(Eh)            E(eV)
   0   2.0000     -91.889570     -2500.4423
   1   2.0000     -20.602607      -560.6254
   2   2.0000     -20.598657      -560.5180
   3   2.0000     -20.553878      -559.2995
   4   2.0000     -15.626542      -425.2198
   5   2.0000     -15.610084      -424.7720
   6   2.0000     -11.398471      -310.1682
   7   2.0000     -11.385697      -309.8206
   8   2.0000     -11.331097      -308.3348
   9   2.0000     -11.320694      -308.0517
  10   2.0000     -11.311679      -307.8064
  11   2.0000     -11.305441      -307.6367
  12   2.0000     -11.268008      -306.6181
  13   2.0000     -11.263059      -306.4834
  14   2.0000     -11.261642      -306.4449
  15   2.0000     -11.261317      -306.4360
  16   2.0000     -11.249555      -306.1160
  17   2.0000     -11.245194      -305.9973
  18   2.0000     -11.243578      -305.9533
  19   2.0000     -11.235490      -305.7332
  20   2.0000      -8.894673      -242.0364
  21   2.0000      -6.576255      -178.9490
  22   2.0000      -6.574243      -178.8942
  23   2.0000      -6.573661      -178.8784
  24   2.0000      -1.448785       -39.4235
  25   2.0000      -1.422321       -38.7033
  26   2.0000      -1.362771       -37.0829
  27   2.0000      -1.340191       -36.4685
  28   2.0000      -1.239249       -33.7217
  29   2.0000      -1.164614       -31.6908
  30   2.0000      -1.126902       -30.6646
  31   2.0000      -1.050320       -28.5807
  32   2.0000      -1.039558       -28.2878
  33   2.0000      -1.022245       -27.8167
  34   2.0000      -1.005853       -27.3706
  35   2.0000      -0.990280       -26.9469
  36   2.0000      -0.927294       -25.2330
  37   2.0000      -0.890634       -24.2354
  38   2.0000      -0.852834       -23.2068
  39   2.0000      -0.843327       -22.9481
  40   2.0000      -0.840295       -22.8656
  41   2.0000      -0.835808       -22.7435
  42   2.0000      -0.757992       -20.6260
  43   2.0000      -0.737868       -20.0784
  44   2.0000      -0.731234       -19.8979
  45   2.0000      -0.700188       -19.0531
  46   2.0000      -0.691585       -18.8190
  47   2.0000      -0.682706       -18.5774
  48   2.0000      -0.675582       -18.3835
  49   2.0000      -0.665306       -18.1039
  50   2.0000      -0.653083       -17.7713
  51   2.0000      -0.639372       -17.3982
  52   2.0000      -0.634767       -17.2729
  53   2.0000      -0.620217       -16.8770
  54   2.0000      -0.612305       -16.6617
  55   2.0000      -0.607472       -16.5302
  56   2.0000      -0.605728       -16.4827
  57   2.0000      -0.583880       -15.8882
  58   2.0000      -0.580994       -15.8096
  59   2.0000      -0.577777       -15.7221
  60   2.0000      -0.564913       -15.3721
  61   2.0000      -0.557612       -15.1734
  62   2.0000      -0.541807       -14.7433
  63   2.0000      -0.534040       -14.5320
  64   2.0000      -0.524575       -14.2744
  65   2.0000      -0.515639       -14.0313
  66   2.0000      -0.503444       -13.6994
  67   2.0000      -0.498005       -13.5514
  68   2.0000      -0.491116       -13.3639
  69   2.0000      -0.468562       -12.7502
  70   2.0000      -0.457018       -12.4361
  71   2.0000      -0.453031       -12.3276
  72   2.0000      -0.356194        -9.6925
  73   2.0000      -0.354705        -9.6520
  74   2.0000      -0.329618        -8.9694
  75   2.0000      -0.327998        -8.9253
  76   2.0000      -0.319957        -8.7065
  77   0.0000       0.088544         2.4094
  78   0.0000       0.100946         2.7469
  79   0.0000       0.119029         3.2389
  80   0.0000       0.124383         3.3846
  81   0.0000       0.127948         3.4816

MULLIKEN ATOMIC CHARGES
-----------------------
   0 C :   -0.310707
   1 C :    0.026538
   2 O :   -0.329489
   3 C :    0.425768
   4 O :   -0.375081
   5 C :   -0.203496
   6 C :    0.121897
   7 C :   -0.331811
   8 N :   -0.136620
   9 C :    0.208654
  10 S :   -0.443041
  11 N :   -0.223516
  12 C :    0.064659
  13 C :   -0.002231
  14 C :   -0.212616
  15 C :   -0.131723
  16 C :   -0.274428
  17 C :    0.312558
  18 O :   -0.354642
  19 C :   -0.237326
  20 H :    0.095189
  21 H :    0.117182
  22 H :    0.106238
  23 H :    0.109257
  24 H :    0.124051
  25 H :    0.129323
  26 H :    0.149461
  27 H :    0.116324
  28 H :    0.197398
  29 H :    0.202105
  30 H :    0.167504
  31 H :    0.176068
  32 H :    0.165538
  33 H :    0.133867
  34 H :    0.241679
  35 H :    0.175467
Sum of atomic charges:   -0.0000000

LOEWDIN ATOMIC CHARGES
----------------------
   0 C :    0.104066
   1 C :   -0.016230
   2 O :    0.298185
   3 C :   -0.417138
   4 O :    0.125242
   5 C :   -0.086472
   6 C :   -0.092866
   7 C :    0.124827
   8 N :    0.403598
   9 C :   -0.455262
  10 S :   -0.038281
  11 N :    0.395795
  12 C :   -0.051241
  13 C :   -0.045930
  14 C :    0.017133
  15 C :    0.045466
  16 C :    0.000584
  17 C :   -0.191245
  18 O :    0.396277
  19 C :    0.027249
  20 H :   -0.033572
  21 H :   -0.022709
  22 H :   -0.025829
  23 H :   -0.029659
  24 H :   -0.021791
  25 H :   -0.010795
  26 H :   -0.008465
  27 H :   -0.017451
  28 H :   -0.056669
  29 H :   -0.064174
  30 H :   -0.004071
  31 H :   -0.021617
  32 H :   -0.017913
  33 H :   -0.034141
  34 H :   -0.152565
  35 H :   -0.022335

  Mayer bond orders larger than 0.100000
B(  0-C ,  1-C ) :   0.9619 B(  0-C , 20-H ) :   0.9754 B(  0-C , 21-H ) :   0.9783
B(  0-C , 22-H ) :   0.9748 B(  1-C ,  2-O ) :   0.8997 B(  1-C , 23-H ) :   0.9628
B(  1-C , 24-H ) :   0.9852 B(  2-O ,  3-C ) :   1.1606 B(  3-C ,  4-O ) :   2.1138
B(  3-C ,  5-C ) :   0.9046 B(  5-C ,  6-C ) :   1.7288 B(  5-C , 12-C ) :   0.9410
B(  6-C ,  7-C ) :   0.9502 B(  6-C ,  8-N ) :   1.1032 B(  7-C , 25-H ) :   0.9755
B(  7-C , 26-H ) :   0.9650 B(  7-C , 27-H ) :   0.9690 B(  8-N ,  9-C ) :   1.1990
B(  8-N , 28-H ) :   0.9497 B(  9-C , 10-S ) :   1.6106 B(  9-C , 11-N ) :   1.2893
B( 11-N , 12-C ) :   0.9835 B( 11-N , 29-H ) :   0.9474 B( 12-C , 13-C ) :   0.9662
B( 12-C , 30-H ) :   0.9916 B( 13-C , 14-C ) :   1.3858 B( 13-C , 19-C ) :   1.3516
B( 14-C , 15-C ) :   1.3957 B( 14-C , 31-H ) :   0.9599 B( 15-C , 16-C ) :   1.3633
B( 15-C , 32-H ) :   0.9694 B( 16-C , 17-C ) :   1.3303 B( 16-C , 33-H ) :   0.9839
B( 17-C , 18-O ) :   1.1117 B( 17-C , 19-C ) :   1.3638 B( 18-O , 34-H ) :   0.9788
B( 19-C , 35-H ) :   0.9565

MP2 TOTAL ENERGY:    -1274.329222214 Eh
FINAL SINGLE POINT ENERGY     -1274.329222214445

DIPOLE MOMENT
-------------
                                X             Y             Z
Electronic contribution:      9.85126       5.72564       7.83019
Nuclear contribution   :    -11.36541      -7.21587      -7.99913
                        -----------------------------------------
Total Dipole Moment    :     -1.51415      -1.49023      -0.16894
                        -----------------------------------------
Magnitude (a.u.)       :      2.13119
Magnitude (Debye)      :      5.41706

Rotational constants in cm-1:     0.011382     0.009068     0.006516
Rotational constants in MHz :   341.222421   271.855576   195.334811

                             ****ORCA TERMINATED NORMALLY****
TOTAL RUN TIME: 0 days 2 hours 5 minutes 20 seconds 443 msec
