                         Program Version 4.2.0 -  RELEASE  -
|  1> ! ri-mp2 cc-pvtz cc-pvtz/c TightSCF NoKeepInts
|  2>
|  3> %scf
|  4>   MaxCore 4096
|  5> end
|  6> *xyz  0  1
|  7>     C       14.4516114   16.5067270   16.0983923
|  8>     C       15.4230989   15.3124857   15.9590897
|  9>     O       16.6598993   15.6204311   15.2651199
| 10>     C       17.3943773   16.7817233   15.2572774
| 11>     O       18.2096553   16.9906102   14.3782871
| 12>     C       17.1494199   17.7742818   16.3433644
| 13>     C       16.9121106   19.0581508   15.9883875
| 14>     C       16.4969402   19.5302064   14.6115502
| 15>     N       17.0742403   20.1048504   16.8971237
| 16>     C       17.7123081   19.9770946   18.1024825
| 17>     S       17.9807927   21.2739737   19.0927901
| 18>     N       18.1417814   18.7158367   18.4367480
| 19>     C       17.8284421   17.4824690   17.6879470
| 20>     C       17.2018595   16.3865223   18.5348236
| 21>     C       17.7674176   15.0982682   18.5600377
| 22>     C       17.1909815   14.0821159   19.3405419
| 23>     C       16.0438806   14.3582012   20.1044436
| 24>     C       15.4851090   15.6435840   20.0885055
| 25>     O       14.3767038   15.9127234   20.8225215
| 26>     C       16.0609947   16.6532557   19.3110350
| 27>     H       14.7264320   17.1780060   16.9177537
| 28>     H       13.4437329   16.1358716   16.3216383
| 29>     H       14.3939833   17.0784087   15.1644405
| 30>     H       15.6372203   14.9106861   16.9555391
| 31>     H       14.9168009   14.5125174   15.4035637
| 32>     H       15.8670914   18.7884680   14.1059051
| 33>     H       17.3827904   19.6864701   13.9816172
| 34>     H       15.9325050   20.4697096   14.6447717
| 35>     H       16.8098026   21.0423111   16.6387611
| 36>     H       18.6036023   18.6505138   19.3353923
| 37>     H       18.8491256   17.1776038   17.4133145
| 38>     H       18.6514979   14.8810130   17.9650582
| 39>     H       17.6330969   13.0869218   19.3514144
| 40>     H       15.5953455   13.5758753   20.7083070
| 41>     H       14.1642227   15.1179176   21.3351472
| 42>     H       15.6181261   17.6441945   19.3149074
| 43> *
| 44>
| 45>                          ****END OF INPUT****

CARTESIAN COORDINATES (ANGSTROEM)
---------------------------------
  C     14.451611   16.506727   16.098392
  C     15.423099   15.312486   15.959090
  O     16.659899   15.620431   15.265120
  C     17.394377   16.781723   15.257277
  O     18.209655   16.990610   14.378287
  C     17.149420   17.774282   16.343364
  C     16.912111   19.058151   15.988387
  C     16.496940   19.530206   14.611550
  N     17.074240   20.104850   16.897124
  C     17.712308   19.977095   18.102483
  S     17.980793   21.273974   19.092790
  N     18.141781   18.715837   18.436748
  C     17.828442   17.482469   17.687947
  C     17.201860   16.386522   18.534824
  C     17.767418   15.098268   18.560038
  C     17.190981   14.082116   19.340542
  C     16.043881   14.358201   20.104444
  C     15.485109   15.643584   20.088506
  O     14.376704   15.912723   20.822522
  C     16.060995   16.653256   19.311035
  H     14.726432   17.178006   16.917754
  H     13.443733   16.135872   16.321638
  H     14.393983   17.078409   15.164440
  H     15.637220   14.910686   16.955539
  H     14.916801   14.512517   15.403564
  H     15.867091   18.788468   14.105905
  H     17.382790   19.686470   13.981617
  H     15.932505   20.469710   14.644772
  H     16.809803   21.042311   16.638761
  H     18.603602   18.650514   19.335392
  H     18.849126   17.177604   17.413314
  H     18.651498   14.881013   17.965058
  H     17.633097   13.086922   19.351414
  H     15.595346   13.575875   20.708307
  H     14.164223   15.117918   21.335147
  H     15.618126   17.644194   19.314907

 Total Charge           Charge          ....    0
 Multiplicity           Mult            ....    1
 Number of Electrons    NEL             ....  154
 Basis Dimension        Dim             ....  828

ORBITAL ENERGIES
----------------

  NO   OCC          E(Eh)            E(eV)
   0   2.0000     -91.889545     -2500.4416
   1   2.0000     -20.606325      -560.7266
   2   2.0000     -20.594816      -560.4134
   3   2.0000     -20.549176      -559.1715
   4   2.0000     -15.625650      -425.1956
   5   2.0000     -15.610792      -424.7912
   6   2.0000     -11.397239      -310.1347
   7   2.0000     -11.385027      -309.8023
   8   2.0000     -11.325620      -308.1858
   9   2.0000     -11.324995      -308.1688
  10   2.0000     -11.316822      -307.9464
  11   2.0000     -11.303410      -307.5814
  12   2.0000     -11.271636      -306.7168
  13   2.0000     -11.265719      -306.5558
  14   2.0000     -11.256413      -306.3026
  15   2.0000     -11.255455      -306.2765
  16   2.0000     -11.254873      -306.2607
  17   2.0000     -11.249715      -306.1203
  18   2.0000     -11.249411      -306.1120
  19   2.0000     -11.233350      -305.6750
  20   2.0000      -8.894631      -242.0352
  21   2.0000      -6.576208      -178.9477
  22   2.0000      -6.574203      -178.8932
  23   2.0000      -6.573618      -178.8772
  24   2.0000      -1.440886       -39.2085
  25   2.0000      -1.426094       -38.8060
  26   2.0000      -1.355462       -36.8840
  27   2.0000      -1.339157       -36.4403
  28   2.0000      -1.239411       -33.7261
  29   2.0000      -1.168181       -31.7878
  30   2.0000      -1.125150       -30.6169
  31   2.0000      -1.052131       -28.6299
  32   2.0000      -1.035334       -28.1729
  33   2.0000      -1.026329       -27.9278
  34   2.0000      -1.004225       -27.3264
  35   2.0000      -0.989729       -26.9319
  36   2.0000      -0.927472       -25.2378
  37   2.0000      -0.899433       -24.4748
  38   2.0000      -0.851313       -23.1654
  39   2.0000      -0.845266       -23.0009
  40   2.0000      -0.844394       -22.9771
  41   2.0000      -0.828255       -22.5380
  42   2.0000      -0.750260       -20.4156
  43   2.0000      -0.740433       -20.1482
  44   2.0000      -0.721004       -19.6195
  45   2.0000      -0.704947       -19.1826
  46   2.0000      -0.691830       -18.8256
  47   2.0000      -0.677961       -18.4482
  48   2.0000      -0.676254       -18.4018
  49   2.0000      -0.661602       -18.0031
  50   2.0000      -0.653837       -17.7918
  51   2.0000      -0.649991       -17.6872
  52   2.0000      -0.638486       -17.3741
  53   2.0000      -0.617844       -16.8124
  54   2.0000      -0.613795       -16.7022
  55   2.0000      -0.608143       -16.5484
  56   2.0000      -0.604377       -16.4459
  57   2.0000      -0.585150       -15.9227
  58   2.0000      -0.577898       -15.7254
  59   2.0000      -0.568598       -15.4723
  60   2.0000      -0.566387       -15.4122
  61   2.0000      -0.552824       -15.0431
  62   2.0000      -0.540182       -14.6991
  63   2.0000      -0.534574       -14.5465
  64   2.0000      -0.527599       -14.3567
  65   2.0000      -0.516618       -14.0579
  66   2.0000      -0.505509       -13.7556
  67   2.0000      -0.500649       -13.6234
  68   2.0000      -0.490025       -13.3343
  69   2.0000      -0.464985       -12.6529
  70   2.0000      -0.452506       -12.3133
  71   2.0000      -0.445820       -12.1314
  72   2.0000      -0.360337        -9.8053
  73   2.0000      -0.349795        -9.5184
  74   2.0000      -0.333595        -9.0776
  75   2.0000      -0.328477        -8.9383
  76   2.0000      -0.318597        -8.6695
  77   0.0000       0.084517         2.2998
  78   0.0000       0.095741         2.6053
  79   0.0000       0.120119         3.2686
  80   0.0000       0.126964         3.4549
  81   0.0000       0.128173         3.4878

MULLIKEN ATOMIC CHARGES
-----------------------
   0 C :   -0.328012
   1 C :    0.035409
   2 O :   -0.323549
   3 C :    0.407170
   4 O :   -0.375752
   5 C :   -0.237780
   6 C :    0.156536
   7 C :   -0.290248
   8 N :   -0.133070
   9 C :    0.212391
  10 S :   -0.441916
  11 N :   -0.217023
  12 C :    0.055243
  13 C :   -0.003667
  14 C :   -0.191266
  15 C :   -0.131170
  16 C :   -0.273661
  17 C :    0.317043
  18 O :   -0.354162
  19 C :   -0.252678
  20 H :    0.115726
  21 H :    0.119170
  22 H :    0.102349
  23 H :    0.100988
  24 H :    0.126204
  25 H :    0.113888
  26 H :    0.147452
  27 H :    0.098971
  28 H :    0.197377
  29 H :    0.200834
  30 H :    0.163536
  31 H :    0.158384
  32 H :    0.165683
  33 H :    0.135747
  34 H :    0.242270
  35 H :    0.181587
Sum of atomic charges:   -0.0000000

LOEWDIN ATOMIC CHARGES
----------------------
   0 C :    0.101576
   1 C :   -0.011113
   2 O :    0.294788
   3 C :   -0.419843
   4 O :    0.125699
   5 C :   -0.089608
   6 C :   -0.083407
   7 C :    0.128895
   8 N :    0.404761
   9 C :   -0.454859
  10 S :   -0.037311
  11 N :    0.395560
  12 C :   -0.055510
  13 C :   -0.045305
  14 C :    0.018810
  15 C :    0.043773
  16 C :    0.001841
  17 C :   -0.191236
  18 O :    0.397648
  19 C :    0.033505
  20 H :   -0.035953
  21 H :   -0.022281
  22 H :   -0.030824
  23 H :   -0.032412
  24 H :   -0.021378
  25 H :   -0.012487
  26 H :   -0.003198
  27 H :   -0.020338
  28 H :   -0.058000
  29 H :   -0.064197
  30 H :   -0.008227
  31 H :   -0.025237
  32 H :   -0.018015
  33 H :   -0.032937
  34 H :   -0.151882
  35 H :   -0.021298

  Mayer bond orders larger than 0.100000
B(  0-C ,  1-C ) :   0.9565 B(  0-C , 20-H ) :   0.9692 B(  0-C , 21-H ) :   0.9766
B(  0-C , 22-H ) :   0.9753 B(  1-C ,  2-O ) :   0.9058 B(  1-C , 23-H ) :   0.9682
B(  1-C , 24-H ) :   0.9834 B(  2-O ,  3-C ) :   1.1935 B(  3-C ,  4-O ) :   2.1179
B(  3-C ,  5-C ) :   0.9203 B(  5-C ,  6-C ) :   1.7065 B(  5-C , 12-C ) :   0.9460
B(  6-C ,  7-C ) :   0.9437 B(  6-C ,  8-N ) :   1.1248 B(  7-C , 25-H ) :   0.9775
B(  7-C , 26-H ) :   0.9579 B(  7-C , 27-H ) :   0.9838 B(  8-N ,  9-C ) :   1.2008
B(  8-N , 28-H ) :   0.9499 B(  9-C , 10-S ) :   1.6112 B(  9-C , 11-N ) :   1.2848
B( 11-N , 12-C ) :   0.9798 B( 11-N , 29-H ) :   0.9471 B( 12-C , 13-C ) :   0.9495
B( 12-C , 30-H ) :   1.0036 B( 13-C , 14-C ) :   1.3680 B( 13-C , 19-C ) :   1.3537
B( 14-C , 15-C ) :   1.3989 B( 14-C , 31-H ) :   0.9706 B( 15-C , 16-C ) :   1.3607
B( 15-C , 32-H ) :   0.9697 B( 16-C , 17-C ) :   1.3292 B( 16-C , 33-H ) :   0.9832
B( 17-C , 18-O ) :   1.1127 B( 17-C , 19-C ) :   1.3600 B( 18-O , 34-H ) :   0.9783
B( 19-C , 35-H ) :   0.9527

MP2 TOTAL ENERGY:    -1274.318234041 Eh
FINAL SINGLE POINT ENERGY     -1274.318234041052

DIPOLE MOMENT
-------------
                                X             Y             Z
Electronic contribution:      8.76748       6.62259       6.07573
Nuclear contribution   :    -10.29104      -8.37333      -5.81536
                        -----------------------------------------
Total Dipole Moment    :     -1.52356      -1.75073       0.26037
                        -----------------------------------------
Magnitude (a.u.)       :      2.33540
Magnitude (Debye)      :      5.93612

Rotational constants in cm-1:     0.012426     0.009034     0.006435
Rotational constants in MHz :   372.525698   270.839558   192.901655

                             ****ORCA TERMINATED NORMALLY****
TOTAL RUN TIME: 0 days 1 hours 53 minutes 12 seconds 111 msec
