                         Program Version 4.2.0 -  RELEASE  -
|  1> ! ri-mp2 cc-pvtz cc-pvtz/c TightSCF NoKeepInts
|  2>
|  3> %scf
|  4>   MaxCore 4096
|  5> end
|  6> *xyz  0  1
|  7>     C       14.5368975   16.2505061   16.4069831
|  8>     C       15.2198172   15.7597559   15.1130402
|  9>     O       16.6552059   15.6137164   15.2216448
| 10>     C       17.5701057   16.6135115   15.4352454
| 11>     O       18.6783340   16.5704787   14.9357837
| 12>     C       17.2157769   17.6687094   16.4184617
| 13>     C       16.9062973   18.8953569   15.9431680
| 14>     C       16.5394890   19.2105866   14.5082374
| 15>     N       16.9454656   20.0197044   16.7697996
| 16>     C       17.5434536   20.0375166   18.0029146
| 17>     S       17.6699918   21.4265794   18.8912727
| 18>     N       18.0555191   18.8442216   18.4529820
| 19>     C       17.8572347   17.5339831   17.7994777
| 20>     C       17.2324819   16.4581467   18.6748492
| 21>     C       17.6740445   15.1263917   18.5748645
| 22>     C       17.0936636   14.1204731   19.3652161
| 23>     C       16.0629673   14.4491398   20.2623227
| 24>     C       15.6193202   15.7749421   20.3621978
| 25>     O       14.6177919   16.0930107   21.2202049
| 26>     C       16.1977905   16.7746660   19.5734601
| 27>     H       14.9108139   15.6950862   17.2749371
| 28>     H       13.4564980   16.0718265   16.3458159
| 29>     H       14.6716546   17.3231843   16.5770916
| 30>     H       14.8012614   14.7767871   14.8602856
| 31>     H       14.9732642   16.4371542   14.2856551
| 32>     H       17.2949880   18.8154973   13.8154890
| 33>     H       16.4735142   20.2897168   14.3224213
| 34>     H       15.5721909   18.7690585   14.2431648
| 35>     H       16.6124218   20.9090665   16.4329439
| 36>     H       18.4933340   18.8851834   19.3648915
| 37>     H       18.9064349   17.2707830   17.5968456
| 38>     H       18.4654649   14.8690783   17.8741463
| 39>     H       17.4416907   13.0924473   19.2784372
| 40>     H       15.6113079   13.6747759   20.8736664
| 41>     H       14.3771725   15.2858343   21.6995597
| 42>     H       15.8333402   17.7931236   19.6605227
| 43> *
| 44>
| 45>                          ****END OF INPUT****

CARTESIAN COORDINATES (ANGSTROEM)
---------------------------------
  C     14.536897   16.250506   16.406983
  C     15.219817   15.759756   15.113040
  O     16.655206   15.613716   15.221645
  C     17.570106   16.613512   15.435245
  O     18.678334   16.570479   14.935784
  C     17.215777   17.668709   16.418462
  C     16.906297   18.895357   15.943168
  C     16.539489   19.210587   14.508237
  N     16.945466   20.019704   16.769800
  C     17.543454   20.037517   18.002915
  S     17.669992   21.426579   18.891273
  N     18.055519   18.844222   18.452982
  C     17.857235   17.533983   17.799478
  C     17.232482   16.458147   18.674849
  C     17.674044   15.126392   18.574865
  C     17.093664   14.120473   19.365216
  C     16.062967   14.449140   20.262323
  C     15.619320   15.774942   20.362198
  O     14.617792   16.093011   21.220205
  C     16.197790   16.774666   19.573460
  H     14.910814   15.695086   17.274937
  H     13.456498   16.071827   16.345816
  H     14.671655   17.323184   16.577092
  H     14.801261   14.776787   14.860286
  H     14.973264   16.437154   14.285655
  H     17.294988   18.815497   13.815489
  H     16.473514   20.289717   14.322421
  H     15.572191   18.769058   14.243165
  H     16.612422   20.909067   16.432944
  H     18.493334   18.885183   19.364891
  H     18.906435   17.270783   17.596846
  H     18.465465   14.869078   17.874146
  H     17.441691   13.092447   19.278437
  H     15.611308   13.674776   20.873666
  H     14.377172   15.285834   21.699560
  H     15.833340   17.793124   19.660523

 Total Charge           Charge          ....    0
 Multiplicity           Mult            ....    1
 Number of Electrons    NEL             ....  154
 Basis Dimension        Dim             ....  828

ORBITAL ENERGIES
----------------

  NO   OCC          E(Eh)            E(eV)
   0   2.0000     -91.888516     -2500.4136
   1   2.0000     -20.600778      -560.5757
   2   2.0000     -20.597726      -560.4926
   3   2.0000     -20.556868      -559.3808
   4   2.0000     -15.624833      -425.1733
   5   2.0000     -15.609627      -424.7596
   6   2.0000     -11.399837      -310.2053
   7   2.0000     -11.384288      -309.7822
   8   2.0000     -11.324177      -308.1465
   9   2.0000     -11.318598      -307.9947
  10   2.0000     -11.314246      -307.8763
  11   2.0000     -11.311252      -307.7948
  12   2.0000     -11.266898      -306.5879
  13   2.0000     -11.263734      -306.5018
  14   2.0000     -11.260038      -306.4012
  15   2.0000     -11.257107      -306.3215
  16   2.0000     -11.247853      -306.0697
  17   2.0000     -11.242895      -305.9347
  18   2.0000     -11.242794      -305.9320
  19   2.0000     -11.229755      -305.5772
  20   2.0000      -8.893615      -242.0076
  21   2.0000      -6.575199      -178.9203
  22   2.0000      -6.573186      -178.8655
  23   2.0000      -6.572607      -178.8497
  24   2.0000      -1.447406       -39.3859
  25   2.0000      -1.420512       -38.6541
  26   2.0000      -1.362260       -37.0690
  27   2.0000      -1.338084       -36.4111
  28   2.0000      -1.237717       -33.6800
  29   2.0000      -1.162865       -31.6432
  30   2.0000      -1.126409       -30.6512
  31   2.0000      -1.049331       -28.5538
  32   2.0000      -1.038585       -28.2613
  33   2.0000      -1.020888       -27.7798
  34   2.0000      -1.005091       -27.3499
  35   2.0000      -0.989984       -26.9388
  36   2.0000      -0.926461       -25.2103
  37   2.0000      -0.898187       -24.4409
  38   2.0000      -0.851085       -23.1592
  39   2.0000      -0.842151       -22.9161
  40   2.0000      -0.838282       -22.8108
  41   2.0000      -0.829266       -22.5655
  42   2.0000      -0.750743       -20.4288
  43   2.0000      -0.737462       -20.0674
  44   2.0000      -0.732113       -19.9218
  45   2.0000      -0.698608       -19.0101
  46   2.0000      -0.690913       -18.8007
  47   2.0000      -0.678307       -18.4577
  48   2.0000      -0.674702       -18.3596
  49   2.0000      -0.666592       -18.1389
  50   2.0000      -0.651663       -17.7327
  51   2.0000      -0.650004       -17.6875
  52   2.0000      -0.636286       -17.3142
  53   2.0000      -0.613215       -16.6864
  54   2.0000      -0.609756       -16.5923
  55   2.0000      -0.605240       -16.4694
  56   2.0000      -0.599268       -16.3069
  57   2.0000      -0.589831       -16.0501
  58   2.0000      -0.580739       -15.8027
  59   2.0000      -0.578100       -15.7309
  60   2.0000      -0.564875       -15.3710
  61   2.0000      -0.560303       -15.2466
  62   2.0000      -0.541312       -14.7299
  63   2.0000      -0.530154       -14.4262
  64   2.0000      -0.519344       -14.1321
  65   2.0000      -0.513261       -13.9665
  66   2.0000      -0.502526       -13.6744
  67   2.0000      -0.501807       -13.6549
  68   2.0000      -0.490632       -13.3508
  69   2.0000      -0.461706       -12.5637
  70   2.0000      -0.457269       -12.4429
  71   2.0000      -0.454502       -12.3676
  72   2.0000      -0.354374        -9.6430
  73   2.0000      -0.349091        -9.4993
  74   2.0000      -0.328165        -8.9298
  75   2.0000      -0.326595        -8.8871
  76   2.0000      -0.317298        -8.6341
  77   0.0000       0.091131         2.4798
  78   0.0000       0.104754         2.8505
  79   0.0000       0.116641         3.1740
  80   0.0000       0.128493         3.4965
  81   0.0000       0.128866         3.5066

MULLIKEN ATOMIC CHARGES
-----------------------
   0 C :   -0.326308
   1 C :    0.029267
   2 O :   -0.332876
   3 C :    0.421665
   4 O :   -0.370472
   5 C :   -0.183351
   6 C :    0.139675
   7 C :   -0.323617
   8 N :   -0.136617
   9 C :    0.216640
  10 S :   -0.444299
  11 N :   -0.237591
  12 C :    0.050676
  13 C :    0.016364
  14 C :   -0.211088
  15 C :   -0.134775
  16 C :   -0.275904
  17 C :    0.314861
  18 O :   -0.355889
  19 C :   -0.239539
  20 H :    0.125066
  21 H :    0.115031
  22 H :    0.108143
  23 H :    0.126089
  24 H :    0.088224
  25 H :    0.141875
  26 H :    0.111395
  27 H :    0.119587
  28 H :    0.195793
  29 H :    0.205631
  30 H :    0.169876
  31 H :    0.161481
  32 H :    0.164105
  33 H :    0.133091
  34 H :    0.241324
  35 H :    0.176468
Sum of atomic charges:   -0.0000000

LOEWDIN ATOMIC CHARGES
----------------------
   0 C :    0.102329
   1 C :   -0.017226
   2 O :    0.296763
   3 C :   -0.416470
   4 O :    0.132144
   5 C :   -0.080673
   6 C :   -0.095943
   7 C :    0.127622
   8 N :    0.402362
   9 C :   -0.454651
  10 S :   -0.039520
  11 N :    0.396828
  12 C :   -0.050505
  13 C :   -0.042674
  14 C :    0.018040
  15 C :    0.045001
  16 C :   -0.000743
  17 C :   -0.191358
  18 O :    0.396734
  19 C :    0.029876
  20 H :   -0.021746
  21 H :   -0.024925
  22 H :   -0.036524
  23 H :   -0.017294
  24 H :   -0.037818
  25 H :   -0.004012
  26 H :   -0.015878
  27 H :   -0.018171
  28 H :   -0.060441
  29 H :   -0.064453
  30 H :   -0.004219
  31 H :   -0.023661
  32 H :   -0.018216
  33 H :   -0.034440
  34 H :   -0.153019
  35 H :   -0.023122

  Mayer bond orders larger than 0.100000
B(  0-C ,  1-C ) :   0.9545 B(  0-C , 20-H ) :   0.9675 B(  0-C , 21-H ) :   0.9771
B(  0-C , 22-H ) :   0.9727 B(  1-C ,  2-O ) :   0.9113 B(  1-C , 23-H ) :   0.9823
B(  1-C , 24-H ) :   0.9822 B(  2-O ,  3-C ) :   1.1441 B(  3-C ,  4-O ) :   2.1195
B(  3-C ,  5-C ) :   0.9088 B(  5-C ,  6-C ) :   1.7298 B(  5-C , 12-C ) :   0.9449
B(  6-C ,  7-C ) :   0.9218 B(  6-C ,  8-N ) :   1.0987 B(  7-C , 25-H ) :   0.9678
B(  7-C , 26-H ) :   0.9885 B(  7-C , 27-H ) :   0.9726 B(  8-N ,  9-C ) :   1.2040
B(  8-N , 28-H ) :   0.9491 B(  9-C , 10-S ) :   1.6058 B(  9-C , 11-N ) :   1.2853
B( 11-N , 12-C ) :   0.9677 B( 11-N , 29-H ) :   0.9455 B( 12-C , 13-C ) :   0.9629
B( 12-C , 30-H ) :   0.9917 B( 13-C , 14-C ) :   1.3810 B( 13-C , 19-C ) :   1.3501
B( 14-C , 15-C ) :   1.4023 B( 14-C , 31-H ) :   0.9681 B( 15-C , 16-C ) :   1.3587
B( 15-C , 32-H ) :   0.9697 B( 16-C , 17-C ) :   1.3316 B( 16-C , 33-H ) :   0.9845
B( 17-C , 18-O ) :   1.1107 B( 17-C , 19-C ) :   1.3654 B( 18-O , 34-H ) :   0.9791
B( 19-C , 35-H ) :   0.9559

MP2 TOTAL ENERGY:    -1274.315275389 Eh
FINAL SINGLE POINT ENERGY     -1274.315275389016

DIPOLE MOMENT
-------------
                                X             Y             Z
Electronic contribution:      8.88840       6.89257       6.89306
Nuclear contribution   :    -10.57124      -8.45913      -7.34627
                        -----------------------------------------
Total Dipole Moment    :     -1.68284      -1.56656      -0.45320
                        -----------------------------------------
Magnitude (a.u.)       :      2.34338
Magnitude (Debye)      :      5.95641

Rotational constants in cm-1:     0.011830     0.009249     0.006399
Rotational constants in MHz :   354.662516   277.286879   191.848816

                             ****ORCA TERMINATED NORMALLY****
TOTAL RUN TIME: 0 days 2 hours 0 minutes 53 seconds 634 msec
