                         Program Version 4.2.0 -  RELEASE  -
|  1> ! ri-mp2 cc-pvtz cc-pvtz/c TightSCF NoKeepInts
|  2>
|  3> %scf
|  4>   MaxCore 4096
|  5> end
|  6> *xyz  0  1
|  7>     C       14.8462127   14.2662578   16.3014129
|  8>     C       15.1604302   15.7249200   15.9296591
|  9>     O       16.5151390   15.7739904   15.4491553
| 10>     C       17.0449054   16.9889139   15.1305074
| 11>     O       17.3802973   17.2315309   13.9860266
| 12>     C       17.1325347   17.9753370   16.2607107
| 13>     C       17.1434388   19.3005794   15.9701094
| 14>     C       16.6700692   19.9463976   14.6845712
| 15>     N       17.6027068   20.2430620   16.8914552
| 16>     C       18.3018465   19.9292029   18.0250523
| 17>     S       18.9325108   21.0924048   19.0169738
| 18>     N       18.4747096   18.5926108   18.2830065
| 19>     C       17.8322013   17.4886201   17.5435263
| 20>     C       17.0451585   16.5648488   18.4600956
| 21>     C       17.4584990   15.2355941   18.6627634
| 22>     C       16.7545588   14.3966826   19.5433450
| 23>     C       15.6283030   14.8908562   20.2236102
| 24>     C       15.2207124   16.2178097   20.0299049
| 25>     O       14.1358294   16.6990118   20.6866965
| 26>     C       15.9281350   17.0531608   19.1596346
| 27>     H       15.5428145   13.8959727   17.0611683
| 28>     H       14.9265938   13.6193395   15.4189727
| 29>     H       13.8278105   14.1809923   16.6990409
| 30>     H       14.4727638   16.0592825   15.1413839
| 31>     H       15.0134019   16.3691383   16.8025891
| 32>     H       17.4709556   19.9351065   13.9335071
| 33>     H       16.3528606   20.9863140   14.8269019
| 34>     H       15.8175057   19.4028445   14.2587736
| 35>     H       17.5197876   21.2264856   16.6876937
| 36>     H       18.9804255   18.3913053   19.1367591
| 37>     H       18.7341198   16.9717914   17.1848360
| 38>     H       18.3268354   14.8501318   18.1342070
| 39>     H       17.0803377   13.3684931   19.6929891
| 40>     H       15.0796314   14.2449483   20.9014408
| 41>     H       13.8231432   16.0029335   21.2844996
| 42>     H       15.6098145   18.0831292   19.0350205
| 43> *
| 44>
| 45>                          ****END OF INPUT****

CARTESIAN COORDINATES (ANGSTROEM)
---------------------------------
  C     14.846213   14.266258   16.301413
  C     15.160430   15.724920   15.929659
  O     16.515139   15.773990   15.449155
  C     17.044905   16.988914   15.130507
  O     17.380297   17.231531   13.986027
  C     17.132535   17.975337   16.260711
  C     17.143439   19.300579   15.970109
  C     16.670069   19.946398   14.684571
  N     17.602707   20.243062   16.891455
  C     18.301846   19.929203   18.025052
  S     18.932511   21.092405   19.016974
  N     18.474710   18.592611   18.283006
  C     17.832201   17.488620   17.543526
  C     17.045158   16.564849   18.460096
  C     17.458499   15.235594   18.662763
  C     16.754559   14.396683   19.543345
  C     15.628303   14.890856   20.223610
  C     15.220712   16.217810   20.029905
  O     14.135829   16.699012   20.686697
  C     15.928135   17.053161   19.159635
  H     15.542814   13.895973   17.061168
  H     14.926594   13.619340   15.418973
  H     13.827811   14.180992   16.699041
  H     14.472764   16.059282   15.141384
  H     15.013402   16.369138   16.802589
  H     17.470956   19.935106   13.933507
  H     16.352861   20.986314   14.826902
  H     15.817506   19.402845   14.258774
  H     17.519788   21.226486   16.687694
  H     18.980425   18.391305   19.136759
  H     18.734120   16.971791   17.184836
  H     18.326835   14.850132   18.134207
  H     17.080338   13.368493   19.692989
  H     15.079631   14.244948   20.901441
  H     13.823143   16.002934   21.284500
  H     15.609815   18.083129   19.035021

 Total Charge           Charge          ....    0
 Multiplicity           Mult            ....    1
 Number of Electrons    NEL             ....  154
 Basis Dimension        Dim             ....  828

ORBITAL ENERGIES
----------------

  NO   OCC          E(Eh)            E(eV)
   0   2.0000     -91.891211     -2500.4870
   1   2.0000     -20.604095      -560.6659
   2   2.0000     -20.588202      -560.2335
   3   2.0000     -20.550907      -559.2186
   4   2.0000     -15.629690      -425.3055
   5   2.0000     -15.610591      -424.7858
   6   2.0000     -11.392158      -309.9964
   7   2.0000     -11.385885      -309.8257
   8   2.0000     -11.335292      -308.4490
   9   2.0000     -11.322156      -308.0915
  10   2.0000     -11.315501      -307.9104
  11   2.0000     -11.296897      -307.4042
  12   2.0000     -11.268778      -306.6391
  13   2.0000     -11.262775      -306.4757
  14   2.0000     -11.258157      -306.3500
  15   2.0000     -11.254792      -306.2585
  16   2.0000     -11.251998      -306.1824
  17   2.0000     -11.246867      -306.0428
  18   2.0000     -11.246818      -306.0415
  19   2.0000     -11.225812      -305.4699
  20   2.0000      -8.896265      -242.0797
  21   2.0000      -6.577832      -178.9919
  22   2.0000      -6.575838      -178.9377
  23   2.0000      -6.575242      -178.9214
  24   2.0000      -1.447948       -39.4007
  25   2.0000      -1.423871       -38.7455
  26   2.0000      -1.357654       -36.9436
  27   2.0000      -1.342401       -36.5286
  28   2.0000      -1.241417       -33.7807
  29   2.0000      -1.165280       -31.7089
  30   2.0000      -1.123941       -30.5840
  31   2.0000      -1.049626       -28.5618
  32   2.0000      -1.034022       -28.1372
  33   2.0000      -1.023612       -27.8539
  34   2.0000      -1.001802       -27.2604
  35   2.0000      -0.988568       -26.9003
  36   2.0000      -0.926762       -25.2185
  37   2.0000      -0.875472       -23.8228
  38   2.0000      -0.851556       -23.1720
  39   2.0000      -0.844350       -22.9759
  40   2.0000      -0.842306       -22.9203
  41   2.0000      -0.836088       -22.7511
  42   2.0000      -0.762226       -20.7412
  43   2.0000      -0.739529       -20.1236
  44   2.0000      -0.726793       -19.7770
  45   2.0000      -0.702801       -19.1242
  46   2.0000      -0.691496       -18.8166
  47   2.0000      -0.681461       -18.5435
  48   2.0000      -0.675234       -18.3741
  49   2.0000      -0.657952       -17.9038
  50   2.0000      -0.649030       -17.6610
  51   2.0000      -0.644135       -17.5278
  52   2.0000      -0.639684       -17.4067
  53   2.0000      -0.616579       -16.7780
  54   2.0000      -0.612750       -16.6738
  55   2.0000      -0.605575       -16.4785
  56   2.0000      -0.602328       -16.3902
  57   2.0000      -0.583025       -15.8649
  58   2.0000      -0.575007       -15.6467
  59   2.0000      -0.566797       -15.4233
  60   2.0000      -0.554592       -15.0912
  61   2.0000      -0.545417       -14.8415
  62   2.0000      -0.535862       -14.5815
  63   2.0000      -0.531133       -14.4529
  64   2.0000      -0.524350       -14.2683
  65   2.0000      -0.517242       -14.0749
  66   2.0000      -0.506371       -13.7790
  67   2.0000      -0.500877       -13.6296
  68   2.0000      -0.485498       -13.2111
  69   2.0000      -0.466060       -12.6821
  70   2.0000      -0.459476       -12.5030
  71   2.0000      -0.450257       -12.2521
  72   2.0000      -0.357873        -9.7382
  73   2.0000      -0.352916        -9.6033
  74   2.0000      -0.331330        -9.0160
  75   2.0000      -0.328748        -8.9457
  76   2.0000      -0.321248        -8.7416
  77   0.0000       0.076253         2.0749
  78   0.0000       0.095608         2.6016
  79   0.0000       0.120630         3.2825
  80   0.0000       0.127043         3.4570
  81   0.0000       0.127735         3.4758

MULLIKEN ATOMIC CHARGES
-----------------------
   0 C :   -0.272191
   1 C :    0.016149
   2 O :   -0.337473
   3 C :    0.421286
   4 O :   -0.369302
   5 C :   -0.256263
   6 C :    0.159736
   7 C :   -0.271436
   8 N :   -0.129873
   9 C :    0.208888
  10 S :   -0.438328
  11 N :   -0.208674
  12 C :    0.045789
  13 C :    0.000727
  14 C :   -0.173516
  15 C :   -0.146505
  16 C :   -0.267749
  17 C :    0.311069
  18 O :   -0.355987
  19 C :   -0.231230
  20 H :    0.102521
  21 H :    0.108282
  22 H :    0.088553
  23 H :    0.107882
  24 H :    0.104138
  25 H :    0.140089
  26 H :    0.095781
  27 H :    0.119760
  28 H :    0.199464
  29 H :    0.200276
  30 H :    0.153689
  31 H :    0.155776
  32 H :    0.169605
  33 H :    0.135162
  34 H :    0.241834
  35 H :    0.172070
Sum of atomic charges:   -0.0000000

LOEWDIN ATOMIC CHARGES
----------------------
   0 C :    0.112439
   1 C :   -0.024290
   2 O :    0.300620
   3 C :   -0.426061
   4 O :    0.129154
   5 C :   -0.103551
   6 C :   -0.065598
   7 C :    0.129286
   8 N :    0.406803
   9 C :   -0.456782
  10 S :   -0.033635
  11 N :    0.395386
  12 C :   -0.053983
  13 C :   -0.042605
  14 C :    0.020319
  15 C :    0.044819
  16 C :    0.002745
  17 C :   -0.191843
  18 O :    0.396613
  19 C :    0.033967
  20 H :   -0.029079
  21 H :   -0.025737
  22 H :   -0.025716
  23 H :   -0.033080
  24 H :   -0.040967
  25 H :   -0.004108
  26 H :   -0.022027
  27 H :   -0.007962
  28 H :   -0.056391
  29 H :   -0.063438
  30 H :   -0.011251
  31 H :   -0.026787
  32 H :   -0.019431
  33 H :   -0.033641
  34 H :   -0.152276
  35 H :   -0.021913

  Mayer bond orders larger than 0.100000
B(  0-C ,  1-C ) :   0.9809 B(  0-C , 20-H ) :   0.9732 B(  0-C , 21-H ) :   0.9795
B(  0-C , 22-H ) :   0.9761 B(  1-C ,  2-O ) :   0.8915 B(  1-C , 23-H ) :   0.9805
B(  1-C , 24-H ) :   0.9599 B(  2-O ,  3-C ) :   1.1495 B(  3-C ,  4-O ) :   2.1141
B(  3-C ,  5-C ) :   0.9762 B(  5-C ,  6-C ) :   1.6604 B(  5-C , 12-C ) :   0.9614
B(  6-C ,  7-C ) :   0.9576 B(  6-C ,  8-N ) :   1.1450 B(  7-C , 25-H ) :   0.9544
B(  7-C , 26-H ) :   0.9854 B(  7-C , 27-H ) :   0.9728 B(  8-N ,  9-C ) :   1.1910
B(  8-N , 28-H ) :   0.9483 B(  9-C , 10-S ) :   1.6133 B(  9-C , 11-N ) :   1.2975
B( 11-N , 12-C ) :   0.9755 B( 11-N , 29-H ) :   0.9479 B( 12-C , 13-C ) :   0.9663
B( 12-C , 30-H ) :   1.0066 B( 13-C , 14-C ) :   1.3573 B( 13-C , 19-C ) :   1.3519
B( 14-C , 15-C ) :   1.3815 B( 14-C , 31-H ) :   0.9719 B( 15-C , 16-C ) :   1.3613
B( 15-C , 32-H ) :   0.9700 B( 16-C , 17-C ) :   1.3293 B( 16-C , 33-H ) :   0.9832
B( 17-C , 18-O ) :   1.1090 B( 17-C , 19-C ) :   1.3676 B( 18-O , 34-H ) :   0.9786
B( 19-C , 35-H ) :   0.9605

MP2 TOTAL ENERGY:    -1274.325195576 Eh
FINAL SINGLE POINT ENERGY     -1274.325195575754

DIPOLE MOMENT
-------------
                                X             Y             Z
Electronic contribution:      9.13840      10.54053       5.06557
Nuclear contribution   :    -10.62087     -11.93912      -4.68798
                        -----------------------------------------
Total Dipole Moment    :     -1.48247      -1.39860       0.37759
                        -----------------------------------------
Magnitude (a.u.)       :      2.07277
Magnitude (Debye)      :      5.26855

Rotational constants in cm-1:     0.012579     0.008729     0.006050
Rotational constants in MHz :   377.100421   261.682945   181.367198

                             ****ORCA TERMINATED NORMALLY****
TOTAL RUN TIME: 0 days 1 hours 54 minutes 59 seconds 495 msec
