                         Program Version 4.2.0 -  RELEASE  -
|  1> ! ri-mp2 cc-pvtz cc-pvtz/c TightSCF NoKeepInts
|  2>
|  3> %scf
|  4>   MaxCore 4096
|  5> end
|  6> *xyz  0  1
|  7>     C       14.5249723   16.3308771   16.3189538
|  8>     C       15.0871875   16.0956438   14.8987736
|  9>     O       16.5128762   15.8337382   14.8639901
| 10>     C       17.5504780   16.4653535   15.5120098
| 11>     O       18.6850354   16.0361318   15.4134292
| 12>     C       17.2343614   17.5797814   16.4502951
| 13>     C       16.8671975   18.7859824   15.9541507
| 14>     C       16.4926080   19.1105833   14.5224591
| 15>     N       16.8883835   19.9275805   16.7572733
| 16>     C       17.5103936   19.9959982   17.9760233
| 17>     S       17.6077367   21.4109324   18.8262070
| 18>     N       18.0736449   18.8329690   18.4409754
| 19>     C       17.9096335   17.5028914   17.8203916
| 20>     C       17.3040824   16.4394432   18.7237334
| 21>     C       17.8140920   15.1289790   18.7079104
| 22>     C       17.2462804   14.1320879   19.5185663
| 23>     C       16.1573008   14.4481078   20.3489997
| 24>     C       15.6434271   15.7521176   20.3619535
| 25>     O       14.5849731   16.0570418   21.1539769
| 26>     C       16.2103825   16.7428299   19.5538261
| 27>     H       14.9969082   15.6548765   17.0434022
| 28>     H       13.4479228   16.1237970   16.3300349
| 29>     H       14.6503707   17.3648476   16.6562086
| 30>     H       14.5780959   15.2250339   14.4649139
| 31>     H       14.8397778   16.9537765   14.2634787
| 32>     H       16.8223732   18.3395395   13.8156026
| 33>     H       16.9647254   20.0459505   14.1950002
| 34>     H       15.4076856   19.2298172   14.4171487
| 35>     H       16.5164900   20.7971430   16.4088607
| 36>     H       18.5272030   18.9086171   19.3429254
| 37>     H       18.9631337   17.2597438   17.6156881
| 38>     H       18.6488561   14.8812416   18.0549285
| 39>     H       17.6482331   13.1204506   19.4971254
| 40>     H       15.7146289   13.6803336   20.9749691
| 41>     H       14.3621878   15.2613887   21.6604741
| 42>     H       15.7933610   17.7443724   19.5733406
| 43> *
| 44>
| 45>                          ****END OF INPUT****

CARTESIAN COORDINATES (ANGSTROEM)
---------------------------------
  C     14.524972   16.330877   16.318954
  C     15.087188   16.095644   14.898774
  O     16.512876   15.833738   14.863990
  C     17.550478   16.465353   15.512010
  O     18.685035   16.036132   15.413429
  C     17.234361   17.579781   16.450295
  C     16.867197   18.785982   15.954151
  C     16.492608   19.110583   14.522459
  N     16.888383   19.927581   16.757273
  C     17.510394   19.995998   17.976023
  S     17.607737   21.410932   18.826207
  N     18.073645   18.832969   18.440975
  C     17.909633   17.502891   17.820392
  C     17.304082   16.439443   18.723733
  C     17.814092   15.128979   18.707910
  C     17.246280   14.132088   19.518566
  C     16.157301   14.448108   20.349000
  C     15.643427   15.752118   20.361953
  O     14.584973   16.057042   21.153977
  C     16.210383   16.742830   19.553826
  H     14.996908   15.654877   17.043402
  H     13.447923   16.123797   16.330035
  H     14.650371   17.364848   16.656209
  H     14.578096   15.225034   14.464914
  H     14.839778   16.953777   14.263479
  H     16.822373   18.339539   13.815603
  H     16.964725   20.045951   14.195000
  H     15.407686   19.229817   14.417149
  H     16.516490   20.797143   16.408861
  H     18.527203   18.908617   19.342925
  H     18.963134   17.259744   17.615688
  H     18.648856   14.881242   18.054928
  H     17.648233   13.120451   19.497125
  H     15.714629   13.680334   20.974969
  H     14.362188   15.261389   21.660474
  H     15.793361   17.744372   19.573341

 Total Charge           Charge          ....    0
 Multiplicity           Mult            ....    1
 Number of Electrons    NEL             ....  154
 Basis Dimension        Dim             ....  828

ORBITAL ENERGIES
----------------

  NO   OCC          E(Eh)            E(eV)
   0   2.0000     -91.889457     -2500.4392
   1   2.0000     -20.601008      -560.5819
   2   2.0000     -20.599336      -560.5364
   3   2.0000     -20.548893      -559.1638
   4   2.0000     -15.627096      -425.2349
   5   2.0000     -15.609496      -424.7560
   6   2.0000     -11.401319      -310.2457
   7   2.0000     -11.385403      -309.8126
   8   2.0000     -11.330757      -308.3256
   9   2.0000     -11.316679      -307.9425
  10   2.0000     -11.312438      -307.8271
  11   2.0000     -11.310648      -307.7784
  12   2.0000     -11.268875      -306.6417
  13   2.0000     -11.264426      -306.5206
  14   2.0000     -11.263647      -306.4994
  15   2.0000     -11.257342      -306.3278
  16   2.0000     -11.245911      -306.0168
  17   2.0000     -11.241416      -305.8945
  18   2.0000     -11.239322      -305.8375
  19   2.0000     -11.233387      -305.6760
  20   2.0000      -8.894568      -242.0335
  21   2.0000      -6.576152      -178.9462
  22   2.0000      -6.574136      -178.8913
  23   2.0000      -6.573556      -178.8756
  24   2.0000      -1.444061       -39.2949
  25   2.0000      -1.419070       -38.6149
  26   2.0000      -1.358425       -36.9646
  27   2.0000      -1.340578       -36.4790
  28   2.0000      -1.239117       -33.7181
  29   2.0000      -1.161186       -31.5975
  30   2.0000      -1.126507       -30.6538
  31   2.0000      -1.048585       -28.5334
  32   2.0000      -1.039699       -28.2916
  33   2.0000      -1.019186       -27.7335
  34   2.0000      -1.007070       -27.4038
  35   2.0000      -0.990452       -26.9516
  36   2.0000      -0.927203       -25.2305
  37   2.0000      -0.900296       -24.4983
  38   2.0000      -0.853615       -23.2281
  39   2.0000      -0.841527       -22.8991
  40   2.0000      -0.836528       -22.7631
  41   2.0000      -0.829289       -22.5661
  42   2.0000      -0.746408       -20.3108
  43   2.0000      -0.738275       -20.0895
  44   2.0000      -0.732241       -19.9253
  45   2.0000      -0.696553       -18.9542
  46   2.0000      -0.688518       -18.7355
  47   2.0000      -0.678610       -18.4659
  48   2.0000      -0.674131       -18.3440
  49   2.0000      -0.663450       -18.0534
  50   2.0000      -0.655393       -17.8342
  51   2.0000      -0.651051       -17.7160
  52   2.0000      -0.639286       -17.3959
  53   2.0000      -0.615212       -16.7408
  54   2.0000      -0.609804       -16.5936
  55   2.0000      -0.607047       -16.5186
  56   2.0000      -0.603041       -16.4096
  57   2.0000      -0.589955       -16.0535
  58   2.0000      -0.578204       -15.7337
  59   2.0000      -0.574191       -15.6245
  60   2.0000      -0.563922       -15.3451
  61   2.0000      -0.557687       -15.1754
  62   2.0000      -0.542667       -14.7667
  63   2.0000      -0.530644       -14.4395
  64   2.0000      -0.521051       -14.1785
  65   2.0000      -0.513196       -13.9648
  66   2.0000      -0.503669       -13.7055
  67   2.0000      -0.501352       -13.6425
  68   2.0000      -0.486274       -13.2322
  69   2.0000      -0.464910       -12.6508
  70   2.0000      -0.454021       -12.3546
  71   2.0000      -0.452129       -12.3031
  72   2.0000      -0.355325        -9.6689
  73   2.0000      -0.350081        -9.5262
  74   2.0000      -0.329040        -8.9536
  75   2.0000      -0.324759        -8.8372
  76   2.0000      -0.319269        -8.6878
  77   0.0000       0.087212         2.3732
  78   0.0000       0.105716         2.8767
  79   0.0000       0.113539         3.0896
  80   0.0000       0.127807         3.4778
  81   0.0000       0.130091         3.5400

MULLIKEN ATOMIC CHARGES
-----------------------
   0 C :   -0.328243
   1 C :    0.033879
   2 O :   -0.325984
   3 C :    0.427841
   4 O :   -0.383275
   5 C :   -0.215414
   6 C :    0.151937
   7 C :   -0.342687
   8 N :   -0.142384
   9 C :    0.208566
  10 S :   -0.443775
  11 N :   -0.226385
  12 C :    0.070152
  13 C :    0.013017
  14 C :   -0.219455
  15 C :   -0.130676
  16 C :   -0.277346
  17 C :    0.317745
  18 O :   -0.356519
  19 C :   -0.253306
  20 H :    0.126625
  21 H :    0.115885
  22 H :    0.109608
  23 H :    0.132411
  24 H :    0.084355
  25 H :    0.133055
  26 H :    0.134625
  27 H :    0.123199
  28 H :    0.198081
  29 H :    0.203843
  30 H :    0.170187
  31 H :    0.177211
  32 H :    0.164518
  33 H :    0.132330
  34 H :    0.241286
  35 H :    0.175090
Sum of atomic charges:   -0.0000000

LOEWDIN ATOMIC CHARGES
----------------------
   0 C :    0.101630
   1 C :   -0.014668
   2 O :    0.296379
   3 C :   -0.416048
   4 O :    0.119602
   5 C :   -0.078296
   6 C :   -0.093632
   7 C :    0.124438
   8 N :    0.402389
   9 C :   -0.456958
  10 S :   -0.039009
  11 N :    0.396761
  12 C :   -0.048139
  13 C :   -0.044002
  14 C :    0.019082
  15 C :    0.044840
  16 C :   -0.000461
  17 C :   -0.191729
  18 O :    0.395631
  19 C :    0.029384
  20 H :   -0.020388
  21 H :   -0.024365
  22 H :   -0.035139
  23 H :   -0.017663
  24 H :   -0.038148
  25 H :   -0.007644
  26 H :   -0.009710
  27 H :   -0.018326
  28 H :   -0.057622
  29 H :   -0.063571
  30 H :   -0.003194
  31 H :   -0.021177
  32 H :   -0.018358
  33 H :   -0.034749
  34 H :   -0.153273
  35 H :   -0.023869

  Mayer bond orders larger than 0.100000
B(  0-C ,  1-C ) :   0.9498 B(  0-C , 20-H ) :   0.9679 B(  0-C , 21-H ) :   0.9780
B(  0-C , 22-H ) :   0.9745 B(  1-C ,  2-O ) :   0.9084 B(  1-C , 23-H ) :   0.9814
B(  1-C , 24-H ) :   0.9735 B(  2-O ,  3-C ) :   1.1790 B(  3-C ,  4-O ) :   2.0890
B(  3-C ,  5-C ) :   0.9208 B(  5-C ,  6-C ) :   1.7275 B(  5-C , 12-C ) :   0.9360
B(  6-C ,  7-C ) :   0.9381 B(  6-C ,  8-N ) :   1.0945 B(  7-C , 25-H ) :   0.9770
B(  7-C , 26-H ) :   0.9753 B(  7-C , 27-H ) :   0.9655 B(  8-N ,  9-C ) :   1.1998
B(  8-N , 28-H ) :   0.9509 B(  9-C , 10-S ) :   1.6084 B(  9-C , 11-N ) :   1.2902
B( 11-N , 12-C ) :   0.9794 B( 11-N , 29-H ) :   0.9471 B( 12-C , 13-C ) :   0.9662
B( 12-C , 30-H ) :   0.9884 B( 13-C , 14-C ) :   1.3870 B( 13-C , 19-C ) :   1.3508
B( 14-C , 15-C ) :   1.3964 B( 14-C , 31-H ) :   0.9589 B( 15-C , 16-C ) :   1.3610
B( 15-C , 32-H ) :   0.9698 B( 16-C , 17-C ) :   1.3305 B( 16-C , 33-H ) :   0.9847
B( 17-C , 18-O ) :   1.1099 B( 17-C , 19-C ) :   1.3660 B( 18-O , 34-H ) :   0.9794
B( 19-C , 35-H ) :   0.9565

MP2 TOTAL ENERGY:    -1274.322614689 Eh
FINAL SINGLE POINT ENERGY     -1274.322614689496

DIPOLE MOMENT
-------------
                                X             Y             Z
Electronic contribution:      8.82150       6.19016       7.00837
Nuclear contribution   :    -10.48954      -7.41473      -7.57358
                        -----------------------------------------
Total Dipole Moment    :     -1.66804      -1.22456      -0.56521
                        -----------------------------------------
Magnitude (a.u.)       :      2.14509
Magnitude (Debye)      :      5.45238

Rotational constants in cm-1:     0.011553     0.009251     0.006520
Rotational constants in MHz :   346.343232   277.339965   195.457730

                             ****ORCA TERMINATED NORMALLY****
TOTAL RUN TIME: 0 days 2 hours 6 minutes 0 seconds 467 msec
