                         Program Version 4.2.0 -  RELEASE  -
|  1> ! ri-mp2 cc-pvtz cc-pvtz/c TightSCF NoKeepInts
|  2>
|  3> %scf
|  4>   MaxCore 4096
|  5> end
|  6> *xyz  0  1
|  7>     C       14.0761133   15.1614256   15.3627542
|  8>     C       14.9747864   16.4084253   15.3466244
|  9>     O       16.3109150   15.9562181   15.0492252
| 10>     C       17.4502156   16.4777767   15.6101661
| 11>     O       18.5285770   15.9323251   15.4677202
| 12>     C       17.2796657   17.6527416   16.5152031
| 13>     C       16.9662892   18.8664030   16.0012481
| 14>     C       16.5311771   19.1738662   14.5827146
| 15>     N       17.1140703   20.0257141   16.7646269
| 16>     C       17.7978110   20.0810008   17.9508733
| 17>     S       18.0368654   21.5074200   18.7522771
| 18>     N       18.2961167   18.8925210   18.4264350
| 19>     C       18.0157637   17.5618105   17.8505363
| 20>     C       17.3716895   16.5685836   18.8054109
| 21>     C       17.8234813   15.2375507   18.8486023
| 22>     C       17.2185088   14.3060690   19.7087403
| 23>     C       16.1504591   14.7087037   20.5288765
| 24>     C       15.6934380   16.0329683   20.4815105
| 25>     O       14.6555459   16.4216298   21.2640934
| 26>     C       16.2968606   16.9582413   19.6235643
| 27>     H       14.4134125   14.4532631   16.1304354
| 28>     H       14.1012122   14.6536183   14.3903547
| 29>     H       13.0369967   15.4357627   15.5815262
| 30>     H       14.6251062   17.1177508   14.5864672
| 31>     H       14.9103733   16.8791931   16.3362772
| 32>     H       16.7538332   18.3555371   13.8869218
| 33>     H       17.0555961   20.0562047   14.1933836
| 34>     H       15.4547403   19.3776442   14.5352789
| 35>     H       16.7895313   20.9107111   16.4075077
| 36>     H       18.7941507   18.9595543   19.3054062
| 37>     H       19.0382814   17.2378628   17.6044056
| 38>     H       18.6410295   14.9223346   18.2030386
| 39>     H       17.5753842   13.2777168   19.7331553
| 40>     H       15.6794512   13.9917115   21.1932363
| 41>     H       14.4033657   15.6620093   21.8106398
| 42>     H       15.9261859   17.9777312   19.5987627
| 43> *
| 44>
| 45>                          ****END OF INPUT****

CARTESIAN COORDINATES (ANGSTROEM)
---------------------------------
  C     14.076113   15.161426   15.362754
  C     14.974786   16.408425   15.346624
  O     16.310915   15.956218   15.049225
  C     17.450216   16.477777   15.610166
  O     18.528577   15.932325   15.467720
  C     17.279666   17.652742   16.515203
  C     16.966289   18.866403   16.001248
  C     16.531177   19.173866   14.582715
  N     17.114070   20.025714   16.764627
  C     17.797811   20.081001   17.950873
  S     18.036865   21.507420   18.752277
  N     18.296117   18.892521   18.426435
  C     18.015764   17.561810   17.850536
  C     17.371689   16.568584   18.805411
  C     17.823481   15.237551   18.848602
  C     17.218509   14.306069   19.708740
  C     16.150459   14.708704   20.528876
  C     15.693438   16.032968   20.481510
  O     14.655546   16.421630   21.264093
  C     16.296861   16.958241   19.623564
  H     14.413412   14.453263   16.130435
  H     14.101212   14.653618   14.390355
  H     13.036997   15.435763   15.581526
  H     14.625106   17.117751   14.586467
  H     14.910373   16.879193   16.336277
  H     16.753833   18.355537   13.886922
  H     17.055596   20.056205   14.193384
  H     15.454740   19.377644   14.535279
  H     16.789531   20.910711   16.407508
  H     18.794151   18.959554   19.305406
  H     19.038281   17.237863   17.604406
  H     18.641029   14.922335   18.203039
  H     17.575384   13.277717   19.733155
  H     15.679451   13.991711   21.193236
  H     14.403366   15.662009   21.810640
  H     15.926186   17.977731   19.598763

 Total Charge           Charge          ....    0
 Multiplicity           Mult            ....    1
 Number of Electrons    NEL             ....  154
 Basis Dimension        Dim             ....  828

ORBITAL ENERGIES
----------------

  NO   OCC          E(Eh)            E(eV)
   0   2.0000     -91.889637     -2500.4441
   1   2.0000     -20.606052      -560.7192
   2   2.0000     -20.599552      -560.5423
   3   2.0000     -20.549607      -559.1832
   4   2.0000     -15.627421      -425.2437
   5   2.0000     -15.609661      -424.7605
   6   2.0000     -11.399642      -310.2000
   7   2.0000     -11.385688      -309.8203
   8   2.0000     -11.332787      -308.3808
   9   2.0000     -11.316940      -307.9496
  10   2.0000     -11.310561      -307.7760
  11   2.0000     -11.306735      -307.6719
  12   2.0000     -11.268562      -306.6332
  13   2.0000     -11.264823      -306.5314
  14   2.0000     -11.263794      -306.5034
  15   2.0000     -11.257260      -306.3256
  16   2.0000     -11.245927      -306.0172
  17   2.0000     -11.242185      -305.9154
  18   2.0000     -11.239577      -305.8444
  19   2.0000     -11.233387      -305.6760
  20   2.0000      -8.894749      -242.0384
  21   2.0000      -6.576332      -178.9511
  22   2.0000      -6.574317      -178.8963
  23   2.0000      -6.573737      -178.8805
  24   2.0000      -1.449394       -39.4400
  25   2.0000      -1.419253       -38.6198
  26   2.0000      -1.362763       -37.0827
  27   2.0000      -1.340704       -36.4824
  28   2.0000      -1.239234       -33.7213
  29   2.0000      -1.161351       -31.6020
  30   2.0000      -1.126646       -30.6576
  31   2.0000      -1.048758       -28.5382
  32   2.0000      -1.042115       -28.3574
  33   2.0000      -1.019192       -27.7336
  34   2.0000      -1.006324       -27.3835
  35   2.0000      -0.989703       -26.9312
  36   2.0000      -0.926686       -25.2164
  37   2.0000      -0.883479       -24.0407
  38   2.0000      -0.856214       -23.2988
  39   2.0000      -0.842322       -22.9207
  40   2.0000      -0.837660       -22.7939
  41   2.0000      -0.836113       -22.7518
  42   2.0000      -0.757416       -20.6104
  43   2.0000      -0.740489       -20.1497
  44   2.0000      -0.731967       -19.9178
  45   2.0000      -0.697434       -18.9782
  46   2.0000      -0.689980       -18.7753
  47   2.0000      -0.684023       -18.6132
  48   2.0000      -0.674763       -18.3612
  49   2.0000      -0.662277       -18.0215
  50   2.0000      -0.658445       -17.9172
  51   2.0000      -0.647363       -17.6156
  52   2.0000      -0.638792       -17.3824
  53   2.0000      -0.613197       -16.6859
  54   2.0000      -0.608129       -16.5480
  55   2.0000      -0.602952       -16.4072
  56   2.0000      -0.598774       -16.2935
  57   2.0000      -0.581891       -15.8341
  58   2.0000      -0.578247       -15.7349
  59   2.0000      -0.570938       -15.5360
  60   2.0000      -0.560650       -15.2561
  61   2.0000      -0.559745       -15.2314
  62   2.0000      -0.552934       -15.0461
  63   2.0000      -0.529705       -14.4140
  64   2.0000      -0.519167       -14.1273
  65   2.0000      -0.514665       -14.0048
  66   2.0000      -0.506074       -13.7710
  67   2.0000      -0.501581       -13.6487
  68   2.0000      -0.488466       -13.2918
  69   2.0000      -0.471842       -12.8395
  70   2.0000      -0.455429       -12.3928
  71   2.0000      -0.452010       -12.2998
  72   2.0000      -0.355957        -9.6861
  73   2.0000      -0.351736        -9.5712
  74   2.0000      -0.329175        -8.9573
  75   2.0000      -0.324509        -8.8303
  76   2.0000      -0.319497        -8.6940
  77   0.0000       0.086090         2.3426
  78   0.0000       0.103262         2.8099
  79   0.0000       0.115597         3.1456
  80   0.0000       0.129665         3.5284
  81   0.0000       0.130352         3.5471

MULLIKEN ATOMIC CHARGES
-----------------------
   0 C :   -0.252720
   1 C :    0.020162
   2 O :   -0.306234
   3 C :    0.410357
   4 O :   -0.384022
   5 C :   -0.223273
   6 C :    0.169233
   7 C :   -0.341111
   8 N :   -0.140163
   9 C :    0.208885
  10 S :   -0.443208
  11 N :   -0.222670
  12 C :    0.059594
  13 C :    0.030350
  14 C :   -0.221917
  15 C :   -0.127520
  16 C :   -0.277171
  17 C :    0.315381
  18 O :   -0.355887
  19 C :   -0.257387
  20 H :    0.104987
  21 H :    0.101554
  22 H :    0.087338
  23 H :    0.090338
  24 H :    0.107095
  25 H :    0.134096
  26 H :    0.134281
  27 H :    0.125602
  28 H :    0.197808
  29 H :    0.202531
  30 H :    0.167873
  31 H :    0.174966
  32 H :    0.164722
  33 H :    0.131467
  34 H :    0.241363
  35 H :    0.173300
Sum of atomic charges:   -0.0000000

LOEWDIN ATOMIC CHARGES
----------------------
   0 C :    0.110815
   1 C :   -0.022590
   2 O :    0.310157
   3 C :   -0.416117
   4 O :    0.117815
   5 C :   -0.084393
   6 C :   -0.091738
   7 C :    0.125055
   8 N :    0.402434
   9 C :   -0.456354
  10 S :   -0.038504
  11 N :    0.396114
  12 C :   -0.049854
  13 C :   -0.043866
  14 C :    0.020051
  15 C :    0.045061
  16 C :    0.000037
  17 C :   -0.191021
  18 O :    0.394974
  19 C :    0.026681
  20 H :   -0.022242
  21 H :   -0.025336
  22 H :   -0.025762
  23 H :   -0.036039
  24 H :   -0.034144
  25 H :   -0.007548
  26 H :   -0.010102
  27 H :   -0.017488
  28 H :   -0.057342
  29 H :   -0.063629
  30 H :   -0.003844
  31 H :   -0.021314
  32 H :   -0.018527
  33 H :   -0.034819
  34 H :   -0.153173
  35 H :   -0.023446

  Mayer bond orders larger than 0.100000
B(  0-C ,  1-C ) :   0.9841 B(  0-C , 20-H ) :   0.9778 B(  0-C , 21-H ) :   0.9792
B(  0-C , 22-H ) :   0.9768 B(  1-C ,  2-O ) :   0.9100 B(  1-C , 23-H ) :   0.9718
B(  1-C , 24-H ) :   0.9573 B(  2-O ,  3-C ) :   1.1926 B(  3-C ,  4-O ) :   2.0958
B(  3-C ,  5-C ) :   0.9214 B(  5-C ,  6-C ) :   1.7167 B(  5-C , 12-C ) :   0.9405
B(  6-C ,  7-C ) :   0.9310 B(  6-C ,  8-N ) :   1.1073 B(  7-C , 25-H ) :   0.9771
B(  7-C , 26-H ) :   0.9747 B(  7-C , 27-H ) :   0.9668 B(  8-N ,  9-C ) :   1.1977
B(  8-N , 28-H ) :   0.9512 B(  9-C , 10-S ) :   1.6098 B(  9-C , 11-N ) :   1.2909
B( 11-N , 12-C ) :   0.9842 B( 11-N , 29-H ) :   0.9473 B( 12-C , 13-C ) :   0.9687
B( 12-C , 30-H ) :   0.9894 B( 13-C , 14-C ) :   1.3840 B( 13-C , 19-C ) :   1.3530
B( 14-C , 15-C ) :   1.3939 B( 14-C , 31-H ) :   0.9601 B( 15-C , 16-C ) :   1.3618
B( 15-C , 32-H ) :   0.9695 B( 16-C , 17-C ) :   1.3308 B( 16-C , 33-H ) :   0.9851
B( 17-C , 18-O ) :   1.1089 B( 17-C , 19-C ) :   1.3656 B( 18-O , 34-H ) :   0.9793
B( 19-C , 35-H ) :   0.9565

MP2 TOTAL ENERGY:    -1274.330956257 Eh
FINAL SINGLE POINT ENERGY     -1274.330956257442

DIPOLE MOMENT
-------------
                                X             Y             Z
Electronic contribution:     10.26354       8.49110       8.37426
Nuclear contribution   :    -11.96102      -9.59422      -8.79038
                        -----------------------------------------
Total Dipole Moment    :     -1.69748      -1.10312      -0.41611
                        -----------------------------------------
Magnitude (a.u.)       :      2.06675
Magnitude (Debye)      :      5.25327

Rotational constants in cm-1:     0.010875     0.009051     0.006228
Rotational constants in MHz :   326.025680   271.343988   186.697747

                             ****ORCA TERMINATED NORMALLY****
TOTAL RUN TIME: 0 days 1 hours 39 minutes 6 seconds 666 msec
