                         Program Version 4.2.0 -  RELEASE  -
|  1> ! ri-mp2 cc-pvtz cc-pvtz/c TightSCF NoKeepInts
|  2>
|  3> %scf
|  4>   MaxCore 4096
|  5> end
|  6> *xyz  0  1
|  7>     C       14.4128983   15.5404610   15.1754051
|  8>     C       15.6508932   15.0744112   15.9719533
|  9>     O       16.8533812   15.7699626   15.5626231
| 10>     C       16.8250983   17.1025355   15.2677745
| 11>     O       16.6002299   17.4758006   14.1304458
| 12>     C       17.0327405   18.0082083   16.4548686
| 13>     C       16.9299730   19.3547113   16.3018432
| 14>     C       16.2762375   20.1010533   15.1567566
| 15>     N       17.4365553   20.2335178   17.2615606
| 16>     C       18.2647308   19.8635822   18.2853807
| 17>     S       18.9311698   20.9694311   19.3188484
| 18>     N       18.5347002   18.5235864   18.3945377
| 19>     C       17.8849504   17.4542784   17.6131449
| 20>     C       17.2091260   16.4272305   18.5079963
| 21>     C       17.7455359   15.1338911   18.6482028
| 22>     C       17.1189257   14.1892383   19.4783562
| 23>     C       15.9527786   14.5438568   20.1785193
| 24>     C       15.4241153   15.8357298   20.0494168
| 25>     O       14.2987243   16.1807522   20.7235817
| 26>     C       16.0479529   16.7730663   19.2200744
| 27>     H       14.1510068   16.5790161   15.4129892
| 28>     H       13.5465190   14.9134985   15.4183152
| 29>     H       14.5948547   15.4640522   14.0955527
| 30>     H       15.4516178   15.2384823   17.0359486
| 31>     H       15.7956880   13.9960442   15.8280299
| 32>     H       15.3317539   19.6230156   14.8675771
| 33>     H       16.9281320   20.0983646   14.2734930
| 34>     H       16.0474559   21.1449419   15.4017435
| 35>     H       17.2733673   21.2235244   17.1695156
| 36>     H       19.1311928   18.2777741   19.1746422
| 37>     H       18.7721826   17.0193725   17.1309237
| 38>     H       18.6454973   14.8578210   18.1043551
| 39>     H       17.5380990   13.1892492   19.5787529
| 40>     H       15.4665514   13.8176712   20.8219847
| 41>     H       14.0524467   15.4308883   21.2862140
| 42>     H       15.6299176   17.7709794   19.1366724
| 43> *
| 44>
| 45>                          ****END OF INPUT****

CARTESIAN COORDINATES (ANGSTROEM)
---------------------------------
  C     14.412898   15.540461   15.175405
  C     15.650893   15.074411   15.971953
  O     16.853381   15.769963   15.562623
  C     16.825098   17.102535   15.267774
  O     16.600230   17.475801   14.130446
  C     17.032740   18.008208   16.454869
  C     16.929973   19.354711   16.301843
  C     16.276238   20.101053   15.156757
  N     17.436555   20.233518   17.261561
  C     18.264731   19.863582   18.285381
  S     18.931170   20.969431   19.318848
  N     18.534700   18.523586   18.394538
  C     17.884950   17.454278   17.613145
  C     17.209126   16.427231   18.507996
  C     17.745536   15.133891   18.648203
  C     17.118926   14.189238   19.478356
  C     15.952779   14.543857   20.178519
  C     15.424115   15.835730   20.049417
  O     14.298724   16.180752   20.723582
  C     16.047953   16.773066   19.220074
  H     14.151007   16.579016   15.412989
  H     13.546519   14.913498   15.418315
  H     14.594855   15.464052   14.095553
  H     15.451618   15.238482   17.035949
  H     15.795688   13.996044   15.828030
  H     15.331754   19.623016   14.867577
  H     16.928132   20.098365   14.273493
  H     16.047456   21.144942   15.401744
  H     17.273367   21.223524   17.169516
  H     19.131193   18.277774   19.174642
  H     18.772183   17.019372   17.130924
  H     18.645497   14.857821   18.104355
  H     17.538099   13.189249   19.578753
  H     15.466551   13.817671   20.821985
  H     14.052447   15.430888   21.286214
  H     15.629918   17.770979   19.136672

 Total Charge           Charge          ....    0
 Multiplicity           Mult            ....    1
 Number of Electrons    NEL             ....  154
 Basis Dimension        Dim             ....  828

ORBITAL ENERGIES
----------------

  NO   OCC          E(Eh)            E(eV)
   0   2.0000     -91.891040     -2500.4823
   1   2.0000     -20.602557      -560.6241
   2   2.0000     -20.580202      -560.0158
   3   2.0000     -20.546640      -559.1025
   4   2.0000     -15.631059      -425.3428
   5   2.0000     -15.609278      -424.7500
   6   2.0000     -11.392395      -310.0028
   7   2.0000     -11.385294      -309.8096
   8   2.0000     -11.338979      -308.5493
   9   2.0000     -11.320543      -308.0476
  10   2.0000     -11.311804      -307.8098
  11   2.0000     -11.297214      -307.4128
  12   2.0000     -11.266053      -306.5649
  13   2.0000     -11.261471      -306.4402
  14   2.0000     -11.258965      -306.3720
  15   2.0000     -11.253568      -306.2252
  16   2.0000     -11.250334      -306.1371
  17   2.0000     -11.244994      -305.9918
  18   2.0000     -11.244217      -305.9707
  19   2.0000     -11.225163      -305.4522
  20   2.0000      -8.896090      -242.0749
  21   2.0000      -6.577656      -178.9871
  22   2.0000      -6.575664      -178.9329
  23   2.0000      -6.575067      -178.9167
  24   2.0000      -1.442549       -39.2537
  25   2.0000      -1.422303       -38.7028
  26   2.0000      -1.351013       -36.7629
  27   2.0000      -1.342911       -36.5425
  28   2.0000      -1.241118       -33.7725
  29   2.0000      -1.163354       -31.6565
  30   2.0000      -1.122604       -30.5476
  31   2.0000      -1.047497       -28.5038
  32   2.0000      -1.030534       -28.0423
  33   2.0000      -1.021289       -27.7907
  34   2.0000      -1.000099       -27.2141
  35   2.0000      -0.987421       -26.8691
  36   2.0000      -0.925384       -25.1810
  37   2.0000      -0.890911       -24.2429
  38   2.0000      -0.849919       -23.1275
  39   2.0000      -0.843346       -22.9486
  40   2.0000      -0.840129       -22.8611
  41   2.0000      -0.825414       -22.4606
  42   2.0000      -0.748762       -20.3748
  43   2.0000      -0.737178       -20.0596
  44   2.0000      -0.716136       -19.4871
  45   2.0000      -0.700528       -19.0623
  46   2.0000      -0.689127       -18.7521
  47   2.0000      -0.678258       -18.4563
  48   2.0000      -0.669426       -18.2160
  49   2.0000      -0.665387       -18.1061
  50   2.0000      -0.651258       -17.7216
  51   2.0000      -0.645567       -17.5668
  52   2.0000      -0.637178       -17.3385
  53   2.0000      -0.618400       -16.8275
  54   2.0000      -0.612300       -16.6615
  55   2.0000      -0.604503       -16.4494
  56   2.0000      -0.602703       -16.4004
  57   2.0000      -0.581428       -15.8215
  58   2.0000      -0.572337       -15.5741
  59   2.0000      -0.567705       -15.4480
  60   2.0000      -0.551232       -14.9998
  61   2.0000      -0.543210       -14.7815
  62   2.0000      -0.538089       -14.6421
  63   2.0000      -0.529116       -14.3980
  64   2.0000      -0.526443       -14.3253
  65   2.0000      -0.516312       -14.0496
  66   2.0000      -0.503352       -13.6969
  67   2.0000      -0.493792       -13.4368
  68   2.0000      -0.480128       -13.0649
  69   2.0000      -0.465782       -12.6746
  70   2.0000      -0.455243       -12.3878
  71   2.0000      -0.443348       -12.0641
  72   2.0000      -0.356018        -9.6877
  73   2.0000      -0.354661        -9.6508
  74   2.0000      -0.330824        -9.0022
  75   2.0000      -0.327583        -8.9140
  76   2.0000      -0.320630        -8.7248
  77   0.0000       0.071322         1.9408
  78   0.0000       0.098544         2.6815
  79   0.0000       0.122272         3.3272
  80   0.0000       0.128088         3.4855
  81   0.0000       0.131285         3.5724

MULLIKEN ATOMIC CHARGES
-----------------------
   0 C :   -0.291026
   1 C :    0.033559
   2 O :   -0.382451
   3 C :    0.457703
   4 O :   -0.391465
   5 C :   -0.262413
   6 C :    0.178274
   7 C :   -0.267611
   8 N :   -0.126730
   9 C :    0.209531
  10 S :   -0.438397
  11 N :   -0.210716
  12 C :    0.054737
  13 C :   -0.014654
  14 C :   -0.157997
  15 C :   -0.133412
  16 C :   -0.272312
  17 C :    0.304458
  18 O :   -0.357029
  19 C :   -0.224585
  20 H :    0.088942
  21 H :    0.103763
  22 H :    0.118161
  23 H :    0.100624
  24 H :    0.111196
  25 H :    0.125889
  26 H :    0.136361
  27 H :    0.094252
  28 H :    0.200010
  29 H :    0.200424
  30 H :    0.152131
  31 H :    0.155523
  32 H :    0.164265
  33 H :    0.134200
  34 H :    0.241646
  35 H :    0.165149
Sum of atomic charges:   -0.0000000

LOEWDIN ATOMIC CHARGES
----------------------
   0 C :    0.105417
   1 C :   -0.015615
   2 O :    0.284390
   3 C :   -0.424359
   4 O :    0.122265
   5 C :   -0.103984
   6 C :   -0.054768
   7 C :    0.130327
   8 N :    0.407844
   9 C :   -0.457843
  10 S :   -0.033679
  11 N :    0.395262
  12 C :   -0.054283
  13 C :   -0.042887
  14 C :    0.020127
  15 C :    0.042293
  16 C :   -0.000003
  17 C :   -0.192201
  18 O :    0.396444
  19 C :    0.031412
  20 H :   -0.030715
  21 H :   -0.025428
  22 H :   -0.021775
  23 H :   -0.035073
  24 H :   -0.022956
  25 H :   -0.006392
  26 H :   -0.003908
  27 H :   -0.023158
  28 H :   -0.056424
  29 H :   -0.063758
  30 H :   -0.011362
  31 H :   -0.026823
  32 H :   -0.019383
  33 H :   -0.034008
  34 H :   -0.152601
  35 H :   -0.022394

  Mayer bond orders larger than 0.100000
B(  0-C ,  1-C ) :   0.9781 B(  0-C , 20-H ) :   0.9743 B(  0-C , 21-H ) :   0.9754
B(  0-C , 22-H ) :   0.9739 B(  1-C ,  2-O ) :   0.8943 B(  1-C , 23-H ) :   0.9653
B(  1-C , 24-H ) :   0.9799 B(  2-O ,  3-C ) :   1.0929 B(  3-C ,  4-O ) :   2.0511
B(  3-C ,  5-C ) :   1.0481 B(  5-C ,  6-C ) :   1.6229 B(  5-C , 12-C ) :   0.9602
B(  6-C ,  7-C ) :   0.9679 B(  6-C ,  8-N ) :   1.1552 B(  7-C , 25-H ) :   0.9668
B(  7-C , 26-H ) :   0.9547 B(  7-C , 27-H ) :   0.9874 B(  8-N ,  9-C ) :   1.1859
B(  8-N , 28-H ) :   0.9470 B(  9-C , 10-S ) :   1.6111 B(  9-C , 11-N ) :   1.3056
B( 11-N , 12-C ) :   0.9689 B( 11-N , 29-H ) :   0.9486 B( 12-C , 13-C ) :   0.9620
B( 12-C , 30-H ) :   1.0038 B( 13-C , 14-C ) :   1.3598 B( 13-C , 19-C ) :   1.3740
B( 14-C , 15-C ) :   1.3926 B( 14-C , 31-H ) :   0.9704 B( 15-C , 16-C ) :   1.3599
B( 15-C , 32-H ) :   0.9698 B( 16-C , 17-C ) :   1.3312 B( 16-C , 33-H ) :   0.9837
B( 17-C , 18-O ) :   1.1075 B( 17-C , 19-C ) :   1.3658 B( 18-O , 34-H ) :   0.9788
B( 19-C , 35-H ) :   0.9606

MP2 TOTAL ENERGY:    -1274.323419466 Eh
FINAL SINGLE POINT ENERGY     -1274.323419465658

DIPOLE MOMENT
-------------
                                X             Y             Z
Electronic contribution:      9.73173       8.53804       7.52538
Nuclear contribution   :    -10.89074     -10.15912      -7.31156
                        -----------------------------------------
Total Dipole Moment    :     -1.15901      -1.62107       0.21382
                        -----------------------------------------
Magnitude (a.u.)       :      2.00422
Magnitude (Debye)      :      5.09432

Rotational constants in cm-1:     0.011862     0.008987     0.006144
Rotational constants in MHz :   355.622210   269.434010   184.206381

                             ****ORCA TERMINATED NORMALLY****
TOTAL RUN TIME: 0 days 1 hours 46 minutes 55 seconds 897 msec
