                         Program Version 4.2.0 -  RELEASE  -
|  1> ! ri-mp2 cc-pvtz cc-pvtz/c TightSCF NoKeepInts
|  2>
|  3> %scf
|  4>   MaxCore 4096
|  5> end
|  6> *xyz  0  1
|  7>     C       14.7567912   14.5965438   16.4866413
|  8>     C       15.0669841   15.9408102   15.8075726
|  9>     O       16.3858407   15.8487652   15.2339431
| 10>     C       17.2426331   16.9145020   15.1676728
| 11>     O       18.0280328   17.0318486   14.2456967
| 12>     C       17.1679293   17.9108910   16.2785242
| 13>     C       17.0909110   19.2186186   15.9397138
| 14>     C       16.6768307   19.7530822   14.5854147
| 15>     N       17.4220979   20.2261606   16.8465944
| 16>     C       18.0804250   20.0031705   18.0264988
| 17>     S       18.5570986   21.2435026   19.0109561
| 18>     N       18.3481598   18.6926421   18.3383924
| 19>     C       17.8451888   17.5183395   17.5983621
| 20>     C       17.1001684   16.5305747   18.4811895
| 21>     C       17.6432486   15.2597794   18.7451965
| 22>     C       16.9795369   14.3651160   19.6020166
| 23>     C       15.7631519   14.7441586   20.1959619
| 24>     C       15.2245467   16.0124812   19.9389116
| 25>     O       14.0508069   16.3817107   20.5097479
| 26>     C       15.8917544   16.9043572   19.0932564
| 27>     H       15.5372129   14.3281131   17.2050215
| 28>     H       14.6946559   13.7958248   15.7393892
| 29>     H       13.7997571   14.6446838   17.0199661
| 30>     H       14.3281027   16.1513446   15.0234407
| 31>     H       14.9956883   16.7339016   16.5600297
| 32>     H       15.8861955   19.1375130   14.1391006
| 33>     H       17.5305338   19.7399204   13.8944342
| 34>     H       16.3000259   20.7815880   14.6376446
| 35>     H       17.2762617   21.1930413   16.6027382
| 36>     H       18.8242100   18.5582298   19.2218015
| 37>     H       18.8047195   17.0779836   17.2895496
| 38>     H       18.5837125   14.9641675   18.2866563
| 39>     H       17.4062300   13.3830804   19.8002904
| 40>     H       15.2453156   14.0545172   20.8546995
| 41>     H       13.7799543   15.6685800   21.1080205
| 42>     H       15.4722872   17.8904562   18.9229538
| 43> *
| 44>
| 45>                          ****END OF INPUT****

CARTESIAN COORDINATES (ANGSTROEM)
---------------------------------
  C     14.756791   14.596544   16.486641
  C     15.066984   15.940810   15.807573
  O     16.385841   15.848765   15.233943
  C     17.242633   16.914502   15.167673
  O     18.028033   17.031849   14.245697
  C     17.167929   17.910891   16.278524
  C     17.090911   19.218619   15.939714
  C     16.676831   19.753082   14.585415
  N     17.422098   20.226161   16.846594
  C     18.080425   20.003170   18.026499
  S     18.557099   21.243503   19.010956
  N     18.348160   18.692642   18.338392
  C     17.845189   17.518339   17.598362
  C     17.100168   16.530575   18.481189
  C     17.643249   15.259779   18.745196
  C     16.979537   14.365116   19.602017
  C     15.763152   14.744159   20.195962
  C     15.224547   16.012481   19.938912
  O     14.050807   16.381711   20.509748
  C     15.891754   16.904357   19.093256
  H     15.537213   14.328113   17.205022
  H     14.694656   13.795825   15.739389
  H     13.799757   14.644684   17.019966
  H     14.328103   16.151345   15.023441
  H     14.995688   16.733902   16.560030
  H     15.886195   19.137513   14.139101
  H     17.530534   19.739920   13.894434
  H     16.300026   20.781588   14.637645
  H     17.276262   21.193041   16.602738
  H     18.824210   18.558230   19.221802
  H     18.804720   17.077984   17.289550
  H     18.583713   14.964168   18.286656
  H     17.406230   13.383080   19.800290
  H     15.245316   14.054517   20.854699
  H     13.779954   15.668580   21.108020
  H     15.472287   17.890456   18.922954

 Total Charge           Charge          ....    0
 Multiplicity           Mult            ....    1
 Number of Electrons    NEL             ....  154
 Basis Dimension        Dim             ....  828

ORBITAL ENERGIES
----------------

  NO   OCC          E(Eh)            E(eV)
   0   2.0000     -91.889643     -2500.4443
   1   2.0000     -20.606176      -560.7225
   2   2.0000     -20.597319      -560.4815
   3   2.0000     -20.551258      -559.2282
   4   2.0000     -15.626582      -425.2209
   5   2.0000     -15.610439      -424.7816
   6   2.0000     -11.395268      -310.0810
   7   2.0000     -11.385028      -309.8024
   8   2.0000     -11.328581      -308.2664
   9   2.0000     -11.324200      -308.1471
  10   2.0000     -11.316791      -307.9455
  11   2.0000     -11.299321      -307.4701
  12   2.0000     -11.270850      -306.6954
  13   2.0000     -11.264736      -306.5291
  14   2.0000     -11.257414      -306.3298
  15   2.0000     -11.256558      -306.3065
  16   2.0000     -11.253999      -306.2369
  17   2.0000     -11.249546      -306.1157
  18   2.0000     -11.249222      -306.1069
  19   2.0000     -11.224588      -305.4366
  20   2.0000      -8.894723      -242.0377
  21   2.0000      -6.576299      -178.9502
  22   2.0000      -6.574296      -178.8957
  23   2.0000      -6.573709      -178.8797
  24   2.0000      -1.446595       -39.3639
  25   2.0000      -1.425899       -38.8007
  26   2.0000      -1.360010       -37.0077
  27   2.0000      -1.339935       -36.4615
  28   2.0000      -1.239789       -33.7364
  29   2.0000      -1.167414       -31.7669
  30   2.0000      -1.125628       -30.6299
  31   2.0000      -1.051898       -28.6236
  32   2.0000      -1.034818       -28.1588
  33   2.0000      -1.025601       -27.9080
  34   2.0000      -1.003815       -27.3152
  35   2.0000      -0.989070       -26.9140
  36   2.0000      -0.927499       -25.2385
  37   2.0000      -0.878846       -23.9146
  38   2.0000      -0.852663       -23.2021
  39   2.0000      -0.845394       -23.0043
  40   2.0000      -0.843774       -22.9603
  41   2.0000      -0.836935       -22.7741
  42   2.0000      -0.760133       -20.6843
  43   2.0000      -0.740214       -20.1423
  44   2.0000      -0.729250       -19.8439
  45   2.0000      -0.705114       -19.1871
  46   2.0000      -0.693629       -18.8746
  47   2.0000      -0.681101       -18.5337
  48   2.0000      -0.676303       -18.4031
  49   2.0000      -0.660270       -17.9669
  50   2.0000      -0.651778       -17.7358
  51   2.0000      -0.641755       -17.4630
  52   2.0000      -0.638905       -17.3855
  53   2.0000      -0.616086       -16.7646
  54   2.0000      -0.614245       -16.7144
  55   2.0000      -0.605663       -16.4809
  56   2.0000      -0.603681       -16.4270
  57   2.0000      -0.584502       -15.9051
  58   2.0000      -0.577308       -15.7093
  59   2.0000      -0.567390       -15.4395
  60   2.0000      -0.559775       -15.2322
  61   2.0000      -0.548643       -14.9293
  62   2.0000      -0.537097       -14.6151
  63   2.0000      -0.535238       -14.5646
  64   2.0000      -0.527844       -14.3634
  65   2.0000      -0.516355       -14.0507
  66   2.0000      -0.505100       -13.7445
  67   2.0000      -0.498740       -13.5714
  68   2.0000      -0.492371       -13.3981
  69   2.0000      -0.465440       -12.6653
  70   2.0000      -0.455805       -12.4031
  71   2.0000      -0.450696       -12.2641
  72   2.0000      -0.359670        -9.7871
  73   2.0000      -0.352080        -9.5806
  74   2.0000      -0.333432        -9.0731
  75   2.0000      -0.328209        -8.9310
  76   2.0000      -0.319333        -8.6895
  77   0.0000       0.083849         2.2817
  78   0.0000       0.094331         2.5669
  79   0.0000       0.118529         3.2253
  80   0.0000       0.125329         3.4104
  81   0.0000       0.129387         3.5208

MULLIKEN ATOMIC CHARGES
-----------------------
   0 C :   -0.286240
   1 C :    0.025081
   2 O :   -0.313005
   3 C :    0.401752
   4 O :   -0.372562
   5 C :   -0.244832
   6 C :    0.157523
   7 C :   -0.284270
   8 N :   -0.132567
   9 C :    0.212880
  10 S :   -0.442014
  11 N :   -0.211145
  12 C :    0.040385
  13 C :    0.006177
  14 C :   -0.185735
  15 C :   -0.135670
  16 C :   -0.266636
  17 C :    0.316027
  18 O :   -0.358371
  19 C :   -0.238503
  20 H :    0.110420
  21 H :    0.112077
  22 H :    0.091096
  23 H :    0.110062
  24 H :    0.095432
  25 H :    0.113610
  26 H :    0.145031
  27 H :    0.098753
  28 H :    0.197795
  29 H :    0.200535
  30 H :    0.159956
  31 H :    0.157629
  32 H :    0.166395
  33 H :    0.135075
  34 H :    0.242633
  35 H :    0.175225
Sum of atomic charges:   -0.0000000

LOEWDIN ATOMIC CHARGES
----------------------
   0 C :    0.109068
   1 C :   -0.020438
   2 O :    0.307480
   3 C :   -0.419811
   4 O :    0.127379
   5 C :   -0.097587
   6 C :   -0.083611
   7 C :    0.129293
   8 N :    0.404581
   9 C :   -0.454267
  10 S :   -0.036770
  11 N :    0.395236
  12 C :   -0.054950
  13 C :   -0.043187
  14 C :    0.017204
  15 C :    0.044819
  16 C :    0.004669
  17 C :   -0.189839
  18 O :    0.396961
  19 C :    0.035841
  20 H :   -0.026751
  21 H :   -0.027317
  22 H :   -0.026000
  23 H :   -0.032453
  24 H :   -0.042695
  25 H :   -0.010420
  26 H :   -0.003290
  27 H :   -0.020350
  28 H :   -0.057958
  29 H :   -0.063991
  30 H :   -0.009195
  31 H :   -0.026347
  32 H :   -0.018658
  33 H :   -0.033211
  34 H :   -0.151710
  35 H :   -0.021726

  Mayer bond orders larger than 0.100000
B(  0-C ,  1-C ) :   0.9760 B(  0-C , 20-H ) :   0.9711 B(  0-C , 21-H ) :   0.9806
B(  0-C , 22-H ) :   0.9751 B(  1-C ,  2-O ) :   0.9026 B(  1-C , 23-H ) :   0.9789
B(  1-C , 24-H ) :   0.9570 B(  2-O ,  3-C ) :   1.1886 B(  3-C ,  4-O ) :   2.1267
B(  3-C ,  5-C ) :   0.9327 B(  5-C ,  6-C ) :   1.6947 B(  5-C , 12-C ) :   0.9636
B(  6-C ,  7-C ) :   0.9427 B(  6-C ,  8-N ) :   1.1288 B(  7-C , 25-H ) :   0.9776
B(  7-C , 26-H ) :   0.9572 B(  7-C , 27-H ) :   0.9854 B(  8-N ,  9-C ) :   1.1981
B(  8-N , 28-H ) :   0.9493 B(  9-C , 10-S ) :   1.6097 B(  9-C , 11-N ) :   1.2923
B( 11-N , 12-C ) :   0.9735 B( 11-N , 29-H ) :   0.9476 B( 12-C , 13-C ) :   0.9636
B( 12-C , 30-H ) :   1.0051 B( 13-C , 14-C ) :   1.3663 B( 13-C , 19-C ) :   1.3492
B( 14-C , 15-C ) :   1.3844 B( 14-C , 31-H ) :   0.9708 B( 15-C , 16-C ) :   1.3683
B( 15-C , 32-H ) :   0.9702 B( 16-C , 17-C ) :   1.3266 B( 16-C , 33-H ) :   0.9835
B( 17-C , 18-O ) :   1.1069 B( 17-C , 19-C ) :   1.3637 B( 18-O , 34-H ) :   0.9780
B( 19-C , 35-H ) :   0.9580

MP2 TOTAL ENERGY:    -1274.325824851 Eh
FINAL SINGLE POINT ENERGY     -1274.325824851026

DIPOLE MOMENT
-------------
                                X             Y             Z
Electronic contribution:      8.82621       9.80566       4.83880
Nuclear contribution   :    -10.44689     -11.24900      -4.49804
                        -----------------------------------------
Total Dipole Moment    :     -1.62068      -1.44334       0.34076
                        -----------------------------------------
Magnitude (a.u.)       :      2.19681
Magnitude (Debye)      :      5.58384

Rotational constants in cm-1:     0.012675     0.008712     0.006198
Rotational constants in MHz :   379.973319   261.179402   185.798117

                             ****ORCA TERMINATED NORMALLY****
TOTAL RUN TIME: 0 days 1 hours 45 minutes 32 seconds 325 msec
