                         Program Version 4.2.0 -  RELEASE  -
|  1> ! ri-mp2 cc-pvtz cc-pvtz/c TightSCF NoKeepInts
|  2>
|  3> %scf
|  4>   MaxCore 4096
|  5> end
|  6> *xyz  0  1
|  7>     C       14.5383213   16.4583039   16.1583609
|  8>     C       15.4693674   15.2608157   15.8593448
|  9>     O       16.7933433   15.5809165   15.3486021
| 10>     C       17.4420592   16.7890968   15.2753761
| 11>     O       18.2219323   17.0178808   14.3695604
| 12>     C       17.1545737   17.7945634   16.3396932
| 13>     C       16.9227187   19.0759563   15.9721023
| 14>     C       16.5459832   19.5434027   14.5827211
| 15>     N       17.0492064   20.1257974   16.8829485
| 16>     C       17.6471225   20.0049764   18.1095686
| 17>     S       17.8765926   21.3064716   19.1036113
| 18>     N       18.0712846   18.7470653   18.4629214
| 19>     C       17.7875862   17.5089852   17.7096629
| 20>     C       17.1537031   16.4029038   18.5420989
| 21>     C       17.6623765   15.0923245   18.4805260
| 22>     C       17.0899417   14.0667495   19.2514010
| 23>     C       16.0043689   14.3554227   20.0958888
| 24>     C       15.5037261   15.6624708   20.1691911
| 25>     O       14.4560456   15.9445304   20.9832765
| 26>     C       16.0762740   16.6815521   19.4014592
| 27>     H       14.8176448   16.9951092   17.0683740
| 28>     H       13.5144725   16.0956802   16.3112408
| 29>     H       14.5140047   17.1597321   15.3160718
| 30>     H       15.5706949   14.6649579   16.7750472
| 31>     H       14.9738230   14.6156344   15.1223620
| 32>     H       15.9537428   18.7881783   14.0520231
| 33>     H       17.4496849   19.7239524   13.9856175
| 34>     H       15.9571236   20.4682302   14.5990057
| 35>     H       16.7884000   21.0610297   16.6131319
| 36>     H       18.5050193   18.6872845   19.3758612
| 37>     H       18.8187527   17.2107542   17.4691120
| 38>     H       18.4990169   14.8654352   17.8236305
| 39>     H       17.4882142   13.0548948   19.1929641
| 40>     H       15.5589753   13.5662802   20.6930912
| 41>     H       14.2346135   15.1346612   21.4675809
| 42>     H       15.6762895   17.6879998   19.4745705
| 43> *
| 44>
| 45>                          ****END OF INPUT****

CARTESIAN COORDINATES (ANGSTROEM)
---------------------------------
  C     14.538321   16.458304   16.158361
  C     15.469367   15.260816   15.859345
  O     16.793343   15.580916   15.348602
  C     17.442059   16.789097   15.275376
  O     18.221932   17.017881   14.369560
  C     17.154574   17.794563   16.339693
  C     16.922719   19.075956   15.972102
  C     16.545983   19.543403   14.582721
  N     17.049206   20.125797   16.882949
  C     17.647122   20.004976   18.109569
  S     17.876593   21.306472   19.103611
  N     18.071285   18.747065   18.462921
  C     17.787586   17.508985   17.709663
  C     17.153703   16.402904   18.542099
  C     17.662377   15.092325   18.480526
  C     17.089942   14.066749   19.251401
  C     16.004369   14.355423   20.095889
  C     15.503726   15.662471   20.169191
  O     14.456046   15.944530   20.983276
  C     16.076274   16.681552   19.401459
  H     14.817645   16.995109   17.068374
  H     13.514473   16.095680   16.311241
  H     14.514005   17.159732   15.316072
  H     15.570695   14.664958   16.775047
  H     14.973823   14.615634   15.122362
  H     15.953743   18.788178   14.052023
  H     17.449685   19.723952   13.985617
  H     15.957124   20.468230   14.599006
  H     16.788400   21.061030   16.613132
  H     18.505019   18.687285   19.375861
  H     18.818753   17.210754   17.469112
  H     18.499017   14.865435   17.823631
  H     17.488214   13.054895   19.192964
  H     15.558975   13.566280   20.693091
  H     14.234614   15.134661   21.467581
  H     15.676289   17.688000   19.474570

 Total Charge           Charge          ....    0
 Multiplicity           Mult            ....    1
 Number of Electrons    NEL             ....  154
 Basis Dimension        Dim             ....  828

ORBITAL ENERGIES
----------------

  NO   OCC          E(Eh)            E(eV)
   0   2.0000     -91.889780     -2500.4480
   1   2.0000     -20.604713      -560.6828
   2   2.0000     -20.593144      -560.3679
   3   2.0000     -20.550196      -559.1993
   4   2.0000     -15.625888      -425.2020
   5   2.0000     -15.610865      -424.7932
   6   2.0000     -11.397202      -310.1336
   7   2.0000     -11.385251      -309.8084
   8   2.0000     -11.326080      -308.1983
   9   2.0000     -11.323087      -308.1169
  10   2.0000     -11.316640      -307.9414
  11   2.0000     -11.305774      -307.6458
  12   2.0000     -11.270900      -306.6968
  13   2.0000     -11.263768      -306.5027
  14   2.0000     -11.256348      -306.3008
  15   2.0000     -11.255660      -306.2821
  16   2.0000     -11.252934      -306.2079
  17   2.0000     -11.248387      -306.0842
  18   2.0000     -11.247472      -306.0593
  19   2.0000     -11.234480      -305.7057
  20   2.0000      -8.894862      -242.0415
  21   2.0000      -6.576438      -178.9540
  22   2.0000      -6.574434      -178.8995
  23   2.0000      -6.573847      -178.8835
  24   2.0000      -1.440670       -39.2026
  25   2.0000      -1.424503       -38.7627
  26   2.0000      -1.354936       -36.8697
  27   2.0000      -1.339190       -36.4412
  28   2.0000      -1.239406       -33.7260
  29   2.0000      -1.166426       -31.7401
  30   2.0000      -1.124524       -30.5999
  31   2.0000      -1.050758       -28.5926
  32   2.0000      -1.036347       -28.2004
  33   2.0000      -1.024911       -27.8892
  34   2.0000      -1.004024       -27.3209
  35   2.0000      -0.989595       -26.9282
  36   2.0000      -0.926793       -25.2193
  37   2.0000      -0.901231       -24.5237
  38   2.0000      -0.850832       -23.1523
  39   2.0000      -0.844492       -22.9798
  40   2.0000      -0.842768       -22.9329
  41   2.0000      -0.826480       -22.4897
  42   2.0000      -0.748282       -20.3618
  43   2.0000      -0.739256       -20.1162
  44   2.0000      -0.721888       -19.6436
  45   2.0000      -0.703240       -19.1361
  46   2.0000      -0.689598       -18.7649
  47   2.0000      -0.676800       -18.4167
  48   2.0000      -0.675730       -18.3875
  49   2.0000      -0.659929       -17.9576
  50   2.0000      -0.658471       -17.9179
  51   2.0000      -0.649508       -17.6740
  52   2.0000      -0.639069       -17.3900
  53   2.0000      -0.617223       -16.7955
  54   2.0000      -0.612299       -16.6615
  55   2.0000      -0.606714       -16.5095
  56   2.0000      -0.603815       -16.4306
  57   2.0000      -0.583822       -15.8866
  58   2.0000      -0.577531       -15.7154
  59   2.0000      -0.568738       -15.4761
  60   2.0000      -0.565822       -15.3968
  61   2.0000      -0.555157       -15.1066
  62   2.0000      -0.541456       -14.7338
  63   2.0000      -0.532795       -14.4981
  64   2.0000      -0.525513       -14.2999
  65   2.0000      -0.515627       -14.0309
  66   2.0000      -0.505063       -13.7435
  67   2.0000      -0.495977       -13.4962
  68   2.0000      -0.491197       -13.3662
  69   2.0000      -0.466599       -12.6968
  70   2.0000      -0.452706       -12.3188
  71   2.0000      -0.447354       -12.1731
  72   2.0000      -0.359365        -9.7788
  73   2.0000      -0.348553        -9.4846
  74   2.0000      -0.331073        -9.0090
  75   2.0000      -0.328671        -8.9436
  76   2.0000      -0.319045        -8.6816
  77   0.0000       0.083920         2.2836
  78   0.0000       0.097295         2.6475
  79   0.0000       0.120551         3.2804
  80   0.0000       0.126768         3.4495
  81   0.0000       0.127832         3.4785

MULLIKEN ATOMIC CHARGES
-----------------------
   0 C :   -0.325405
   1 C :    0.033078
   2 O :   -0.335647
   3 C :    0.411750
   4 O :   -0.371755
   5 C :   -0.239199
   6 C :    0.161093
   7 C :   -0.289420
   8 N :   -0.135414
   9 C :    0.213739
  10 S :   -0.441400
  11 N :   -0.225872
  12 C :    0.062955
  13 C :    0.015996
  14 C :   -0.220078
  15 C :   -0.133519
  16 C :   -0.274891
  17 C :    0.321921
  18 O :   -0.353724
  19 C :   -0.249058
  20 H :    0.117943
  21 H :    0.121129
  22 H :    0.098535
  23 H :    0.105524
  24 H :    0.124483
  25 H :    0.113095
  26 H :    0.147349
  27 H :    0.099508
  28 H :    0.197400
  29 H :    0.203226
  30 H :    0.162389
  31 H :    0.158530
  32 H :    0.167039
  33 H :    0.135356
  34 H :    0.241847
  35 H :    0.181496
Sum of atomic charges:    0.0000000

LOEWDIN ATOMIC CHARGES
----------------------
   0 C :    0.102126
   1 C :   -0.010091
   2 O :    0.291645
   3 C :   -0.422777
   4 O :    0.127434
   5 C :   -0.091114
   6 C :   -0.081996
   7 C :    0.128314
   8 N :    0.405053
   9 C :   -0.454825
  10 S :   -0.036930
  11 N :    0.395666
  12 C :   -0.053888
  13 C :   -0.043110
  14 C :    0.021421
  15 C :    0.042376
  16 C :    0.000556
  17 C :   -0.191460
  18 O :    0.397148
  19 C :    0.032045
  20 H :   -0.034873
  21 H :   -0.021022
  22 H :   -0.031529
  23 H :   -0.028887
  24 H :   -0.023357
  25 H :   -0.012651
  26 H :   -0.003371
  27 H :   -0.020528
  28 H :   -0.057873
  29 H :   -0.064245
  30 H :   -0.008467
  31 H :   -0.024932
  32 H :   -0.018476
  33 H :   -0.033463
  34 H :   -0.152273
  35 H :   -0.021646

  Mayer bond orders larger than 0.100000
B(  0-C ,  1-C ) :   0.9609 B(  0-C , 20-H ) :   0.9684 B(  0-C , 21-H ) :   0.9757
B(  0-C , 22-H ) :   0.9736 B(  1-C ,  2-O ) :   0.9040 B(  1-C , 23-H ) :   0.9702
B(  1-C , 24-H ) :   0.9818 B(  2-O ,  3-C ) :   1.1748 B(  3-C ,  4-O ) :   2.1187
B(  3-C ,  5-C ) :   0.9260 B(  5-C ,  6-C ) :   1.6966 B(  5-C , 12-C ) :   0.9458
B(  6-C ,  7-C ) :   0.9470 B(  6-C ,  8-N ) :   1.1293 B(  7-C , 25-H ) :   0.9776
B(  7-C , 26-H ) :   0.9574 B(  7-C , 27-H ) :   0.9832 B(  8-N ,  9-C ) :   1.2011
B(  8-N , 28-H ) :   0.9499 B(  9-C , 10-S ) :   1.6104 B(  9-C , 11-N ) :   1.2850
B( 11-N , 12-C ) :   0.9760 B( 11-N , 29-H ) :   0.9459 B( 12-C , 13-C ) :   0.9546
B( 12-C , 30-H ) :   1.0033 B( 13-C , 14-C ) :   1.3678 B( 13-C , 19-C ) :   1.3434
B( 14-C , 15-C ) :   1.3994 B( 14-C , 31-H ) :   0.9718 B( 15-C , 16-C ) :   1.3558
B( 15-C , 32-H ) :   0.9697 B( 16-C , 17-C ) :   1.3312 B( 16-C , 33-H ) :   0.9835
B( 17-C , 18-O ) :   1.1114 B( 17-C , 19-C ) :   1.3609 B( 18-O , 34-H ) :   0.9786
B( 19-C , 35-H ) :   0.9549

MP2 TOTAL ENERGY:    -1274.315595993 Eh
FINAL SINGLE POINT ENERGY     -1274.315595992502

DIPOLE MOMENT
-------------
                                X             Y             Z
Electronic contribution:      8.54188       6.90035       6.31145
Nuclear contribution   :    -10.07109      -8.65223      -6.20049
                        -----------------------------------------
Total Dipole Moment    :     -1.52920      -1.75188       0.11096
                        -----------------------------------------
Magnitude (a.u.)       :      2.32806
Magnitude (Debye)      :      5.91746

Rotational constants in cm-1:     0.012433     0.009100     0.006344
Rotational constants in MHz :   372.723676   272.821411   190.187250

                             ****ORCA TERMINATED NORMALLY****
TOTAL RUN TIME: 0 days 2 hours 7 minutes 27 seconds 758 msec
