                         Program Version 4.2.0 -  RELEASE  -
|  1> ! ri-mp2 cc-pvtz cc-pvtz/c TightSCF NoKeepInts
|  2>
|  3> %scf
|  4>   MaxCore 4096
|  5> end
|  6> *xyz  0  1
|  7>     C       13.8051992   16.0215941   15.0659396
|  8>     C       15.1970929   15.5449832   14.6165931
|  9>     O       16.0893350   16.6673624   14.7171538
| 10>     C       17.1008456   16.6029713   15.6272486
| 11>     O       17.8046621   15.6131926   15.7368301
| 12>     C       17.1428945   17.7451342   16.6010677
| 13>     C       16.7842070   19.0108585   16.2601543
| 14>     C       16.0906406   19.4716135   14.9933033
| 15>     N       17.0905405   20.0878307   17.0958492
| 16>     C       17.9363295   20.0185152   18.1699303
| 17>     S       18.3389353   21.3587530   19.0514374
| 18>     N       18.4500950   18.7806655   18.4630493
| 19>     C       18.0498190   17.5160526   17.8159999
| 20>     C       17.4989174   16.4873102   18.7944686
| 21>     C       18.0646218   15.2023943   18.8785555
| 22>     C       17.5534382   14.2541871   19.7805348
| 23>     C       16.4677128   14.5942921   20.6057328
| 24>     C       15.9004695   15.8733608   20.5219036
| 25>     O       14.8486426   16.2026516   21.3134131
| 26>     C       16.4112115   16.8148093   19.6226290
| 27>     H       13.8309083   16.3620232   16.1088714
| 28>     H       13.0773167   15.2044854   14.9909211
| 29>     H       13.4568087   16.8502273   14.4371276
| 30>     H       15.5253320   14.7033059   15.2428032
| 31>     H       15.1515347   15.2006883   13.5753005
| 32>     H       16.6387422   19.1361545   14.1038078
| 33>     H       16.0091588   20.5632804   14.9252427
| 34>     H       15.0738192   19.0637798   14.9376680
| 35>     H       16.7397862   21.0071189   16.8794829
| 36>     H       19.0548387   18.7528381   19.2743024
| 37>     H       19.0176654   17.1867441   17.4104432
| 38>     H       18.8941128   14.9339309   18.2284392
| 39>     H       17.9955558   13.2608319   19.8323897
| 40>     H       16.0689285   13.8644485   21.3023467
| 41>     H       14.6654666   15.4407852   21.8834060
| 42>     H       15.9614152   17.8008255   19.5736538
| 43> *
| 44>
| 45>                          ****END OF INPUT****

CARTESIAN COORDINATES (ANGSTROEM)
---------------------------------
  C     13.805199   16.021594   15.065940
  C     15.197093   15.544983   14.616593
  O     16.089335   16.667362   14.717154
  C     17.100846   16.602971   15.627249
  O     17.804662   15.613193   15.736830
  C     17.142895   17.745134   16.601068
  C     16.784207   19.010859   16.260154
  C     16.090641   19.471613   14.993303
  N     17.090540   20.087831   17.095849
  C     17.936329   20.018515   18.169930
  S     18.338935   21.358753   19.051437
  N     18.450095   18.780665   18.463049
  C     18.049819   17.516053   17.816000
  C     17.498917   16.487310   18.794469
  C     18.064622   15.202394   18.878556
  C     17.553438   14.254187   19.780535
  C     16.467713   14.594292   20.605733
  C     15.900469   15.873361   20.521904
  O     14.848643   16.202652   21.313413
  C     16.411212   16.814809   19.622629
  H     13.830908   16.362023   16.108871
  H     13.077317   15.204485   14.990921
  H     13.456809   16.850227   14.437128
  H     15.525332   14.703306   15.242803
  H     15.151535   15.200688   13.575300
  H     16.638742   19.136154   14.103808
  H     16.009159   20.563280   14.925243
  H     15.073819   19.063780   14.937668
  H     16.739786   21.007119   16.879483
  H     19.054839   18.752838   19.274302
  H     19.017665   17.186744   17.410443
  H     18.894113   14.933931   18.228439
  H     17.995556   13.260832   19.832390
  H     16.068928   13.864448   21.302347
  H     14.665467   15.440785   21.883406
  H     15.961415   17.800825   19.573654

 Total Charge           Charge          ....    0
 Multiplicity           Mult            ....    1
 Number of Electrons    NEL             ....  154
 Basis Dimension        Dim             ....  828

ORBITAL ENERGIES
----------------

  NO   OCC          E(Eh)            E(eV)
   0   2.0000     -91.888826     -2500.4221
   1   2.0000     -20.594371      -560.4013
   2   2.0000     -20.593440      -560.3760
   3   2.0000     -20.548366      -559.1495
   4   2.0000     -15.629558      -425.3019
   5   2.0000     -15.606484      -424.6740
   6   2.0000     -11.394621      -310.0634
   7   2.0000     -11.383475      -309.7601
   8   2.0000     -11.338834      -308.5454
   9   2.0000     -11.309535      -307.7481
  10   2.0000     -11.304943      -307.6231
  11   2.0000     -11.301264      -307.5230
  12   2.0000     -11.260479      -306.4132
  13   2.0000     -11.259776      -306.3941
  14   2.0000     -11.256618      -306.3081
  15   2.0000     -11.249494      -306.1143
  16   2.0000     -11.239661      -305.8467
  17   2.0000     -11.235885      -305.7440
  18   2.0000     -11.233228      -305.6717
  19   2.0000     -11.232475      -305.6512
  20   2.0000      -8.893903      -242.0154
  21   2.0000      -6.575478      -178.9279
  22   2.0000      -6.573477      -178.8734
  23   2.0000      -6.572887      -178.8574
  24   2.0000      -1.453667       -39.5563
  25   2.0000      -1.413193       -38.4549
  26   2.0000      -1.357543       -36.9406
  27   2.0000      -1.340675       -36.4816
  28   2.0000      -1.237801       -33.6823
  29   2.0000      -1.153978       -31.4013
  30   2.0000      -1.121691       -30.5228
  31   2.0000      -1.044303       -28.4169
  32   2.0000      -1.036829       -28.2135
  33   2.0000      -1.011518       -27.5248
  34   2.0000      -1.000076       -27.2135
  35   2.0000      -0.985292       -26.8112
  36   2.0000      -0.921786       -25.0831
  37   2.0000      -0.890008       -24.2183
  38   2.0000      -0.848023       -23.0759
  39   2.0000      -0.836383       -22.7591
  40   2.0000      -0.829689       -22.5770
  41   2.0000      -0.819857       -22.3095
  42   2.0000      -0.760993       -20.7077
  43   2.0000      -0.736676       -20.0460
  44   2.0000      -0.727355       -19.7923
  45   2.0000      -0.691979       -18.8297
  46   2.0000      -0.684863       -18.6361
  47   2.0000      -0.679763       -18.4973
  48   2.0000      -0.675198       -18.3731
  49   2.0000      -0.660219       -17.9655
  50   2.0000      -0.651349       -17.7241
  51   2.0000      -0.643639       -17.5143
  52   2.0000      -0.634540       -17.2667
  53   2.0000      -0.605024       -16.4635
  54   2.0000      -0.600196       -16.3322
  55   2.0000      -0.596878       -16.2419
  56   2.0000      -0.593228       -16.1426
  57   2.0000      -0.582928       -15.8623
  58   2.0000      -0.574377       -15.6296
  59   2.0000      -0.568281       -15.4637
  60   2.0000      -0.560867       -15.2620
  61   2.0000      -0.556293       -15.1375
  62   2.0000      -0.544097       -14.8056
  63   2.0000      -0.520434       -14.1617
  64   2.0000      -0.517535       -14.0828
  65   2.0000      -0.511127       -13.9085
  66   2.0000      -0.503282       -13.6950
  67   2.0000      -0.495412       -13.4808
  68   2.0000      -0.481455       -13.1010
  69   2.0000      -0.463582       -12.6147
  70   2.0000      -0.456650       -12.4261
  71   2.0000      -0.454553       -12.3690
  72   2.0000      -0.353794        -9.6272
  73   2.0000      -0.346107        -9.4180
  74   2.0000      -0.327877        -8.9220
  75   2.0000      -0.317994        -8.6530
  76   2.0000      -0.316169        -8.6034
  77   0.0000       0.074191         2.0188
  78   0.0000       0.108382         2.9492
  79   0.0000       0.120209         3.2711
  80   0.0000       0.134828         3.6689
  81   0.0000       0.139518         3.7965

MULLIKEN ATOMIC CHARGES
-----------------------
   0 C :   -0.288619
   1 C :    0.036939
   2 O :   -0.360959
   3 C :    0.446534
   4 O :   -0.407265
   5 C :   -0.193001
   6 C :    0.153509
   7 C :   -0.284375
   8 N :   -0.127982
   9 C :    0.207261
  10 S :   -0.441190
  11 N :   -0.210354
  12 C :    0.042894
  13 C :    0.032010
  14 C :   -0.170975
  15 C :   -0.133964
  16 C :   -0.277617
  17 C :    0.313872
  18 O :   -0.358927
  19 C :   -0.254476
  20 H :    0.102233
  21 H :    0.107321
  22 H :    0.091908
  23 H :    0.104031
  24 H :    0.103278
  25 H :    0.128092
  26 H :    0.104173
  27 H :    0.126318
  28 H :    0.198886
  29 H :    0.199785
  30 H :    0.155760
  31 H :    0.160549
  32 H :    0.160885
  33 H :    0.128862
  34 H :    0.240267
  35 H :    0.164336
Sum of atomic charges:   -0.0000000

LOEWDIN ATOMIC CHARGES
----------------------
   0 C :    0.102646
   1 C :   -0.015052
   2 O :    0.303289
   3 C :   -0.419907
   4 O :    0.113434
   5 C :   -0.095457
   6 C :   -0.064895
   7 C :    0.125861
   8 N :    0.405751
   9 C :   -0.458311
  10 S :   -0.036811
  11 N :    0.396259
  12 C :   -0.048457
  13 C :   -0.041081
  14 C :    0.024710
  15 C :    0.041218
  16 C :   -0.001177
  17 C :   -0.192977
  18 O :    0.393071
  19 C :    0.028633
  20 H :   -0.026429
  21 H :   -0.024202
  22 H :   -0.030399
  23 H :   -0.024683
  24 H :   -0.027528
  25 H :   -0.007980
  26 H :   -0.020800
  27 H :   -0.010573
  28 H :   -0.058473
  29 H :   -0.063263
  30 H :   -0.007690
  31 H :   -0.023529
  32 H :   -0.020709
  33 H :   -0.035974
  34 H :   -0.154597
  35 H :   -0.023918

  Mayer bond orders larger than 0.100000
B(  0-C ,  1-C ) :   0.9683 B(  0-C , 20-H ) :   0.9752 B(  0-C , 21-H ) :   0.9780
B(  0-C , 22-H ) :   0.9783 B(  1-C ,  2-O ) :   0.8933 B(  1-C , 23-H ) :   0.9718
B(  1-C , 24-H ) :   0.9852 B(  2-O ,  3-C ) :   1.1072 B(  3-C ,  4-O ) :   2.0168
B(  3-C ,  5-C ) :   1.0294 B(  5-C ,  6-C ) :   1.6602 B(  5-C , 12-C ) :   0.9504
B(  6-C ,  7-C ) :   0.9563 B(  6-C ,  8-N ) :   1.1394 B(  7-C , 25-H ) :   0.9652
B(  7-C , 26-H ) :   0.9896 B(  7-C , 27-H ) :   0.9652 B(  8-N ,  9-C ) :   1.1847
B(  8-N , 28-H ) :   0.9469 B(  9-C , 10-S ) :   1.6099 B(  9-C , 11-N ) :   1.3051
B( 11-N , 12-C ) :   0.9785 B( 11-N , 29-H ) :   0.9486 B( 12-C , 13-C ) :   0.9708
B( 12-C , 30-H ) :   0.9956 B( 13-C , 14-C ) :   1.3777 B( 13-C , 19-C ) :   1.3639
B( 14-C , 15-C ) :   1.3970 B( 14-C , 31-H ) :   0.9631 B( 15-C , 16-C ) :   1.3592
B( 15-C , 32-H ) :   0.9709 B( 16-C , 17-C ) :   1.3330 B( 16-C , 33-H ) :   0.9858
B( 17-C , 18-O ) :   1.1041 B( 17-C , 19-C ) :   1.3667 B( 18-O , 34-H ) :   0.9804
B( 19-C , 35-H ) :   0.9603

MP2 TOTAL ENERGY:    -1274.332482967 Eh
FINAL SINGLE POINT ENERGY     -1274.332482967332

DIPOLE MOMENT
-------------
                                X             Y             Z
Electronic contribution:     10.82880       8.04337       9.42395
Nuclear contribution   :    -12.20678      -9.37016     -10.32982
                        -----------------------------------------
Total Dipole Moment    :     -1.37797      -1.32678      -0.90587
                        -----------------------------------------
Magnitude (a.u.)       :      2.11655
Magnitude (Debye)      :      5.37984

Rotational constants in cm-1:     0.010053     0.009332     0.006005
Rotational constants in MHz :   301.384440   279.775258   180.013021

                             ****ORCA TERMINATED NORMALLY****
TOTAL RUN TIME: 0 days 1 hours 43 minutes 2 seconds 142 msec
