                         Program Version 4.2.0 -  RELEASE  -
|  1> ! ri-mp2 cc-pvtz cc-pvtz/c TightSCF NoKeepInts
|  2>
|  3> %scf
|  4>   MaxCore 4096
|  5> end
|  6> *xyz  0  1
|  7>     C       14.4699817   15.0096907   14.6930498
|  8>     C       15.7514727   14.7517391   15.5140079
|  9>     O       16.5996347   15.9066253   15.7475176
| 10>     C       16.2782195   17.2261653   15.5501085
| 11>     O       15.5622735   17.6201482   14.6467665
| 12>     C       16.8959566   18.1171039   16.5968690
| 13>     C       16.9338729   19.4652722   16.4339463
| 14>     C       16.1930573   20.2866087   15.3986539
| 15>     N       17.7232577   20.2688637   17.2599741
| 16>     C       18.6445621   19.7932227   18.1529863
| 17>     S       19.6125551   20.8032302   19.0354455
| 18>     N       18.7389932   18.4294251   18.2642814
| 19>     C       17.8530573   17.4532120   17.6027924
| 20>     C       17.1664252   16.5227563   18.5945495
| 21>     C       17.5712366   15.1804037   18.7142365
| 22>     C       16.9342205   14.3216594   19.6258197
| 23>     C       15.8869831   14.8107228   20.4256020
| 24>     C       15.4860115   16.1492352   20.3117958
| 25>     O       14.4765213   16.6242826   21.0839098
| 26>     C       16.1215856   17.0011963   19.4031560
| 27>     H       13.8206685   15.7414660   15.1898972
| 28>     H       13.8990926   14.0803395   14.5801200
| 29>     H       14.7136872   15.3755905   13.6876112
| 30>     H       15.4494188   14.3487467   16.4896810
| 31>     H       16.3437243   13.9734476   15.0160576
| 32>     H       15.1190336   20.0618549   15.4243030
| 33>     H       16.5528699   20.0514061   14.3888485
| 34>     H       16.3033143   21.3673207   15.5463135
| 35>     H       17.6793166   21.2715180   17.1723021
| 36>     H       19.4047248   18.1088179   18.9558903
| 37>     H       18.5854639   16.9009231   16.9970084
| 38>     H       18.3783508   14.8010600   18.0931042
| 39>     H       17.2530416   13.2842725   19.7117613
| 40>     H       15.3926259   14.1519951   21.1320714
| 41>     H       14.1895662   15.9040558   21.6651196
| 42>     H       15.8022229   18.0356222   19.3324420
| 43> *
| 44>
| 45>                          ****END OF INPUT****

CARTESIAN COORDINATES (ANGSTROEM)
---------------------------------
  C     14.469982   15.009691   14.693050
  C     15.751473   14.751739   15.514008
  O     16.599635   15.906625   15.747518
  C     16.278219   17.226165   15.550109
  O     15.562273   17.620148   14.646766
  C     16.895957   18.117104   16.596869
  C     16.933873   19.465272   16.433946
  C     16.193057   20.286609   15.398654
  N     17.723258   20.268864   17.259974
  C     18.644562   19.793223   18.152986
  S     19.612555   20.803230   19.035445
  N     18.738993   18.429425   18.264281
  C     17.853057   17.453212   17.602792
  C     17.166425   16.522756   18.594549
  C     17.571237   15.180404   18.714236
  C     16.934220   14.321659   19.625820
  C     15.886983   14.810723   20.425602
  C     15.486011   16.149235   20.311796
  O     14.476521   16.624283   21.083910
  C     16.121586   17.001196   19.403156
  H     13.820668   15.741466   15.189897
  H     13.899093   14.080339   14.580120
  H     14.713687   15.375590   13.687611
  H     15.449419   14.348747   16.489681
  H     16.343724   13.973448   15.016058
  H     15.119034   20.061855   15.424303
  H     16.552870   20.051406   14.388848
  H     16.303314   21.367321   15.546313
  H     17.679317   21.271518   17.172302
  H     19.404725   18.108818   18.955890
  H     18.585464   16.900923   16.997008
  H     18.378351   14.801060   18.093104
  H     17.253042   13.284273   19.711761
  H     15.392626   14.151995   21.132071
  H     14.189566   15.904056   21.665120
  H     15.802223   18.035622   19.332442

 Total Charge           Charge          ....    0
 Multiplicity           Mult            ....    1
 Number of Electrons    NEL             ....  154
 Basis Dimension        Dim             ....  828

ORBITAL ENERGIES
----------------

  NO   OCC          E(Eh)            E(eV)
   0   2.0000     -91.888307     -2500.4080
   1   2.0000     -20.597807      -560.4948
   2   2.0000     -20.592980      -560.3635
   3   2.0000     -20.540547      -558.9367
   4   2.0000     -15.628527      -425.2738
   5   2.0000     -15.606343      -424.6702
   6   2.0000     -11.396721      -310.1206
   7   2.0000     -11.382881      -309.7439
   8   2.0000     -11.336386      -308.4787
   9   2.0000     -11.315114      -307.8999
  10   2.0000     -11.306657      -307.6698
  11   2.0000     -11.301669      -307.5340
  12   2.0000     -11.261794      -306.4490
  13   2.0000     -11.257778      -306.3397
  14   2.0000     -11.256585      -306.3073
  15   2.0000     -11.251047      -306.1566
  16   2.0000     -11.244818      -305.9871
  17   2.0000     -11.239890      -305.8530
  18   2.0000     -11.239712      -305.8481
  19   2.0000     -11.222414      -305.3774
  20   2.0000      -8.893385      -242.0013
  21   2.0000      -6.574960      -178.9138
  22   2.0000      -6.572960      -178.8593
  23   2.0000      -6.572371      -178.8433
  24   2.0000      -1.441256       -39.2186
  25   2.0000      -1.417461       -38.5711
  26   2.0000      -1.352611       -36.8064
  27   2.0000      -1.339722       -36.4557
  28   2.0000      -1.237672       -33.6788
  29   2.0000      -1.158385       -31.5213
  30   2.0000      -1.119996       -30.4766
  31   2.0000      -1.043012       -28.3818
  32   2.0000      -1.035106       -28.1667
  33   2.0000      -1.016202       -27.6523
  34   2.0000      -0.995696       -27.0943
  35   2.0000      -0.983711       -26.7681
  36   2.0000      -0.921584       -25.0776
  37   2.0000      -0.896266       -24.3886
  38   2.0000      -0.846596       -23.0370
  39   2.0000      -0.838844       -22.8261
  40   2.0000      -0.835222       -22.7275
  41   2.0000      -0.818555       -22.2740
  42   2.0000      -0.744405       -20.2563
  43   2.0000      -0.732399       -19.9296
  44   2.0000      -0.716821       -19.5057
  45   2.0000      -0.696110       -18.9421
  46   2.0000      -0.687104       -18.6970
  47   2.0000      -0.674953       -18.3664
  48   2.0000      -0.669215       -18.2103
  49   2.0000      -0.662596       -18.0302
  50   2.0000      -0.648301       -17.6412
  51   2.0000      -0.643400       -17.5078
  52   2.0000      -0.634856       -17.2753
  53   2.0000      -0.608519       -16.5586
  54   2.0000      -0.606277       -16.4976
  55   2.0000      -0.601207       -16.3597
  56   2.0000      -0.599411       -16.3108
  57   2.0000      -0.578031       -15.7290
  58   2.0000      -0.571212       -15.5435
  59   2.0000      -0.568306       -15.4644
  60   2.0000      -0.559906       -15.2358
  61   2.0000      -0.540428       -14.7058
  62   2.0000      -0.534963       -14.5571
  63   2.0000      -0.525163       -14.2904
  64   2.0000      -0.523119       -14.2348
  65   2.0000      -0.512552       -13.9472
  66   2.0000      -0.500284       -13.6134
  67   2.0000      -0.496222       -13.5029
  68   2.0000      -0.484959       -13.1964
  69   2.0000      -0.462493       -12.5851
  70   2.0000      -0.450717       -12.2646
  71   2.0000      -0.440205       -11.9786
  72   2.0000      -0.352303        -9.5866
  73   2.0000      -0.350472        -9.5368
  74   2.0000      -0.327711        -8.9175
  75   2.0000      -0.322480        -8.7751
  76   2.0000      -0.317594        -8.6422
  77   0.0000       0.076713         2.0875
  78   0.0000       0.104095         2.8326
  79   0.0000       0.125014         3.4018
  80   0.0000       0.132516         3.6059
  81   0.0000       0.137041         3.7291

MULLIKEN ATOMIC CHARGES
-----------------------
   0 C :   -0.287731
   1 C :    0.045643
   2 O :   -0.369962
   3 C :    0.439047
   4 O :   -0.425227
   5 C :   -0.232848
   6 C :    0.179326
   7 C :   -0.266455
   8 N :   -0.126884
   9 C :    0.211350
  10 S :   -0.443248
  11 N :   -0.216912
  12 C :    0.072865
  13 C :    0.043938
  14 C :   -0.193479
  15 C :   -0.129821
  16 C :   -0.278745
  17 C :    0.316803
  18 O :   -0.356373
  19 C :   -0.250586
  20 H :    0.103118
  21 H :    0.096859
  22 H :    0.115146
  23 H :    0.098804
  24 H :    0.095434
  25 H :    0.132178
  26 H :    0.129692
  27 H :    0.094382
  28 H :    0.199550
  29 H :    0.200446
  30 H :    0.151411
  31 H :    0.154503
  32 H :    0.162349
  33 H :    0.131052
  34 H :    0.240754
  35 H :    0.163620
Sum of atomic charges:   -0.0000000

LOEWDIN ATOMIC CHARGES
----------------------
   0 C :    0.102990
   1 C :   -0.010331
   2 O :    0.293200
   3 C :   -0.413531
   4 O :    0.108788
   5 C :   -0.096330
   6 C :   -0.056398
   7 C :    0.130530
   8 N :    0.407056
   9 C :   -0.456430
  10 S :   -0.037466
  11 N :    0.394432
  12 C :   -0.054825
  13 C :   -0.038563
  14 C :    0.017199
  15 C :    0.038472
  16 C :   -0.001762
  17 C :   -0.189780
  18 O :    0.395276
  19 C :    0.032559
  20 H :   -0.026554
  21 H :   -0.027441
  22 H :   -0.024338
  23 H :   -0.028582
  24 H :   -0.027101
  25 H :   -0.004846
  26 H :   -0.004987
  27 H :   -0.023883
  28 H :   -0.057306
  29 H :   -0.064690
  30 H :   -0.013559
  31 H :   -0.028810
  32 H :   -0.021143
  33 H :   -0.035341
  34 H :   -0.153784
  35 H :   -0.022719

  Mayer bond orders larger than 0.100000
B(  0-C ,  1-C ) :   0.9822 B(  0-C , 20-H ) :   0.9748 B(  0-C , 21-H ) :   0.9729
B(  0-C , 22-H ) :   0.9730 B(  1-C ,  2-O ) :   0.8973 B(  1-C , 23-H ) :   0.9717
B(  1-C , 24-H ) :   0.9795 B(  2-O ,  3-C ) :   1.1279 B(  3-C ,  4-O ) :   1.9848
B(  3-C ,  5-C ) :   1.0634 B(  5-C ,  6-C ) :   1.6369 B(  5-C , 12-C ) :   0.9584
B(  6-C ,  7-C ) :   0.9648 B(  6-C ,  8-N ) :   1.1513 B(  7-C , 25-H ) :   0.9615
B(  7-C , 26-H ) :   0.9586 B(  7-C , 27-H ) :   0.9908 B(  8-N ,  9-C ) :   1.1882
B(  8-N , 28-H ) :   0.9465 B(  9-C , 10-S ) :   1.6038 B(  9-C , 11-N ) :   1.3108
B( 11-N , 12-C ) :   0.9658 B( 11-N , 29-H ) :   0.9486 B( 12-C , 13-C ) :   0.9615
B( 12-C , 30-H ) :   1.0004 B( 13-C , 14-C ) :   1.3489 B( 13-C , 19-C ) :   1.3815
B( 14-C , 15-C ) :   1.3912 B( 14-C , 31-H ) :   0.9725 B( 15-C , 16-C ) :   1.3584
B( 15-C , 32-H ) :   0.9704 B( 16-C , 17-C ) :   1.3331 B( 16-C , 33-H ) :   0.9849
B( 17-C , 18-O ) :   1.1052 B( 17-C , 19-C ) :   1.3644 B( 18-O , 34-H ) :   0.9796
B( 19-C , 35-H ) :   0.9593

MP2 TOTAL ENERGY:    -1274.330745019 Eh
FINAL SINGLE POINT ENERGY     -1274.330745019150

DIPOLE MOMENT
-------------
                                X             Y             Z
Electronic contribution:      9.62498      10.09421       8.99106
Nuclear contribution   :    -10.65037     -11.89938      -9.23719
                        -----------------------------------------
Total Dipole Moment    :     -1.02539      -1.80517      -0.24612
                        -----------------------------------------
Magnitude (a.u.)       :      2.09060
Magnitude (Debye)      :      5.31389

Rotational constants in cm-1:     0.011424     0.008616     0.005899
Rotational constants in MHz :   342.485626   258.309834   176.855922

                             ****ORCA TERMINATED NORMALLY****
TOTAL RUN TIME: 0 days 1 hours 40 minutes 27 seconds 349 msec
