                         Program Version 4.2.0 -  RELEASE  -
|  1> ! ri-mp2 cc-pvtz cc-pvtz/c TightSCF NoKeepInts
|  2>
|  3> %scf
|  4>   MaxCore 4096
|  5> end
|  6> *xyz  0  1
|  7>     C       14.4662581   15.4018319   13.3374009
|  8>     C       14.7891217   15.3782531   14.8408282
|  9>     O       15.6821738   16.4759450   15.1019785
| 10>     C       16.6895703   16.3280300   16.0109741
| 11>     O       17.1773995   15.2413578   16.2740515
| 12>     C       17.0425201   17.5776115   16.7680896
| 13>     C       16.9283503   18.8210248   16.2295396
| 14>     C       16.2432627   19.2194533   14.9367547
| 15>     N       17.5193831   19.9241919   16.8510235
| 16>     C       18.4195730   19.8448531   17.8789120
| 17>     S       19.1650259   21.1879454   18.4920605
| 18>     N       18.6880315   18.5880747   18.3581940
| 19>     C       17.9797420   17.3553804   17.9624930
| 20>     C       17.3157417   16.6433685   19.1337794
| 21>     C       17.6117419   15.2977540   19.4166313
| 22>     C       17.0003081   14.6437927   20.4994525
| 23>     C       16.0861846   15.3420302   21.3070633
| 24>     C       15.7880519   16.6825787   21.0261667
| 25>     O       14.9028433   17.3578944   21.8018628
| 26>     C       16.3978510   17.3305210   19.9471574
| 27>     H       13.9912941   16.3502560   13.0575172
| 28>     H       13.7821048   14.5846588   13.0782328
| 29>     H       15.3819221   15.2832970   12.7445485
| 30>     H       13.8736794   15.4809878   15.4378278
| 31>     H       15.2525274   14.4116145   15.0812159
| 32>     H       16.6538567   18.6577289   14.0882653
| 33>     H       16.3608265   20.2844401   14.7023138
| 34>     H       15.1666326   19.0147190   14.9893524
| 35>     H       17.3494187   20.8512720   16.4953936
| 36>     H       19.3390081   18.5587951   19.1327544
| 37>     H       18.8214442   16.7623749   17.5759424
| 38>     H       18.3073147   14.7530574   18.7824883
| 39>     H       17.2322763   13.6002802   20.7046311
| 40>     H       15.6107084   14.8403716   22.1432310
| 41>     H       14.6133575   16.7549375   22.5028640
| 42>     H       16.1574941   18.3693172   19.7470081
| 43> *
| 44>
| 45>                          ****END OF INPUT****

CARTESIAN COORDINATES (ANGSTROEM)
---------------------------------
  C     14.466258   15.401832   13.337401
  C     14.789122   15.378253   14.840828
  O     15.682174   16.475945   15.101978
  C     16.689570   16.328030   16.010974
  O     17.177399   15.241358   16.274051
  C     17.042520   17.577611   16.768090
  C     16.928350   18.821025   16.229540
  C     16.243263   19.219453   14.936755
  N     17.519383   19.924192   16.851024
  C     18.419573   19.844853   17.878912
  S     19.165026   21.187945   18.492061
  N     18.688032   18.588075   18.358194
  C     17.979742   17.355380   17.962493
  C     17.315742   16.643369   19.133779
  C     17.611742   15.297754   19.416631
  C     17.000308   14.643793   20.499453
  C     16.086185   15.342030   21.307063
  C     15.788052   16.682579   21.026167
  O     14.902843   17.357894   21.801863
  C     16.397851   17.330521   19.947157
  H     13.991294   16.350256   13.057517
  H     13.782105   14.584659   13.078233
  H     15.381922   15.283297   12.744549
  H     13.873679   15.480988   15.437828
  H     15.252527   14.411615   15.081216
  H     16.653857   18.657729   14.088265
  H     16.360827   20.284440   14.702314
  H     15.166633   19.014719   14.989352
  H     17.349419   20.851272   16.495394
  H     19.339008   18.558795   19.132754
  H     18.821444   16.762375   17.575942
  H     18.307315   14.753057   18.782488
  H     17.232276   13.600280   20.704631
  H     15.610708   14.840372   22.143231
  H     14.613357   16.754938   22.502864
  H     16.157494   18.369317   19.747008

 Total Charge           Charge          ....    0
 Multiplicity           Mult            ....    1
 Number of Electrons    NEL             ....  154
 Basis Dimension        Dim             ....  828

ORBITAL ENERGIES
----------------

  NO   OCC          E(Eh)            E(eV)
   0   2.0000     -91.887933     -2500.3978
   1   2.0000     -20.600827      -560.5770
   2   2.0000     -20.591581      -560.3254
   3   2.0000     -20.546172      -559.0898
   4   2.0000     -15.628517      -425.2736
   5   2.0000     -15.605527      -424.6480
   6   2.0000     -11.395761      -310.0944
   7   2.0000     -11.382461      -309.7325
   8   2.0000     -11.338113      -308.5257
   9   2.0000     -11.307541      -307.6938
  10   2.0000     -11.303997      -307.5974
  11   2.0000     -11.299150      -307.4655
  12   2.0000     -11.260557      -306.4153
  13   2.0000     -11.259103      -306.3758
  14   2.0000     -11.254785      -306.2583
  15   2.0000     -11.247599      -306.0627
  16   2.0000     -11.237813      -305.7964
  17   2.0000     -11.233929      -305.6908
  18   2.0000     -11.232966      -305.6646
  19   2.0000     -11.230670      -305.6021
  20   2.0000      -8.893017      -241.9913
  21   2.0000      -6.574595      -178.9038
  22   2.0000      -6.572592      -178.8493
  23   2.0000      -6.572004      -178.8333
  24   2.0000      -1.453586       -39.5541
  25   2.0000      -1.411324       -38.4041
  26   2.0000      -1.357536       -36.9404
  27   2.0000      -1.339794       -36.4577
  28   2.0000      -1.236904       -33.6579
  29   2.0000      -1.152163       -31.3519
  30   2.0000      -1.120663       -30.4948
  31   2.0000      -1.044569       -28.4242
  32   2.0000      -1.036537       -28.2056
  33   2.0000      -1.009702       -27.4754
  34   2.0000      -0.998567       -27.1724
  35   2.0000      -0.983641       -26.7662
  36   2.0000      -0.920482       -25.0476
  37   2.0000      -0.887562       -24.1518
  38   2.0000      -0.847160       -23.0524
  39   2.0000      -0.834844       -22.7173
  40   2.0000      -0.827815       -22.5260
  41   2.0000      -0.819880       -22.3101
  42   2.0000      -0.761604       -20.7243
  43   2.0000      -0.736098       -20.0302
  44   2.0000      -0.725998       -19.7554
  45   2.0000      -0.689791       -18.7702
  46   2.0000      -0.685324       -18.6486
  47   2.0000      -0.680017       -18.5042
  48   2.0000      -0.673722       -18.3329
  49   2.0000      -0.653015       -17.7694
  50   2.0000      -0.651485       -17.7278
  51   2.0000      -0.639425       -17.3996
  52   2.0000      -0.630331       -17.1522
  53   2.0000      -0.613766       -16.7014
  54   2.0000      -0.603017       -16.4089
  55   2.0000      -0.598253       -16.2793
  56   2.0000      -0.594862       -16.1870
  57   2.0000      -0.579287       -15.7632
  58   2.0000      -0.572891       -15.5892
  59   2.0000      -0.562682       -15.3114
  60   2.0000      -0.561898       -15.2900
  61   2.0000      -0.546644       -14.8749
  62   2.0000      -0.538424       -14.6513
  63   2.0000      -0.530403       -14.4330
  64   2.0000      -0.515718       -14.0334
  65   2.0000      -0.508693       -13.8422
  66   2.0000      -0.500133       -13.6093
  67   2.0000      -0.493801       -13.4370
  68   2.0000      -0.481111       -13.0917
  69   2.0000      -0.462985       -12.5985
  70   2.0000      -0.462146       -12.5756
  71   2.0000      -0.451207       -12.2780
  72   2.0000      -0.353035        -9.6066
  73   2.0000      -0.344313        -9.3692
  74   2.0000      -0.327002        -8.8982
  75   2.0000      -0.317116        -8.6292
  76   2.0000      -0.314185        -8.5494
  77   0.0000       0.076391         2.0787
  78   0.0000       0.111726         3.0402
  79   0.0000       0.120993         3.2924
  80   0.0000       0.135580         3.6893
  81   0.0000       0.138616         3.7719

MULLIKEN ATOMIC CHARGES
-----------------------
   0 C :   -0.266676
   1 C :    0.023286
   2 O :   -0.350559
   3 C :    0.438019
   4 O :   -0.419245
   5 C :   -0.179209
   6 C :    0.154886
   7 C :   -0.283140
   8 N :   -0.128774
   9 C :    0.207613
  10 S :   -0.442504
  11 N :   -0.210671
  12 C :    0.040181
  13 C :    0.032259
  14 C :   -0.167644
  15 C :   -0.134293
  16 C :   -0.277123
  17 C :    0.314006
  18 O :   -0.359136
  19 C :   -0.251066
  20 H :    0.090624
  21 H :    0.093974
  22 H :    0.099137
  23 H :    0.095772
  24 H :    0.118867
  25 H :    0.125777
  26 H :    0.102973
  27 H :    0.128393
  28 H :    0.198804
  29 H :    0.199960
  30 H :    0.155462
  31 H :    0.158860
  32 H :    0.159858
  33 H :    0.128118
  34 H :    0.239901
  35 H :    0.163313
Sum of atomic charges:   -0.0000000

LOEWDIN ATOMIC CHARGES
----------------------
   0 C :    0.105270
   1 C :   -0.012647
   2 O :    0.304799
   3 C :   -0.414846
   4 O :    0.106503
   5 C :   -0.092236
   6 C :   -0.064435
   7 C :    0.125078
   8 N :    0.405462
   9 C :   -0.458634
  10 S :   -0.037720
  11 N :    0.396427
  12 C :   -0.048316
  13 C :   -0.040544
  14 C :    0.024972
  15 C :    0.040972
  16 C :   -0.001204
  17 C :   -0.192566
  18 O :    0.393015
  19 C :    0.029580
  20 H :   -0.030239
  21 H :   -0.024757
  22 H :   -0.025159
  23 H :   -0.031377
  24 H :   -0.026915
  25 H :   -0.009298
  26 H :   -0.021141
  27 H :   -0.009842
  28 H :   -0.058742
  29 H :   -0.063134
  30 H :   -0.008233
  31 H :   -0.023987
  32 H :   -0.021083
  33 H :   -0.036204
  34 H :   -0.154899
  35 H :   -0.023919

  Mayer bond orders larger than 0.100000
B(  0-C ,  1-C ) :   0.9745 B(  0-C , 20-H ) :   0.9797 B(  0-C , 21-H ) :   0.9765
B(  0-C , 22-H ) :   0.9779 B(  1-C ,  2-O ) :   0.8935 B(  1-C , 23-H ) :   0.9768
B(  1-C , 24-H ) :   0.9739 B(  2-O ,  3-C ) :   1.1289 B(  3-C ,  4-O ) :   1.9979
B(  3-C ,  5-C ) :   1.0400 B(  5-C ,  6-C ) :   1.6570 B(  5-C , 12-C ) :   0.9476
B(  6-C ,  7-C ) :   0.9541 B(  6-C ,  8-N ) :   1.1354 B(  7-C , 25-H ) :   0.9653
B(  7-C , 26-H ) :   0.9915 B(  7-C , 27-H ) :   0.9635 B(  8-N ,  9-C ) :   1.1852
B(  8-N , 28-H ) :   0.9469 B(  9-C , 10-S ) :   1.6081 B(  9-C , 11-N ) :   1.3064
B( 11-N , 12-C ) :   0.9762 B( 11-N , 29-H ) :   0.9485 B( 12-C , 13-C ) :   0.9736
B( 12-C , 30-H ) :   0.9970 B( 13-C , 14-C ) :   1.3769 B( 13-C , 19-C ) :   1.3654
B( 14-C , 15-C ) :   1.3974 B( 14-C , 31-H ) :   0.9638 B( 15-C , 16-C ) :   1.3588
B( 15-C , 32-H ) :   0.9712 B( 16-C , 17-C ) :   1.3333 B( 16-C , 33-H ) :   0.9860
B( 17-C , 18-O ) :   1.1034 B( 17-C , 19-C ) :   1.3676 B( 18-O , 34-H ) :   0.9807
B( 19-C , 35-H ) :   0.9602

MP2 TOTAL ENERGY:    -1274.337557573 Eh
FINAL SINGLE POINT ENERGY     -1274.337557573008

DIPOLE MOMENT
-------------
                                X             Y             Z
Electronic contribution:     10.28167       9.16940      12.73671
Nuclear contribution   :    -11.85906     -10.43036     -13.64527
                        -----------------------------------------
Total Dipole Moment    :     -1.57739      -1.26096      -0.90856
                        -----------------------------------------
Magnitude (a.u.)       :      2.21442
Magnitude (Debye)      :      5.62861

Rotational constants in cm-1:     0.009919     0.008731     0.005430
Rotational constants in MHz :   297.349743   261.763194   162.795912

                             ****ORCA TERMINATED NORMALLY****
TOTAL RUN TIME: 0 days 1 hours 39 minutes 5 seconds 47 msec
