                         Program Version 4.2.0 -  RELEASE  -
|  1> ! ri-mp2 cc-pvtz cc-pvtz/c TightSCF NoKeepInts
|  2>
|  3> %scf
|  4>   MaxCore 4096
|  5> end
|  6> *xyz  0  1
|  7>     C       15.1437973   14.5543257   14.1554922
|  8>     C       14.5569535   15.9294552   14.5408904
|  9>     O       15.5382461   16.9004232   14.9836327
| 10>     C       16.5940095   16.6466647   15.8202609
| 11>     O       17.1269649   15.5573517   15.9400479
| 12>     C       16.9546918   17.8029310   16.7113795
| 13>     C       16.8285120   19.0996390   16.3213510
| 14>     C       16.1293806   19.6408647   15.0893541
| 15>     N       17.4230458   20.1274066   17.0581724
| 16>     C       18.3386701   19.9358730   18.0571440
| 17>     S       19.0865124   21.2041582   18.8106982
| 18>     N       18.6202419   18.6339745   18.3838631
| 19>     C       17.9111719   17.4510050   17.8589067
| 20>     C       17.2673071   16.6046201   18.9493204
| 21>     C       17.5663647   15.2351267   19.0648512
| 22>     C       16.9730691   14.4564423   20.0726344
| 23>     C       16.0740060   15.0528670   20.9733792
| 24>     C       15.7726431   16.4170515   20.8591155
| 25>     O       14.9017116   16.9944408   21.7248422
| 26>     C       16.3643723   17.1893034   19.8544108
| 27>     H       16.0356765   14.6704567   13.5270065
| 28>     H       14.4052122   13.9710463   13.5927403
| 29>     H       15.4119036   13.9709714   15.0450661
| 30>     H       14.0234717   16.3441944   13.6760374
| 31>     H       13.8172264   15.7768141   15.3376690
| 32>     H       15.0504587   19.4486417   15.1400387
| 33>     H       16.5170420   19.1648630   14.1798915
| 34>     H       16.2623000   20.7224561   14.9645626
| 35>     H       17.2434666   21.0882292   16.8145485
| 36>     H       19.2832961   18.5192100   19.1399621
| 37>     H       18.7497165   16.9113892   17.3949896
| 38>     H       18.2500277   14.7704064   18.3581894
| 39>     H       17.2072958   13.3961345   20.1480182
| 40>     H       15.6125084   14.4548806   21.7520460
| 41>     H       14.6241748   16.3121525   22.3542844
| 42>     H       16.1215510   18.2442295   19.7832029
| 43> *
| 44>
| 45>                          ****END OF INPUT****

CARTESIAN COORDINATES (ANGSTROEM)
---------------------------------
  C     15.143797   14.554326   14.155492
  C     14.556954   15.929455   14.540890
  O     15.538246   16.900423   14.983633
  C     16.594009   16.646665   15.820261
  O     17.126965   15.557352   15.940048
  C     16.954692   17.802931   16.711379
  C     16.828512   19.099639   16.321351
  C     16.129381   19.640865   15.089354
  N     17.423046   20.127407   17.058172
  C     18.338670   19.935873   18.057144
  S     19.086512   21.204158   18.810698
  N     18.620242   18.633975   18.383863
  C     17.911172   17.451005   17.858907
  C     17.267307   16.604620   18.949320
  C     17.566365   15.235127   19.064851
  C     16.973069   14.456442   20.072634
  C     16.074006   15.052867   20.973379
  C     15.772643   16.417051   20.859116
  O     14.901712   16.994441   21.724842
  C     16.364372   17.189303   19.854411
  H     16.035677   14.670457   13.527007
  H     14.405212   13.971046   13.592740
  H     15.411904   13.970971   15.045066
  H     14.023472   16.344194   13.676037
  H     13.817226   15.776814   15.337669
  H     15.050459   19.448642   15.140039
  H     16.517042   19.164863   14.179891
  H     16.262300   20.722456   14.964563
  H     17.243467   21.088229   16.814549
  H     19.283296   18.519210   19.139962
  H     18.749717   16.911389   17.394990
  H     18.250028   14.770406   18.358189
  H     17.207296   13.396135   20.148018
  H     15.612508   14.454881   21.752046
  H     14.624175   16.312152   22.354284
  H     16.121551   18.244229   19.783203

 Total Charge           Charge          ....    0
 Multiplicity           Mult            ....    1
 Number of Electrons    NEL             ....  154
 Basis Dimension        Dim             ....  828

ORBITAL ENERGIES
----------------

  NO   OCC          E(Eh)            E(eV)
   0   2.0000     -91.887146     -2500.3764
   1   2.0000     -20.598433      -560.5119
   2   2.0000     -20.591755      -560.3301
   3   2.0000     -20.546082      -559.0873
   4   2.0000     -15.627210      -425.2380
   5   2.0000     -15.604905      -424.6311
   6   2.0000     -11.398342      -310.1647
   7   2.0000     -11.381639      -309.7102
   8   2.0000     -11.336194      -308.4735
   9   2.0000     -11.307776      -307.7002
  10   2.0000     -11.306532      -307.6664
  11   2.0000     -11.303424      -307.5818
  12   2.0000     -11.259390      -306.3836
  13   2.0000     -11.257930      -306.3438
  14   2.0000     -11.254906      -306.2615
  15   2.0000     -11.247944      -306.0721
  16   2.0000     -11.238049      -305.8029
  17   2.0000     -11.234017      -305.6932
  18   2.0000     -11.230886      -305.6080
  19   2.0000     -11.223320      -305.4021
  20   2.0000      -8.892240      -241.9702
  21   2.0000      -6.573820      -178.8827
  22   2.0000      -6.571815      -178.8282
  23   2.0000      -6.571230      -178.8123
  24   2.0000      -1.446650       -39.3654
  25   2.0000      -1.411498       -38.4088
  26   2.0000      -1.357800       -36.9476
  27   2.0000      -1.338780       -36.4300
  28   2.0000      -1.236070       -33.6352
  29   2.0000      -1.152087       -31.3499
  30   2.0000      -1.119516       -30.4636
  31   2.0000      -1.042111       -28.3573
  32   2.0000      -1.033746       -28.1296
  33   2.0000      -1.009712       -27.4757
  34   2.0000      -0.997485       -27.1430
  35   2.0000      -0.982346       -26.7310
  36   2.0000      -0.920378       -25.0448
  37   2.0000      -0.894637       -24.3443
  38   2.0000      -0.847290       -23.0559
  39   2.0000      -0.835127       -22.7250
  40   2.0000      -0.828033       -22.5319
  41   2.0000      -0.819064       -22.2879
  42   2.0000      -0.745091       -20.2749
  43   2.0000      -0.728280       -19.8175
  44   2.0000      -0.725171       -19.7329
  45   2.0000      -0.690226       -18.7820
  46   2.0000      -0.684275       -18.6201
  47   2.0000      -0.679026       -18.4772
  48   2.0000      -0.669631       -18.2216
  49   2.0000      -0.666565       -18.1382
  50   2.0000      -0.644076       -17.5262
  51   2.0000      -0.643021       -17.4975
  52   2.0000      -0.632791       -17.2191
  53   2.0000      -0.604171       -16.4403
  54   2.0000      -0.598779       -16.2936
  55   2.0000      -0.597540       -16.2599
  56   2.0000      -0.595084       -16.1931
  57   2.0000      -0.584444       -15.9035
  58   2.0000      -0.572224       -15.5710
  59   2.0000      -0.570073       -15.5125
  60   2.0000      -0.559079       -15.2133
  61   2.0000      -0.545485       -14.8434
  62   2.0000      -0.537572       -14.6281
  63   2.0000      -0.524062       -14.2605
  64   2.0000      -0.515609       -14.0304
  65   2.0000      -0.509967       -13.8769
  66   2.0000      -0.498463       -13.5639
  67   2.0000      -0.493404       -13.4262
  68   2.0000      -0.479342       -13.0436
  69   2.0000      -0.461712       -12.5638
  70   2.0000      -0.456636       -12.4257
  71   2.0000      -0.445088       -12.1114
  72   2.0000      -0.351880        -9.5751
  73   2.0000      -0.344322        -9.3695
  74   2.0000      -0.326306        -8.8792
  75   2.0000      -0.316350        -8.6083
  76   2.0000      -0.314476        -8.5573
  77   0.0000       0.077785         2.1166
  78   0.0000       0.111500         3.0341
  79   0.0000       0.121953         3.3185
  80   0.0000       0.135862         3.6970
  81   0.0000       0.139039         3.7834

MULLIKEN ATOMIC CHARGES
-----------------------
   0 C :   -0.284546
   1 C :    0.046826
   2 O :   -0.364787
   3 C :    0.419227
   4 O :   -0.417745
   5 C :   -0.143573
   6 C :    0.151822
   7 C :   -0.281966
   8 N :   -0.128680
   9 C :    0.207628
  10 S :   -0.443994
  11 N :   -0.211073
  12 C :    0.038333
  13 C :    0.033124
  14 C :   -0.171775
  15 C :   -0.134616
  16 C :   -0.277382
  17 C :    0.313867
  18 O :   -0.358871
  19 C :   -0.250480
  20 H :    0.101819
  21 H :    0.094033
  22 H :    0.117111
  23 H :    0.096673
  24 H :    0.087998
  25 H :    0.127940
  26 H :    0.124507
  27 H :    0.101795
  28 H :    0.198553
  29 H :    0.199765
  30 H :    0.156381
  31 H :    0.160092
  32 H :    0.160026
  33 H :    0.128220
  34 H :    0.239853
  35 H :    0.163898
Sum of atomic charges:   -0.0000000

LOEWDIN ATOMIC CHARGES
----------------------
   0 C :    0.102740
   1 C :   -0.010723
   2 O :    0.291841
   3 C :   -0.411945
   4 O :    0.117338
   5 C :   -0.091276
   6 C :   -0.065445
   7 C :    0.124683
   8 N :    0.405071
   9 C :   -0.458783
  10 S :   -0.038902
  11 N :    0.396373
  12 C :   -0.048235
  13 C :   -0.040482
  14 C :    0.023904
  15 C :    0.040482
  16 C :   -0.001419
  17 C :   -0.192493
  18 O :    0.393143
  19 C :    0.029822
  20 H :   -0.024701
  21 H :   -0.029313
  22 H :   -0.025606
  23 H :   -0.024829
  24 H :   -0.029808
  25 H :   -0.009712
  26 H :   -0.009513
  27 H :   -0.021376
  28 H :   -0.058961
  29 H :   -0.063291
  30 H :   -0.008522
  31 H :   -0.024049
  32 H :   -0.021163
  33 H :   -0.036233
  34 H :   -0.154914
  35 H :   -0.023701

  Mayer bond orders larger than 0.100000
B(  0-C ,  1-C ) :   0.9758 B(  0-C , 20-H ) :   0.9746 B(  0-C , 21-H ) :   0.9742
B(  0-C , 22-H ) :   0.9724 B(  1-C ,  2-O ) :   0.9084 B(  1-C , 23-H ) :   0.9821
B(  1-C , 24-H ) :   0.9784 B(  2-O ,  3-C ) :   1.1013 B(  3-C ,  4-O ) :   1.9908
B(  3-C ,  5-C ) :   1.0443 B(  5-C ,  6-C ) :   1.6632 B(  5-C , 12-C ) :   0.9466
B(  6-C ,  7-C ) :   0.9547 B(  6-C ,  8-N ) :   1.1316 B(  7-C , 25-H ) :   0.9635
B(  7-C , 26-H ) :   0.9658 B(  7-C , 27-H ) :   0.9914 B(  8-N ,  9-C ) :   1.1870
B(  8-N , 28-H ) :   0.9471 B(  9-C , 10-S ) :   1.6067 B(  9-C , 11-N ) :   1.3060
B( 11-N , 12-C ) :   0.9757 B( 11-N , 29-H ) :   0.9486 B( 12-C , 13-C ) :   0.9729
B( 12-C , 30-H ) :   0.9968 B( 13-C , 14-C ) :   1.3763 B( 13-C , 19-C ) :   1.3661
B( 14-C , 15-C ) :   1.3969 B( 14-C , 31-H ) :   0.9636 B( 15-C , 16-C ) :   1.3589
B( 15-C , 32-H ) :   0.9712 B( 16-C , 17-C ) :   1.3331 B( 16-C , 33-H ) :   0.9860
B( 17-C , 18-O ) :   1.1036 B( 17-C , 19-C ) :   1.3672 B( 18-O , 34-H ) :   0.9807
B( 19-C , 35-H ) :   0.9600

MP2 TOTAL ENERGY:    -1274.329355386 Eh
FINAL SINGLE POINT ENERGY     -1274.329355385977

DIPOLE MOMENT
-------------
                                X             Y             Z
Electronic contribution:      9.01824      10.50427      11.46087
Nuclear contribution   :    -10.63750     -11.73482     -12.48405
                        -----------------------------------------
Total Dipole Moment    :     -1.61926      -1.23056      -1.02318
                        -----------------------------------------
Magnitude (a.u.)       :      2.27666
Magnitude (Debye)      :      5.78680

Rotational constants in cm-1:     0.009951     0.009089     0.005566
Rotational constants in MHz :   298.329441   272.477966   166.864194

                             ****ORCA TERMINATED NORMALLY****
TOTAL RUN TIME: 0 days 1 hours 50 minutes 54 seconds 653 msec
