                         Program Version 4.2.0 -  RELEASE  -
|  1> ! ri-mp2 cc-pvtz cc-pvtz/c TightSCF NoKeepInts
|  2>
|  3> %scf
|  4>   MaxCore 4096
|  5> end
|  6> *xyz  0  1
|  7>     C       14.1144227   16.8246450   15.6396530
|  8>     C       15.1672790   15.7037192   15.7397812
|  9>     O       16.3285799   15.9955981   14.9316893
| 10>     C       17.4344326   16.6290157   15.4361225
| 11>     O       18.5606784   16.3152394   15.0998757
| 12>     C       17.1804405   17.6687829   16.4699453
| 13>     C       16.7654115   18.8973149   16.0819380
| 14>     C       16.2700314   19.2993995   14.7078708
| 15>     N       16.8526850   19.9889062   16.9471008
| 16>     C       17.5600843   19.9814729   18.1210000
| 17>     S       17.7190366   21.3388351   19.0519665
| 18>     N       18.1535660   18.7928759   18.4718050
| 19>     C       17.9591562   17.5067487   17.7726714
| 20>     C       17.4278049   16.3723382   18.6335912
| 21>     C       17.9971874   15.0899044   18.5401889
| 22>     C       17.4897031   14.0270983   19.3059357
| 23>     C       16.4015572   14.2486882   20.1676156
| 24>     C       15.8280865   15.5246597   20.2564274
| 25>     O       14.7697939   15.7384656   21.0777214
| 26>     C       16.3340038   16.5805855   19.4914780
| 27>     H       14.3750927   17.6819838   16.2683859
| 28>     H       13.1413434   16.4547363   15.9855256
| 29>     H       13.9970686   17.1606603   14.6019730
| 30>     H       15.4418090   15.5150414   16.7864551
| 31>     H       14.7128821   14.7823288   15.3527959
| 32>     H       16.1684501   18.4485955   14.0243089
| 33>     H       16.9691017   20.0026271   14.2373582
| 34>     H       15.2885926   19.7854067   14.7675956
| 35>     H       16.4630658   20.8784848   16.6772547
| 36>     H       18.6687154   18.8144423   19.3430982
| 37>     H       18.9955294   17.2936905   17.4696835
| 38>     H       18.8315854   14.9156726   17.8635051
| 39>     H       17.9382329   13.0379098   19.2276141
| 40>     H       16.0062094   13.4300633   20.7602180
| 41>     H       14.6022097   14.9139207   21.5589393
| 42>     H       15.8731710   17.5601426   19.5689111
| 43> *
| 44>
| 45>                          ****END OF INPUT****

CARTESIAN COORDINATES (ANGSTROEM)
---------------------------------
  C     14.114423   16.824645   15.639653
  C     15.167279   15.703719   15.739781
  O     16.328580   15.995598   14.931689
  C     17.434433   16.629016   15.436122
  O     18.560678   16.315239   15.099876
  C     17.180440   17.668783   16.469945
  C     16.765411   18.897315   16.081938
  C     16.270031   19.299399   14.707871
  N     16.852685   19.988906   16.947101
  C     17.560084   19.981473   18.121000
  S     17.719037   21.338835   19.051966
  N     18.153566   18.792876   18.471805
  C     17.959156   17.506749   17.772671
  C     17.427805   16.372338   18.633591
  C     17.997187   15.089904   18.540189
  C     17.489703   14.027098   19.305936
  C     16.401557   14.248688   20.167616
  C     15.828086   15.524660   20.256427
  O     14.769794   15.738466   21.077721
  C     16.334004   16.580586   19.491478
  H     14.375093   17.681984   16.268386
  H     13.141343   16.454736   15.985526
  H     13.997069   17.160660   14.601973
  H     15.441809   15.515041   16.786455
  H     14.712882   14.782329   15.352796
  H     16.168450   18.448595   14.024309
  H     16.969102   20.002627   14.237358
  H     15.288593   19.785407   14.767596
  H     16.463066   20.878485   16.677255
  H     18.668715   18.814442   19.343098
  H     18.995529   17.293691   17.469683
  H     18.831585   14.915673   17.863505
  H     17.938233   13.037910   19.227614
  H     16.006209   13.430063   20.760218
  H     14.602210   14.913921   21.558939
  H     15.873171   17.560143   19.568911

 Total Charge           Charge          ....    0
 Multiplicity           Mult            ....    1
 Number of Electrons    NEL             ....  154
 Basis Dimension        Dim             ....  828

ORBITAL ENERGIES
----------------

  NO   OCC          E(Eh)            E(eV)
   0   2.0000     -91.889462     -2500.4394
   1   2.0000     -20.603205      -560.6417
   2   2.0000     -20.597864      -560.4964
   3   2.0000     -20.553729      -559.2954
   4   2.0000     -15.626371      -425.2152
   5   2.0000     -15.610089      -424.7721
   6   2.0000     -11.398233      -310.1617
   7   2.0000     -11.385636      -309.8189
   8   2.0000     -11.330075      -308.3070
   9   2.0000     -11.321396      -308.0708
  10   2.0000     -11.311826      -307.8104
  11   2.0000     -11.305584      -307.6406
  12   2.0000     -11.268509      -306.6317
  13   2.0000     -11.262893      -306.4789
  14   2.0000     -11.262112      -306.4576
  15   2.0000     -11.260477      -306.4131
  16   2.0000     -11.250338      -306.1373
  17   2.0000     -11.245788      -306.0134
  18   2.0000     -11.244459      -305.9773
  19   2.0000     -11.234323      -305.7015
  20   2.0000      -8.894565      -242.0334
  21   2.0000      -6.576146      -178.9460
  22   2.0000      -6.574135      -178.8913
  23   2.0000      -6.573552      -178.8755
  24   2.0000      -1.447907       -39.3996
  25   2.0000      -1.422919       -38.7196
  26   2.0000      -1.362075       -37.0639
  27   2.0000      -1.339966       -36.4623
  28   2.0000      -1.239117       -33.7181
  29   2.0000      -1.165260       -31.7083
  30   2.0000      -1.126956       -30.6660
  31   2.0000      -1.050737       -28.5920
  32   2.0000      -1.038557       -28.2606
  33   2.0000      -1.022870       -27.8337
  34   2.0000      -1.005962       -27.3736
  35   2.0000      -0.990381       -26.9496
  36   2.0000      -0.927472       -25.2378
  37   2.0000      -0.892043       -24.2737
  38   2.0000      -0.852575       -23.1997
  39   2.0000      -0.843506       -22.9530
  40   2.0000      -0.841006       -22.8849
  41   2.0000      -0.834574       -22.7099
  42   2.0000      -0.756879       -20.5957
  43   2.0000      -0.738068       -20.0839
  44   2.0000      -0.730427       -19.8759
  45   2.0000      -0.700892       -19.0722
  46   2.0000      -0.691840       -18.8259
  47   2.0000      -0.681857       -18.5543
  48   2.0000      -0.675766       -18.3885
  49   2.0000      -0.665166       -18.1001
  50   2.0000      -0.653222       -17.7751
  51   2.0000      -0.639783       -17.4094
  52   2.0000      -0.637714       -17.3531
  53   2.0000      -0.617341       -16.7987
  54   2.0000      -0.611997       -16.6533
  55   2.0000      -0.607611       -16.5339
  56   2.0000      -0.606121       -16.4934
  57   2.0000      -0.583794       -15.8858
  58   2.0000      -0.583341       -15.8735
  59   2.0000      -0.578238       -15.7347
  60   2.0000      -0.565171       -15.3791
  61   2.0000      -0.556690       -15.1483
  62   2.0000      -0.541221       -14.7274
  63   2.0000      -0.533673       -14.5220
  64   2.0000      -0.524810       -14.2808
  65   2.0000      -0.515545       -14.0287
  66   2.0000      -0.503691       -13.7061
  67   2.0000      -0.497969       -13.5504
  68   2.0000      -0.491666       -13.3789
  69   2.0000      -0.466653       -12.6983
  70   2.0000      -0.456682       -12.4269
  71   2.0000      -0.453228       -12.3330
  72   2.0000      -0.355680        -9.6786
  73   2.0000      -0.355154        -9.6642
  74   2.0000      -0.330072        -8.9817
  75   2.0000      -0.328270        -8.9327
  76   2.0000      -0.319630        -8.6976
  77   0.0000       0.088772         2.4156
  78   0.0000       0.100044         2.7223
  79   0.0000       0.119399         3.2490
  80   0.0000       0.124042         3.3753
  81   0.0000       0.127569         3.4713

MULLIKEN ATOMIC CHARGES
-----------------------
   0 C :   -0.314934
   1 C :    0.027527
   2 O :   -0.330019
   3 C :    0.423377
   4 O :   -0.375079
   5 C :   -0.200564
   6 C :    0.124325
   7 C :   -0.331034
   8 N :   -0.137598
   9 C :    0.208534
  10 S :   -0.443240
  11 N :   -0.221744
  12 C :    0.058241
  13 C :   -0.002390
  14 C :   -0.211960
  15 C :   -0.130601
  16 C :   -0.275091
  17 C :    0.310471
  18 O :   -0.354482
  19 C :   -0.234781
  20 H :    0.099742
  21 H :    0.119094
  22 H :    0.104549
  23 H :    0.108298
  24 H :    0.124935
  25 H :    0.127577
  26 H :    0.148956
  27 H :    0.118691
  28 H :    0.198016
  29 H :    0.201560
  30 H :    0.168062
  31 H :    0.174717
  32 H :    0.165727
  33 H :    0.134195
  34 H :    0.241774
  35 H :    0.175148
Sum of atomic charges:   -0.0000000

LOEWDIN ATOMIC CHARGES
----------------------
   0 C :    0.103261
   1 C :   -0.015714
   2 O :    0.295982
   3 C :   -0.417671
   4 O :    0.126025
   5 C :   -0.085624
   6 C :   -0.092413
   7 C :    0.125997
   8 N :    0.403600
   9 C :   -0.454995
  10 S :   -0.038434
  11 N :    0.395781
  12 C :   -0.051938
  13 C :   -0.046128
  14 C :    0.016612
  15 C :    0.045316
  16 C :    0.000595
  17 C :   -0.191177
  18 O :    0.396465
  19 C :    0.027921
  20 H :   -0.034447
  21 H :   -0.022963
  22 H :   -0.027407
  23 H :   -0.029084
  24 H :   -0.020527
  25 H :   -0.010451
  26 H :   -0.008618
  27 H :   -0.016703
  28 H :   -0.056499
  29 H :   -0.064281
  30 H :   -0.004114
  31 H :   -0.021863
  32 H :   -0.017839
  33 H :   -0.033978
  34 H :   -0.152475
  35 H :   -0.022213

  Mayer bond orders larger than 0.100000
B(  0-C ,  1-C ) :   0.9583 B(  0-C , 20-H ) :   0.9756 B(  0-C , 21-H ) :   0.9783
B(  0-C , 22-H ) :   0.9744 B(  1-C ,  2-O ) :   0.8998 B(  1-C , 23-H ) :   0.9666
B(  1-C , 24-H ) :   0.9855 B(  2-O ,  3-C ) :   1.1605 B(  3-C ,  4-O ) :   2.1178
B(  3-C ,  5-C ) :   0.9030 B(  5-C ,  6-C ) :   1.7326 B(  5-C , 12-C ) :   0.9404
B(  6-C ,  7-C ) :   0.9515 B(  6-C ,  8-N ) :   1.1014 B(  7-C , 25-H ) :   0.9765
B(  7-C , 26-H ) :   0.9663 B(  7-C , 27-H ) :   0.9670 B(  8-N ,  9-C ) :   1.1994
B(  8-N , 28-H ) :   0.9496 B(  9-C , 10-S ) :   1.6109 B(  9-C , 11-N ) :   1.2886
B( 11-N , 12-C ) :   0.9840 B( 11-N , 29-H ) :   0.9476 B( 12-C , 13-C ) :   0.9657
B( 12-C , 30-H ) :   0.9916 B( 13-C , 14-C ) :   1.3857 B( 13-C , 19-C ) :   1.3536
B( 14-C , 15-C ) :   1.3940 B( 14-C , 31-H ) :   0.9608 B( 15-C , 16-C ) :   1.3638
B( 15-C , 32-H ) :   0.9693 B( 16-C , 17-C ) :   1.3294 B( 16-C , 33-H ) :   0.9839
B( 17-C , 18-O ) :   1.1122 B( 17-C , 19-C ) :   1.3652 B( 18-O , 34-H ) :   0.9787
B( 19-C , 35-H ) :   0.9563

MP2 TOTAL ENERGY:    -1274.328172960 Eh
FINAL SINGLE POINT ENERGY     -1274.328172959516

DIPOLE MOMENT
-------------
                                X             Y             Z
Electronic contribution:      9.67563       5.71371       7.37222
Nuclear contribution   :    -11.20329      -7.23613      -7.50304
                        -----------------------------------------
Total Dipole Moment    :     -1.52766      -1.52243      -0.13081
                        -----------------------------------------
Magnitude (a.u.)       :      2.16071
Magnitude (Debye)      :      5.49208

Rotational constants in cm-1:     0.011597     0.009066     0.006574
Rotational constants in MHz :   347.677179   271.794554   197.096965

                             ****ORCA TERMINATED NORMALLY****
TOTAL RUN TIME: 0 days 2 hours 7 minutes 4 seconds 460 msec
