                         Program Version 4.2.0 -  RELEASE  -
|  1> ! ri-mp2 cc-pvtz cc-pvtz/c TightSCF NoKeepInts
|  2>
|  3> %scf
|  4>   MaxCore 4096
|  5> end
|  6> *xyz  0  1
|  7>     C       14.5173426   15.4752765   15.9839071
|  8>     C       15.8671801   14.8230579   15.6046017
|  9>     O       16.9614441   15.7679688   15.5500660
| 10>     C       16.7506058   17.0817880   15.2487171
| 11>     O       16.2711315   17.4069544   14.1767884
| 12>     C       17.0564245   18.0138939   16.3924318
| 13>     C       17.0255539   19.3594524   16.2077030
| 14>     C       16.4269217   20.1120002   15.0370660
| 15>     N       17.5861187   20.2293534   17.1456588
| 16>     C       18.3821694   19.8354513   18.1863989
| 17>     S       19.1058130   20.9252803   19.1983227
| 18>     N       18.5686705   18.4846345   18.3332978
| 19>     C       17.8707903   17.4365029   17.5648250
| 20>     C       17.1101755   16.4706071   18.4631661
| 21>     C       17.5387807   15.1386359   18.6112959
| 22>     C       16.8349922   14.2511259   19.4426221
| 23>     C       15.6988324   14.7019574   20.1364282
| 24>     C       15.2779729   16.0321432   20.0003311
| 25>     O       14.1822212   16.4704281   20.6693621
| 26>     C       15.9802426   16.9128384   19.1717442
| 27>     H       14.5960365   16.0353111   16.9222204
| 28>     H       13.7518989   14.7019095   16.1199588
| 29>     H       14.1636866   16.1531333   15.1969005
| 30>     H       16.1091171   14.0307557   16.3244881
| 31>     H       15.7557421   14.3521915   14.6190453
| 32>     H       17.0152325   19.9410745   14.1263455
| 33>     H       16.3766993   21.1947086   15.2019522
| 34>     H       15.4047726   19.7662667   14.8364480
| 35>     H       17.4793411   21.2246825   17.0316649
| 36>     H       19.1391671   18.2228592   19.1274019
| 37>     H       18.7341645   16.9368624   17.1027226
| 38>     H       18.4152032   14.7888070   18.0717979
| 39>     H       17.1712286   13.2210445   19.5487399
| 40>     H       15.1521891   14.0204745   20.7800844
| 41>     H       13.8647089   15.7398365   21.2212344
| 42>     H       15.6444282   17.9407319   19.0822611
| 43> *
| 44>
| 45>                          ****END OF INPUT****

CARTESIAN COORDINATES (ANGSTROEM)
---------------------------------
  C     14.517343   15.475276   15.983907
  C     15.867180   14.823058   15.604602
  O     16.961444   15.767969   15.550066
  C     16.750606   17.081788   15.248717
  O     16.271131   17.406954   14.176788
  C     17.056424   18.013894   16.392432
  C     17.025554   19.359452   16.207703
  C     16.426922   20.112000   15.037066
  N     17.586119   20.229353   17.145659
  C     18.382169   19.835451   18.186399
  S     19.105813   20.925280   19.198323
  N     18.568670   18.484634   18.333298
  C     17.870790   17.436503   17.564825
  C     17.110176   16.470607   18.463166
  C     17.538781   15.138636   18.611296
  C     16.834992   14.251126   19.442622
  C     15.698832   14.701957   20.136428
  C     15.277973   16.032143   20.000331
  O     14.182221   16.470428   20.669362
  C     15.980243   16.912838   19.171744
  H     14.596037   16.035311   16.922220
  H     13.751899   14.701909   16.119959
  H     14.163687   16.153133   15.196900
  H     16.109117   14.030756   16.324488
  H     15.755742   14.352191   14.619045
  H     17.015232   19.941074   14.126345
  H     16.376699   21.194709   15.201952
  H     15.404773   19.766267   14.836448
  H     17.479341   21.224683   17.031665
  H     19.139167   18.222859   19.127402
  H     18.734164   16.936862   17.102723
  H     18.415203   14.788807   18.071798
  H     17.171229   13.221044   19.548740
  H     15.152189   14.020475   20.780084
  H     13.864709   15.739836   21.221234
  H     15.644428   17.940732   19.082261

 Total Charge           Charge          ....    0
 Multiplicity           Mult            ....    1
 Number of Electrons    NEL             ....  154
 Basis Dimension        Dim             ....  828

ORBITAL ENERGIES
----------------

  NO   OCC          E(Eh)            E(eV)
   0   2.0000     -91.890582     -2500.4699
   1   2.0000     -20.600618      -560.5713
   2   2.0000     -20.582815      -560.0869
   3   2.0000     -20.543599      -559.0197
   4   2.0000     -15.630955      -425.3399
   5   2.0000     -15.608544      -424.7301
   6   2.0000     -11.392831      -310.0147
   7   2.0000     -11.384963      -309.8006
   8   2.0000     -11.339214      -308.5557
   9   2.0000     -11.318103      -307.9812
  10   2.0000     -11.309817      -307.7558
  11   2.0000     -11.298796      -307.4559
  12   2.0000     -11.264691      -306.5278
  13   2.0000     -11.259673      -306.3913
  14   2.0000     -11.259058      -306.3745
  15   2.0000     -11.252824      -306.2049
  16   2.0000     -11.248232      -306.0800
  17   2.0000     -11.242927      -305.9356
  18   2.0000     -11.242761      -305.9311
  19   2.0000     -11.224526      -305.4349
  20   2.0000      -8.895635      -242.0625
  21   2.0000      -6.577201      -178.9748
  22   2.0000      -6.575209      -178.9205
  23   2.0000      -6.574612      -178.9043
  24   2.0000      -1.444031       -39.2941
  25   2.0000      -1.420357       -38.6499
  26   2.0000      -1.350089       -36.7378
  27   2.0000      -1.342275       -36.5252
  28   2.0000      -1.240228       -33.7483
  29   2.0000      -1.161530       -31.6068
  30   2.0000      -1.122225       -30.5373
  31   2.0000      -1.045900       -28.4604
  32   2.0000      -1.031385       -28.0654
  33   2.0000      -1.019522       -27.7426
  34   2.0000      -0.998966       -27.1833
  35   2.0000      -0.986963       -26.8566
  36   2.0000      -0.924205       -25.1489
  37   2.0000      -0.896543       -24.3962
  38   2.0000      -0.848599       -23.0915
  39   2.0000      -0.841944       -22.9105
  40   2.0000      -0.838567       -22.8186
  41   2.0000      -0.817607       -22.2482
  42   2.0000      -0.745663       -20.2905
  43   2.0000      -0.736095       -20.0302
  44   2.0000      -0.721868       -19.6430
  45   2.0000      -0.699056       -19.0223
  46   2.0000      -0.690276       -18.7834
  47   2.0000      -0.674280       -18.3481
  48   2.0000      -0.672222       -18.2921
  49   2.0000      -0.660739       -17.9796
  50   2.0000      -0.649975       -17.6867
  51   2.0000      -0.641622       -17.4594
  52   2.0000      -0.636845       -17.3294
  53   2.0000      -0.622983       -16.9522
  54   2.0000      -0.610842       -16.6219
  55   2.0000      -0.603486       -16.4217
  56   2.0000      -0.601663       -16.3721
  57   2.0000      -0.580361       -15.7924
  58   2.0000      -0.570717       -15.5300
  59   2.0000      -0.566639       -15.4190
  60   2.0000      -0.547066       -14.8864
  61   2.0000      -0.546121       -14.8607
  62   2.0000      -0.534440       -14.5429
  63   2.0000      -0.530072       -14.4240
  64   2.0000      -0.526989       -14.3401
  65   2.0000      -0.515027       -14.0146
  66   2.0000      -0.501907       -13.6576
  67   2.0000      -0.496101       -13.4996
  68   2.0000      -0.483724       -13.1628
  69   2.0000      -0.464130       -12.6296
  70   2.0000      -0.454549       -12.3689
  71   2.0000      -0.442988       -12.0543
  72   2.0000      -0.354137        -9.6366
  73   2.0000      -0.353466        -9.6183
  74   2.0000      -0.329886        -8.9767
  75   2.0000      -0.325672        -8.8620
  76   2.0000      -0.320076        -8.7097
  77   0.0000       0.071672         1.9503
  78   0.0000       0.099863         2.7174
  79   0.0000       0.122650         3.3375
  80   0.0000       0.129777         3.5314
  81   0.0000       0.133363         3.6290

MULLIKEN ATOMIC CHARGES
-----------------------
   0 C :   -0.332946
   1 C :    0.031766
   2 O :   -0.388973
   3 C :    0.496302
   4 O :   -0.421554
   5 C :   -0.267620
   6 C :    0.170230
   7 C :   -0.267504
   8 N :   -0.125796
   9 C :    0.208449
  10 S :   -0.438823
  11 N :   -0.213211
  12 C :    0.061689
  13 C :    0.030813
  14 C :   -0.190069
  15 C :   -0.129471
  16 C :   -0.274874
  17 C :    0.323310
  18 O :   -0.358990
  19 C :   -0.266808
  20 H :    0.110525
  21 H :    0.107031
  22 H :    0.120665
  23 H :    0.112159
  24 H :    0.120278
  25 H :    0.132707
  26 H :    0.094593
  27 H :    0.131347
  28 H :    0.200103
  29 H :    0.200413
  30 H :    0.153875
  31 H :    0.160799
  32 H :    0.166328
  33 H :    0.133382
  34 H :    0.241053
  35 H :    0.168822
Sum of atomic charges:    0.0000000

LOEWDIN ATOMIC CHARGES
----------------------
   0 C :    0.106043
   1 C :   -0.013303
   2 O :    0.288428
   3 C :   -0.422196
   4 O :    0.109309
   5 C :   -0.101076
   6 C :   -0.053990
   7 C :    0.131506
   8 N :    0.407812
   9 C :   -0.457563
  10 S :   -0.034191
  11 N :    0.395008
  12 C :   -0.054083
  13 C :   -0.041057
  14 C :    0.020917
  15 C :    0.039641
  16 C :   -0.000647
  17 C :   -0.191069
  18 O :    0.396168
  19 C :    0.033505
  20 H :   -0.030794
  21 H :   -0.023580
  22 H :   -0.026103
  23 H :   -0.027402
  24 H :   -0.028525
  25 H :   -0.004032
  26 H :   -0.023505
  27 H :   -0.004876
  28 H :   -0.056790
  29 H :   -0.063979
  30 H :   -0.011792
  31 H :   -0.026988
  32 H :   -0.020479
  33 H :   -0.034584
  34 H :   -0.153118
  35 H :   -0.022617

  Mayer bond orders larger than 0.100000
B(  0-C ,  1-C ) :   0.9535 B(  0-C , 20-H ) :   0.9697 B(  0-C , 21-H ) :   0.9774
B(  0-C , 22-H ) :   0.9728 B(  1-C ,  2-O ) :   0.8900 B(  1-C , 23-H ) :   0.9768
B(  1-C , 24-H ) :   0.9871 B(  2-O ,  3-C ) :   1.1058 B(  3-C ,  4-O ) :   2.0015
B(  3-C ,  5-C ) :   1.0649 B(  5-C ,  6-C ) :   1.6325 B(  5-C , 12-C ) :   0.9549
B(  6-C ,  7-C ) :   0.9663 B(  6-C ,  8-N ) :   1.1548 B(  7-C , 25-H ) :   0.9568
B(  7-C , 26-H ) :   0.9895 B(  7-C , 27-H ) :   0.9630 B(  8-N ,  9-C ) :   1.1852
B(  8-N , 28-H ) :   0.9465 B(  9-C , 10-S ) :   1.6111 B(  9-C , 11-N ) :   1.3070
B( 11-N , 12-C ) :   0.9702 B( 11-N , 29-H ) :   0.9487 B( 12-C , 13-C ) :   0.9595
B( 12-C , 30-H ) :   1.0019 B( 13-C , 14-C ) :   1.3480 B( 13-C , 19-C ) :   1.3703
B( 14-C , 15-C ) :   1.3865 B( 14-C , 31-H ) :   0.9705 B( 15-C , 16-C ) :   1.3601
B( 15-C , 32-H ) :   0.9691 B( 16-C , 17-C ) :   1.3326 B( 16-C , 33-H ) :   0.9837
B( 17-C , 18-O ) :   1.1045 B( 17-C , 19-C ) :   1.3581 B( 18-O , 34-H ) :   0.9794
B( 19-C , 35-H ) :   0.9616

MP2 TOTAL ENERGY:    -1274.329243898 Eh
FINAL SINGLE POINT ENERGY     -1274.329243897503

DIPOLE MOMENT
-------------
                                X             Y             Z
Electronic contribution:      9.34359       9.04702       6.33289
Nuclear contribution   :    -10.40176     -10.71238      -6.29547
                        -----------------------------------------
Total Dipole Moment    :     -1.05816      -1.66536       0.03742
                        -----------------------------------------
Magnitude (a.u.)       :      1.97346
Magnitude (Debye)      :      5.01614

Rotational constants in cm-1:     0.012373     0.008874     0.006241
Rotational constants in MHz :   370.924839   266.035199   187.085612

                             ****ORCA TERMINATED NORMALLY****
TOTAL RUN TIME: 0 days 2 hours 1 minutes 25 seconds 623 msec
