                         Program Version 4.2.0 -  RELEASE  -
|  1> ! ri-mp2 cc-pvtz cc-pvtz/c TightSCF NoKeepInts
|  2>
|  3> %scf
|  4>   MaxCore 4096
|  5> end
|  6> *xyz  0  1
|  7>     C       14.4678466   15.4783952   15.9076113
|  8>     C       15.8588479   14.8392640   15.6868239
|  9>     O       16.9280316   15.8052162   15.5393828
| 10>     C       16.6868782   17.1214150   15.2685967
| 11>     O       16.1671731   17.4608872   14.2201447
| 12>     C       17.0417660   18.0401609   16.4084497
| 13>     C       17.0115827   19.3880105   16.2424927
| 14>     C       16.3831588   20.1577695   15.0990732
| 15>     N       17.6029845   20.2427394   17.1754499
| 16>     C       18.4184540   19.8306989   18.1940239
| 17>     S       19.1716672   20.9032640   19.2028775
| 18>     N       18.5982469   18.4769235   18.3214129
| 19>     C       17.8820916   17.4426995   17.5513827
| 20>     C       17.1376107   16.4641750   18.4493731
| 21>     C       17.6376682   15.1663294   18.6622367
| 22>     C       16.9482610   14.2631836   19.4888235
| 23>     C       15.7532773   14.6637611   20.1109424
| 24>     C       15.2601912   15.9604297   19.9096674
| 25>     O       14.1073557   16.3502917   20.5090947
| 26>     C       15.9489795   16.8572173   19.0871774
| 27>     H       14.4758598   16.1658280   16.7615806
| 28>     H       13.7251420   14.6985621   16.1144177
| 29>     H       14.1323067   16.0241401   15.0167907
| 30>     H       16.0897837   14.1710220   16.5260511
| 31>     H       15.8133386   14.2222266   14.7800258
| 32>     H       16.9384284   19.9877209   14.1676732
| 33>     H       16.3517821   21.2395540   15.2743285
| 34>     H       15.3508245   19.8256553   14.9300111
| 35>     H       17.5004548   21.2400786   17.0760540
| 36>     H       19.1825207   18.2021055   19.1008893
| 37>     H       18.7314727   16.9464527   17.0605179
| 38>     H       18.5594623   14.8547615   18.1777390
| 39>     H       17.3404797   13.2597293   19.6461326
| 40>     H       15.2171707   13.9698731   20.7502368
| 41>     H       13.8090522   15.6202314   21.0723590
| 42>     H       15.5568486   17.8592269   18.9481553
| 43> *
| 44>
| 45>                          ****END OF INPUT****

CARTESIAN COORDINATES (ANGSTROEM)
---------------------------------
  C     14.467847   15.478395   15.907611
  C     15.858848   14.839264   15.686824
  O     16.928032   15.805216   15.539383
  C     16.686878   17.121415   15.268597
  O     16.167173   17.460887   14.220145
  C     17.041766   18.040161   16.408450
  C     17.011583   19.388011   16.242493
  C     16.383159   20.157770   15.099073
  N     17.602985   20.242739   17.175450
  C     18.418454   19.830699   18.194024
  S     19.171667   20.903264   19.202877
  N     18.598247   18.476924   18.321413
  C     17.882092   17.442699   17.551383
  C     17.137611   16.464175   18.449373
  C     17.637668   15.166329   18.662237
  C     16.948261   14.263184   19.488823
  C     15.753277   14.663761   20.110942
  C     15.260191   15.960430   19.909667
  O     14.107356   16.350292   20.509095
  C     15.948979   16.857217   19.087177
  H     14.475860   16.165828   16.761581
  H     13.725142   14.698562   16.114418
  H     14.132307   16.024140   15.016791
  H     16.089784   14.171022   16.526051
  H     15.813339   14.222227   14.780026
  H     16.938428   19.987721   14.167673
  H     16.351782   21.239554   15.274328
  H     15.350824   19.825655   14.930011
  H     17.500455   21.240079   17.076054
  H     19.182521   18.202105   19.100889
  H     18.731473   16.946453   17.060518
  H     18.559462   14.854761   18.177739
  H     17.340480   13.259729   19.646133
  H     15.217171   13.969873   20.750237
  H     13.809052   15.620231   21.072359
  H     15.556849   17.859227   18.948155

 Total Charge           Charge          ....    0
 Multiplicity           Mult            ....    1
 Number of Electrons    NEL             ....  154
 Basis Dimension        Dim             ....  828

ORBITAL ENERGIES
----------------

  NO   OCC          E(Eh)            E(eV)
   0   2.0000     -91.890346     -2500.4634
   1   2.0000     -20.601546      -560.5966
   2   2.0000     -20.581890      -560.0617
   3   2.0000     -20.543438      -559.0154
   4   2.0000     -15.630739      -425.3340
   5   2.0000     -15.608401      -424.7262
   6   2.0000     -11.392690      -310.0109
   7   2.0000     -11.384833      -309.7971
   8   2.0000     -11.338851      -308.5458
   9   2.0000     -11.318995      -308.0055
  10   2.0000     -11.309557      -307.7487
  11   2.0000     -11.298330      -307.4432
  12   2.0000     -11.265329      -306.5452
  13   2.0000     -11.260376      -306.4104
  14   2.0000     -11.258593      -306.3619
  15   2.0000     -11.252660      -306.2005
  16   2.0000     -11.248896      -306.0980
  17   2.0000     -11.243596      -305.9538
  18   2.0000     -11.243419      -305.9490
  19   2.0000     -11.224954      -305.4465
  20   2.0000      -8.895403      -242.0562
  21   2.0000      -6.576971      -178.9685
  22   2.0000      -6.574977      -178.9142
  23   2.0000      -6.574382      -178.8980
  24   2.0000      -1.442448       -39.2510
  25   2.0000      -1.421243       -38.6740
  26   2.0000      -1.349569       -36.7236
  27   2.0000      -1.341993       -36.5175
  28   2.0000      -1.240030       -33.7429
  29   2.0000      -1.162217       -31.6255
  30   2.0000      -1.122153       -30.5353
  31   2.0000      -1.046325       -28.4720
  32   2.0000      -1.031108       -28.0579
  33   2.0000      -1.020281       -27.7633
  34   2.0000      -0.998895       -27.1813
  35   2.0000      -0.986759       -26.8511
  36   2.0000      -0.924295       -25.1514
  37   2.0000      -0.896304       -24.3897
  38   2.0000      -0.848696       -23.0942
  39   2.0000      -0.842350       -22.9215
  40   2.0000      -0.839051       -22.8317
  41   2.0000      -0.818449       -22.2711
  42   2.0000      -0.744725       -20.2650
  43   2.0000      -0.736090       -20.0300
  44   2.0000      -0.720516       -19.6062
  45   2.0000      -0.699864       -19.0443
  46   2.0000      -0.689933       -18.7740
  47   2.0000      -0.674584       -18.3564
  48   2.0000      -0.671773       -18.2799
  49   2.0000      -0.659478       -17.9453
  50   2.0000      -0.650894       -17.7117
  51   2.0000      -0.641849       -17.4656
  52   2.0000      -0.636742       -17.3266
  53   2.0000      -0.624556       -16.9950
  54   2.0000      -0.611694       -16.6450
  55   2.0000      -0.604098       -16.4383
  56   2.0000      -0.602063       -16.3830
  57   2.0000      -0.581025       -15.8105
  58   2.0000      -0.570852       -15.5337
  59   2.0000      -0.566804       -15.4235
  60   2.0000      -0.546418       -14.8688
  61   2.0000      -0.544785       -14.8243
  62   2.0000      -0.534923       -14.5560
  63   2.0000      -0.528177       -14.3724
  64   2.0000      -0.527458       -14.3529
  65   2.0000      -0.514970       -14.0130
  66   2.0000      -0.502285       -13.6679
  67   2.0000      -0.493623       -13.4322
  68   2.0000      -0.485917       -13.2225
  69   2.0000      -0.463727       -12.6186
  70   2.0000      -0.455090       -12.3836
  71   2.0000      -0.442000       -12.0274
  72   2.0000      -0.354652        -9.6506
  73   2.0000      -0.353615        -9.6224
  74   2.0000      -0.330003        -8.9798
  75   2.0000      -0.326161        -8.8753
  76   2.0000      -0.319893        -8.7047
  77   0.0000       0.072165         1.9637
  78   0.0000       0.099224         2.7000
  79   0.0000       0.122221         3.3258
  80   0.0000       0.129765         3.5311
  81   0.0000       0.132079         3.5941

MULLIKEN ATOMIC CHARGES
-----------------------
   0 C :   -0.331566
   1 C :    0.035820
   2 O :   -0.391420
   3 C :    0.506408
   4 O :   -0.421460
   5 C :   -0.291615
   6 C :    0.178853
   7 C :   -0.267778
   8 N :   -0.126316
   9 C :    0.211022
  10 S :   -0.439968
  11 N :   -0.215900
  12 C :    0.071345
  13 C :    0.052712
  14 C :   -0.195832
  15 C :   -0.127712
  16 C :   -0.275136
  17 C :    0.330883
  18 O :   -0.358563
  19 C :   -0.291651
  20 H :    0.105454
  21 H :    0.106816
  22 H :    0.124694
  23 H :    0.111235
  24 H :    0.117677
  25 H :    0.132571
  26 H :    0.094600
  27 H :    0.131420
  28 H :    0.199733
  29 H :    0.200974
  30 H :    0.152940
  31 H :    0.156154
  32 H :    0.166543
  33 H :    0.133611
  34 H :    0.241514
  35 H :    0.171943
Sum of atomic charges:    0.0000000

LOEWDIN ATOMIC CHARGES
----------------------
   0 C :    0.105288
   1 C :   -0.011228
   2 O :    0.286980
   3 C :   -0.421677
   4 O :    0.110547
   5 C :   -0.101715
   6 C :   -0.054560
   7 C :    0.131481
   8 N :    0.407739
   9 C :   -0.456600
  10 S :   -0.034854
  11 N :    0.394592
  12 C :   -0.054372
  13 C :   -0.039468
  14 C :    0.019545
  15 C :    0.039991
  16 C :   -0.000887
  17 C :   -0.190389
  18 O :    0.396169
  19 C :    0.034199
  20 H :   -0.031229
  21 H :   -0.023487
  22 H :   -0.025511
  23 H :   -0.028491
  24 H :   -0.028430
  25 H :   -0.004008
  26 H :   -0.023544
  27 H :   -0.004835
  28 H :   -0.056835
  29 H :   -0.064389
  30 H :   -0.011923
  31 H :   -0.027422
  32 H :   -0.020256
  33 H :   -0.034472
  34 H :   -0.152846
  35 H :   -0.023104

  Mayer bond orders larger than 0.100000
B(  0-C ,  1-C ) :   0.9565 B(  0-C , 20-H ) :   0.9717 B(  0-C , 21-H ) :   0.9765
B(  0-C , 22-H ) :   0.9720 B(  1-C ,  2-O ) :   0.8898 B(  1-C , 23-H ) :   0.9739
B(  1-C , 24-H ) :   0.9867 B(  2-O ,  3-C ) :   1.1000 B(  3-C ,  4-O ) :   1.9994
B(  3-C ,  5-C ) :   1.0672 B(  5-C ,  6-C ) :   1.6296 B(  5-C , 12-C ) :   0.9550
B(  6-C ,  7-C ) :   0.9659 B(  6-C ,  8-N ) :   1.1583 B(  7-C , 25-H ) :   0.9571
B(  7-C , 26-H ) :   0.9894 B(  7-C , 27-H ) :   0.9629 B(  8-N ,  9-C ) :   1.1852
B(  8-N , 28-H ) :   0.9465 B(  9-C , 10-S ) :   1.6078 B(  9-C , 11-N ) :   1.3094
B( 11-N , 12-C ) :   0.9657 B( 11-N , 29-H ) :   0.9486 B( 12-C , 13-C ) :   0.9620
B( 12-C , 30-H ) :   1.0013 B( 13-C , 14-C ) :   1.3452 B( 13-C , 19-C ) :   1.3614
B( 14-C , 15-C ) :   1.3885 B( 14-C , 31-H ) :   0.9733 B( 15-C , 16-C ) :   1.3574
B( 15-C , 32-H ) :   0.9691 B( 16-C , 17-C ) :   1.3335 B( 16-C , 33-H ) :   0.9837
B( 17-C , 18-O ) :   1.1040 B( 17-C , 19-C ) :   1.3537 B( 18-O , 34-H ) :   0.9793
B( 19-C , 35-H ) :   0.9603

MP2 TOTAL ENERGY:    -1274.328591979 Eh
FINAL SINGLE POINT ENERGY     -1274.328591978752

DIPOLE MOMENT
-------------
                                X             Y             Z
Electronic contribution:      9.38873       8.99234       6.23441
Nuclear contribution   :    -10.43372     -10.65923      -6.14284
                        -----------------------------------------
Total Dipole Moment    :     -1.04498      -1.66689       0.09157
                        -----------------------------------------
Magnitude (a.u.)       :      1.96949
Magnitude (Debye)      :      5.00606

Rotational constants in cm-1:     0.012527     0.008758     0.006268
Rotational constants in MHz :   375.541034   262.561305   187.900129

                             ****ORCA TERMINATED NORMALLY****
TOTAL RUN TIME: 0 days 2 hours 7 minutes 4 seconds 437 msec
