                         Program Version 4.2.0 -  RELEASE  -
|  1> ! ri-mp2 cc-pvtz cc-pvtz/c TightSCF NoKeepInts
|  2>
|  3> %scf
|  4>   MaxCore 4096
|  5> end
|  6> *xyz  0  1
|  7>     C       15.4536953   13.9398298   15.3012713
|  8>     C       14.9849547   15.4036765   15.2548408
|  9>     O       16.1047384   16.2285404   15.6121065
| 10>     C       15.9559172   17.5842138   15.5509305
| 11>     O       15.1765821   18.1104344   14.7746848
| 12>     C       16.7598102   18.3069327   16.5982353
| 13>     C       16.9281887   19.6530503   16.5384526
| 14>     C       16.1836280   20.6306961   15.6527445
| 15>     N       17.8787924   20.2956930   17.3348725
| 16>     C       18.8299675   19.6503902   18.0777409
| 17>     S       19.9882467   20.4738960   18.9239119
| 18>     N       18.7870439   18.2792651   18.0664968
| 19>     C       17.7347878   17.4610126   17.4348256
| 20>     C       17.0578164   16.5172300   18.4201065
| 21>     C       17.3372635   15.1385406   18.3963667
| 22>     C       16.7127226   14.2680936   19.3054796
| 23>     C       15.8047504   14.7817803   20.2473632
| 24>     C       15.5294759   16.1560616   20.2763346
| 25>     O       14.6548358   16.6548358   21.1858424
| 26>     C       16.1525899   17.0197690   19.3701231
| 27>     H       15.7763059   13.6697679   16.3141447
| 28>     H       16.2935143   13.7803791   14.6136676
| 29>     H       14.6384107   13.2663975   15.0104322
| 30>     H       14.6376443   15.6453068   14.2408373
| 31>     H       14.1552260   15.5599511   15.9571457
| 32>     H       15.0992223   20.5165310   15.7783006
| 33>     H       16.4123066   20.4465435   14.5952660
| 34>     H       16.4280063   21.6777856   15.8669355
| 35>     H       17.9353814   21.3015782   17.3339393
| 36>     H       19.4817493   17.8316316   18.6507909
| 37>     H       18.3353031   16.8952901   16.7082904
| 38>     H       18.0349938   14.7403075   17.6644601
| 39>     H       16.9328685   13.2023172   19.2785805
| 40>     H       15.3202103   14.1138171   20.9518872
| 41>     H       14.3568764   15.9170861   21.7388597
| 42>     H       15.9331733   18.0813679   19.4117320
| 43> *
| 44>
| 45>                          ****END OF INPUT****

CARTESIAN COORDINATES (ANGSTROEM)
---------------------------------
  C     15.453695   13.939830   15.301271
  C     14.984955   15.403676   15.254841
  O     16.104738   16.228540   15.612106
  C     15.955917   17.584214   15.550930
  O     15.176582   18.110434   14.774685
  C     16.759810   18.306933   16.598235
  C     16.928189   19.653050   16.538453
  C     16.183628   20.630696   15.652744
  N     17.878792   20.295693   17.334872
  C     18.829967   19.650390   18.077741
  S     19.988247   20.473896   18.923912
  N     18.787044   18.279265   18.066497
  C     17.734788   17.461013   17.434826
  C     17.057816   16.517230   18.420106
  C     17.337263   15.138541   18.396367
  C     16.712723   14.268094   19.305480
  C     15.804750   14.781780   20.247363
  C     15.529476   16.156062   20.276335
  O     14.654836   16.654836   21.185842
  C     16.152590   17.019769   19.370123
  H     15.776306   13.669768   16.314145
  H     16.293514   13.780379   14.613668
  H     14.638411   13.266398   15.010432
  H     14.637644   15.645307   14.240837
  H     14.155226   15.559951   15.957146
  H     15.099222   20.516531   15.778301
  H     16.412307   20.446543   14.595266
  H     16.428006   21.677786   15.866936
  H     17.935381   21.301578   17.333939
  H     19.481749   17.831632   18.650791
  H     18.335303   16.895290   16.708290
  H     18.034994   14.740307   17.664460
  H     16.932869   13.202317   19.278580
  H     15.320210   14.113817   20.951887
  H     14.356876   15.917086   21.738860
  H     15.933173   18.081368   19.411732

 Total Charge           Charge          ....    0
 Multiplicity           Mult            ....    1
 Number of Electrons    NEL             ....  154
 Basis Dimension        Dim             ....  828

ORBITAL ENERGIES
----------------

  NO   OCC          E(Eh)            E(eV)
   0   2.0000     -91.889343     -2500.4362
   1   2.0000     -20.597818      -560.4951
   2   2.0000     -20.597061      -560.4745
   3   2.0000     -20.541837      -558.9718
   4   2.0000     -15.629748      -425.3071
   5   2.0000     -15.607488      -424.7013
   6   2.0000     -11.393202      -310.0248
   7   2.0000     -11.384009      -309.7746
   8   2.0000     -11.337873      -308.5192
   9   2.0000     -11.315138      -307.9006
  10   2.0000     -11.308162      -307.7107
  11   2.0000     -11.294967      -307.3517
  12   2.0000     -11.262056      -306.4561
  13   2.0000     -11.258815      -306.3679
  14   2.0000     -11.256625      -306.3083
  15   2.0000     -11.251936      -306.1807
  16   2.0000     -11.245048      -305.9933
  17   2.0000     -11.240179      -305.8608
  18   2.0000     -11.239878      -305.8526
  19   2.0000     -11.228659      -305.5473
  20   2.0000      -8.894407      -242.0291
  21   2.0000      -6.575978      -178.9415
  22   2.0000      -6.573982      -178.8871
  23   2.0000      -6.573390      -178.8710
  24   2.0000      -1.451525       -39.4980
  25   2.0000      -1.417484       -38.5717
  26   2.0000      -1.353814       -36.8392
  27   2.0000      -1.340843       -36.4862
  28   2.0000      -1.238775       -33.7088
  29   2.0000      -1.158878       -31.5347
  30   2.0000      -1.121659       -30.5219
  31   2.0000      -1.043937       -28.4070
  32   2.0000      -1.038951       -28.2713
  33   2.0000      -1.016552       -27.6618
  34   2.0000      -0.996830       -27.1251
  35   2.0000      -0.985244       -26.8099
  36   2.0000      -0.922546       -25.1037
  37   2.0000      -0.885714       -24.1015
  38   2.0000      -0.846812       -23.0429
  39   2.0000      -0.838826       -22.8256
  40   2.0000      -0.835371       -22.7316
  41   2.0000      -0.818992       -22.2859
  42   2.0000      -0.764896       -20.8139
  43   2.0000      -0.734551       -19.9882
  44   2.0000      -0.721181       -19.6243
  45   2.0000      -0.696552       -18.9542
  46   2.0000      -0.686042       -18.6681
  47   2.0000      -0.679088       -18.4789
  48   2.0000      -0.677353       -18.4317
  49   2.0000      -0.663235       -18.0476
  50   2.0000      -0.647361       -17.6156
  51   2.0000      -0.641508       -17.4563
  52   2.0000      -0.634706       -17.2712
  53   2.0000      -0.608307       -16.5529
  54   2.0000      -0.602460       -16.3938
  55   2.0000      -0.600993       -16.3538
  56   2.0000      -0.598839       -16.2952
  57   2.0000      -0.578249       -15.7349
  58   2.0000      -0.570286       -15.5183
  59   2.0000      -0.565869       -15.3981
  60   2.0000      -0.558554       -15.1990
  61   2.0000      -0.546298       -14.8655
  62   2.0000      -0.541302       -14.7296
  63   2.0000      -0.525347       -14.2954
  64   2.0000      -0.518768       -14.1164
  65   2.0000      -0.513438       -13.9714
  66   2.0000      -0.506659       -13.7869
  67   2.0000      -0.498581       -13.5671
  68   2.0000      -0.485563       -13.2128
  69   2.0000      -0.464906       -12.6507
  70   2.0000      -0.457650       -12.4533
  71   2.0000      -0.445813       -12.1312
  72   2.0000      -0.353559        -9.6208
  73   2.0000      -0.351037        -9.5522
  74   2.0000      -0.328549        -8.9403
  75   2.0000      -0.322320        -8.7708
  76   2.0000      -0.318672        -8.6715
  77   0.0000       0.075559         2.0561
  78   0.0000       0.102687         2.7943
  79   0.0000       0.124842         3.3971
  80   0.0000       0.132142         3.5958
  81   0.0000       0.136401         3.7117

MULLIKEN ATOMIC CHARGES
-----------------------
   0 C :   -0.278172
   1 C :    0.039990
   2 O :   -0.347661
   3 C :    0.436917
   4 O :   -0.428714
   5 C :   -0.241773
   6 C :    0.178489
   7 C :   -0.267221
   8 N :   -0.126680
   9 C :    0.211595
  10 S :   -0.441380
  11 N :   -0.216561
  12 C :    0.066025
  13 C :    0.048508
  14 C :   -0.199947
  15 C :   -0.125707
  16 C :   -0.279422
  17 C :    0.317132
  18 O :   -0.356598
  19 C :   -0.250547
  20 H :    0.095290
  21 H :    0.097082
  22 H :    0.097406
  23 H :    0.114135
  24 H :    0.088652
  25 H :    0.133599
  26 H :    0.129528
  27 H :    0.094614
  28 H :    0.199747
  29 H :    0.200840
  30 H :    0.151870
  31 H :    0.158447
  32 H :    0.165201
  33 H :    0.131180
  34 H :    0.240826
  35 H :    0.163309
Sum of atomic charges:   -0.0000000

LOEWDIN ATOMIC CHARGES
----------------------
   0 C :    0.107446
   1 C :   -0.017627
   2 O :    0.306545
   3 C :   -0.415754
   4 O :    0.099152
   5 C :   -0.096969
   6 C :   -0.055689
   7 C :    0.131470
   8 N :    0.407378
   9 C :   -0.456069
  10 S :   -0.035967
  11 N :    0.394403
  12 C :   -0.054578
  13 C :   -0.039092
  14 C :    0.017428
  15 C :    0.039136
  16 C :   -0.000826
  17 C :   -0.189673
  18 O :    0.395236
  19 C :    0.033146
  20 H :   -0.029810
  21 H :   -0.027169
  22 H :   -0.024760
  23 H :   -0.027787
  24 H :   -0.029884
  25 H :   -0.004173
  26 H :   -0.004736
  27 H :   -0.023608
  28 H :   -0.057055
  29 H :   -0.064521
  30 H :   -0.013283
  31 H :   -0.029161
  32 H :   -0.021358
  33 H :   -0.035166
  34 H :   -0.153775
  35 H :   -0.022850

  Mayer bond orders larger than 0.100000
B(  0-C ,  1-C ) :   0.9727 B(  0-C , 20-H ) :   0.9755 B(  0-C , 21-H ) :   0.9768
B(  0-C , 22-H ) :   0.9788 B(  1-C ,  2-O ) :   0.8982 B(  1-C , 23-H ) :   0.9810
B(  1-C , 24-H ) :   0.9725 B(  2-O ,  3-C ) :   1.1548 B(  3-C ,  4-O ) :   1.9803
B(  3-C ,  5-C ) :   1.0654 B(  5-C ,  6-C ) :   1.6329 B(  5-C , 12-C ) :   0.9571
B(  6-C ,  7-C ) :   0.9655 B(  6-C ,  8-N ) :   1.1551 B(  7-C , 25-H ) :   0.9609
B(  7-C , 26-H ) :   0.9587 B(  7-C , 27-H ) :   0.9905 B(  8-N ,  9-C ) :   1.1869
B(  8-N , 28-H ) :   0.9464 B(  9-C , 10-S ) :   1.6055 B(  9-C , 11-N ) :   1.3103
B( 11-N , 12-C ) :   0.9653 B( 11-N , 29-H ) :   0.9484 B( 12-C , 13-C ) :   0.9631
B( 12-C , 30-H ) :   1.0014 B( 13-C , 14-C ) :   1.3514 B( 13-C , 19-C ) :   1.3781
B( 14-C , 15-C ) :   1.3854 B( 14-C , 31-H ) :   0.9697 B( 15-C , 16-C ) :   1.3615
B( 15-C , 32-H ) :   0.9690 B( 16-C , 17-C ) :   1.3326 B( 16-C , 33-H ) :   0.9846
B( 17-C , 18-O ) :   1.1047 B( 17-C , 19-C ) :   1.3656 B( 18-O , 34-H ) :   0.9796
B( 19-C , 35-H ) :   0.9597

MP2 TOTAL ENERGY:    -1274.341883853 Eh
FINAL SINGLE POINT ENERGY     -1274.341883853027

DIPOLE MOMENT
-------------
                                X             Y             Z
Electronic contribution:      8.46612      11.31103       7.77278
Nuclear contribution   :     -9.60503     -12.92056      -8.02285
                        -----------------------------------------
Total Dipole Moment    :     -1.13891      -1.60954      -0.25007
                        -----------------------------------------
Magnitude (a.u.)       :      1.98753
Magnitude (Debye)      :      5.05189

Rotational constants in cm-1:     0.011825     0.008309     0.005972
Rotational constants in MHz :   354.510620   249.088232   179.021067

                             ****ORCA TERMINATED NORMALLY****
TOTAL RUN TIME: 0 days 1 hours 41 minutes 8 seconds 73 msec
