                         Program Version 4.2.0 -  RELEASE  -
|  1> ! ri-mp2 cc-pvtz cc-pvtz/c TightSCF NoKeepInts
|  2>
|  3> %scf
|  4>   MaxCore 4096
|  5> end
|  6> *xyz  0  1
|  7>     C       14.9458807   14.7692128   14.1625999
|  8>     C       15.1248648   15.1613555   15.6414632
|  9>     O       16.2309299   16.0740254   15.7470781
| 10>     C       15.9933298   17.4173340   15.6748996
| 11>     O       15.1559064   17.8864762   14.9235900
| 12>     C       16.7659377   18.1982703   16.7039309
| 13>     C       16.8523251   19.5512985   16.6285495
| 14>     C       16.0420649   20.4724324   15.7399495
| 15>     N       17.7710280   20.2583435   17.4076750
| 16>     C       18.7669618   19.6793042   18.1465429
| 17>     S       19.8818419   20.5798009   18.9722583
| 18>     N       18.8064588   18.3079963   18.1498454
| 19>     C       17.7989629   17.4212771   17.5377697
| 20>     C       17.1865384   16.4505123   18.5392625
| 21>     C       17.5019956   15.0799863   18.4930442
| 22>     C       16.9326190   14.1853316   19.4147617
| 23>     C       16.0439914   14.6662415   20.3918086
| 24>     C       15.7324226   16.0321205   20.4426448
| 25>     O       14.8756371   16.4991389   21.3853338
| 26>     C       16.2999020   16.9198140   19.5231518
| 27>     H       14.6755297   15.6421338   13.5552917
| 28>     H       14.1490926   14.0232095   14.0571896
| 29>     H       15.8725730   14.3419908   13.7601952
| 30>     H       14.2035897   15.6079828   16.0403524
| 31>     H       15.3461011   14.2580081   16.2244195
| 32>     H       14.9675555   20.3036120   15.8872070
| 33>     H       16.2615839   20.2812492   14.6817679
| 34>     H       16.2347455   21.5346334   15.9311877
| 35>     H       17.7668880   21.2657557   17.3959696
| 36>     H       19.5336760   17.9092624   18.7300328
| 37>     H       18.4250706   16.8843538   16.8109446
| 38>     H       18.1851624   14.7070346   17.7344146
| 39>     H       17.1811407   13.1262872   19.3711544
| 40>     H       15.6026060   13.9795563   21.1066961
| 41>     H       14.6199873   15.7501378   21.9444201
| 42>     H       16.0520992   17.9745203   19.5805974
| 43> *
| 44>
| 45>                          ****END OF INPUT****

CARTESIAN COORDINATES (ANGSTROEM)
---------------------------------
  C     14.945881   14.769213   14.162600
  C     15.124865   15.161355   15.641463
  O     16.230930   16.074025   15.747078
  C     15.993330   17.417334   15.674900
  O     15.155906   17.886476   14.923590
  C     16.765938   18.198270   16.703931
  C     16.852325   19.551299   16.628549
  C     16.042065   20.472432   15.739949
  N     17.771028   20.258343   17.407675
  C     18.766962   19.679304   18.146543
  S     19.881842   20.579801   18.972258
  N     18.806459   18.307996   18.149845
  C     17.798963   17.421277   17.537770
  C     17.186538   16.450512   18.539262
  C     17.501996   15.079986   18.493044
  C     16.932619   14.185332   19.414762
  C     16.043991   14.666241   20.391809
  C     15.732423   16.032121   20.442645
  O     14.875637   16.499139   21.385334
  C     16.299902   16.919814   19.523152
  H     14.675530   15.642134   13.555292
  H     14.149093   14.023210   14.057190
  H     15.872573   14.341991   13.760195
  H     14.203590   15.607983   16.040352
  H     15.346101   14.258008   16.224419
  H     14.967555   20.303612   15.887207
  H     16.261584   20.281249   14.681768
  H     16.234745   21.534633   15.931188
  H     17.766888   21.265756   17.395970
  H     19.533676   17.909262   18.730033
  H     18.425071   16.884354   16.810945
  H     18.185162   14.707035   17.734415
  H     17.181141   13.126287   19.371154
  H     15.602606   13.979556   21.106696
  H     14.619987   15.750138   21.944420
  H     16.052099   17.974520   19.580597

 Total Charge           Charge          ....    0
 Multiplicity           Mult            ....    1
 Number of Electrons    NEL             ....  154
 Basis Dimension        Dim             ....  828

ORBITAL ENERGIES
----------------

  NO   OCC          E(Eh)            E(eV)
   0   2.0000     -91.889596     -2500.4430
   1   2.0000     -20.597896      -560.4972
   2   2.0000     -20.593335      -560.3731
   3   2.0000     -20.543984      -559.0302
   4   2.0000     -15.630109      -425.3169
   5   2.0000     -15.607628      -424.7051
   6   2.0000     -11.394790      -310.0680
   7   2.0000     -11.384241      -309.7810
   8   2.0000     -11.338204      -308.5282
   9   2.0000     -11.315247      -307.9035
  10   2.0000     -11.308166      -307.7108
  11   2.0000     -11.297170      -307.4116
  12   2.0000     -11.262176      -306.4594
  13   2.0000     -11.258771      -306.3667
  14   2.0000     -11.256686      -306.3100
  15   2.0000     -11.252528      -306.1968
  16   2.0000     -11.245003      -305.9921
  17   2.0000     -11.240328      -305.8649
  18   2.0000     -11.240012      -305.8563
  19   2.0000     -11.219535      -305.2991
  20   2.0000      -8.894659      -242.0360
  21   2.0000      -6.576229      -178.9483
  22   2.0000      -6.574233      -178.8940
  23   2.0000      -6.573640      -178.8778
  24   2.0000      -1.450205       -39.4621
  25   2.0000      -1.417559       -38.5737
  26   2.0000      -1.354709       -36.8635
  27   2.0000      -1.341110       -36.4935
  28   2.0000      -1.238948       -33.7135
  29   2.0000      -1.158897       -31.5352
  30   2.0000      -1.121734       -30.5239
  31   2.0000      -1.043874       -28.4052
  32   2.0000      -1.034463       -28.1492
  33   2.0000      -1.016455       -27.6591
  34   2.0000      -0.996305       -27.1108
  35   2.0000      -0.984882       -26.8000
  36   2.0000      -0.922691       -25.1077
  37   2.0000      -0.887590       -24.1525
  38   2.0000      -0.847590       -23.0641
  39   2.0000      -0.839276       -22.8379
  40   2.0000      -0.835555       -22.7366
  41   2.0000      -0.821868       -22.3642
  42   2.0000      -0.758245       -20.6329
  43   2.0000      -0.734262       -19.9803
  44   2.0000      -0.722594       -19.6628
  45   2.0000      -0.696646       -18.9567
  46   2.0000      -0.689457       -18.7611
  47   2.0000      -0.679597       -18.4928
  48   2.0000      -0.671390       -18.2694
  49   2.0000      -0.651320       -17.7233
  50   2.0000      -0.647903       -17.6303
  51   2.0000      -0.644451       -17.5364
  52   2.0000      -0.632995       -17.2247
  53   2.0000      -0.608703       -16.5636
  54   2.0000      -0.605185       -16.4679
  55   2.0000      -0.600333       -16.3359
  56   2.0000      -0.599670       -16.3178
  57   2.0000      -0.580611       -15.7992
  58   2.0000      -0.573959       -15.6182
  59   2.0000      -0.570053       -15.5119
  60   2.0000      -0.564339       -15.3564
  61   2.0000      -0.541244       -14.7280
  62   2.0000      -0.535172       -14.5628
  63   2.0000      -0.525214       -14.2918
  64   2.0000      -0.517246       -14.0750
  65   2.0000      -0.513751       -13.9799
  66   2.0000      -0.500923       -13.6308
  67   2.0000      -0.497648       -13.5417
  68   2.0000      -0.487073       -13.2539
  69   2.0000      -0.464052       -12.6275
  70   2.0000      -0.454619       -12.3708
  71   2.0000      -0.445053       -12.1105
  72   2.0000      -0.353647        -9.6232
  73   2.0000      -0.351066        -9.5530
  74   2.0000      -0.328772        -8.9464
  75   2.0000      -0.322666        -8.7802
  76   2.0000      -0.318833        -8.6759
  77   0.0000       0.074246         2.0203
  78   0.0000       0.103334         2.8119
  79   0.0000       0.124958         3.4003
  80   0.0000       0.131959         3.5908
  81   0.0000       0.136438         3.7127

MULLIKEN ATOMIC CHARGES
-----------------------
   0 C :   -0.277248
   1 C :    0.040019
   2 O :   -0.360340
   3 C :    0.433998
   4 O :   -0.428527
   5 C :   -0.225687
   6 C :    0.177230
   7 C :   -0.267881
   8 N :   -0.125908
   9 C :    0.210604
  10 S :   -0.440699
  11 N :   -0.216164
  12 C :    0.067887
  13 C :    0.038560
  14 C :   -0.188186
  15 C :   -0.130406
  16 C :   -0.277614
  17 C :    0.316518
  18 O :   -0.356448
  19 C :   -0.249028
  20 H :    0.117337
  21 H :    0.089508
  22 H :    0.089591
  23 H :    0.091162
  24 H :    0.107655
  25 H :    0.133733
  26 H :    0.129158
  27 H :    0.095018
  28 H :    0.199743
  29 H :    0.200671
  30 H :    0.152924
  31 H :    0.154741
  32 H :    0.162903
  33 H :    0.130992
  34 H :    0.240825
  35 H :    0.163361
Sum of atomic charges:   -0.0000000

LOEWDIN ATOMIC CHARGES
----------------------
   0 C :    0.104706
   1 C :   -0.016813
   2 O :    0.303837
   3 C :   -0.416336
   4 O :    0.103555
   5 C :   -0.097061
   6 C :   -0.055350
   7 C :    0.131497
   8 N :    0.407407
   9 C :   -0.456381
  10 S :   -0.035573
  11 N :    0.394506
  12 C :   -0.054570
  13 C :   -0.039318
  14 C :    0.017738
  15 C :    0.038527
  16 C :   -0.001000
  17 C :   -0.189773
  18 O :    0.395239
  19 C :    0.032647
  20 H :   -0.024701
  21 H :   -0.029685
  22 H :   -0.029690
  23 H :   -0.028607
  24 H :   -0.026538
  25 H :   -0.004300
  26 H :   -0.004783
  27 H :   -0.023485
  28 H :   -0.057056
  29 H :   -0.064371
  30 H :   -0.012977
  31 H :   -0.028558
  32 H :   -0.021129
  33 H :   -0.035242
  34 H :   -0.153703
  35 H :   -0.022661

  Mayer bond orders larger than 0.100000
B(  0-C ,  1-C ) :   0.9778 B(  0-C , 20-H ) :   0.9742 B(  0-C , 21-H ) :   0.9774
B(  0-C , 22-H ) :   0.9768 B(  1-C ,  2-O ) :   0.8899 B(  1-C , 23-H ) :   0.9732
B(  1-C , 24-H ) :   0.9794 B(  2-O ,  3-C ) :   1.1274 B(  3-C ,  4-O ) :   1.9686
B(  3-C ,  5-C ) :   1.0761 B(  5-C ,  6-C ) :   1.6308 B(  5-C , 12-C ) :   0.9543
B(  6-C ,  7-C ) :   0.9659 B(  6-C ,  8-N ) :   1.1545 B(  7-C , 25-H ) :   0.9608
B(  7-C , 26-H ) :   0.9587 B(  7-C , 27-H ) :   0.9907 B(  8-N ,  9-C ) :   1.1863
B(  8-N , 28-H ) :   0.9462 B(  9-C , 10-S ) :   1.6072 B(  9-C , 11-N ) :   1.3094
B( 11-N , 12-C ) :   0.9666 B( 11-N , 29-H ) :   0.9483 B( 12-C , 13-C ) :   0.9612
B( 12-C , 30-H ) :   1.0013 B( 13-C , 14-C ) :   1.3513 B( 13-C , 19-C ) :   1.3793
B( 14-C , 15-C ) :   1.3904 B( 14-C , 31-H ) :   0.9715 B( 15-C , 16-C ) :   1.3596
B( 15-C , 32-H ) :   0.9701 B( 16-C , 17-C ) :   1.3335 B( 16-C , 33-H ) :   0.9847
B( 17-C , 18-O ) :   1.1050 B( 17-C , 19-C ) :   1.3647 B( 18-O , 34-H ) :   0.9796
B( 19-C , 35-H ) :   0.9597

MP2 TOTAL ENERGY:    -1274.337143110 Eh
FINAL SINGLE POINT ENERGY     -1274.337143109739

DIPOLE MOMENT
-------------
                                X             Y             Z
Electronic contribution:      9.50249       9.90390       9.96007
Nuclear contribution   :    -10.58930     -11.51094     -10.14179
                        -----------------------------------------
Total Dipole Moment    :     -1.08681      -1.60704      -0.18172
                        -----------------------------------------
Magnitude (a.u.)       :      1.94853
Magnitude (Debye)      :      4.95277

Rotational constants in cm-1:     0.011139     0.008633     0.005833
Rotational constants in MHz :   333.929161   258.799570   174.855428

                             ****ORCA TERMINATED NORMALLY****
TOTAL RUN TIME: 0 days 1 hours 47 minutes 41 seconds 757 msec
