                         Program Version 4.2.0 -  RELEASE  -
|  1> ! ri-mp2 cc-pvtz cc-pvtz/c TightSCF NoKeepInts
|  2>
|  3> %scf
|  4>   MaxCore 4096
|  5> end
|  6> *xyz  0  1
|  7>     C       15.2341097   14.0134300   15.3016476
|  8>     C       15.0271637   15.4333747   15.8533239
|  9>     O       16.2060818   16.1918722   15.5394519
| 10>     C       16.0704718   17.5437334   15.4413743
| 11>     O       15.3224216   18.0426718   14.6195205
| 12>     C       16.8055840   18.2922877   16.5213854
| 13>     C       16.9298151   19.6435213   16.4652947
| 14>     C       16.1825916   20.5951287   15.5538454
| 15>     N       17.8288840   20.3191717   17.2935726
| 16>     C       18.7791094   19.7078907   18.0657258
| 17>     S       19.8790681   20.5712582   18.9489748
| 18>     N       18.7868783   18.3362127   18.0519136
| 19>     C       17.7831513   17.4816499   17.3904129
| 20>     C       17.1148481   16.5121777   18.3559910
| 21>     C       17.4513038   15.1459438   18.3438813
| 22>     C       16.8256846   14.2495075   19.2264479
| 23>     C       15.8606809   14.7246642   20.1311291
| 24>     C       15.5302175   16.0868284   20.1503655
| 25>     O       14.5988180   16.5482140   21.0221496
| 26>     C       16.1524657   16.9761666   19.2686623
| 27>     H       14.3535151   13.3910391   15.5012793
| 28>     H       16.1043955   13.5398384   15.7723907
| 29>     H       15.3973615   14.0411126   14.2169415
| 30>     H       14.1429889   15.8730992   15.3710765
| 31>     H       14.8575007   15.4095996   16.9378192
| 32>     H       15.0995900   20.4347424   15.6315586
| 33>     H       16.4638866   20.4281190   14.5061462
| 34>     H       16.3728898   21.6500990   15.7837012
| 35>     H       17.8500338   21.3264879   17.2932733
| 36>     H       19.4811915   17.9135286   18.6550735
| 37>     H       18.4252950   16.9389432   16.6819362
| 38>     H       18.1928537   14.7768943   17.6400222
| 39>     H       17.0896895   13.1933718   19.2083056
| 40>     H       15.3757105   14.0363172   20.8156775
| 41>     H       14.3225791   15.8031131   21.5769261
| 42>     H       15.8881699   18.0279893   19.3008023
| 43> *
| 44>
| 45>                          ****END OF INPUT****

CARTESIAN COORDINATES (ANGSTROEM)
---------------------------------
  C     15.234110   14.013430   15.301648
  C     15.027164   15.433375   15.853324
  O     16.206082   16.191872   15.539452
  C     16.070472   17.543733   15.441374
  O     15.322422   18.042672   14.619521
  C     16.805584   18.292288   16.521385
  C     16.929815   19.643521   16.465295
  C     16.182592   20.595129   15.553845
  N     17.828884   20.319172   17.293573
  C     18.779109   19.707891   18.065726
  S     19.879068   20.571258   18.948975
  N     18.786878   18.336213   18.051914
  C     17.783151   17.481650   17.390413
  C     17.114848   16.512178   18.355991
  C     17.451304   15.145944   18.343881
  C     16.825685   14.249507   19.226448
  C     15.860681   14.724664   20.131129
  C     15.530217   16.086828   20.150365
  O     14.598818   16.548214   21.022150
  C     16.152466   16.976167   19.268662
  H     14.353515   13.391039   15.501279
  H     16.104395   13.539838   15.772391
  H     15.397362   14.041113   14.216941
  H     14.142989   15.873099   15.371076
  H     14.857501   15.409600   16.937819
  H     15.099590   20.434742   15.631559
  H     16.463887   20.428119   14.506146
  H     16.372890   21.650099   15.783701
  H     17.850034   21.326488   17.293273
  H     19.481192   17.913529   18.655074
  H     18.425295   16.938943   16.681936
  H     18.192854   14.776894   17.640022
  H     17.089689   13.193372   19.208306
  H     15.375710   14.036317   20.815677
  H     14.322579   15.803113   21.576926
  H     15.888170   18.027989   19.300802

 Total Charge           Charge          ....    0
 Multiplicity           Mult            ....    1
 Number of Electrons    NEL             ....  154
 Basis Dimension        Dim             ....  828

ORBITAL ENERGIES
----------------

  NO   OCC          E(Eh)            E(eV)
   0   2.0000     -91.890523     -2500.4682
   1   2.0000     -20.601114      -560.5848
   2   2.0000     -20.586470      -560.1863
   3   2.0000     -20.544577      -559.0464
   4   2.0000     -15.630970      -425.3403
   5   2.0000     -15.608693      -424.7341
   6   2.0000     -11.391869      -309.9885
   7   2.0000     -11.385117      -309.8048
   8   2.0000     -11.339005      -308.5500
   9   2.0000     -11.319023      -308.0063
  10   2.0000     -11.309746      -307.7538
  11   2.0000     -11.293882      -307.3222
  12   2.0000     -11.265095      -306.5388
  13   2.0000     -11.260241      -306.4067
  14   2.0000     -11.258505      -306.3595
  15   2.0000     -11.252841      -306.2054
  16   2.0000     -11.248687      -306.0923
  17   2.0000     -11.243674      -305.9559
  18   2.0000     -11.243161      -305.9420
  19   2.0000     -11.226438      -305.4869
  20   2.0000      -8.895580      -242.0610
  21   2.0000      -6.577148      -178.9733
  22   2.0000      -6.575154      -178.9190
  23   2.0000      -6.574558      -178.9028
  24   2.0000      -1.449181       -39.4342
  25   2.0000      -1.420823       -38.6626
  26   2.0000      -1.353400       -36.8279
  27   2.0000      -1.342098       -36.5203
  28   2.0000      -1.240126       -33.7455
  29   2.0000      -1.162156       -31.6239
  30   2.0000      -1.122583       -30.5470
  31   2.0000      -1.046330       -28.4721
  32   2.0000      -1.035816       -28.1860
  33   2.0000      -1.020039       -27.7567
  34   2.0000      -0.998032       -27.1578
  35   2.0000      -0.986441       -26.8424
  36   2.0000      -0.924375       -25.1535
  37   2.0000      -0.880337       -23.9552
  38   2.0000      -0.848555       -23.0904
  39   2.0000      -0.841642       -22.9022
  40   2.0000      -0.838663       -22.8212
  41   2.0000      -0.825989       -22.4763
  42   2.0000      -0.763011       -20.7626
  43   2.0000      -0.737442       -20.0668
  44   2.0000      -0.724360       -19.7108
  45   2.0000      -0.699748       -19.0411
  46   2.0000      -0.689842       -18.7716
  47   2.0000      -0.678257       -18.4563
  48   2.0000      -0.674124       -18.3438
  49   2.0000      -0.654323       -17.8050
  50   2.0000      -0.649758       -17.6808
  51   2.0000      -0.640888       -17.4394
  52   2.0000      -0.626072       -17.0363
  53   2.0000      -0.624192       -16.9851
  54   2.0000      -0.611316       -16.6347
  55   2.0000      -0.603843       -16.4314
  56   2.0000      -0.601985       -16.3809
  57   2.0000      -0.580955       -15.8086
  58   2.0000      -0.571333       -15.5468
  59   2.0000      -0.566373       -15.4118
  60   2.0000      -0.557600       -15.1731
  61   2.0000      -0.542836       -14.7713
  62   2.0000      -0.533718       -14.5232
  63   2.0000      -0.528132       -14.3712
  64   2.0000      -0.518307       -14.1039
  65   2.0000      -0.515453       -14.0262
  66   2.0000      -0.503812       -13.7094
  67   2.0000      -0.498321       -13.5600
  68   2.0000      -0.488307       -13.2875
  69   2.0000      -0.464944       -12.6518
  70   2.0000      -0.456938       -12.4339
  71   2.0000      -0.445952       -12.1350
  72   2.0000      -0.355689        -9.6788
  73   2.0000      -0.353478        -9.6186
  74   2.0000      -0.330100        -8.9825
  75   2.0000      -0.326206        -8.8765
  76   2.0000      -0.319958        -8.7065
  77   0.0000       0.071949         1.9578
  78   0.0000       0.100050         2.7225
  79   0.0000       0.123309         3.3554
  80   0.0000       0.129835         3.5330
  81   0.0000       0.132630         3.6090

MULLIKEN ATOMIC CHARGES
-----------------------
   0 C :   -0.264249
   1 C :    0.007135
   2 O :   -0.374307
   3 C :    0.489492
   4 O :   -0.415877
   5 C :   -0.291767
   6 C :    0.183806
   7 C :   -0.265570
   8 N :   -0.127002
   9 C :    0.211263
  10 S :   -0.439633
  11 N :   -0.216622
  12 C :    0.073458
  13 C :   -0.012299
  14 C :   -0.159076
  15 C :   -0.134959
  16 C :   -0.273420
  17 C :    0.309062
  18 O :   -0.355984
  19 C :   -0.228166
  20 H :    0.087704
  21 H :    0.089435
  22 H :    0.104501
  23 H :    0.117822
  24 H :    0.114400
  25 H :    0.132700
  26 H :    0.131023
  27 H :    0.094568
  28 H :    0.199690
  29 H :    0.201035
  30 H :    0.151736
  31 H :    0.155591
  32 H :    0.164090
  33 H :    0.133461
  34 H :    0.241421
  35 H :    0.165539
Sum of atomic charges:    0.0000000

LOEWDIN ATOMIC CHARGES
----------------------
   0 C :    0.108747
   1 C :   -0.020825
   2 O :    0.300767
   3 C :   -0.420333
   4 O :    0.109225
   5 C :   -0.100924
   6 C :   -0.054438
   7 C :    0.131832
   8 N :    0.407682
   9 C :   -0.456298
  10 S :   -0.034653
  11 N :    0.394364
  12 C :   -0.054769
  13 C :   -0.040273
  14 C :    0.018259
  15 C :    0.040616
  16 C :   -0.000830
  17 C :   -0.190825
  18 O :    0.396297
  19 C :    0.032124
  20 H :   -0.025979
  21 H :   -0.031250
  22 H :   -0.024166
  23 H :   -0.028279
  24 H :   -0.032266
  25 H :   -0.004300
  26 H :   -0.004163
  27 H :   -0.023467
  28 H :   -0.056819
  29 H :   -0.064420
  30 H :   -0.012317
  31 H :   -0.028416
  32 H :   -0.020152
  33 H :   -0.034394
  34 H :   -0.152954
  35 H :   -0.022401

  Mayer bond orders larger than 0.100000
B(  0-C ,  1-C ) :   0.9793 B(  0-C , 20-H ) :   0.9763 B(  0-C , 21-H ) :   0.9792
B(  0-C , 22-H ) :   0.9782 B(  1-C ,  2-O ) :   0.8796 B(  1-C , 23-H ) :   0.9765
B(  1-C , 24-H ) :   0.9660 B(  2-O ,  3-C ) :   1.1095 B(  3-C ,  4-O ) :   2.0127
B(  3-C ,  5-C ) :   1.0716 B(  5-C ,  6-C ) :   1.6287 B(  5-C , 12-C ) :   0.9519
B(  6-C ,  7-C ) :   0.9660 B(  6-C ,  8-N ) :   1.1576 B(  7-C , 25-H ) :   0.9612
B(  7-C , 26-H ) :   0.9579 B(  7-C , 27-H ) :   0.9901 B(  8-N ,  9-C ) :   1.1857
B(  8-N , 28-H ) :   0.9462 B(  9-C , 10-S ) :   1.6074 B(  9-C , 11-N ) :   1.3098
B( 11-N , 12-C ) :   0.9654 B( 11-N , 29-H ) :   0.9485 B( 12-C , 13-C ) :   0.9643
B( 12-C , 30-H ) :   1.0008 B( 13-C , 14-C ) :   1.3574 B( 13-C , 19-C ) :   1.3787
B( 14-C , 15-C ) :   1.3908 B( 14-C , 31-H ) :   0.9719 B( 15-C , 16-C ) :   1.3581
B( 15-C , 32-H ) :   0.9698 B( 16-C , 17-C ) :   1.3321 B( 16-C , 33-H ) :   0.9842
B( 17-C , 18-O ) :   1.1074 B( 17-C , 19-C ) :   1.3664 B( 18-O , 34-H ) :   0.9790
B( 19-C , 35-H ) :   0.9589

MP2 TOTAL ENERGY:    -1274.333674643 Eh
FINAL SINGLE POINT ENERGY     -1274.333674643199

DIPOLE MOMENT
-------------
                                X             Y             Z
Electronic contribution:      8.94249      11.24181       6.89776
Nuclear contribution   :    -10.05257     -12.78350      -6.79978
                        -----------------------------------------
Total Dipole Moment    :     -1.11008      -1.54170       0.09798
                        -----------------------------------------
Magnitude (a.u.)       :      1.90229
Magnitude (Debye)      :      4.83523

Rotational constants in cm-1:     0.012354     0.008321     0.006027
Rotational constants in MHz :   370.375002   249.448658   180.695896

                             ****ORCA TERMINATED NORMALLY****
TOTAL RUN TIME: 0 days 1 hours 47 minutes 36 seconds 824 msec
