                         Program Version 4.2.0 -  RELEASE  -
|  1> ! ri-mp2 cc-pvtz cc-pvtz/c TightSCF NoKeepInts
|  2>
|  3> %scf
|  4>   MaxCore 4096
|  5> end
|  6> *xyz  0  1
|  7>     C       15.4291646   13.9604258   15.5096636
|  8>     C       15.0116290   15.4384378   15.5867901
|  9>     O       16.2049610   16.2331790   15.5154253
| 10>     C       16.0496574   17.5864240   15.4579363
| 11>     O       15.2726174   18.1023619   14.6736305
| 12>     C       16.8074214   18.3141513   16.5351836
| 13>     C       16.9569683   19.6629348   16.4889874
| 14>     C       16.2306647   20.6336586   15.5808741
| 15>     N       17.8680151   20.3150074   17.3229936
| 16>     C       18.7997488   19.6793981   18.0981996
| 17>     S       19.9127273   20.5146308   18.9922783
| 18>     N       18.7778955   18.3078377   18.0781977
| 19>     C       17.7638645   17.4775805   17.4016569
| 20>     C       17.0683711   16.5142302   18.3546353
| 21>     C       17.4680282   15.1670757   18.4214200
| 22>     C       16.8259303   14.2746034   19.2962948
| 23>     C       15.7785529   14.7345940   20.1127360
| 24>     C       15.3840960   16.0783755   20.0534775
| 25>     O       14.3743922   16.5257330   20.8415067
| 26>     C       16.0249754   16.9642048   19.1817116
| 27>     H       16.0821879   13.6967189   16.3498143
| 28>     H       15.9672043   13.7597843   14.5748478
| 29>     H       14.5467531   13.3102011   15.5446093
| 30>     H       14.3418348   15.6742587   14.7483014
| 31>     H       14.4794174   15.6325613   16.5278299
| 32>     H       15.1440084   20.5101870   15.6738815
| 33>     H       16.4922099   20.4508350   14.5307534
| 34>     H       16.4599071   21.6829593   15.8009305
| 35>     H       17.9098205   21.3216293   17.3291407
| 36>     H       19.4570141   17.8677132   18.6860157
| 37>     H       18.3984864   16.9265716   16.6928423
| 38>     H       18.2746464   14.8095707   17.7867314
| 39>     H       17.1402942   13.2331659   19.3399368
| 40>     H       15.2798084   14.0492662   20.7902797
| 41>     H       14.0924720   15.7873874   21.4023442
| 42>     H       15.7112542   18.0023461   19.1561422
| 43> *
| 44>
| 45>                          ****END OF INPUT****

CARTESIAN COORDINATES (ANGSTROEM)
---------------------------------
  C     15.429165   13.960426   15.509664
  C     15.011629   15.438438   15.586790
  O     16.204961   16.233179   15.515425
  C     16.049657   17.586424   15.457936
  O     15.272617   18.102362   14.673630
  C     16.807421   18.314151   16.535184
  C     16.956968   19.662935   16.488987
  C     16.230665   20.633659   15.580874
  N     17.868015   20.315007   17.322994
  C     18.799749   19.679398   18.098200
  S     19.912727   20.514631   18.992278
  N     18.777895   18.307838   18.078198
  C     17.763865   17.477580   17.401657
  C     17.068371   16.514230   18.354635
  C     17.468028   15.167076   18.421420
  C     16.825930   14.274603   19.296295
  C     15.778553   14.734594   20.112736
  C     15.384096   16.078375   20.053477
  O     14.374392   16.525733   20.841507
  C     16.024975   16.964205   19.181712
  H     16.082188   13.696719   16.349814
  H     15.967204   13.759784   14.574848
  H     14.546753   13.310201   15.544609
  H     14.341835   15.674259   14.748301
  H     14.479417   15.632561   16.527830
  H     15.144008   20.510187   15.673881
  H     16.492210   20.450835   14.530753
  H     16.459907   21.682959   15.800930
  H     17.909820   21.321629   17.329141
  H     19.457014   17.867713   18.686016
  H     18.398486   16.926572   16.692842
  H     18.274646   14.809571   17.786731
  H     17.140294   13.233166   19.339937
  H     15.279808   14.049266   20.790280
  H     14.092472   15.787387   21.402344
  H     15.711254   18.002346   19.156142

 Total Charge           Charge          ....    0
 Multiplicity           Mult            ....    1
 Number of Electrons    NEL             ....  154
 Basis Dimension        Dim             ....  828

ORBITAL ENERGIES
----------------

  NO   OCC          E(Eh)            E(eV)
   0   2.0000     -91.890048     -2500.4553
   1   2.0000     -20.600411      -560.5657
   2   2.0000     -20.589923      -560.2803
   3   2.0000     -20.543339      -559.0127
   4   2.0000     -15.630571      -425.3295
   5   2.0000     -15.608213      -424.7211
   6   2.0000     -11.391946      -309.9906
   7   2.0000     -11.384756      -309.7950
   8   2.0000     -11.338667      -308.5408
   9   2.0000     -11.318000      -307.9784
  10   2.0000     -11.309103      -307.7363
  11   2.0000     -11.294226      -307.3315
  12   2.0000     -11.264671      -306.5273
  13   2.0000     -11.259430      -306.3847
  14   2.0000     -11.258468      -306.3585
  15   2.0000     -11.252613      -306.1992
  16   2.0000     -11.247588      -306.0624
  17   2.0000     -11.242502      -305.9240
  18   2.0000     -11.242404      -305.9214
  19   2.0000     -11.226417      -305.4863
  20   2.0000      -8.895108      -242.0482
  21   2.0000      -6.576677      -178.9605
  22   2.0000      -6.574681      -178.9062
  23   2.0000      -6.574088      -178.8900
  24   2.0000      -1.450024       -39.4572
  25   2.0000      -1.420093       -38.6427
  26   2.0000      -1.353286       -36.8248
  27   2.0000      -1.341590       -36.5065
  28   2.0000      -1.239611       -33.7315
  29   2.0000      -1.161335       -31.6015
  30   2.0000      -1.122405       -30.5422
  31   2.0000      -1.045658       -28.4538
  32   2.0000      -1.036499       -28.2046
  33   2.0000      -1.019246       -27.7351
  34   2.0000      -0.997729       -27.1496
  35   2.0000      -0.986062       -26.8321
  36   2.0000      -0.923864       -25.1396
  37   2.0000      -0.882138       -24.0042
  38   2.0000      -0.848072       -23.0772
  39   2.0000      -0.840850       -22.8807
  40   2.0000      -0.837598       -22.7922
  41   2.0000      -0.822895       -22.3921
  42   2.0000      -0.763592       -20.7784
  43   2.0000      -0.736662       -20.0456
  44   2.0000      -0.723188       -19.6789
  45   2.0000      -0.699080       -19.0229
  46   2.0000      -0.688253       -18.7283
  47   2.0000      -0.678313       -18.4578
  48   2.0000      -0.675256       -18.3746
  49   2.0000      -0.659119       -17.9355
  50   2.0000      -0.648729       -17.6528
  51   2.0000      -0.641033       -17.4434
  52   2.0000      -0.633558       -17.2400
  53   2.0000      -0.612303       -16.6616
  54   2.0000      -0.610464       -16.6116
  55   2.0000      -0.603527       -16.4228
  56   2.0000      -0.601575       -16.3697
  57   2.0000      -0.580418       -15.7940
  58   2.0000      -0.571228       -15.5439
  59   2.0000      -0.566265       -15.4088
  60   2.0000      -0.554987       -15.1020
  61   2.0000      -0.541634       -14.7386
  62   2.0000      -0.537238       -14.6190
  63   2.0000      -0.527711       -14.3597
  64   2.0000      -0.519269       -14.1300
  65   2.0000      -0.514253       -13.9935
  66   2.0000      -0.506564       -13.7843
  67   2.0000      -0.499581       -13.5943
  68   2.0000      -0.486875       -13.2486
  69   2.0000      -0.465597       -12.6695
  70   2.0000      -0.456534       -12.4229
  71   2.0000      -0.445080       -12.1112
  72   2.0000      -0.355200        -9.6655
  73   2.0000      -0.352671        -9.5967
  74   2.0000      -0.329556        -8.9677
  75   2.0000      -0.324987        -8.8433
  76   2.0000      -0.319564        -8.6958
  77   0.0000       0.073399         1.9973
  78   0.0000       0.100653         2.7389
  79   0.0000       0.123444         3.3591
  80   0.0000       0.130592         3.5536
  81   0.0000       0.132662         3.6099

MULLIKEN ATOMIC CHARGES
-----------------------
   0 C :   -0.270941
   1 C :    0.024949
   2 O :   -0.362066
   3 C :    0.467099
   4 O :   -0.421776
   5 C :   -0.280984
   6 C :    0.183653
   7 C :   -0.266157
   8 N :   -0.126697
   9 C :    0.214558
  10 S :   -0.440930
  11 N :   -0.219650
  12 C :    0.077763
  13 C :    0.040334
  14 C :   -0.201180
  15 C :   -0.125799
  16 C :   -0.276586
  17 C :    0.316712
  18 O :   -0.356108
  19 C :   -0.250794
  20 H :    0.093417
  21 H :    0.099930
  22 H :    0.090963
  23 H :    0.122274
  24 H :    0.093727
  25 H :    0.133470
  26 H :    0.130109
  27 H :    0.094789
  28 H :    0.199297
  29 H :    0.201149
  30 H :    0.150492
  31 H :    0.158752
  32 H :    0.166367
  33 H :    0.132770
  34 H :    0.241435
  35 H :    0.165655
Sum of atomic charges:    0.0000000

LOEWDIN ATOMIC CHARGES
----------------------
   0 C :    0.109152
   1 C :   -0.020371
   2 O :    0.301571
   3 C :   -0.418151
   4 O :    0.106004
   5 C :   -0.099329
   6 C :   -0.054946
   7 C :    0.131857
   8 N :    0.407670
   9 C :   -0.455329
  10 S :   -0.035455
  11 N :    0.394006
  12 C :   -0.054521
  13 C :   -0.037946
  14 C :    0.017136
  15 C :    0.041667
  16 C :   -0.000803
  17 C :   -0.190282
  18 O :    0.395876
  19 C :    0.032345
  20 H :   -0.031289
  21 H :   -0.026509
  22 H :   -0.025306
  23 H :   -0.027852
  24 H :   -0.032185
  25 H :   -0.004195
  26 H :   -0.004329
  27 H :   -0.023480
  28 H :   -0.056907
  29 H :   -0.064914
  30 H :   -0.012637
  31 H :   -0.028999
  32 H :   -0.020482
  33 H :   -0.034649
  34 H :   -0.153144
  35 H :   -0.023273

  Mayer bond orders larger than 0.100000
B(  0-C ,  1-C ) :   0.9757 B(  0-C , 20-H ) :   0.9757 B(  0-C , 21-H ) :   0.9778
B(  0-C , 22-H ) :   0.9775 B(  1-C ,  2-O ) :   0.8884 B(  1-C , 23-H ) :   0.9810
B(  1-C , 24-H ) :   0.9682 B(  2-O ,  3-C ) :   1.1251 B(  3-C ,  4-O ) :   1.9977
B(  3-C ,  5-C ) :   1.0680 B(  5-C ,  6-C ) :   1.6274 B(  5-C , 12-C ) :   0.9529
B(  6-C ,  7-C ) :   0.9656 B(  6-C ,  8-N ) :   1.1608 B(  7-C , 25-H ) :   0.9608
B(  7-C , 26-H ) :   0.9585 B(  7-C , 27-H ) :   0.9902 B(  8-N ,  9-C ) :   1.1855
B(  8-N , 28-H ) :   0.9463 B(  9-C , 10-S ) :   1.6040 B(  9-C , 11-N ) :   1.3115
B( 11-N , 12-C ) :   0.9615 B( 11-N , 29-H ) :   0.9483 B( 12-C , 13-C ) :   0.9660
B( 12-C , 30-H ) :   1.0002 B( 13-C , 14-C ) :   1.3471 B( 13-C , 19-C ) :   1.3732
B( 14-C , 15-C ) :   1.3860 B( 14-C , 31-H ) :   0.9709 B( 15-C , 16-C ) :   1.3613
B( 15-C , 32-H ) :   0.9687 B( 16-C , 17-C ) :   1.3319 B( 16-C , 33-H ) :   0.9842
B( 17-C , 18-O ) :   1.1063 B( 17-C , 19-C ) :   1.3646 B( 18-O , 34-H ) :   0.9791
B( 19-C , 35-H ) :   0.9598

MP2 TOTAL ENERGY:    -1274.337057756 Eh
FINAL SINGLE POINT ENERGY     -1274.337057755832

DIPOLE MOMENT
-------------
                                X             Y             Z
Electronic contribution:      8.41133      11.27387       6.74346
Nuclear contribution   :     -9.49780     -12.83925      -6.76007
                        -----------------------------------------
Total Dipole Moment    :     -1.08647      -1.56537      -0.01661
                        -----------------------------------------
Magnitude (a.u.)       :      1.90554
Magnitude (Debye)      :      4.84350

Rotational constants in cm-1:     0.012438     0.008229     0.006081
Rotational constants in MHz :   372.896827   246.703907   182.312114

                             ****ORCA TERMINATED NORMALLY****
TOTAL RUN TIME: 0 days 1 hours 42 minutes 18 seconds 55 msec
