                         Program Version 4.2.0 -  RELEASE  -
|  1> ! ri-mp2 cc-pvtz cc-pvtz/c TightSCF NoKeepInts
|  2>
|  3> %scf
|  4>   MaxCore 4096
|  5> end
|  6> *xyz  0  1
|  7>     C       14.3524912   16.2804938   15.9998093
|  8>     C       15.2021395   15.6889098   14.8560506
|  9>     O       16.3344786   16.5273744   14.5525226
| 10>     C       17.3381600   16.6160829   15.4708482
| 11>     O       18.1856722   15.7465323   15.5654036
| 12>     C       17.1862888   17.7202366   16.4732341
| 13>     C       16.7930640   18.9637814   16.0973935
| 14>     C       16.2695287   19.3908712   14.7401321
| 15>     N       16.9261792   20.0471723   16.9689055
| 16>     C       17.6512680   20.0182577   18.1301913
| 17>     S       17.8627757   21.3693331   19.0600859
| 18>     N       18.2140728   18.8131848   18.4694659
| 19>     C       17.9667222   17.5324053   17.7780242
| 20>     C       17.3820371   16.4511956   18.6768151
| 21>     C       17.9474739   15.1638950   18.7075486
| 22>     C       17.4002406   14.1621541   19.5265318
| 23>     C       16.2775333   14.4501606   20.3213980
| 24>     C       15.7104776   15.7315467   20.2909693
| 25>     O       14.6213245   16.0103517   21.0504392
| 26>     C       16.2572973   16.7265597   19.4744221
| 27>     H       14.8891171   16.2409290   16.9549589
| 28>     H       13.4282853   15.7021109   16.1198241
| 29>     H       14.0739990   17.3199591   15.7923588
| 30>     H       15.5413092   14.6791176   15.1258531
| 31>     H       14.5760032   15.6020583   13.9586988
| 32>     H       15.2675286   18.9857457   14.5580909
| 33>     H       16.9265574   19.0321451   13.9375349
| 34>     H       16.2077461   20.4809767   14.6348909
| 35>     H       16.5439017   20.9450417   16.7181190
| 36>     H       18.7331823   18.8157846   19.3385627
| 37>     H       18.9925875   17.2713507   17.4787777
| 38>     H       18.8074887   14.9361918   18.0813994
| 39>     H       17.8441807   13.1681972   19.5382621
| 40>     H       15.8507833   13.6786709   20.9537260
| 41>     H       14.4214099   15.2190332   21.5729191
| 42>     H       15.8036948   17.7121886   19.4638326
| 43> *
| 44>
| 45>                          ****END OF INPUT****

CARTESIAN COORDINATES (ANGSTROEM)
---------------------------------
  C     14.352491   16.280494   15.999809
  C     15.202139   15.688910   14.856051
  O     16.334479   16.527374   14.552523
  C     17.338160   16.616083   15.470848
  O     18.185672   15.746532   15.565404
  C     17.186289   17.720237   16.473234
  C     16.793064   18.963781   16.097393
  C     16.269529   19.390871   14.740132
  N     16.926179   20.047172   16.968906
  C     17.651268   20.018258   18.130191
  S     17.862776   21.369333   19.060086
  N     18.214073   18.813185   18.469466
  C     17.966722   17.532405   17.778024
  C     17.382037   16.451196   18.676815
  C     17.947474   15.163895   18.707549
  C     17.400241   14.162154   19.526532
  C     16.277533   14.450161   20.321398
  C     15.710478   15.731547   20.290969
  O     14.621325   16.010352   21.050439
  C     16.257297   16.726560   19.474422
  H     14.889117   16.240929   16.954959
  H     13.428285   15.702111   16.119824
  H     14.073999   17.319959   15.792359
  H     15.541309   14.679118   15.125853
  H     14.576003   15.602058   13.958699
  H     15.267529   18.985746   14.558091
  H     16.926557   19.032145   13.937535
  H     16.207746   20.480977   14.634891
  H     16.543902   20.945042   16.718119
  H     18.733182   18.815785   19.338563
  H     18.992587   17.271351   17.478778
  H     18.807489   14.936192   18.081399
  H     17.844181   13.168197   19.538262
  H     15.850783   13.678671   20.953726
  H     14.421410   15.219033   21.572919
  H     15.803695   17.712189   19.463833

 Total Charge           Charge          ....    0
 Multiplicity           Mult            ....    1
 Number of Electrons    NEL             ....  154
 Basis Dimension        Dim             ....  828

ORBITAL ENERGIES
----------------

  NO   OCC          E(Eh)            E(eV)
   0   2.0000     -91.889950     -2500.4527
   1   2.0000     -20.596438      -560.4576
   2   2.0000     -20.586076      -560.1756
   3   2.0000     -20.553767      -559.2964
   4   2.0000     -15.630041      -425.3150
   5   2.0000     -15.607953      -424.7140
   6   2.0000     -11.394139      -310.0503
   7   2.0000     -11.384865      -309.7979
   8   2.0000     -11.337779      -308.5167
   9   2.0000     -11.313043      -307.8436
  10   2.0000     -11.306872      -307.6756
  11   2.0000     -11.305764      -307.6455
  12   2.0000     -11.261457      -306.4398
  13   2.0000     -11.260224      -306.4063
  14   2.0000     -11.259502      -306.3866
  15   2.0000     -11.253042      -306.2108
  16   2.0000     -11.242892      -305.9347
  17   2.0000     -11.238895      -305.8259
  18   2.0000     -11.235412      -305.7311
  19   2.0000     -11.231318      -305.6197
  20   2.0000      -8.895027      -242.0460
  21   2.0000      -6.576601      -178.9584
  22   2.0000      -6.574600      -178.9040
  23   2.0000      -6.574009      -178.8879
  24   2.0000      -1.450101       -39.4593
  25   2.0000      -1.416227       -38.5375
  26   2.0000      -1.358197       -36.9584
  27   2.0000      -1.341409       -36.5016
  28   2.0000      -1.238813       -33.7098
  29   2.0000      -1.157246       -31.4903
  30   2.0000      -1.123278       -30.5659
  31   2.0000      -1.045262       -28.4430
  32   2.0000      -1.034475       -28.1495
  33   2.0000      -1.014955       -27.6183
  34   2.0000      -1.002602       -27.2822
  35   2.0000      -0.988256       -26.8918
  36   2.0000      -0.924146       -25.1473
  37   2.0000      -0.894117       -24.3302
  38   2.0000      -0.849764       -23.1233
  39   2.0000      -0.839263       -22.8375
  40   2.0000      -0.833017       -22.6675
  41   2.0000      -0.821861       -22.3640
  42   2.0000      -0.753867       -20.5138
  43   2.0000      -0.735913       -20.0252
  44   2.0000      -0.729050       -19.8385
  45   2.0000      -0.694418       -18.8961
  46   2.0000      -0.686993       -18.6940
  47   2.0000      -0.677228       -18.4283
  48   2.0000      -0.674136       -18.3442
  49   2.0000      -0.662975       -18.0405
  50   2.0000      -0.653525       -17.7833
  51   2.0000      -0.646600       -17.5949
  52   2.0000      -0.637178       -17.3385
  53   2.0000      -0.611146       -16.6301
  54   2.0000      -0.602607       -16.3978
  55   2.0000      -0.600891       -16.3511
  56   2.0000      -0.600082       -16.3291
  57   2.0000      -0.585310       -15.9271
  58   2.0000      -0.575998       -15.6737
  59   2.0000      -0.566787       -15.4231
  60   2.0000      -0.562903       -15.3174
  61   2.0000      -0.551167       -14.9980
  62   2.0000      -0.548192       -14.9171
  63   2.0000      -0.525622       -14.3029
  64   2.0000      -0.520303       -14.1582
  65   2.0000      -0.512323       -13.9410
  66   2.0000      -0.499510       -13.5924
  67   2.0000      -0.494057       -13.4440
  68   2.0000      -0.483782       -13.1644
  69   2.0000      -0.464531       -12.6405
  70   2.0000      -0.458053       -12.4643
  71   2.0000      -0.452892       -12.3238
  72   2.0000      -0.354636        -9.6501
  73   2.0000      -0.348336        -9.4787
  74   2.0000      -0.329082        -8.9548
  75   2.0000      -0.320483        -8.7208
  76   2.0000      -0.319105        -8.6833
  77   0.0000       0.072931         1.9845
  78   0.0000       0.105973         2.8837
  79   0.0000       0.119638         3.2555
  80   0.0000       0.132364         3.6018
  81   0.0000       0.134560         3.6616

MULLIKEN ATOMIC CHARGES
-----------------------
   0 C :   -0.322480
   1 C :    0.039884
   2 O :   -0.376269
   3 C :    0.471717
   4 O :   -0.388827
   5 C :   -0.242714
   6 C :    0.157649
   7 C :   -0.284192
   8 N :   -0.130379
   9 C :    0.205906
  10 S :   -0.439970
  11 N :   -0.215094
  12 C :    0.069002
  13 C :    0.028456
  14 C :   -0.193037
  15 C :   -0.132481
  16 C :   -0.277288
  17 C :    0.326757
  18 O :   -0.358964
  19 C :   -0.277446
  20 H :    0.121455
  21 H :    0.118032
  22 H :    0.094758
  23 H :    0.103718
  24 H :    0.110398
  25 H :    0.121751
  26 H :    0.130434
  27 H :    0.105233
  28 H :    0.197863
  29 H :    0.200334
  30 H :    0.158952
  31 H :    0.170152
  32 H :    0.162791
  33 H :    0.131000
  34 H :    0.240606
  35 H :    0.172295
Sum of atomic charges:   -0.0000000

LOEWDIN ATOMIC CHARGES
----------------------
   0 C :    0.103918
   1 C :   -0.018712
   2 O :    0.289110
   3 C :   -0.419251
   4 O :    0.126610
   5 C :   -0.094119
   6 C :   -0.069227
   7 C :    0.126765
   8 N :    0.405827
   9 C :   -0.458019
  10 S :   -0.036045
  11 N :    0.396095
  12 C :   -0.048472
  13 C :   -0.043538
  14 C :    0.023262
  15 C :    0.042540
  16 C :   -0.000787
  17 C :   -0.193641
  18 O :    0.394202
  19 C :    0.028578
  20 H :   -0.028270
  21 H :   -0.023411
  22 H :   -0.031789
  23 H :   -0.025970
  24 H :   -0.021954
  25 H :   -0.014527
  26 H :   -0.006395
  27 H :   -0.019575
  28 H :   -0.058429
  29 H :   -0.063485
  30 H :   -0.006279
  31 H :   -0.022302
  32 H :   -0.019719
  33 H :   -0.035369
  34 H :   -0.153905
  35 H :   -0.023715

  Mayer bond orders larger than 0.100000
B(  0-C ,  1-C ) :   0.9636 B(  0-C , 20-H ) :   0.9652 B(  0-C , 21-H ) :   0.9785
B(  0-C , 22-H ) :   0.9755 B(  1-C ,  2-O ) :   0.9005 B(  1-C , 23-H ) :   0.9806
B(  1-C , 24-H ) :   0.9835 B(  2-O ,  3-C ) :   1.0821 B(  3-C ,  4-O ) :   2.0504
B(  3-C ,  5-C ) :   0.9947 B(  5-C ,  6-C ) :   1.6829 B(  5-C , 12-C ) :   0.9391
B(  6-C ,  7-C ) :   0.9501 B(  6-C ,  8-N ) :   1.1336 B(  7-C , 25-H ) :   0.9649
B(  7-C , 26-H ) :   0.9664 B(  7-C , 27-H ) :   0.9890 B(  8-N ,  9-C ) :   1.1868
B(  8-N , 28-H ) :   0.9475 B(  9-C , 10-S ) :   1.6124 B(  9-C , 11-N ) :   1.2990
B( 11-N , 12-C ) :   0.9805 B( 11-N , 29-H ) :   0.9485 B( 12-C , 13-C ) :   0.9673
B( 12-C , 30-H ) :   0.9939 B( 13-C , 14-C ) :   1.3862 B( 13-C , 19-C ) :   1.3500
B( 14-C , 15-C ) :   1.3965 B( 14-C , 31-H ) :   0.9591 B( 15-C , 16-C ) :   1.3601
B( 15-C , 32-H ) :   0.9705 B( 16-C , 17-C ) :   1.3327 B( 16-C , 33-H ) :   0.9848
B( 17-C , 18-O ) :   1.1062 B( 17-C , 19-C ) :   1.3578 B( 18-O , 34-H ) :   0.9801
B( 19-C , 35-H ) :   0.9599

MP2 TOTAL ENERGY:    -1274.325454174 Eh
FINAL SINGLE POINT ENERGY     -1274.325454173511

DIPOLE MOMENT
-------------
                                X             Y             Z
Electronic contribution:      9.24620       7.35014       7.24928
Nuclear contribution   :    -10.61632      -8.65378      -7.92459
                        -----------------------------------------
Total Dipole Moment    :     -1.37013      -1.30364      -0.67532
                        -----------------------------------------
Magnitude (a.u.)       :      2.00818
Magnitude (Debye)      :      5.10439

Rotational constants in cm-1:     0.011202     0.009341     0.006413
Rotational constants in MHz :   335.814596   280.040390   192.260848

                             ****ORCA TERMINATED NORMALLY****
TOTAL RUN TIME: 0 days 1 hours 45 minutes 45 seconds 24 msec
