                         Program Version 4.2.0 -  RELEASE  -
|  1> ! ri-mp2 cc-pvtz cc-pvtz/c TightSCF NoKeepInts
|  2>
|  3> %scf
|  4>   MaxCore 4096
|  5> end
|  6> *xyz  0  1
|  7>     C       14.5043589   15.8451102   16.4519637
|  8>     C       15.1479925   16.1217688   15.0803962
|  9>     O       16.5359848   15.7364684   15.1116856
| 10>     C       17.5681343   16.5696608   15.4577638
| 11>     O       18.7173121   16.3294237   15.1400800
| 12>     C       17.2364174   17.6630283   16.4114991
| 13>     C       16.9448912   18.8920266   15.9252099
| 14>     C       16.6280091   19.2474850   14.4866119
| 15>     N       16.9931653   20.0193299   16.7468453
| 16>     C       17.5858367   20.0400918   17.9822456
| 17>     S       17.7279351   21.4355150   18.8580140
| 18>     N       18.0835753   18.8450943   18.4420245
| 19>     C       17.8707390   17.5332400   17.7973481
| 20>     C       17.2236463   16.4704571   18.6738100
| 21>     C       17.6210008   15.1264666   18.5533354
| 22>     C       17.0179629   14.1297914   19.3382646
| 23>     C       16.0082452   14.4798984   20.2508277
| 24>     C       15.6088372   15.8178963   20.3718193
| 25>     O       14.6276857   16.1571270   21.2451513
| 26>     C       16.2105801   16.8086540   19.5891541
| 27>     H       14.7911356   16.6065117   17.1846555
| 28>     H       14.8061185   14.8617312   16.8350989
| 29>     H       13.4107593   15.8587646   16.3710037
| 30>     H       14.6387409   15.4946270   14.3370045
| 31>     H       15.0071413   17.1655127   14.7808070
| 32>     H       16.8602903   18.4346270   13.7876902
| 33>     H       17.2199214   20.1122622   14.1595253
| 34>     H       15.5677523   19.5019236   14.3678800
| 35>     H       16.6737273   20.9106336   16.4012363
| 36>     H       18.5213970   18.8871104   19.3539312
| 37>     H       18.9171364   17.2517264   17.6045202
| 38>     H       18.3958756   14.8526966   17.8399995
| 39>     H       17.3321823   13.0924658   19.2348121
| 40>     H       15.5387022   13.7127752   20.8577648
| 41>     H       14.3646555   15.3513661   21.7150282
| 42>     H       15.8791540   17.8367324   19.6929924
| 43> *
| 44>
| 45>                          ****END OF INPUT****

CARTESIAN COORDINATES (ANGSTROEM)
---------------------------------
  C     14.504359   15.845110   16.451964
  C     15.147993   16.121769   15.080396
  O     16.535985   15.736468   15.111686
  C     17.568134   16.569661   15.457764
  O     18.717312   16.329424   15.140080
  C     17.236417   17.663028   16.411499
  C     16.944891   18.892027   15.925210
  C     16.628009   19.247485   14.486612
  N     16.993165   20.019330   16.746845
  C     17.585837   20.040092   17.982246
  S     17.727935   21.435515   18.858014
  N     18.083575   18.845094   18.442024
  C     17.870739   17.533240   17.797348
  C     17.223646   16.470457   18.673810
  C     17.621001   15.126467   18.553335
  C     17.017963   14.129791   19.338265
  C     16.008245   14.479898   20.250828
  C     15.608837   15.817896   20.371819
  O     14.627686   16.157127   21.245151
  C     16.210580   16.808654   19.589154
  H     14.791136   16.606512   17.184656
  H     14.806118   14.861731   16.835099
  H     13.410759   15.858765   16.371004
  H     14.638741   15.494627   14.337004
  H     15.007141   17.165513   14.780807
  H     16.860290   18.434627   13.787690
  H     17.219921   20.112262   14.159525
  H     15.567752   19.501924   14.367880
  H     16.673727   20.910634   16.401236
  H     18.521397   18.887110   19.353931
  H     18.917136   17.251726   17.604520
  H     18.395876   14.852697   17.840000
  H     17.332182   13.092466   19.234812
  H     15.538702   13.712775   20.857765
  H     14.364655   15.351366   21.715028
  H     15.879154   17.836732   19.692992

 Total Charge           Charge          ....    0
 Multiplicity           Mult            ....    1
 Number of Electrons    NEL             ....  154
 Basis Dimension        Dim             ....  828

ORBITAL ENERGIES
----------------

  NO   OCC          E(Eh)            E(eV)
   0   2.0000     -91.889091     -2500.4293
   1   2.0000     -20.602149      -560.6130
   2   2.0000     -20.600325      -560.5633
   3   2.0000     -20.555504      -559.3437
   4   2.0000     -15.625270      -425.1852
   5   2.0000     -15.610163      -424.7741
   6   2.0000     -11.400817      -310.2320
   7   2.0000     -11.385293      -309.8096
   8   2.0000     -11.328677      -308.2690
   9   2.0000     -11.318108      -307.9814
  10   2.0000     -11.313990      -307.8693
  11   2.0000     -11.307818      -307.7014
  12   2.0000     -11.268502      -306.6315
  13   2.0000     -11.266785      -306.5848
  14   2.0000     -11.263133      -306.4854
  15   2.0000     -11.259103      -306.3758
  16   2.0000     -11.246896      -306.0436
  17   2.0000     -11.242468      -305.9231
  18   2.0000     -11.241370      -305.8932
  19   2.0000     -11.227371      -305.5123
  20   2.0000      -8.894200      -242.0235
  21   2.0000      -6.575786      -178.9362
  22   2.0000      -6.573768      -178.8813
  23   2.0000      -6.573191      -178.8656
  24   2.0000      -1.450281       -39.4642
  25   2.0000      -1.420030       -38.6410
  26   2.0000      -1.365004       -37.1436
  27   2.0000      -1.339590       -36.4521
  28   2.0000      -1.238936       -33.7132
  29   2.0000      -1.162424       -31.6312
  30   2.0000      -1.127020       -30.6678
  31   2.0000      -1.049488       -28.5580
  32   2.0000      -1.038114       -28.2485
  33   2.0000      -1.020698       -27.7746
  34   2.0000      -1.006796       -27.3963
  35   2.0000      -0.990224       -26.9454
  36   2.0000      -0.927245       -25.2316
  37   2.0000      -0.892845       -24.2956
  38   2.0000      -0.853615       -23.2280
  39   2.0000      -0.842230       -22.9182
  40   2.0000      -0.837666       -22.7941
  41   2.0000      -0.833380       -22.6774
  42   2.0000      -0.754523       -20.5316
  43   2.0000      -0.739643       -20.1267
  44   2.0000      -0.732732       -19.9386
  45   2.0000      -0.698064       -18.9953
  46   2.0000      -0.691896       -18.8274
  47   2.0000      -0.682714       -18.5776
  48   2.0000      -0.674761       -18.3612
  49   2.0000      -0.665724       -18.1153
  50   2.0000      -0.652404       -17.7528
  51   2.0000      -0.639207       -17.3937
  52   2.0000      -0.637580       -17.3494
  53   2.0000      -0.618153       -16.8208
  54   2.0000      -0.613159       -16.6849
  55   2.0000      -0.608506       -16.5583
  56   2.0000      -0.603677       -16.4269
  57   2.0000      -0.588274       -16.0078
  58   2.0000      -0.579374       -15.7656
  59   2.0000      -0.574611       -15.6360
  60   2.0000      -0.563761       -15.3407
  61   2.0000      -0.559374       -15.2213
  62   2.0000      -0.539338       -14.6761
  63   2.0000      -0.531428       -14.4609
  64   2.0000      -0.520492       -14.1633
  65   2.0000      -0.513135       -13.9631
  66   2.0000      -0.505449       -13.7540
  67   2.0000      -0.502925       -13.6853
  68   2.0000      -0.488866       -13.3027
  69   2.0000      -0.465490       -12.6666
  70   2.0000      -0.455546       -12.3960
  71   2.0000      -0.453272       -12.3342
  72   2.0000      -0.356862        -9.7107
  73   2.0000      -0.350440        -9.5360
  74   2.0000      -0.328761        -8.9460
  75   2.0000      -0.325917        -8.8686
  76   2.0000      -0.319369        -8.6905
  77   0.0000       0.093251         2.5375
  78   0.0000       0.104532         2.8445
  79   0.0000       0.114349         3.1116
  80   0.0000       0.126245         3.4353
  81   0.0000       0.129118         3.5135

MULLIKEN ATOMIC CHARGES
-----------------------
   0 C :   -0.301778
   1 C :    0.023427
   2 O :   -0.314931
   3 C :    0.418989
   4 O :   -0.377964
   5 C :   -0.198687
   6 C :    0.135833
   7 C :   -0.333478
   8 N :   -0.141377
   9 C :    0.214325
  10 S :   -0.444579
  11 N :   -0.238357
  12 C :    0.074508
  13 C :    0.023779
  14 C :   -0.219273
  15 C :   -0.136692
  16 C :   -0.274257
  17 C :    0.324442
  18 O :   -0.354963
  19 C :   -0.260047
  20 H :    0.103692
  21 H :    0.115616
  22 H :    0.107482
  23 H :    0.124913
  24 H :    0.084889
  25 H :    0.123870
  26 H :    0.135604
  27 H :    0.124233
  28 H :    0.196176
  29 H :    0.206398
  30 H :    0.170394
  31 H :    0.167726
  32 H :    0.165483
  33 H :    0.132710
  34 H :    0.241311
  35 H :    0.180584
Sum of atomic charges:   -0.0000000

LOEWDIN ATOMIC CHARGES
----------------------
   0 C :    0.105354
   1 C :   -0.022334
   2 O :    0.308045
   3 C :   -0.419084
   4 O :    0.125848
   5 C :   -0.078657
   6 C :   -0.100997
   7 C :    0.122608
   8 N :    0.401845
   9 C :   -0.455483
  10 S :   -0.039490
  11 N :    0.396753
  12 C :   -0.049005
  13 C :   -0.041868
  14 C :    0.019170
  15 C :    0.045811
  16 C :   -0.000352
  17 C :   -0.189864
  18 O :    0.396589
  19 C :    0.028516
  20 H :   -0.033912
  21 H :   -0.021164
  22 H :   -0.027090
  23 H :   -0.021359
  24 H :   -0.036731
  25 H :   -0.009106
  26 H :   -0.009187
  27 H :   -0.017768
  28 H :   -0.057789
  29 H :   -0.064035
  30 H :   -0.002991
  31 H :   -0.022523
  32 H :   -0.018248
  33 H :   -0.034648
  34 H :   -0.152978
  35 H :   -0.023876

  Mayer bond orders larger than 0.100000
B(  0-C ,  1-C ) :   0.9627 B(  0-C , 20-H ) :   0.9708 B(  0-C , 21-H ) :   0.9710
B(  0-C , 22-H ) :   0.9775 B(  1-C ,  2-O ) :   0.9047 B(  1-C , 23-H ) :   0.9855
B(  1-C , 24-H ) :   0.9717 B(  2-O ,  3-C ) :   1.1601 B(  3-C ,  4-O ) :   2.1095
B(  3-C ,  5-C ) :   0.9047 B(  5-C ,  6-C ) :   1.7296 B(  5-C , 12-C ) :   0.9341
B(  6-C ,  7-C ) :   0.9325 B(  6-C ,  8-N ) :   1.1038 B(  7-C , 25-H ) :   0.9793
B(  7-C , 26-H ) :   0.9724 B(  7-C , 27-H ) :   0.9680 B(  8-N ,  9-C ) :   1.2043
B(  8-N , 28-H ) :   0.9524 B(  9-C , 10-S ) :   1.6061 B(  9-C , 11-N ) :   1.2872
B( 11-N , 12-C ) :   0.9708 B( 11-N , 29-H ) :   0.9452 B( 12-C , 13-C ) :   0.9710
B( 12-C , 30-H ) :   0.9890 B( 13-C , 14-C ) :   1.3800 B( 13-C , 19-C ) :   1.3411
B( 14-C , 15-C ) :   1.4034 B( 14-C , 31-H ) :   0.9645 B( 15-C , 16-C ) :   1.3573
B( 15-C , 32-H ) :   0.9690 B( 16-C , 17-C ) :   1.3327 B( 16-C , 33-H ) :   0.9845
B( 17-C , 18-O ) :   1.1105 B( 17-C , 19-C ) :   1.3594 B( 18-O , 34-H ) :   0.9792
B( 19-C , 35-H ) :   0.9557

MP2 TOTAL ENERGY:    -1274.324026815 Eh
FINAL SINGLE POINT ENERGY     -1274.324026814891

DIPOLE MOMENT
-------------
                                X             Y             Z
Electronic contribution:      8.91109       7.17504       6.75737
Nuclear contribution   :    -10.58251      -8.49915      -7.30323
                        -----------------------------------------
Total Dipole Moment    :     -1.67142      -1.32411      -0.54585
                        -----------------------------------------
Magnitude (a.u.)       :      2.20111
Magnitude (Debye)      :      5.59477

Rotational constants in cm-1:     0.011857     0.009199     0.006393
Rotational constants in MHz :   355.477435   275.782787   191.667221

                             ****ORCA TERMINATED NORMALLY****
TOTAL RUN TIME: 0 days 1 hours 43 minutes 9 seconds 27 msec
