                         Program Version 4.2.0 -  RELEASE  -
|  1> ! ri-mp2 cc-pvtz cc-pvtz/c TightSCF NoKeepInts
|  2>
|  3> %scf
|  4>   MaxCore 4096
|  5> end
|  6> *xyz  0  1
|  7>     C       14.9362242   15.0537127   13.9292309
|  8>     C       15.3109042   14.9199212   15.4216506
|  9>     O       16.2069142   15.9598541   15.8764648
| 10>     C       15.9739068   17.3034789   15.7332973
| 11>     O       15.1664338   17.7664666   14.9477506
| 12>     C       16.7535779   18.1204183   16.7309932
| 13>     C       16.8650599   19.4672767   16.5921451
| 14>     C       16.0766447   20.3629904   15.6585875
| 15>     N       17.7918721   20.1947391   17.3424882
| 16>     C       18.7751340   19.6354407   18.1124061
| 17>     S       19.9025766   20.5555001   18.8986671
| 18>     N       18.7912196   18.2656768   18.1807995
| 19>     C       17.7699127   17.3683059   17.6085890
| 20>     C       17.1390073   16.4596554   18.6559175
| 21>     C       17.4328036   15.0837627   18.6816049
| 22>     C       16.8509554   14.2479663   19.6497082
| 23>     C       15.9715249   14.7935675   20.6007747
| 24>     C       15.6813043   16.1649348   20.5796569
| 25>     O       14.8341291   16.6944189   21.4977977
| 26>     C       16.2618105   16.9940743   19.6147755
| 27>     H       14.1670641   15.8197699   13.7737200
| 28>     H       14.5315834   14.1059706   13.5544303
| 29>     H       15.8159113   15.3107664   13.3262869
| 30>     H       14.3932292   14.9332305   16.0244231
| 31>     H       15.7967641   13.9488756   15.5811371
| 32>     H       14.9984793   20.2163567   15.8029545
| 33>     H       16.3024522   20.1249969   14.6113350
| 34>     H       16.2832080   21.4293059   15.8076841
| 35>     H       17.8044045   21.2003595   17.2833598
| 36>     H       19.5083063   17.8828057   18.7837552
| 37>     H       18.3905620   16.7859032   16.9129538
| 38>     H       18.1094145   14.6609497   17.9437768
| 39>     H       17.0822455   13.1842934   19.6615863
| 40>     H       15.5202369   14.1524979   21.3508829
| 41>     H       14.5600465   15.9775889   22.0892526
| 42>     H       16.0311765   18.0541681   19.6171562
| 43> *
| 44>
| 45>                          ****END OF INPUT****

CARTESIAN COORDINATES (ANGSTROEM)
---------------------------------
  C     14.936224   15.053713   13.929231
  C     15.310904   14.919921   15.421651
  O     16.206914   15.959854   15.876465
  C     15.973907   17.303479   15.733297
  O     15.166434   17.766467   14.947751
  C     16.753578   18.120418   16.730993
  C     16.865060   19.467277   16.592145
  C     16.076645   20.362990   15.658587
  N     17.791872   20.194739   17.342488
  C     18.775134   19.635441   18.112406
  S     19.902577   20.555500   18.898667
  N     18.791220   18.265677   18.180799
  C     17.769913   17.368306   17.608589
  C     17.139007   16.459655   18.655918
  C     17.432804   15.083763   18.681605
  C     16.850955   14.247966   19.649708
  C     15.971525   14.793567   20.600775
  C     15.681304   16.164935   20.579657
  O     14.834129   16.694419   21.497798
  C     16.261810   16.994074   19.614775
  H     14.167064   15.819770   13.773720
  H     14.531583   14.105971   13.554430
  H     15.815911   15.310766   13.326287
  H     14.393229   14.933231   16.024423
  H     15.796764   13.948876   15.581137
  H     14.998479   20.216357   15.802955
  H     16.302452   20.124997   14.611335
  H     16.283208   21.429306   15.807684
  H     17.804405   21.200359   17.283360
  H     19.508306   17.882806   18.783755
  H     18.390562   16.785903   16.912954
  H     18.109414   14.660950   17.943777
  H     17.082245   13.184293   19.661586
  H     15.520237   14.152498   21.350883
  H     14.560046   15.977589   22.089253
  H     16.031177   18.054168   19.617156

 Total Charge           Charge          ....    0
 Multiplicity           Mult            ....    1
 Number of Electrons    NEL             ....  154
 Basis Dimension        Dim             ....  828

ORBITAL ENERGIES
----------------

  NO   OCC          E(Eh)            E(eV)
   0   2.0000     -91.888314     -2500.4081
   1   2.0000     -20.597468      -560.4856
   2   2.0000     -20.596131      -560.4492
   3   2.0000     -20.541384      -558.9595
   4   2.0000     -15.628612      -425.2761
   5   2.0000     -15.606272      -424.6682
   6   2.0000     -11.396748      -310.1213
   7   2.0000     -11.382851      -309.7431
   8   2.0000     -11.336734      -308.4882
   9   2.0000     -11.313218      -307.8483
  10   2.0000     -11.306623      -307.6689
  11   2.0000     -11.301395      -307.5266
  12   2.0000     -11.260239      -306.4067
  13   2.0000     -11.258498      -306.3593
  14   2.0000     -11.254729      -306.2567
  15   2.0000     -11.251290      -306.1632
  16   2.0000     -11.242980      -305.9370
  17   2.0000     -11.238243      -305.8081
  18   2.0000     -11.238143      -305.8054
  19   2.0000     -11.220600      -305.3280
  20   2.0000      -8.893390      -242.0014
  21   2.0000      -6.574964      -178.9139
  22   2.0000      -6.572965      -178.8595
  23   2.0000      -6.572376      -178.8434
  24   2.0000      -1.445822       -39.3428
  25   2.0000      -1.415779       -38.5253
  26   2.0000      -1.354735       -36.8642
  27   2.0000      -1.339833       -36.4587
  28   2.0000      -1.237648       -33.6781
  29   2.0000      -1.156875       -31.4802
  30   2.0000      -1.120095       -30.4793
  31   2.0000      -1.042087       -28.3566
  32   2.0000      -1.035462       -28.1764
  33   2.0000      -1.014424       -27.6039
  34   2.0000      -0.995209       -27.0810
  35   2.0000      -0.983444       -26.7609
  36   2.0000      -0.921151       -25.0658
  37   2.0000      -0.894615       -24.3437
  38   2.0000      -0.846388       -23.0314
  39   2.0000      -0.837605       -22.7924
  40   2.0000      -0.833623       -22.6840
  41   2.0000      -0.818759       -22.2796
  42   2.0000      -0.749861       -20.4048
  43   2.0000      -0.731877       -19.9154
  44   2.0000      -0.719511       -19.5789
  45   2.0000      -0.694928       -18.9100
  46   2.0000      -0.688118       -18.7247
  47   2.0000      -0.679052       -18.4780
  48   2.0000      -0.669034       -18.2053
  49   2.0000      -0.653070       -17.7709
  50   2.0000      -0.648936       -17.6584
  51   2.0000      -0.645020       -17.5519
  52   2.0000      -0.633584       -17.2407
  53   2.0000      -0.606741       -16.5103
  54   2.0000      -0.602190       -16.3864
  55   2.0000      -0.598770       -16.2934
  56   2.0000      -0.597515       -16.2592
  57   2.0000      -0.581767       -15.8307
  58   2.0000      -0.574399       -15.6302
  59   2.0000      -0.569366       -15.4932
  60   2.0000      -0.562148       -15.2968
  61   2.0000      -0.539652       -14.6847
  62   2.0000      -0.535657       -14.5760
  63   2.0000      -0.523750       -14.2520
  64   2.0000      -0.520304       -14.1582
  65   2.0000      -0.512106       -13.9351
  66   2.0000      -0.501735       -13.6529
  67   2.0000      -0.497331       -13.5331
  68   2.0000      -0.483408       -13.1542
  69   2.0000      -0.462940       -12.5972
  70   2.0000      -0.455120       -12.3844
  71   2.0000      -0.439883       -11.9698
  72   2.0000      -0.352259        -9.5854
  73   2.0000      -0.349160        -9.5011
  74   2.0000      -0.327514        -8.9121
  75   2.0000      -0.320600        -8.7240
  76   2.0000      -0.317535        -8.6406
  77   0.0000       0.077271         2.1026
  78   0.0000       0.105939         2.8827
  79   0.0000       0.124894         3.3986
  80   0.0000       0.133197         3.6245
  81   0.0000       0.136864         3.7243

MULLIKEN ATOMIC CHARGES
-----------------------
   0 C :   -0.289712
   1 C :    0.050074
   2 O :   -0.357984
   3 C :    0.439659
   4 O :   -0.435608
   5 C :   -0.216014
   6 C :    0.172988
   7 C :   -0.268061
   8 N :   -0.125544
   9 C :    0.210970
  10 S :   -0.442912
  11 N :   -0.215505
  12 C :    0.060899
  13 C :    0.048816
  14 C :   -0.183948
  15 C :   -0.132002
  16 C :   -0.276725
  17 C :    0.316692
  18 O :   -0.356929
  19 C :   -0.250262
  20 H :    0.123591
  21 H :    0.093393
  22 H :    0.094588
  23 H :    0.088086
  24 H :    0.099568
  25 H :    0.133582
  26 H :    0.128138
  27 H :    0.094641
  28 H :    0.199539
  29 H :    0.200328
  30 H :    0.151384
  31 H :    0.151234
  32 H :    0.160176
  33 H :    0.129809
  34 H :    0.240506
  35 H :    0.162546
Sum of atomic charges:   -0.0000000

LOEWDIN ATOMIC CHARGES
----------------------
   0 C :    0.103100
   1 C :   -0.010817
   2 O :    0.298568
   3 C :   -0.412947
   4 O :    0.105627
   5 C :   -0.094396
   6 C :   -0.056402
   7 C :    0.130523
   8 N :    0.407060
   9 C :   -0.456804
  10 S :   -0.037264
  11 N :    0.394568
  12 C :   -0.054852
  13 C :   -0.038727
  14 C :    0.016645
  15 C :    0.038773
  16 C :   -0.001111
  17 C :   -0.189673
  18 O :    0.394968
  19 C :    0.032931
  20 H :   -0.026399
  21 H :   -0.029919
  22 H :   -0.026870
  23 H :   -0.028850
  24 H :   -0.024683
  25 H :   -0.004504
  26 H :   -0.005389
  27 H :   -0.023797
  28 H :   -0.057314
  29 H :   -0.064487
  30 H :   -0.013976
  31 H :   -0.029523
  32 H :   -0.021512
  33 H :   -0.035600
  34 H :   -0.154063
  35 H :   -0.022887

  Mayer bond orders larger than 0.100000
B(  0-C ,  1-C ) :   0.9735 B(  0-C , 20-H ) :   0.9719 B(  0-C , 21-H ) :   0.9776
B(  0-C , 22-H ) :   0.9754 B(  1-C ,  2-O ) :   0.9017 B(  1-C , 23-H ) :   0.9763
B(  1-C , 24-H ) :   0.9835 B(  2-O ,  3-C ) :   1.1438 B(  3-C ,  4-O ) :   1.9603
B(  3-C ,  5-C ) :   1.0796 B(  5-C ,  6-C ) :   1.6364 B(  5-C , 12-C ) :   0.9550
B(  6-C ,  7-C ) :   0.9659 B(  6-C ,  8-N ) :   1.1529 B(  7-C , 25-H ) :   0.9610
B(  7-C , 26-H ) :   0.9589 B(  7-C , 27-H ) :   0.9910 B(  8-N ,  9-C ) :   1.1877
B(  8-N , 28-H ) :   0.9464 B(  9-C , 10-S ) :   1.6049 B(  9-C , 11-N ) :   1.3100
B( 11-N , 12-C ) :   0.9658 B( 11-N , 29-H ) :   0.9484 B( 12-C , 13-C ) :   0.9645
B( 12-C , 30-H ) :   1.0009 B( 13-C , 14-C ) :   1.3525 B( 13-C , 19-C ) :   1.3815
B( 14-C , 15-C ) :   1.3941 B( 14-C , 31-H ) :   0.9718 B( 15-C , 16-C ) :   1.3602
B( 15-C , 32-H ) :   0.9708 B( 16-C , 17-C ) :   1.3342 B( 16-C , 33-H ) :   0.9851
B( 17-C , 18-O ) :   1.1042 B( 17-C , 19-C ) :   1.3646 B( 18-O , 34-H ) :   0.9799
B( 19-C , 35-H ) :   0.9597

MP2 TOTAL ENERGY:    -1274.335614813 Eh
FINAL SINGLE POINT ENERGY     -1274.335614812776

DIPOLE MOMENT
-------------
                                X             Y             Z
Electronic contribution:      9.18606       9.45484      10.78674
Nuclear contribution   :    -10.27393     -11.16950     -11.14463
                        -----------------------------------------
Total Dipole Moment    :     -1.08788      -1.71466      -0.35788
                        -----------------------------------------
Magnitude (a.u.)       :      2.06195
Magnitude (Debye)      :      5.24105

Rotational constants in cm-1:     0.010616     0.008810     0.005772
Rotational constants in MHz :   318.259926   264.124095   173.031072

                             ****ORCA TERMINATED NORMALLY****
TOTAL RUN TIME: 0 days 1 hours 36 minutes 10 seconds 414 msec
