                         Program Version 4.2.0 -  RELEASE  -
|  1> ! ri-mp2 cc-pvtz cc-pvtz/c TightSCF NoKeepInts
|  2>
|  3> %scf
|  4>   MaxCore 4096
|  5> end
|  6> *xyz  0  1
|  7>     C       13.7581887   16.3314839   14.4931616
|  8>     C       14.8535727   16.0980112   15.5485822
|  9>     O       16.1288937   16.2199324   14.8895711
| 10>     C       17.2532922   16.5331223   15.6037832
| 11>     O       18.2785187   15.8912081   15.4677411
| 12>     C       17.1348585   17.6468324   16.5984443
| 13>     C       16.6441611   18.8615039   16.2462666
| 14>     C       15.9717071   19.2458066   14.9446201
| 15>     N       16.7993266   19.9649330   17.0878822
| 16>     C       17.6361361   19.9955530   18.1716647
| 17>     S       17.8599323   21.3713246   19.0612681
| 18>     N       18.2968209   18.8288630   18.4663595
| 19>     C       18.0540878   17.5259768   17.8157338
| 20>     C       17.6251942   16.4194031   18.7681882
| 21>     C       18.2374951   15.1547984   18.7092094
| 22>     C       17.8329984   14.1244200   19.5742608
| 23>     C       16.8057602   14.3603556   20.5040640
| 24>     C       16.1897130   15.6181074   20.5604691
| 25>     O       15.1911750   15.8460247   21.4502613
| 26>     C       16.5934437   16.6416860   19.6970162
| 27>     H       12.7635960   16.2788394   14.9526548
| 28>     H       13.8129189   15.5635462   13.7111693
| 29>     H       13.8652781   17.3114745   14.0150312
| 30>     H       14.7322079   16.8405072   16.3471540
| 31>     H       14.7527167   15.0987648   15.9930479
| 32>     H       14.8820001   19.1706837   15.0309445
| 33>     H       16.2961196   18.6156346   14.1076477
| 34>     H       16.2115262   20.2773942   14.6568626
| 35>     H       16.3469990   20.8372259   16.8635170
| 36>     H       18.9026914   18.8748248   19.2762128
| 37>     H       19.0574285   17.3171046   17.4152158
| 38>     H       19.0230139   14.9676217   17.9797170
| 39>     H       18.3126938   13.1486507   19.5178819
| 40>     H       16.4896345   13.5665932   21.1728662
| 41>     H       15.0888845   15.0434794   21.9839422
| 42>     H       16.1040150   17.6083087   19.7555875
| 43> *
| 44>
| 45>                          ****END OF INPUT****

CARTESIAN COORDINATES (ANGSTROEM)
---------------------------------
  C     13.758189   16.331484   14.493162
  C     14.853573   16.098011   15.548582
  O     16.128894   16.219932   14.889571
  C     17.253292   16.533122   15.603783
  O     18.278519   15.891208   15.467741
  C     17.134858   17.646832   16.598444
  C     16.644161   18.861504   16.246267
  C     15.971707   19.245807   14.944620
  N     16.799327   19.964933   17.087882
  C     17.636136   19.995553   18.171665
  S     17.859932   21.371325   19.061268
  N     18.296821   18.828863   18.466359
  C     18.054088   17.525977   17.815734
  C     17.625194   16.419403   18.768188
  C     18.237495   15.154798   18.709209
  C     17.832998   14.124420   19.574261
  C     16.805760   14.360356   20.504064
  C     16.189713   15.618107   20.560469
  O     15.191175   15.846025   21.450261
  C     16.593444   16.641686   19.697016
  H     12.763596   16.278839   14.952655
  H     13.812919   15.563546   13.711169
  H     13.865278   17.311474   14.015031
  H     14.732208   16.840507   16.347154
  H     14.752717   15.098765   15.993048
  H     14.882000   19.170684   15.030945
  H     16.296120   18.615635   14.107648
  H     16.211526   20.277394   14.656863
  H     16.346999   20.837226   16.863517
  H     18.902691   18.874825   19.276213
  H     19.057429   17.317105   17.415216
  H     19.023014   14.967622   17.979717
  H     18.312694   13.148651   19.517882
  H     16.489635   13.566593   21.172866
  H     15.088885   15.043479   21.983942
  H     16.104015   17.608309   19.755588

 Total Charge           Charge          ....    0
 Multiplicity           Mult            ....    1
 Number of Electrons    NEL             ....  154
 Basis Dimension        Dim             ....  828

ORBITAL ENERGIES
----------------

  NO   OCC          E(Eh)            E(eV)
   0   2.0000     -91.889992     -2500.4538
   1   2.0000     -20.599560      -560.5425
   2   2.0000     -20.597510      -560.4867
   3   2.0000     -20.551694      -559.2400
   4   2.0000     -15.629216      -425.2926
   5   2.0000     -15.608799      -424.7370
   6   2.0000     -11.397263      -310.1353
   7   2.0000     -11.385482      -309.8147
   8   2.0000     -11.336907      -308.4929
   9   2.0000     -11.314301      -307.8778
  10   2.0000     -11.308074      -307.7083
  11   2.0000     -11.307101      -307.6819
  12   2.0000     -11.265793      -306.5578
  13   2.0000     -11.264026      -306.5097
  14   2.0000     -11.261771      -306.4484
  15   2.0000     -11.254292      -306.2449
  16   2.0000     -11.243770      -305.9585
  17   2.0000     -11.240105      -305.8588
  18   2.0000     -11.238645      -305.8191
  19   2.0000     -11.236657      -305.7650
  20   2.0000      -8.895092      -242.0478
  21   2.0000      -6.576671      -178.9603
  22   2.0000      -6.574661      -178.9056
  23   2.0000      -6.574076      -178.8897
  24   2.0000      -1.450852       -39.4797
  25   2.0000      -1.417232       -38.5649
  26   2.0000      -1.362270       -37.0692
  27   2.0000      -1.341763       -36.5112
  28   2.0000      -1.239439       -33.7268
  29   2.0000      -1.158765       -31.5316
  30   2.0000      -1.125070       -30.6147
  31   2.0000      -1.046647       -28.4807
  32   2.0000      -1.043100       -28.3842
  33   2.0000      -1.016571       -27.6623
  34   2.0000      -1.004886       -27.3443
  35   2.0000      -0.988914       -26.9097
  36   2.0000      -0.925237       -25.1770
  37   2.0000      -0.884258       -24.0619
  38   2.0000      -0.854298       -23.2466
  39   2.0000      -0.842693       -22.9309
  40   2.0000      -0.835848       -22.7446
  41   2.0000      -0.833784       -22.6884
  42   2.0000      -0.760041       -20.6818
  43   2.0000      -0.739095       -20.1118
  44   2.0000      -0.731194       -19.8968
  45   2.0000      -0.694974       -18.9112
  46   2.0000      -0.688220       -18.7274
  47   2.0000      -0.684769       -18.6335
  48   2.0000      -0.674084       -18.3428
  49   2.0000      -0.661729       -18.0066
  50   2.0000      -0.651716       -17.7341
  51   2.0000      -0.643774       -17.5180
  52   2.0000      -0.640167       -17.4198
  53   2.0000      -0.617855       -16.8127
  54   2.0000      -0.607641       -16.5348
  55   2.0000      -0.605230       -16.4691
  56   2.0000      -0.600785       -16.3482
  57   2.0000      -0.583571       -15.8798
  58   2.0000      -0.576296       -15.6818
  59   2.0000      -0.568965       -15.4823
  60   2.0000      -0.560906       -15.2630
  61   2.0000      -0.556912       -15.1544
  62   2.0000      -0.543444       -14.7879
  63   2.0000      -0.534545       -14.5457
  64   2.0000      -0.522102       -14.2071
  65   2.0000      -0.514219       -13.9926
  66   2.0000      -0.501098       -13.6356
  67   2.0000      -0.499916       -13.6034
  68   2.0000      -0.487723       -13.2716
  69   2.0000      -0.468080       -12.7371
  70   2.0000      -0.463378       -12.6092
  71   2.0000      -0.450703       -12.2642
  72   2.0000      -0.356440        -9.6992
  73   2.0000      -0.349903        -9.5214
  74   2.0000      -0.329323        -8.9613
  75   2.0000      -0.321768        -8.7558
  76   2.0000      -0.319624        -8.6974
  77   0.0000       0.079083         2.1520
  78   0.0000       0.105093         2.8597
  79   0.0000       0.117535         3.1983
  80   0.0000       0.131800         3.5865
  81   0.0000       0.133805         3.6410

MULLIKEN ATOMIC CHARGES
-----------------------
   0 C :   -0.271401
   1 C :    0.014326
   2 O :   -0.335217
   3 C :    0.437687
   4 O :   -0.377791
   5 C :   -0.250238
   6 C :    0.175457
   7 C :   -0.336371
   8 N :   -0.136246
   9 C :    0.205587
  10 S :   -0.441869
  11 N :   -0.217077
  12 C :    0.056102
  13 C :    0.024999
  14 C :   -0.205378
  15 C :   -0.129037
  16 C :   -0.277254
  17 C :    0.313207
  18 O :   -0.357298
  19 C :   -0.251064
  20 H :    0.095725
  21 H :    0.109123
  22 H :    0.093935
  23 H :    0.101565
  24 H :    0.120207
  25 H :    0.122373
  26 H :    0.143646
  27 H :    0.129439
  28 H :    0.198740
  29 H :    0.201400
  30 H :    0.164504
  31 H :    0.173039
  32 H :    0.163631
  33 H :    0.130567
  34 H :    0.241056
  35 H :    0.169927
Sum of atomic charges:   -0.0000000

LOEWDIN ATOMIC CHARGES
----------------------
   0 C :    0.108510
   1 C :   -0.020061
   2 O :    0.302823
   3 C :   -0.416632
   4 O :    0.125226
   5 C :   -0.090403
   6 C :   -0.081915
   7 C :    0.127053
   8 N :    0.403896
   9 C :   -0.457974
  10 S :   -0.037342
  11 N :    0.396188
  12 C :   -0.049342
  13 C :   -0.043663
  14 C :    0.021924
  15 C :    0.043589
  16 C :   -0.000383
  17 C :   -0.192181
  18 O :    0.393999
  19 C :    0.026924
  20 H :   -0.023668
  21 H :   -0.023191
  22 H :   -0.031532
  23 H :   -0.038323
  24 H :   -0.026510
  25 H :   -0.016813
  26 H :   -0.008036
  27 H :   -0.012965
  28 H :   -0.057269
  29 H :   -0.063264
  30 H :   -0.005262
  31 H :   -0.021598
  32 H :   -0.019219
  33 H :   -0.035195
  34 H :   -0.153566
  35 H :   -0.023826

  Mayer bond orders larger than 0.100000
B(  0-C ,  1-C ) :   0.9736 B(  0-C , 20-H ) :   0.9754 B(  0-C , 21-H ) :   0.9778
B(  0-C , 22-H ) :   0.9782 B(  1-C ,  2-O ) :   0.8995 B(  1-C , 23-H ) :   0.9635
B(  1-C , 24-H ) :   0.9802 B(  2-O ,  3-C ) :   1.1464 B(  3-C ,  4-O ) :   2.0939
B(  3-C ,  5-C ) :   0.9490 B(  5-C ,  6-C ) :   1.7006 B(  5-C , 12-C ) :   0.9461
B(  6-C ,  7-C ) :   0.9327 B(  6-C ,  8-N ) :   1.1170 B(  7-C , 25-H ) :   0.9648
B(  7-C , 26-H ) :   0.9706 B(  7-C , 27-H ) :   0.9840 B(  8-N ,  9-C ) :   1.1919
B(  8-N , 28-H ) :   0.9499 B(  9-C , 10-S ) :   1.6109 B(  9-C , 11-N ) :   1.2960
B( 11-N , 12-C ) :   0.9852 B( 11-N , 29-H ) :   0.9483 B( 12-C , 13-C ) :   0.9707
B( 12-C , 30-H ) :   0.9915 B( 13-C , 14-C ) :   1.3836 B( 13-C , 19-C ) :   1.3569
B( 14-C , 15-C ) :   1.3940 B( 14-C , 31-H ) :   0.9597 B( 15-C , 16-C ) :   1.3612
B( 15-C , 32-H ) :   0.9701 B( 16-C , 17-C ) :   1.3312 B( 16-C , 33-H ) :   0.9853
B( 17-C , 18-O ) :   1.1070 B( 17-C , 19-C ) :   1.3676 B( 18-O , 34-H ) :   0.9797
B( 19-C , 35-H ) :   0.9574

MP2 TOTAL ENERGY:    -1274.330482886 Eh
FINAL SINGLE POINT ENERGY     -1274.330482886360

DIPOLE MOMENT
-------------
                                X             Y             Z
Electronic contribution:     11.03284       6.31133       9.82562
Nuclear contribution   :    -12.60032      -7.48743     -10.23727
                        -----------------------------------------
Total Dipole Moment    :     -1.56748      -1.17610      -0.41165
                        -----------------------------------------
Magnitude (a.u.)       :      2.00241
Magnitude (Debye)      :      5.08972

Rotational constants in cm-1:     0.010189     0.009224     0.006158
Rotational constants in MHz :   305.445920   276.537797   184.607904

                             ****ORCA TERMINATED NORMALLY****
TOTAL RUN TIME: 0 days 1 hours 44 minutes 33 seconds 269 msec
