                         Program Version 4.2.0 -  RELEASE  -
|  1> ! ri-mp2 cc-pvtz cc-pvtz/c TightSCF NoKeepInts
|  2>
|  3> %scf
|  4>   MaxCore 4096
|  5> end
|  6> *xyz  0  1
|  7>     C       13.6905118   15.9344838   14.1886007
|  8>     C       14.9957855   15.5004378   14.8762083
|  9>     O       15.8731908   16.6356540   14.8927425
| 10>     C       16.9451066   16.5776629   15.7297749
| 11>     O       17.6379295   15.5776446   15.8120341
| 12>     C       17.0664936   17.7345996   16.6794882
| 13>     C       16.6913946   18.9972124   16.3441459
| 14>     C       15.9058298   19.4416159   15.1259369
| 15>     N       17.0683362   20.0862387   17.1341364
| 16>     C       17.9952633   20.0294633   18.1397803
| 17>     S       18.4748171   21.3820072   18.9619795
| 18>     N       18.5224511   18.7930394   18.4143400
| 19>     C       18.0634339   17.5202037   17.8249845
| 20>     C       17.5861635   16.5137877   18.8636619
| 21>     C       18.1465269   15.2251909   18.9245148
| 22>     C       17.7049288   14.2983797   19.8836734
| 23>     C       16.6951213   14.6638971   20.7903575
| 24>     C       16.1334793   15.9467699   20.7303812
| 25>     O       15.1550361   16.3007630   21.6013537
| 26>     C       16.5745763   16.8667550   19.7738163
| 27>     H       13.2177136   16.7576994   14.7382853
| 28>     H       12.9821259   15.0981130   14.1466894
| 29>     H       13.8874130   16.2690991   13.1624203
| 30>     H       14.7759813   15.1711690   15.9012507
| 31>     H       15.4603439   14.6660520   14.3333999
| 32>     H       16.3857843   19.0924501   14.2029364
| 33>     H       15.8203741   20.5323658   15.0486629
| 34>     H       14.8871756   19.0351458   15.1516448
| 35>     H       16.7076533   21.0042726   16.9290266
| 36>     H       19.1887880   18.7749303   19.1761246
| 37>     H       18.9945520   17.1762257   17.3513384
| 38>     H       18.9168421   14.9371019   18.2128950
| 39>     H       18.1418178   13.3019229   19.9171288
| 40>     H       16.3503261   13.9507463   21.5316489
| 41>     H       15.0131903   15.5507217   22.1981656
| 42>     H       16.1305424   17.8561776   19.7444712
| 43> *
| 44>
| 45>                          ****END OF INPUT****

CARTESIAN COORDINATES (ANGSTROEM)
---------------------------------
  C     13.690512   15.934484   14.188601
  C     14.995786   15.500438   14.876208
  O     15.873191   16.635654   14.892743
  C     16.945107   16.577663   15.729775
  O     17.637929   15.577645   15.812034
  C     17.066494   17.734600   16.679488
  C     16.691395   18.997212   16.344146
  C     15.905830   19.441616   15.125937
  N     17.068336   20.086239   17.134136
  C     17.995263   20.029463   18.139780
  S     18.474817   21.382007   18.961980
  N     18.522451   18.793039   18.414340
  C     18.063434   17.520204   17.824984
  C     17.586164   16.513788   18.863662
  C     18.146527   15.225191   18.924515
  C     17.704929   14.298380   19.883673
  C     16.695121   14.663897   20.790357
  C     16.133479   15.946770   20.730381
  O     15.155036   16.300763   21.601354
  C     16.574576   16.866755   19.773816
  H     13.217714   16.757699   14.738285
  H     12.982126   15.098113   14.146689
  H     13.887413   16.269099   13.162420
  H     14.775981   15.171169   15.901251
  H     15.460344   14.666052   14.333400
  H     16.385784   19.092450   14.202936
  H     15.820374   20.532366   15.048663
  H     14.887176   19.035146   15.151645
  H     16.707653   21.004273   16.929027
  H     19.188788   18.774930   19.176125
  H     18.994552   17.176226   17.351338
  H     18.916842   14.937102   18.212895
  H     18.141818   13.301923   19.917129
  H     16.350326   13.950746   21.531649
  H     15.013190   15.550722   22.198166
  H     16.130542   17.856178   19.744471

 Total Charge           Charge          ....    0
 Multiplicity           Mult            ....    1
 Number of Electrons    NEL             ....  154
 Basis Dimension        Dim             ....  828

ORBITAL ENERGIES
----------------

  NO   OCC          E(Eh)            E(eV)
   0   2.0000     -91.888779     -2500.4208
   1   2.0000     -20.594617      -560.4080
   2   2.0000     -20.592805      -560.3587
   3   2.0000     -20.548465      -559.1522
   4   2.0000     -15.629615      -425.3034
   5   2.0000     -15.606330      -424.6698
   6   2.0000     -11.393662      -310.0373
   7   2.0000     -11.383391      -309.7578
   8   2.0000     -11.339054      -308.5514
   9   2.0000     -11.308811      -307.7284
  10   2.0000     -11.304706      -307.6167
  11   2.0000     -11.301364      -307.5258
  12   2.0000     -11.260432      -306.4119
  13   2.0000     -11.259937      -306.3985
  14   2.0000     -11.255997      -306.2912
  15   2.0000     -11.248758      -306.0943
  16   2.0000     -11.239001      -305.8288
  17   2.0000     -11.235886      -305.7440
  18   2.0000     -11.235198      -305.7253
  19   2.0000     -11.231780      -305.6323
  20   2.0000      -8.893857      -242.0141
  21   2.0000      -6.575432      -178.9266
  22   2.0000      -6.573430      -178.8721
  23   2.0000      -6.572840      -178.8561
  24   2.0000      -1.454877       -39.5892
  25   2.0000      -1.412555       -38.4376
  26   2.0000      -1.357596       -36.9421
  27   2.0000      -1.340657       -36.4811
  28   2.0000      -1.237704       -33.6797
  29   2.0000      -1.153356       -31.3844
  30   2.0000      -1.121539       -30.5186
  31   2.0000      -1.044870       -28.4323
  32   2.0000      -1.037386       -28.2287
  33   2.0000      -1.010901       -27.5080
  34   2.0000      -0.999683       -27.2028
  35   2.0000      -0.984942       -26.8016
  36   2.0000      -0.921389       -25.0723
  37   2.0000      -0.885976       -24.1086
  38   2.0000      -0.847911       -23.0728
  39   2.0000      -0.836195       -22.7540
  40   2.0000      -0.829008       -22.5585
  41   2.0000      -0.823138       -22.3987
  42   2.0000      -0.761474       -20.7208
  43   2.0000      -0.736408       -20.0387
  44   2.0000      -0.726999       -19.7827
  45   2.0000      -0.690756       -18.7964
  46   2.0000      -0.685112       -18.6429
  47   2.0000      -0.681904       -18.5555
  48   2.0000      -0.675925       -18.3929
  49   2.0000      -0.656672       -17.8690
  50   2.0000      -0.651642       -17.7321
  51   2.0000      -0.641231       -17.4488
  52   2.0000      -0.633567       -17.2402
  53   2.0000      -0.609191       -16.5769
  54   2.0000      -0.604016       -16.4361
  55   2.0000      -0.599574       -16.3152
  56   2.0000      -0.596147       -16.2220
  57   2.0000      -0.575930       -15.6719
  58   2.0000      -0.573948       -15.6179
  59   2.0000      -0.564860       -15.3706
  60   2.0000      -0.560205       -15.2440
  61   2.0000      -0.551311       -15.0019
  62   2.0000      -0.545031       -14.8311
  63   2.0000      -0.518825       -14.1179
  64   2.0000      -0.517023       -14.0689
  65   2.0000      -0.511973       -13.9315
  66   2.0000      -0.507116       -13.7993
  67   2.0000      -0.495010       -13.4699
  68   2.0000      -0.480837       -13.0842
  69   2.0000      -0.462864       -12.5952
  70   2.0000      -0.461335       -12.5536
  71   2.0000      -0.452559       -12.3148
  72   2.0000      -0.353825        -9.6281
  73   2.0000      -0.345498        -9.4015
  74   2.0000      -0.327809        -8.9201
  75   2.0000      -0.317934        -8.6514
  76   2.0000      -0.315450        -8.5838
  77   0.0000       0.073908         2.0111
  78   0.0000       0.110055         2.9947
  79   0.0000       0.120564         3.2807
  80   0.0000       0.135003         3.6736
  81   0.0000       0.137959         3.7540

MULLIKEN ATOMIC CHARGES
-----------------------
   0 C :   -0.279138
   1 C :    0.049161
   2 O :   -0.352190
   3 C :    0.425619
   4 O :   -0.404304
   5 C :   -0.182314
   6 C :    0.152634
   7 C :   -0.283394
   8 N :   -0.127926
   9 C :    0.207210
  10 S :   -0.441150
  11 N :   -0.210536
  12 C :    0.042442
  13 C :    0.032781
  14 C :   -0.169481
  15 C :   -0.134086
  16 C :   -0.277587
  17 C :    0.313631
  18 O :   -0.359058
  19 C :   -0.253441
  20 H :    0.092308
  21 H :    0.102145
  22 H :    0.099520
  23 H :    0.084701
  24 H :    0.106228
  25 H :    0.127939
  26 H :    0.104259
  27 H :    0.126077
  28 H :    0.198931
  29 H :    0.199907
  30 H :    0.155918
  31 H :    0.159959
  32 H :    0.160545
  33 H :    0.128643
  34 H :    0.240134
  35 H :    0.163913
Sum of atomic charges:    0.0000000

LOEWDIN ATOMIC CHARGES
----------------------
   0 C :    0.107917
   1 C :   -0.019252
   2 O :    0.301268
   3 C :   -0.419949
   4 O :    0.114622
   5 C :   -0.094939
   6 C :   -0.064394
   7 C :    0.125869
   8 N :    0.405741
   9 C :   -0.458376
  10 S :   -0.036737
  11 N :    0.396280
  12 C :   -0.048341
  13 C :   -0.040973
  14 C :    0.025003
  15 C :    0.041228
  16 C :   -0.001278
  17 C :   -0.192968
  18 O :    0.392988
  19 C :    0.028789
  20 H :   -0.029362
  21 H :   -0.022768
  22 H :   -0.026077
  23 H :   -0.028767
  24 H :   -0.027355
  25 H :   -0.008144
  26 H :   -0.020843
  27 H :   -0.010558
  28 H :   -0.058483
  29 H :   -0.063191
  30 H :   -0.007794
  31 H :   -0.023652
  32 H :   -0.020787
  33 H :   -0.036056
  34 H :   -0.154703
  35 H :   -0.023959

  Mayer bond orders larger than 0.100000
B(  0-C ,  1-C ) :   0.9719 B(  0-C , 20-H ) :   0.9781 B(  0-C , 21-H ) :   0.9780
B(  0-C , 22-H ) :   0.9766 B(  1-C ,  2-O ) :   0.9087 B(  1-C , 23-H ) :   0.9717
B(  1-C , 24-H ) :   0.9807 B(  2-O ,  3-C ) :   1.0997 B(  3-C ,  4-O ) :   2.0200
B(  3-C ,  5-C ) :   1.0316 B(  5-C ,  6-C ) :   1.6563 B(  5-C , 12-C ) :   0.9496
B(  6-C ,  7-C ) :   0.9543 B(  6-C ,  8-N ) :   1.1364 B(  7-C , 25-H ) :   0.9649
B(  7-C , 26-H ) :   0.9912 B(  7-C , 27-H ) :   0.9636 B(  8-N ,  9-C ) :   1.1845
B(  8-N , 28-H ) :   0.9469 B(  9-C , 10-S ) :   1.6098 B(  9-C , 11-N ) :   1.3057
B( 11-N , 12-C ) :   0.9772 B( 11-N , 29-H ) :   0.9485 B( 12-C , 13-C ) :   0.9721
B( 12-C , 30-H ) :   0.9964 B( 13-C , 14-C ) :   1.3778 B( 13-C , 19-C ) :   1.3637
B( 14-C , 15-C ) :   1.3975 B( 14-C , 31-H ) :   0.9633 B( 15-C , 16-C ) :   1.3588
B( 15-C , 32-H ) :   0.9710 B( 16-C , 17-C ) :   1.3332 B( 16-C , 33-H ) :   0.9858
B( 17-C , 18-O ) :   1.1039 B( 17-C , 19-C ) :   1.3675 B( 18-O , 34-H ) :   0.9805
B( 19-C , 35-H ) :   0.9602

MP2 TOTAL ENERGY:    -1274.333312820 Eh
FINAL SINGLE POINT ENERGY     -1274.333312819945

DIPOLE MOMENT
-------------
                                X             Y             Z
Electronic contribution:     11.34659       8.32127      10.93043
Nuclear contribution   :    -12.79354      -9.63829     -11.78064
                        -----------------------------------------
Total Dipole Moment    :     -1.44695      -1.31702      -0.85021
                        -----------------------------------------
Magnitude (a.u.)       :      2.13332
Magnitude (Debye)      :      5.42248

Rotational constants in cm-1:     0.009574     0.009317     0.005729
Rotational constants in MHz :   287.014366   279.323074   171.749570

                             ****ORCA TERMINATED NORMALLY****
TOTAL RUN TIME: 0 days 1 hours 34 minutes 55 seconds 605 msec
