                         Program Version 4.2.0 -  RELEASE  -
|  1> ! ri-mp2 cc-pvtz cc-pvtz/c TightSCF NoKeepInts
|  2>
|  3> %scf
|  4>   MaxCore 4096
|  5> end
|  6> *xyz  0  1
|  7>     C       14.4500912   14.7932895   14.2517040
|  8>     C       14.6907033   15.9388176   15.2491117
|  9>     O       15.9092286   16.5957966   14.8673089
| 10>     C       16.9477664   16.5134447   15.7418040
| 11>     O       17.5532231   15.4699083   15.9111190
| 12>     C       17.1364543   17.7215954   16.6115934
| 13>     C       16.9261633   18.9840056   16.1559691
| 14>     C       16.2826189   19.4020154   14.8486131
| 15>     N       17.3682098   20.0885981   16.8882841
| 16>     C       18.2151217   20.0164803   17.9615425
| 17>     S       18.7846140   21.3735548   18.7158865
| 18>     N       18.5836796   18.7578264   18.3649921
| 19>     C       18.0272266   17.4962624   17.8383160
| 20>     C       17.3712459   16.6309474   18.9060344
| 21>     C       17.7586921   15.2901693   19.0797439
| 22>     C       17.1491158   14.4915768   20.0618417
| 23>     C       16.1438717   15.0388176   20.8775373
| 24>     C       15.7538865   16.3739744   20.7045552
| 25>     O       14.7791837   16.9032540   21.4861618
| 26>     C       16.3616311   17.1659896   19.7250717
| 27>     H       15.2749818   14.0701726   14.2921966
| 28>     H       14.3786727   15.1788570   13.2271284
| 29>     H       13.5187152   14.2645290   14.4876154
| 30>     H       13.8544977   16.6482579   15.2032181
| 31>     H       14.7519973   15.5400053   16.2720306
| 32>     H       16.7632914   18.9009594   13.9986109
| 33>     H       16.3566530   20.4808494   14.6646033
| 34>     H       15.2176878   19.1398480   14.8370232
| 35>     H       17.1270366   21.0198376   16.5886819
| 36>     H       19.1946190   18.7319026   19.1717517
| 37>     H       18.9433822   17.0186038   17.4609144
| 38>     H       18.5253412   14.8618637   18.4379248
| 39>     H       17.4534980   13.4534343   20.1829758
| 40>     H       15.6697167   14.4249780   21.6361243
| 41>     H       14.5156015   16.2214675   22.1223659
| 42>     H       16.0485801   18.1981097   19.6076442
| 43> *
| 44>
| 45>                          ****END OF INPUT****

CARTESIAN COORDINATES (ANGSTROEM)
---------------------------------
  C     14.450091   14.793290   14.251704
  C     14.690703   15.938818   15.249112
  O     15.909229   16.595797   14.867309
  C     16.947766   16.513445   15.741804
  O     17.553223   15.469908   15.911119
  C     17.136454   17.721595   16.611593
  C     16.926163   18.984006   16.155969
  C     16.282619   19.402015   14.848613
  N     17.368210   20.088598   16.888284
  C     18.215122   20.016480   17.961543
  S     18.784614   21.373555   18.715886
  N     18.583680   18.757826   18.364992
  C     18.027227   17.496262   17.838316
  C     17.371246   16.630947   18.906034
  C     17.758692   15.290169   19.079744
  C     17.149116   14.491577   20.061842
  C     16.143872   15.038818   20.877537
  C     15.753886   16.373974   20.704555
  O     14.779184   16.903254   21.486162
  C     16.361631   17.165990   19.725072
  H     15.274982   14.070173   14.292197
  H     14.378673   15.178857   13.227128
  H     13.518715   14.264529   14.487615
  H     13.854498   16.648258   15.203218
  H     14.751997   15.540005   16.272031
  H     16.763291   18.900959   13.998611
  H     16.356653   20.480849   14.664603
  H     15.217688   19.139848   14.837023
  H     17.127037   21.019838   16.588682
  H     19.194619   18.731903   19.171752
  H     18.943382   17.018604   17.460914
  H     18.525341   14.861864   18.437925
  H     17.453498   13.453434   20.182976
  H     15.669717   14.424978   21.636124
  H     14.515601   16.221467   22.122366
  H     16.048580   18.198110   19.607644

 Total Charge           Charge          ....    0
 Multiplicity           Mult            ....    1
 Number of Electrons    NEL             ....  154
 Basis Dimension        Dim             ....  828

ORBITAL ENERGIES
----------------

  NO   OCC          E(Eh)            E(eV)
   0   2.0000     -91.889762     -2500.4475
   1   2.0000     -20.594374      -560.4014
   2   2.0000     -20.587143      -560.2046
   3   2.0000     -20.552593      -559.2645
   4   2.0000     -15.630785      -425.3353
   5   2.0000     -15.607300      -424.6962
   6   2.0000     -11.394382      -310.0569
   7   2.0000     -11.384489      -309.7877
   8   2.0000     -11.340199      -308.5825
   9   2.0000     -11.310591      -307.7768
  10   2.0000     -11.305438      -307.6366
  11   2.0000     -11.304704      -307.6166
  12   2.0000     -11.261567      -306.4428
  13   2.0000     -11.260294      -306.4082
  14   2.0000     -11.257776      -306.3397
  15   2.0000     -11.250536      -306.1426
  16   2.0000     -11.240686      -305.8746
  17   2.0000     -11.236909      -305.7718
  18   2.0000     -11.233426      -305.6770
  19   2.0000     -11.226403      -305.4860
  20   2.0000      -8.894834      -242.0407
  21   2.0000      -6.576407      -178.9531
  22   2.0000      -6.574407      -178.8987
  23   2.0000      -6.573815      -178.8826
  24   2.0000      -1.453470       -39.5509
  25   2.0000      -1.414126       -38.4803
  26   2.0000      -1.359226       -36.9864
  27   2.0000      -1.341662       -36.5085
  28   2.0000      -1.238657       -33.7056
  29   2.0000      -1.155068       -31.4310
  30   2.0000      -1.122566       -30.5466
  31   2.0000      -1.044257       -28.4157
  32   2.0000      -1.034782       -28.1579
  33   2.0000      -1.012634       -27.5552
  34   2.0000      -1.000848       -27.2345
  35   2.0000      -0.985696       -26.8221
  36   2.0000      -0.922721       -25.1085
  37   2.0000      -0.882283       -24.0081
  38   2.0000      -0.850755       -23.1502
  39   2.0000      -0.839070       -22.8323
  40   2.0000      -0.830881       -22.6094
  41   2.0000      -0.829076       -22.5603
  42   2.0000      -0.757726       -20.6188
  43   2.0000      -0.735929       -20.0257
  44   2.0000      -0.728508       -19.8237
  45   2.0000      -0.692743       -18.8505
  46   2.0000      -0.687633       -18.7114
  47   2.0000      -0.680353       -18.5133
  48   2.0000      -0.671730       -18.2787
  49   2.0000      -0.661441       -17.9987
  50   2.0000      -0.647620       -17.6226
  51   2.0000      -0.644599       -17.5404
  52   2.0000      -0.635249       -17.2860
  53   2.0000      -0.607651       -16.5350
  54   2.0000      -0.601194       -16.3593
  55   2.0000      -0.599999       -16.3268
  56   2.0000      -0.597193       -16.2505
  57   2.0000      -0.585556       -15.9338
  58   2.0000      -0.575588       -15.6626
  59   2.0000      -0.567173       -15.4336
  60   2.0000      -0.562534       -15.3073
  61   2.0000      -0.551783       -15.0148
  62   2.0000      -0.538374       -14.6499
  63   2.0000      -0.519229       -14.1289
  64   2.0000      -0.514394       -13.9974
  65   2.0000      -0.511689       -13.9238
  66   2.0000      -0.504772       -13.7355
  67   2.0000      -0.496305       -13.5051
  68   2.0000      -0.481970       -13.1151
  69   2.0000      -0.464436       -12.6379
  70   2.0000      -0.456778       -12.4296
  71   2.0000      -0.453609       -12.3433
  72   2.0000      -0.355018        -9.6605
  73   2.0000      -0.347146        -9.4463
  74   2.0000      -0.328775        -8.9464
  75   2.0000      -0.319018        -8.6809
  76   2.0000      -0.317359        -8.6358
  77   0.0000       0.072125         1.9626
  78   0.0000       0.108245         2.9455
  79   0.0000       0.120004         3.2655
  80   0.0000       0.133914         3.6440
  81   0.0000       0.138979         3.7818

MULLIKEN ATOMIC CHARGES
-----------------------
   0 C :   -0.259142
   1 C :    0.041103
   2 O :   -0.373994
   3 C :    0.442692
   4 O :   -0.393863
   5 C :   -0.200384
   6 C :    0.153341
   7 C :   -0.281096
   8 N :   -0.127392
   9 C :    0.206561
  10 S :   -0.439742
  11 N :   -0.211364
  12 C :    0.046471
  13 C :    0.031217
  14 C :   -0.176998
  15 C :   -0.133328
  16 C :   -0.277954
  17 C :    0.314123
  18 O :   -0.358571
  19 C :   -0.254274
  20 H :    0.111110
  21 H :    0.092462
  22 H :    0.086629
  23 H :    0.094086
  24 H :    0.096382
  25 H :    0.129885
  26 H :    0.104280
  27 H :    0.123026
  28 H :    0.198786
  29 H :    0.199873
  30 H :    0.156734
  31 H :    0.162918
  32 H :    0.161443
  33 H :    0.129487
  34 H :    0.240413
  35 H :    0.165082
Sum of atomic charges:   -0.0000000

LOEWDIN ATOMIC CHARGES
----------------------
   0 C :    0.107501
   1 C :   -0.018333
   2 O :    0.298131
   3 C :   -0.425730
   4 O :    0.122982
   5 C :   -0.097111
   6 C :   -0.064688
   7 C :    0.126487
   8 N :    0.405914
   9 C :   -0.458227
  10 S :   -0.035715
  11 N :    0.396143
  12 C :   -0.048805
  13 C :   -0.041815
  14 C :    0.024052
  15 C :    0.041383
  16 C :   -0.001153
  17 C :   -0.193125
  18 O :    0.393210
  19 C :    0.028261
  20 H :   -0.021206
  21 H :   -0.027725
  22 H :   -0.028611
  23 H :   -0.032019
  24 H :   -0.025639
  25 H :   -0.006987
  26 H :   -0.020218
  27 H :   -0.010442
  28 H :   -0.058207
  29 H :   -0.063272
  30 H :   -0.007430
  31 H :   -0.023257
  32 H :   -0.020402
  33 H :   -0.035773
  34 H :   -0.154342
  35 H :   -0.023833

  Mayer bond orders larger than 0.100000
B(  0-C ,  1-C ) :   0.9835 B(  0-C , 20-H ) :   0.9754 B(  0-C , 21-H ) :   0.9782
B(  0-C , 22-H ) :   0.9760 B(  1-C ,  2-O ) :   0.8867 B(  1-C , 23-H ) :   0.9789
B(  1-C , 24-H ) :   0.9700 B(  2-O ,  3-C ) :   1.0683 B(  3-C ,  4-O ) :   2.0345
B(  3-C ,  5-C ) :   1.0351 B(  5-C ,  6-C ) :   1.6595 B(  5-C , 12-C ) :   0.9491
B(  6-C ,  7-C ) :   0.9522 B(  6-C ,  8-N ) :   1.1384 B(  7-C , 25-H ) :   0.9652
B(  7-C , 26-H ) :   0.9897 B(  7-C , 27-H ) :   0.9658 B(  8-N ,  9-C ) :   1.1837
B(  8-N , 28-H ) :   0.9470 B(  9-C , 10-S ) :   1.6118 B(  9-C , 11-N ) :   1.3040
B( 11-N , 12-C ) :   0.9792 B( 11-N , 29-H ) :   0.9485 B( 12-C , 13-C ) :   0.9713
B( 12-C , 30-H ) :   0.9951 B( 13-C , 14-C ) :   1.3792 B( 13-C , 19-C ) :   1.3625
B( 14-C , 15-C ) :   1.3968 B( 14-C , 31-H ) :   0.9622 B( 15-C , 16-C ) :   1.3594
B( 15-C , 32-H ) :   0.9707 B( 16-C , 17-C ) :   1.3327 B( 16-C , 33-H ) :   0.9855
B( 17-C , 18-O ) :   1.1048 B( 17-C , 19-C ) :   1.3670 B( 18-O , 34-H ) :   0.9802
B( 19-C , 35-H ) :   0.9598

MP2 TOTAL ENERGY:    -1274.325911754 Eh
FINAL SINGLE POINT ENERGY     -1274.325911754114

DIPOLE MOMENT
-------------
                                X             Y             Z
Electronic contribution:     10.42369      10.14180      10.20771
Nuclear contribution   :    -11.97277     -11.24770     -10.81424
                        -----------------------------------------
Total Dipole Moment    :     -1.54908      -1.10590      -0.60652
                        -----------------------------------------
Magnitude (a.u.)       :      1.99763
Magnitude (Debye)      :      5.07757

Rotational constants in cm-1:     0.010093     0.009211     0.005751
Rotational constants in MHz :   302.591441   276.150506   172.416088

                             ****ORCA TERMINATED NORMALLY****
TOTAL RUN TIME: 0 days 1 hours 37 minutes 11 seconds 888 msec
