                         Program Version 4.2.0 -  RELEASE  -
|  1> ! ri-mp2 cc-pvtz cc-pvtz/c TightSCF NoKeepInts
|  2>
|  3> %scf
|  4>   MaxCore 4096
|  5> end
|  6> *xyz  0  1
|  7>     C       14.3414676   15.0585724   15.1484255
|  8>     C       15.3822021   15.5335581   16.1761833
|  9>     O       16.5646364   15.9127072   15.4478252
| 10>     C       16.8097228   17.2352892   15.2206652
| 11>     O       16.8481345   17.6596016   14.0806218
| 12>     C       16.9941160   18.0843324   16.4509518
| 13>     C       16.8740555   19.4326341   16.3456010
| 14>     C       16.1867549   20.1990170   15.2344244
| 15>     N       17.3839833   20.2861379   17.3254958
| 16>     C       18.2409253   19.8928070   18.3167823
| 17>     S       18.9121639   20.9710851   19.3757569
| 18>     N       18.5349604   18.5539685   18.3708116
| 19>     C       17.8821900   17.5019545   17.5681060
| 20>     C       17.2685430   16.4170419   18.4392147
| 21>     C       17.8132861   15.1197916   18.4580471
| 22>     C       17.2477022   14.1217539   19.2693704
| 23>     C       16.1347169   14.4260107   20.0721564
| 24>     C       15.5994574   15.7214401   20.0647748
| 25>     O       14.5250150   16.0183546   20.8374893
| 26>     C       16.1633008   16.7126446   19.2553235
| 27>     H       14.0821210   15.8695481   14.4560596
| 28>     H       13.4245550   14.7286200   15.6515707
| 29>     H       14.7339634   14.2182553   14.5620558
| 30>     H       14.9761070   16.3639449   16.7684179
| 31>     H       15.6124839   14.7006556   16.8524895
| 32>     H       15.3026829   19.6597005   14.8717922
| 33>     H       16.8644268   20.3253477   14.3798598
| 34>     H       15.8511872   21.1938665   15.5504569
| 35>     H       17.2074477   21.2766529   17.2689372
| 36>     H       19.1565154   18.2908377   19.1254869
| 37>     H       18.7646688   17.1076092   17.0438050
| 38>     H       18.6715482   14.8816546   17.8344710
| 39>     H       17.6720686   13.1188331   19.2745770
| 40>     H       15.6950708   13.6577889   20.7002370
| 41>     H       14.3218941   15.2348704   21.3710802
| 42>     H       15.7429250   17.7131119   19.2686765
| 43> *
| 44>
| 45>                          ****END OF INPUT****

CARTESIAN COORDINATES (ANGSTROEM)
---------------------------------
  C     14.341468   15.058572   15.148425
  C     15.382202   15.533558   16.176183
  O     16.564636   15.912707   15.447825
  C     16.809723   17.235289   15.220665
  O     16.848135   17.659602   14.080622
  C     16.994116   18.084332   16.450952
  C     16.874056   19.432634   16.345601
  C     16.186755   20.199017   15.234424
  N     17.383983   20.286138   17.325496
  C     18.240925   19.892807   18.316782
  S     18.912164   20.971085   19.375757
  N     18.534960   18.553968   18.370812
  C     17.882190   17.501955   17.568106
  C     17.268543   16.417042   18.439215
  C     17.813286   15.119792   18.458047
  C     17.247702   14.121754   19.269370
  C     16.134717   14.426011   20.072156
  C     15.599457   15.721440   20.064775
  O     14.525015   16.018355   20.837489
  C     16.163301   16.712645   19.255323
  H     14.082121   15.869548   14.456060
  H     13.424555   14.728620   15.651571
  H     14.733963   14.218255   14.562056
  H     14.976107   16.363945   16.768418
  H     15.612484   14.700656   16.852490
  H     15.302683   19.659700   14.871792
  H     16.864427   20.325348   14.379860
  H     15.851187   21.193866   15.550457
  H     17.207448   21.276653   17.268937
  H     19.156515   18.290838   19.125487
  H     18.764669   17.107609   17.043805
  H     18.671548   14.881655   17.834471
  H     17.672069   13.118833   19.274577
  H     15.695071   13.657789   20.700237
  H     14.321894   15.234870   21.371080
  H     15.742925   17.713112   19.268676

 Total Charge           Charge          ....    0
 Multiplicity           Mult            ....    1
 Number of Electrons    NEL             ....  154
 Basis Dimension        Dim             ....  828

ORBITAL ENERGIES
----------------

  NO   OCC          E(Eh)            E(eV)
   0   2.0000     -91.891521     -2500.4954
   1   2.0000     -20.604325      -560.6722
   2   2.0000     -20.587211      -560.2065
   3   2.0000     -20.548270      -559.1468
   4   2.0000     -15.630599      -425.3302
   5   2.0000     -15.610604      -424.7861
   6   2.0000     -11.392841      -310.0150
   7   2.0000     -11.386064      -309.8306
   8   2.0000     -11.337163      -308.4999
   9   2.0000     -11.322326      -308.0962
  10   2.0000     -11.315003      -307.8969
  11   2.0000     -11.295835      -307.3753
  12   2.0000     -11.268104      -306.6207
  13   2.0000     -11.263236      -306.4882
  14   2.0000     -11.259387      -306.3835
  15   2.0000     -11.254528      -306.2513
  16   2.0000     -11.252634      -306.1998
  17   2.0000     -11.246854      -306.0424
  18   2.0000     -11.246799      -306.0410
  19   2.0000     -11.223501      -305.4070
  20   2.0000      -8.896573      -242.0881
  21   2.0000      -6.578139      -179.0003
  22   2.0000      -6.576146      -178.9460
  23   2.0000      -6.575549      -178.9298
  24   2.0000      -1.446742       -39.3679
  25   2.0000      -1.424098       -38.7517
  26   2.0000      -1.356071       -36.9006
  27   2.0000      -1.343052       -36.5463
  28   2.0000      -1.241827       -33.7918
  29   2.0000      -1.165377       -31.7115
  30   2.0000      -1.123812       -30.5805
  31   2.0000      -1.049571       -28.5603
  32   2.0000      -1.032032       -28.0830
  33   2.0000      -1.023445       -27.8493
  34   2.0000      -1.001540       -27.2533
  35   2.0000      -0.988590       -26.9009
  36   2.0000      -0.926849       -25.2208
  37   2.0000      -0.880020       -23.9466
  38   2.0000      -0.852005       -23.1842
  39   2.0000      -0.844722       -22.9861
  40   2.0000      -0.842335       -22.9211
  41   2.0000      -0.834810       -22.7163
  42   2.0000      -0.758306       -20.6346
  43   2.0000      -0.739231       -20.1155
  44   2.0000      -0.720650       -19.6099
  45   2.0000      -0.703025       -19.1303
  46   2.0000      -0.691864       -18.8266
  47   2.0000      -0.677521       -18.4363
  48   2.0000      -0.672056       -18.2876
  49   2.0000      -0.670101       -18.2344
  50   2.0000      -0.648932       -17.6583
  51   2.0000      -0.648738       -17.6530
  52   2.0000      -0.638311       -17.3693
  53   2.0000      -0.614155       -16.7120
  54   2.0000      -0.608409       -16.5557
  55   2.0000      -0.603793       -16.4300
  56   2.0000      -0.590086       -16.0570
  57   2.0000      -0.582849       -15.8601
  58   2.0000      -0.576643       -15.6912
  59   2.0000      -0.572464       -15.5775
  60   2.0000      -0.563838       -15.3428
  61   2.0000      -0.548147       -14.9158
  62   2.0000      -0.542759       -14.7692
  63   2.0000      -0.530398       -14.4329
  64   2.0000      -0.519685       -14.1414
  65   2.0000      -0.515205       -14.0194
  66   2.0000      -0.504970       -13.7409
  67   2.0000      -0.497891       -13.5483
  68   2.0000      -0.487138       -13.2557
  69   2.0000      -0.467610       -12.7243
  70   2.0000      -0.453379       -12.3371
  71   2.0000      -0.446745       -12.1566
  72   2.0000      -0.358213        -9.7475
  73   2.0000      -0.353896        -9.6300
  74   2.0000      -0.332039        -9.0352
  75   2.0000      -0.329013        -8.9529
  76   2.0000      -0.321533        -8.7494
  77   0.0000       0.074938         2.0392
  78   0.0000       0.094765         2.5787
  79   0.0000       0.119888         3.2623
  80   0.0000       0.127793         3.4774
  81   0.0000       0.128148         3.4871

MULLIKEN ATOMIC CHARGES
-----------------------
   0 C :   -0.255013
   1 C :    0.003821
   2 O :   -0.349850
   3 C :    0.443999
   4 O :   -0.379190
   5 C :   -0.274313
   6 C :    0.174639
   7 C :   -0.269180
   8 N :   -0.129211
   9 C :    0.209071
  10 S :   -0.438019
  11 N :   -0.208485
  12 C :    0.042565
  13 C :    0.002146
  14 C :   -0.165899
  15 C :   -0.142946
  16 C :   -0.269832
  17 C :    0.306311
  18 O :   -0.355710
  19 C :   -0.225573
  20 H :    0.095975
  21 H :    0.088081
  22 H :    0.100874
  23 H :    0.101778
  24 H :    0.117613
  25 H :    0.121432
  26 H :    0.139401
  27 H :    0.094964
  28 H :    0.199748
  29 H :    0.200318
  30 H :    0.152982
  31 H :    0.152572
  32 H :    0.166133
  33 H :    0.135248
  34 H :    0.242119
  35 H :    0.171431
Sum of atomic charges:   -0.0000000

LOEWDIN ATOMIC CHARGES
----------------------
   0 C :    0.106358
   1 C :   -0.028099
   2 O :    0.301806
   3 C :   -0.427016
   4 O :    0.124400
   5 C :   -0.105034
   6 C :   -0.061991
   7 C :    0.129496
   8 N :    0.407165
   9 C :   -0.457207
  10 S :   -0.033282
  11 N :    0.395230
  12 C :   -0.053991
  13 C :   -0.042420
  14 C :    0.019927
  15 C :    0.041682
  16 C :    0.001170
  17 C :   -0.191943
  18 O :    0.396480
  19 C :    0.035549
  20 H :   -0.026986
  21 H :   -0.028674
  22 H :   -0.024452
  23 H :   -0.035894
  24 H :   -0.024296
  25 H :   -0.007270
  26 H :   -0.003916
  27 H :   -0.022469
  28 H :   -0.056208
  29 H :   -0.063473
  30 H :   -0.011271
  31 H :   -0.026591
  32 H :   -0.019052
  33 H :   -0.033441
  34 H :   -0.152133
  35 H :   -0.022154

  Mayer bond orders larger than 0.100000
B(  0-C ,  1-C ) :   0.9814 B(  0-C , 20-H ) :   0.9775 B(  0-C , 21-H ) :   0.9775
B(  0-C , 22-H ) :   0.9801 B(  1-C ,  2-O ) :   0.8805 B(  1-C , 23-H ) :   0.9634
B(  1-C , 24-H ) :   0.9755 B(  2-O ,  3-C ) :   1.1394 B(  3-C ,  4-O ) :   2.0836
B(  3-C ,  5-C ) :   1.0009 B(  5-C ,  6-C ) :   1.6488 B(  5-C , 12-C ) :   0.9627
B(  6-C ,  7-C ) :   0.9599 B(  6-C ,  8-N ) :   1.1499 B(  7-C , 25-H ) :   0.9710
B(  7-C , 26-H ) :   0.9541 B(  7-C , 27-H ) :   0.9862 B(  8-N ,  9-C ) :   1.1891
B(  8-N , 28-H ) :   0.9478 B(  9-C , 10-S ) :   1.6126 B(  9-C , 11-N ) :   1.3007
B( 11-N , 12-C ) :   0.9719 B( 11-N , 29-H ) :   0.9481 B( 12-C , 13-C ) :   0.9666
B( 12-C , 30-H ) :   1.0061 B( 13-C , 14-C ) :   1.3580 B( 13-C , 19-C ) :   1.3579
B( 14-C , 15-C ) :   1.3938 B( 14-C , 31-H ) :   0.9737 B( 15-C , 16-C ) :   1.3610
B( 15-C , 32-H ) :   0.9696 B( 16-C , 17-C ) :   1.3297 B( 16-C , 33-H ) :   0.9832
B( 17-C , 18-O ) :   1.1090 B( 17-C , 19-C ) :   1.3645 B( 18-O , 34-H ) :   0.9785
B( 19-C , 35-H ) :   0.9593

MP2 TOTAL ENERGY:    -1274.325047874 Eh
FINAL SINGLE POINT ENERGY     -1274.325047873674

DIPOLE MOMENT
-------------
                                X             Y             Z
Electronic contribution:     10.06837       9.09699       7.38086
Nuclear contribution   :    -11.31687     -10.65652      -7.00025
                        -----------------------------------------
Total Dipole Moment    :     -1.24850      -1.55954       0.38061
                        -----------------------------------------
Magnitude (a.u.)       :      2.03366
Magnitude (Debye)      :      5.16915

Rotational constants in cm-1:     0.011913     0.008893     0.006045
Rotational constants in MHz :   357.139231   266.611283   181.213342

                             ****ORCA TERMINATED NORMALLY****
TOTAL RUN TIME: 0 days 1 hours 53 minutes 22 seconds 97 msec
