                         Program Version 4.2.0 -  RELEASE  -
|  1> ! ri-mp2 cc-pvtz cc-pvtz/c TightSCF NoKeepInts
|  2>
|  3> %scf
|  4>   MaxCore 4096
|  5> end
|  6> *xyz  0  1
|  7>     C       14.7378257   14.7931937   13.8538858
|  8>     C       14.5803157   15.7659726   15.0359670
|  9>     O       15.6645738   16.7081742   14.9826093
| 10>     C       16.7115507   16.5274707   15.8365431
| 11>     O       17.2136131   15.4308979   16.0169631
| 12>     C       17.0439063   17.7221070   16.6834851
| 13>     C       16.9181383   18.9965178   16.2283323
| 14>     C       16.2422664   19.4664784   14.9552130
| 15>     N       17.4899595   20.0627841   16.9271044
| 16>     C       18.3834180   19.9246726   17.9549353
| 17>     S       19.1063160   21.2321019   18.6644516
| 18>     N       18.6647555   18.6414605   18.3502691
| 19>     C       17.9753535   17.4295698   17.8662587
| 20>     C       17.3098761   16.6301116   18.9787247
| 21>     C       17.6091240   15.2679382   19.1607687
| 22>     C       16.9942416   14.5320887   20.1876044
| 23>     C       16.0731006   15.1643168   21.0403415
| 24>     C       15.7714313   16.5212055   20.8596484
| 25>     O       14.8788567   17.1329496   21.6783882
| 26>     C       16.3844273   17.2506918   19.8358962
| 27>     H       14.7486176   15.3374039   12.9014913
| 28>     H       13.9086663   14.0757998   13.8320658
| 29>     H       15.6753159   14.2290514   13.9409762
| 30>     H       13.6265741   16.2996140   14.9350757
| 31>     H       14.5692141   15.2186894   15.9892806
| 32>     H       16.6501023   18.9438544   14.0806786
| 33>     H       16.3734573   20.5404280   14.7749440
| 34>     H       15.1634636   19.2708836   14.9933729
| 35>     H       17.3114476   21.0096167   16.6328234
| 36>     H       19.3114918   18.5677767   19.1254748
| 37>     H       18.8269133   16.8742252   17.4465991
| 38>     H       18.3101587   14.7748597   18.4912421
| 39>     H       17.2292729   13.4768719   20.3148680
| 40>     H       15.5950983   14.5993794   21.8336504
| 41>     H       14.5932335   16.4800896   22.3349387
| 42>     H       16.1409230   18.3007526   19.7131286
| 43> *
| 44>
| 45>                          ****END OF INPUT****

CARTESIAN COORDINATES (ANGSTROEM)
---------------------------------
  C     14.737826   14.793194   13.853886
  C     14.580316   15.765973   15.035967
  O     15.664574   16.708174   14.982609
  C     16.711551   16.527471   15.836543
  O     17.213613   15.430898   16.016963
  C     17.043906   17.722107   16.683485
  C     16.918138   18.996518   16.228332
  C     16.242266   19.466478   14.955213
  N     17.489960   20.062784   16.927104
  C     18.383418   19.924673   17.954935
  S     19.106316   21.232102   18.664452
  N     18.664755   18.641461   18.350269
  C     17.975353   17.429570   17.866259
  C     17.309876   16.630112   18.978725
  C     17.609124   15.267938   19.160769
  C     16.994242   14.532089   20.187604
  C     16.073101   15.164317   21.040342
  C     15.771431   16.521206   20.859648
  O     14.878857   17.132950   21.678388
  C     16.384427   17.250692   19.835896
  H     14.748618   15.337404   12.901491
  H     13.908666   14.075800   13.832066
  H     15.675316   14.229051   13.940976
  H     13.626574   16.299614   14.935076
  H     14.569214   15.218689   15.989281
  H     16.650102   18.943854   14.080679
  H     16.373457   20.540428   14.774944
  H     15.163464   19.270884   14.993373
  H     17.311448   21.009617   16.632823
  H     19.311492   18.567777   19.125475
  H     18.826913   16.874225   17.446599
  H     18.310159   14.774860   18.491242
  H     17.229273   13.476872   20.314868
  H     15.595098   14.599379   21.833650
  H     14.593233   16.480090   22.334939
  H     16.140923   18.300753   19.713129

 Total Charge           Charge          ....    0
 Multiplicity           Mult            ....    1
 Number of Electrons    NEL             ....  154
 Basis Dimension        Dim             ....  828

ORBITAL ENERGIES
----------------

  NO   OCC          E(Eh)            E(eV)
   0   2.0000     -91.888730     -2500.4195
   1   2.0000     -20.593867      -560.3876
   2   2.0000     -20.592929      -560.3621
   3   2.0000     -20.549868      -559.1903
   4   2.0000     -15.629449      -425.2989
   5   2.0000     -15.606362      -424.6707
   6   2.0000     -11.395647      -310.0913
   7   2.0000     -11.383356      -309.7569
   8   2.0000     -11.338768      -308.5436
   9   2.0000     -11.309044      -307.7347
  10   2.0000     -11.304840      -307.6203
  11   2.0000     -11.302164      -307.5475
  12   2.0000     -11.260340      -306.4094
  13   2.0000     -11.259748      -306.3933
  14   2.0000     -11.256292      -306.2993
  15   2.0000     -11.249120      -306.1041
  16   2.0000     -11.239275      -305.8362
  17   2.0000     -11.235392      -305.7306
  18   2.0000     -11.232128      -305.6418
  19   2.0000     -11.224096      -305.4232
  20   2.0000      -8.893808      -242.0128
  21   2.0000      -6.575383      -178.9253
  22   2.0000      -6.573382      -178.8708
  23   2.0000      -6.572792      -178.8548
  24   2.0000      -1.453994       -39.5652
  25   2.0000      -1.412677       -38.4409
  26   2.0000      -1.358256       -36.9600
  27   2.0000      -1.340561       -36.4785
  28   2.0000      -1.237663       -33.6785
  29   2.0000      -1.153594       -31.3909
  30   2.0000      -1.121610       -30.5205
  31   2.0000      -1.043266       -28.3887
  32   2.0000      -1.033940       -28.1350
  33   2.0000      -1.011098       -27.5134
  34   2.0000      -0.999183       -27.1891
  35   2.0000      -0.984120       -26.7793
  36   2.0000      -0.921530       -25.0761
  37   2.0000      -0.886149       -24.1133
  38   2.0000      -0.848660       -23.0932
  39   2.0000      -0.836716       -22.7682
  40   2.0000      -0.829307       -22.5666
  41   2.0000      -0.823893       -22.4193
  42   2.0000      -0.756893       -20.5961
  43   2.0000      -0.735273       -20.0078
  44   2.0000      -0.727242       -19.7893
  45   2.0000      -0.691580       -18.8189
  46   2.0000      -0.686774       -18.6881
  47   2.0000      -0.680175       -18.5085
  48   2.0000      -0.670579       -18.2474
  49   2.0000      -0.660067       -17.9613
  50   2.0000      -0.646134       -17.5822
  51   2.0000      -0.641442       -17.4545
  52   2.0000      -0.632242       -17.2042
  53   2.0000      -0.607909       -16.5420
  54   2.0000      -0.601593       -16.3702
  55   2.0000      -0.599445       -16.3117
  56   2.0000      -0.596010       -16.2182
  57   2.0000      -0.586210       -15.9516
  58   2.0000      -0.574099       -15.6220
  59   2.0000      -0.566539       -15.4163
  60   2.0000      -0.561427       -15.2772
  61   2.0000      -0.548936       -14.9373
  62   2.0000      -0.535968       -14.5844
  63   2.0000      -0.519072       -14.1247
  64   2.0000      -0.516629       -14.0582
  65   2.0000      -0.510558       -13.8930
  66   2.0000      -0.503861       -13.7107
  67   2.0000      -0.495141       -13.4735
  68   2.0000      -0.480744       -13.0817
  69   2.0000      -0.462585       -12.5876
  70   2.0000      -0.456062       -12.4101
  71   2.0000      -0.453775       -12.3479
  72   2.0000      -0.353709        -9.6249
  73   2.0000      -0.345691        -9.4067
  74   2.0000      -0.327774        -8.9192
  75   2.0000      -0.317920        -8.6511
  76   2.0000      -0.315769        -8.5925
  77   0.0000       0.074271         2.0210
  78   0.0000       0.110005         2.9934
  79   0.0000       0.121431         3.3043
  80   0.0000       0.135002         3.6736
  81   0.0000       0.139701         3.8015

MULLIKEN ATOMIC CHARGES
-----------------------
   0 C :   -0.271212
   1 C :    0.039577
   2 O :   -0.361066
   3 C :    0.420496
   4 O :   -0.409555
   5 C :   -0.164912
   6 C :    0.152227
   7 C :   -0.278925
   8 N :   -0.127941
   9 C :    0.207446
  10 S :   -0.441246
  11 N :   -0.211000
  12 C :    0.040825
  13 C :    0.032587
  14 C :   -0.172354
  15 C :   -0.134378
  16 C :   -0.277545
  17 C :    0.313826
  18 O :   -0.358772
  19 C :   -0.251872
  20 H :    0.090240
  21 H :    0.088674
  22 H :    0.113923
  23 H :    0.098760
  24 H :    0.097371
  25 H :    0.126564
  26 H :    0.101863
  27 H :    0.127199
  28 H :    0.198921
  29 H :    0.199920
  30 H :    0.156106
  31 H :    0.160558
  32 H :    0.160699
  33 H :    0.128766
  34 H :    0.240097
  35 H :    0.164136
Sum of atomic charges:    0.0000000

LOEWDIN ATOMIC CHARGES
----------------------
   0 C :    0.105168
   1 C :   -0.016632
   2 O :    0.300808
   3 C :   -0.418869
   4 O :    0.114229
   5 C :   -0.094083
   6 C :   -0.064265
   7 C :    0.125854
   8 N :    0.405710
   9 C :   -0.458387
  10 S :   -0.036821
  11 N :    0.396223
  12 C :   -0.048359
  13 C :   -0.041056
  14 C :    0.024237
  15 C :    0.040825
  16 C :   -0.001244
  17 C :   -0.192711
  18 O :    0.393175
  19 C :    0.029245
  20 H :   -0.029326
  21 H :   -0.028935
  22 H :   -0.022832
  23 H :   -0.028584
  24 H :   -0.026014
  25 H :   -0.008435
  26 H :   -0.020864
  27 H :   -0.009404
  28 H :   -0.058461
  29 H :   -0.063237
  30 H :   -0.007909
  31 H :   -0.023755
  32 H :   -0.020825
  33 H :   -0.036019
  34 H :   -0.154673
  35 H :   -0.023775

  Mayer bond orders larger than 0.100000
B(  0-C ,  1-C ) :   0.9760 B(  0-C , 20-H ) :   0.9776 B(  0-C , 21-H ) :   0.9763
B(  0-C , 22-H ) :   0.9746 B(  1-C ,  2-O ) :   0.8951 B(  1-C , 23-H ) :   0.9827
B(  1-C , 24-H ) :   0.9725 B(  2-O ,  3-C ) :   1.0852 B(  3-C ,  4-O ) :   1.9988
B(  3-C ,  5-C ) :   1.0456 B(  5-C ,  6-C ) :   1.6551 B(  5-C , 12-C ) :   0.9465
B(  6-C ,  7-C ) :   0.9551 B(  6-C ,  8-N ) :   1.1361 B(  7-C , 25-H ) :   0.9655
B(  7-C , 26-H ) :   0.9905 B(  7-C , 27-H ) :   0.9638 B(  8-N ,  9-C ) :   1.1848
B(  8-N , 28-H ) :   0.9469 B(  9-C , 10-S ) :   1.6097 B(  9-C , 11-N ) :   1.3052
B( 11-N , 12-C ) :   0.9762 B( 11-N , 29-H ) :   0.9484 B( 12-C , 13-C ) :   0.9716
B( 12-C , 30-H ) :   0.9965 B( 13-C , 14-C ) :   1.3770 B( 13-C , 19-C ) :   1.3649
B( 14-C , 15-C ) :   1.3972 B( 14-C , 31-H ) :   0.9632 B( 15-C , 16-C ) :   1.3589
B( 15-C , 32-H ) :   0.9710 B( 16-C , 17-C ) :   1.3330 B( 16-C , 33-H ) :   0.9858
B( 17-C , 18-O ) :   1.1041 B( 17-C , 19-C ) :   1.3672 B( 18-O , 34-H ) :   0.9805
B( 19-C , 35-H ) :   0.9600

MP2 TOTAL ENERGY:    -1274.331519036 Eh
FINAL SINGLE POINT ENERGY     -1274.331519035957

DIPOLE MOMENT
-------------
                                X             Y             Z
Electronic contribution:      9.98254      10.22655      11.37285
Nuclear contribution   :    -11.57997     -11.37381     -12.11953
                        -----------------------------------------
Total Dipole Moment    :     -1.59743      -1.14726      -0.74668
                        -----------------------------------------
Magnitude (a.u.)       :      2.10369
Magnitude (Debye)      :      5.34716

Rotational constants in cm-1:     0.009928     0.009100     0.005574
Rotational constants in MHz :   297.641185   272.810286   167.094676

                             ****ORCA TERMINATED NORMALLY****
TOTAL RUN TIME: 0 days 1 hours 33 minutes 14 seconds 372 msec
