                         Program Version 4.2.0 -  RELEASE  -
|  1> ! ri-mp2 cc-pvtz cc-pvtz/c TightSCF NoKeepInts
|  2>
|  3> %scf
|  4>   MaxCore 4096
|  5> end
|  6> *xyz  0  1
|  7>     C       14.4662605   14.8616513   15.0640858
|  8>     C       15.3981298   15.4528863   16.1353033
|  9>     O       16.5570307   15.9756919   15.4616492
| 10>     C       16.6200839   17.3209603   15.2534115
| 11>     O       16.3773937   17.7736605   14.1500972
| 12>     C       16.9421656   18.1427988   16.4765331
| 13>     C       16.8701721   19.4983995   16.4113518
| 14>     C       16.1491192   20.3289187   15.3693163
| 15>     N       17.4777184   20.3041063   17.3764140
| 16>     C       18.3746937   19.8516942   18.3045811
| 17>     S       19.1559512   20.8750641   19.3424793
| 18>     N       18.6125169   18.5012380   18.3115658
| 19>     C       17.8688484   17.4980039   17.5265513
| 20>     C       17.2475493   16.4323129   18.4161512
| 21>     C       17.8089015   15.1440246   18.4881205
| 22>     C       17.2373568   14.1634925   19.3164661
| 23>     C       16.1016446   14.4767728   20.0831328
| 24>     C       15.5501257   15.7640279   20.0235463
| 25>     O       14.4543753   16.0699049   20.7621395
| 26>     C       16.1199900   16.7377113   19.1972821
| 27>     H       14.1415212   15.6398212   14.3615031
| 28>     H       13.5746723   14.4222941   15.5274114
| 29>     H       14.9808932   14.0775706   14.4947020
| 30>     H       14.8760619   16.2280243   16.7123640
| 31>     H       15.6962406   14.6492469   16.8201560
| 32>     H       15.1812128   19.8804366   15.1120232
| 33>     H       16.7395860   20.3841148   14.4454293
| 34>     H       15.9505701   21.3542943   15.7029610
| 35>     H       17.3386628   21.3018913   17.3553958
| 36>     H       19.2635510   18.1938347   19.0233046
| 37>     H       18.7001176   17.0732312   16.9455100
| 38>     H       18.6855357   14.8995390   17.8933638
| 39>     H       17.6748878   13.1673480   19.3632247
| 40>     H       15.6573812   13.7222901   20.7244657
| 41>     H       14.2489357   15.3002926   21.3146738
| 42>     H       15.6871429   17.7324498   19.1713333
| 43> *
| 44>
| 45>                          ****END OF INPUT****

CARTESIAN COORDINATES (ANGSTROEM)
---------------------------------
  C     14.466261   14.861651   15.064086
  C     15.398130   15.452886   16.135303
  O     16.557031   15.975692   15.461649
  C     16.620084   17.320960   15.253411
  O     16.377394   17.773660   14.150097
  C     16.942166   18.142799   16.476533
  C     16.870172   19.498400   16.411352
  C     16.149119   20.328919   15.369316
  N     17.477718   20.304106   17.376414
  C     18.374694   19.851694   18.304581
  S     19.155951   20.875064   19.342479
  N     18.612517   18.501238   18.311566
  C     17.868848   17.498004   17.526551
  C     17.247549   16.432313   18.416151
  C     17.808901   15.144025   18.488121
  C     17.237357   14.163493   19.316466
  C     16.101645   14.476773   20.083133
  C     15.550126   15.764028   20.023546
  O     14.454375   16.069905   20.762139
  C     16.119990   16.737711   19.197282
  H     14.141521   15.639821   14.361503
  H     13.574672   14.422294   15.527411
  H     14.980893   14.077571   14.494702
  H     14.876062   16.228024   16.712364
  H     15.696241   14.649247   16.820156
  H     15.181213   19.880437   15.112023
  H     16.739586   20.384115   14.445429
  H     15.950570   21.354294   15.702961
  H     17.338663   21.301891   17.355396
  H     19.263551   18.193835   19.023305
  H     18.700118   17.073231   16.945510
  H     18.685536   14.899539   17.893364
  H     17.674888   13.167348   19.363225
  H     15.657381   13.722290   20.724466
  H     14.248936   15.300293   21.314674
  H     15.687143   17.732450   19.171333

 Total Charge           Charge          ....    0
 Multiplicity           Mult            ....    1
 Number of Electrons    NEL             ....  154
 Basis Dimension        Dim             ....  828

ORBITAL ENERGIES
----------------

  NO   OCC          E(Eh)            E(eV)
   0   2.0000     -91.891604     -2500.4977
   1   2.0000     -20.603990      -560.6631
   2   2.0000     -20.582805      -560.0866
   3   2.0000     -20.547636      -559.1296
   4   2.0000     -15.631494      -425.3546
   5   2.0000     -15.610114      -424.7728
   6   2.0000     -11.392352      -310.0017
   7   2.0000     -11.385920      -309.8266
   8   2.0000     -11.339454      -308.5622
   9   2.0000     -11.321859      -308.0834
  10   2.0000     -11.313472      -307.8552
  11   2.0000     -11.295306      -307.3609
  12   2.0000     -11.267510      -306.6045
  13   2.0000     -11.262889      -306.4788
  14   2.0000     -11.259996      -306.4001
  15   2.0000     -11.254035      -306.2378
  16   2.0000     -11.251988      -306.1822
  17   2.0000     -11.246240      -306.0258
  18   2.0000     -11.246188      -306.0243
  19   2.0000     -11.220658      -305.3296
  20   2.0000      -8.896652      -242.0902
  21   2.0000      -6.578217      -179.0024
  22   2.0000      -6.576225      -178.9482
  23   2.0000      -6.575627      -178.9319
  24   2.0000      -1.446930       -39.3730
  25   2.0000      -1.423733       -38.7418
  26   2.0000      -1.354561       -36.8595
  27   2.0000      -1.343599       -36.5612
  28   2.0000      -1.241956       -33.7953
  29   2.0000      -1.164837       -31.6968
  30   2.0000      -1.123455       -30.5708
  31   2.0000      -1.048862       -28.5410
  32   2.0000      -1.030832       -28.0504
  33   2.0000      -1.022910       -27.8348
  34   2.0000      -1.000533       -27.2259
  35   2.0000      -0.988055       -26.8863
  36   2.0000      -0.926477       -25.2107
  37   2.0000      -0.878729       -23.9114
  38   2.0000      -0.851581       -23.1727
  39   2.0000      -0.844506       -22.9802
  40   2.0000      -0.841584       -22.9007
  41   2.0000      -0.833310       -22.6755
  42   2.0000      -0.758228       -20.6324
  43   2.0000      -0.738917       -20.1069
  44   2.0000      -0.720854       -19.6154
  45   2.0000      -0.702674       -19.1207
  46   2.0000      -0.691506       -18.8168
  47   2.0000      -0.677760       -18.4428
  48   2.0000      -0.672019       -18.2866
  49   2.0000      -0.665699       -18.1146
  50   2.0000      -0.648815       -17.6552
  51   2.0000      -0.648095       -17.6356
  52   2.0000      -0.639217       -17.3940
  53   2.0000      -0.613966       -16.7069
  54   2.0000      -0.608100       -16.5472
  55   2.0000      -0.603991       -16.4354
  56   2.0000      -0.586378       -15.9561
  57   2.0000      -0.581717       -15.8293
  58   2.0000      -0.578162       -15.7326
  59   2.0000      -0.573050       -15.5935
  60   2.0000      -0.565326       -15.3833
  61   2.0000      -0.545112       -14.8332
  62   2.0000      -0.540409       -14.7053
  63   2.0000      -0.530339       -14.4312
  64   2.0000      -0.518552       -14.1105
  65   2.0000      -0.513028       -13.9602
  66   2.0000      -0.504568       -13.7300
  67   2.0000      -0.496113       -13.4999
  68   2.0000      -0.486973       -13.2512
  69   2.0000      -0.466758       -12.7011
  70   2.0000      -0.454556       -12.3691
  71   2.0000      -0.444404       -12.0928
  72   2.0000      -0.357416        -9.7258
  73   2.0000      -0.355033        -9.6609
  74   2.0000      -0.331931        -9.0323
  75   2.0000      -0.328629        -8.9425
  76   2.0000      -0.321534        -8.7494
  77   0.0000       0.072539         1.9739
  78   0.0000       0.095645         2.6026
  79   0.0000       0.120681         3.2839
  80   0.0000       0.128138         3.4868
  81   0.0000       0.128854         3.5063

MULLIKEN ATOMIC CHARGES
-----------------------
   0 C :   -0.255422
   1 C :    0.005902
   2 O :   -0.365708
   3 C :    0.466171
   4 O :   -0.388546
   5 C :   -0.290435
   6 C :    0.183980
   7 C :   -0.267067
   8 N :   -0.127940
   9 C :    0.209909
  10 S :   -0.438243
  11 N :   -0.211966
  12 C :    0.051936
  13 C :    0.011992
  14 C :   -0.168743
  15 C :   -0.139845
  16 C :   -0.270358
  17 C :    0.310502
  18 O :   -0.356180
  19 C :   -0.236187
  20 H :    0.101437
  21 H :    0.086171
  22 H :    0.097858
  23 H :    0.098561
  24 H :    0.117831
  25 H :    0.124997
  26 H :    0.137041
  27 H :    0.094202
  28 H :    0.199782
  29 H :    0.200937
  30 H :    0.152065
  31 H :    0.152356
  32 H :    0.166045
  33 H :    0.134858
  34 H :    0.242236
  35 H :    0.169872
Sum of atomic charges:   -0.0000000

LOEWDIN ATOMIC CHARGES
----------------------
   0 C :    0.106495
   1 C :   -0.027135
   2 O :    0.296947
   3 C :   -0.427089
   4 O :    0.122507
   5 C :   -0.105343
   6 C :   -0.056213
   7 C :    0.130110
   8 N :    0.407764
   9 C :   -0.457497
  10 S :   -0.033218
  11 N :    0.395015
  12 C :   -0.054210
  13 C :   -0.040804
  14 C :    0.018806
  15 C :    0.041440
  16 C :    0.000775
  17 C :   -0.191540
  18 O :    0.396349
  19 C :    0.035475
  20 H :   -0.025534
  21 H :   -0.029703
  22 H :   -0.025263
  23 H :   -0.034259
  24 H :   -0.024659
  25 H :   -0.006062
  26 H :   -0.003840
  27 H :   -0.023014
  28 H :   -0.056206
  29 H :   -0.063737
  30 H :   -0.011511
  31 H :   -0.027011
  32 H :   -0.019248
  33 H :   -0.033597
  34 H :   -0.152143
  35 H :   -0.022845

  Mayer bond orders larger than 0.100000
B(  0-C ,  1-C ) :   0.9834 B(  0-C , 20-H ) :   0.9767 B(  0-C , 21-H ) :   0.9775
B(  0-C , 22-H ) :   0.9799 B(  1-C ,  2-O ) :   0.8781 B(  1-C , 23-H ) :   0.9665
B(  1-C , 24-H ) :   0.9746 B(  2-O ,  3-C ) :   1.1126 B(  3-C ,  4-O ) :   2.0583
B(  3-C ,  5-C ) :   1.0382 B(  5-C ,  6-C ) :   1.6345 B(  5-C , 12-C ) :   0.9596
B(  6-C ,  7-C ) :   0.9648 B(  6-C ,  8-N ) :   1.1562 B(  7-C , 25-H ) :   0.9675
B(  7-C , 26-H ) :   0.9542 B(  7-C , 27-H ) :   0.9876 B(  8-N ,  9-C ) :   1.1866
B(  8-N , 28-H ) :   0.9470 B(  9-C , 10-S ) :   1.6101 B(  9-C , 11-N ) :   1.3066
B( 11-N , 12-C ) :   0.9639 B( 11-N , 29-H ) :   0.9483 B( 12-C , 13-C ) :   0.9699
B( 12-C , 30-H ) :   1.0043 B( 13-C , 14-C ) :   1.3544 B( 13-C , 19-C ) :   1.3596
B( 14-C , 15-C ) :   1.3929 B( 14-C , 31-H ) :   0.9744 B( 15-C , 16-C ) :   1.3599
B( 15-C , 32-H ) :   0.9693 B( 16-C , 17-C ) :   1.3312 B( 16-C , 33-H ) :   0.9834
B( 17-C , 18-O ) :   1.1079 B( 17-C , 19-C ) :   1.3618 B( 18-O , 34-H ) :   0.9784
B( 19-C , 35-H ) :   0.9602

MP2 TOTAL ENERGY:    -1274.324798083 Eh
FINAL SINGLE POINT ENERGY     -1274.324798083290

DIPOLE MOMENT
-------------
                                X             Y             Z
Electronic contribution:      9.87876       9.53750       7.36277
Nuclear contribution   :    -11.01021     -11.06808      -6.98395
                        -----------------------------------------
Total Dipole Moment    :     -1.13145      -1.53058       0.37882
                        -----------------------------------------
Magnitude (a.u.)       :      1.94071
Magnitude (Debye)      :      4.93289

Rotational constants in cm-1:     0.012002     0.008786     0.006023
Rotational constants in MHz :   359.808898   263.392437   180.558144

                             ****ORCA TERMINATED NORMALLY****
TOTAL RUN TIME: 0 days 1 hours 55 minutes 4 seconds 623 msec
