                         Program Version 4.2.0 -  RELEASE  -
|  1> ! ri-mp2 cc-pvtz cc-pvtz/c TightSCF NoKeepInts
|  2>
|  3> %scf
|  4>   MaxCore 4096
|  5> end
|  6> *xyz  0  1
|  7>     C       14.2800598   14.7617244   15.4287838
|  8>     C       15.1342847   15.8175464   16.1487776
|  9>     O       16.3602283   15.9439189   15.4045815
| 10>     C       16.9240727   17.1720789   15.2061300
| 11>     O       17.3013170   17.5090734   14.0991912
| 12>     C       17.0335638   18.0528982   16.4152473
| 13>     C       16.9084943   19.3917877   16.2457692
| 14>     C       16.2679040   20.0864938   15.0626565
| 15>     N       17.3793954   20.2935512   17.2012267
| 16>     C       18.2130967   19.9505104   18.2312405
| 17>     S       18.8416849   21.0790897   19.2635721
| 18>     N       18.5209082   18.6178703   18.3482893
| 19>     C       17.9010676   17.5263392   17.5712028
| 20>     C       17.2873033   16.4501347   18.4504308
| 21>     C       17.7293089   15.1171041   18.3639872
| 22>     C       17.1588111   14.1239320   19.1777092
| 23>     C       16.1444654   14.4681860   20.0879017
| 24>     C       15.7094571   15.7973816   20.1816191
| 25>     O       14.7278594   16.1319239   21.0558617
| 26>     C       16.2763086   16.7838159   19.3682099
| 27>     H       13.3222822   14.6226106   15.9446278
| 28>     H       14.8009522   13.7963409   15.4042401
| 29>     H       14.0742493   15.0692715   14.3957218
| 30>     H       14.5853308   16.7686754   16.1717210
| 31>     H       15.3171894   15.4873815   17.1754445
| 32>     H       15.4437358   19.4913521   14.6502516
| 33>     H       17.0025913   20.2251582   14.2583743
| 34>     H       15.8598181   21.0701925   15.3237515
| 35>     H       17.1976201   21.2791252   17.0954224
| 36>     H       19.1286720   18.3927659   19.1262302
| 37>     H       18.8013879   17.1292234   17.0799631
| 38>     H       18.5092678   14.8476679   17.6558486
| 39>     H       17.5028322   13.0935716   19.1009941
| 40>     H       15.7016462   13.7035807   20.7180884
| 41>     H       14.5087142   15.3386828   21.5681911
| 42>     H       15.9311190   17.8090393   19.4567411
| 43> *
| 44>
| 45>                          ****END OF INPUT****

CARTESIAN COORDINATES (ANGSTROEM)
---------------------------------
  C     14.280060   14.761724   15.428784
  C     15.134285   15.817546   16.148778
  O     16.360228   15.943919   15.404582
  C     16.924073   17.172079   15.206130
  O     17.301317   17.509073   14.099191
  C     17.033564   18.052898   16.415247
  C     16.908494   19.391788   16.245769
  C     16.267904   20.086494   15.062656
  N     17.379395   20.293551   17.201227
  C     18.213097   19.950510   18.231240
  S     18.841685   21.079090   19.263572
  N     18.520908   18.617870   18.348289
  C     17.901068   17.526339   17.571203
  C     17.287303   16.450135   18.450431
  C     17.729309   15.117104   18.363987
  C     17.158811   14.123932   19.177709
  C     16.144465   14.468186   20.087902
  C     15.709457   15.797382   20.181619
  O     14.727859   16.131924   21.055862
  C     16.276309   16.783816   19.368210
  H     13.322282   14.622611   15.944628
  H     14.800952   13.796341   15.404240
  H     14.074249   15.069271   14.395722
  H     14.585331   16.768675   16.171721
  H     15.317189   15.487381   17.175444
  H     15.443736   19.491352   14.650252
  H     17.002591   20.225158   14.258374
  H     15.859818   21.070193   15.323751
  H     17.197620   21.279125   17.095422
  H     19.128672   18.392766   19.126230
  H     18.801388   17.129223   17.079963
  H     18.509268   14.847668   17.655849
  H     17.502832   13.093572   19.100994
  H     15.701646   13.703581   20.718088
  H     14.508714   15.338683   21.568191
  H     15.931119   17.809039   19.456741

 Total Charge           Charge          ....    0
 Multiplicity           Mult            ....    1
 Number of Electrons    NEL             ....  154
 Basis Dimension        Dim             ....  828

ORBITAL ENERGIES
----------------

  NO   OCC          E(Eh)            E(eV)
   0   2.0000     -91.890841     -2500.4769
   1   2.0000     -20.604364      -560.6733
   2   2.0000     -20.592340      -560.3461
   3   2.0000     -20.550563      -559.2093
   4   2.0000     -15.628612      -425.2762
   5   2.0000     -15.610807      -424.7917
   6   2.0000     -11.393662      -310.0373
   7   2.0000     -11.385773      -309.8226
   8   2.0000     -11.332711      -308.3788
   9   2.0000     -11.322716      -308.1068
  10   2.0000     -11.316131      -307.9276
  11   2.0000     -11.296568      -307.3952
  12   2.0000     -11.268788      -306.6393
  13   2.0000     -11.263909      -306.5065
  14   2.0000     -11.257448      -306.3307
  15   2.0000     -11.255875      -306.2879
  16   2.0000     -11.253019      -306.2102
  17   2.0000     -11.247267      -306.0537
  18   2.0000     -11.247189      -306.0516
  19   2.0000     -11.227530      -305.5166
  20   2.0000      -8.895902      -242.0698
  21   2.0000      -6.577471      -178.9821
  22   2.0000      -6.575475      -178.9278
  23   2.0000      -6.574881      -178.9116
  24   2.0000      -1.447234       -39.3812
  25   2.0000      -1.424149       -38.7531
  26   2.0000      -1.358727       -36.9728
  27   2.0000      -1.341531       -36.5049
  28   2.0000      -1.240882       -33.7661
  29   2.0000      -1.166019       -31.7290
  30   2.0000      -1.124511       -30.5995
  31   2.0000      -1.050403       -28.5829
  32   2.0000      -1.035115       -28.1669
  33   2.0000      -1.023960       -27.8634
  34   2.0000      -1.002359       -27.2756
  35   2.0000      -0.988879       -26.9088
  36   2.0000      -0.927051       -25.2263
  37   2.0000      -0.876461       -23.8497
  38   2.0000      -0.852352       -23.1937
  39   2.0000      -0.844374       -22.9766
  40   2.0000      -0.842826       -22.9345
  41   2.0000      -0.837198       -22.7813
  42   2.0000      -0.760463       -20.6932
  43   2.0000      -0.739632       -20.1264
  44   2.0000      -0.725889       -19.7524
  45   2.0000      -0.702949       -19.1282
  46   2.0000      -0.692062       -18.8320
  47   2.0000      -0.678494       -18.4628
  48   2.0000      -0.674970       -18.3669
  49   2.0000      -0.667783       -18.1713
  50   2.0000      -0.651085       -17.7169
  51   2.0000      -0.649416       -17.6715
  52   2.0000      -0.638300       -17.3690
  53   2.0000      -0.614294       -16.7158
  54   2.0000      -0.608673       -16.5628
  55   2.0000      -0.603925       -16.4336
  56   2.0000      -0.591312       -16.0904
  57   2.0000      -0.583001       -15.8643
  58   2.0000      -0.575488       -15.6598
  59   2.0000      -0.568377       -15.4663
  60   2.0000      -0.562598       -15.3091
  61   2.0000      -0.553165       -15.0524
  62   2.0000      -0.545439       -14.8422
  63   2.0000      -0.530193       -14.4273
  64   2.0000      -0.520473       -14.1628
  65   2.0000      -0.515467       -14.0266
  66   2.0000      -0.505788       -13.7632
  67   2.0000      -0.501081       -13.6351
  68   2.0000      -0.486130       -13.2283
  69   2.0000      -0.469615       -12.7789
  70   2.0000      -0.453135       -12.3304
  71   2.0000      -0.450211       -12.2509
  72   2.0000      -0.358028        -9.7424
  73   2.0000      -0.353328        -9.6146
  74   2.0000      -0.332013        -9.0345
  75   2.0000      -0.329079        -8.9547
  76   2.0000      -0.320558        -8.7228
  77   0.0000       0.079317         2.1583
  78   0.0000       0.096266         2.6195
  79   0.0000       0.119416         3.2495
  80   0.0000       0.126946         3.4544
  81   0.0000       0.128620         3.4999

MULLIKEN ATOMIC CHARGES
-----------------------
   0 C :   -0.255114
   1 C :    0.017651
   2 O :   -0.323712
   3 C :    0.405116
   4 O :   -0.370204
   5 C :   -0.230622
   6 C :    0.163611
   7 C :   -0.275297
   8 N :   -0.130988
   9 C :    0.210222
  10 S :   -0.438837
  11 N :   -0.208808
  12 C :    0.024683
  13 C :   -0.016048
  14 C :   -0.164776
  15 C :   -0.136337
  16 C :   -0.270219
  17 C :    0.301588
  18 O :   -0.355698
  19 C :   -0.216518
  20 H :    0.086971
  21 H :    0.097967
  22 H :    0.102526
  23 H :    0.092852
  24 H :    0.112699
  25 H :    0.115264
  26 H :    0.142344
  27 H :    0.097253
  28 H :    0.198919
  29 H :    0.199629
  30 H :    0.156396
  31 H :    0.156098
  32 H :    0.164531
  33 H :    0.135140
  34 H :    0.241807
  35 H :    0.169915
Sum of atomic charges:   -0.0000000

LOEWDIN ATOMIC CHARGES
----------------------
   0 C :    0.109300
   1 C :   -0.023039
   2 O :    0.304877
   3 C :   -0.425629
   4 O :    0.127361
   5 C :   -0.100085
   6 C :   -0.071943
   7 C :    0.129179
   8 N :    0.406185
   9 C :   -0.456293
  10 S :   -0.034350
  11 N :    0.395675
  12 C :   -0.054490
  13 C :   -0.046145
  14 C :    0.019325
  15 C :    0.043049
  16 C :    0.001521
  17 C :   -0.192412
  18 O :    0.397017
  19 C :    0.033557
  20 H :   -0.026949
  21 H :   -0.025619
  22 H :   -0.025158
  23 H :   -0.035066
  24 H :   -0.033065
  25 H :   -0.009484
  26 H :   -0.003837
  27 H :   -0.021388
  28 H :   -0.056777
  29 H :   -0.063540
  30 H :   -0.010590
  31 H :   -0.026183
  32 H :   -0.018435
  33 H :   -0.033249
  34 H :   -0.152204
  35 H :   -0.021118

  Mayer bond orders larger than 0.100000
B(  0-C ,  1-C ) :   0.9850 B(  0-C , 20-H ) :   0.9771 B(  0-C , 21-H ) :   0.9789
B(  0-C , 22-H ) :   0.9789 B(  1-C ,  2-O ) :   0.8916 B(  1-C , 23-H ) :   0.9719
B(  1-C , 24-H ) :   0.9661 B(  2-O ,  3-C ) :   1.1704 B(  3-C ,  4-O ) :   2.1154
B(  3-C ,  5-C ) :   0.9596 B(  5-C ,  6-C ) :   1.6652 B(  5-C , 12-C ) :   0.9687
B(  6-C ,  7-C ) :   0.9535 B(  6-C ,  8-N ) :   1.1381 B(  7-C , 25-H ) :   0.9754
B(  7-C , 26-H ) :   0.9552 B(  7-C , 27-H ) :   0.9847 B(  8-N ,  9-C ) :   1.1935
B(  8-N , 28-H ) :   0.9488 B(  9-C , 10-S ) :   1.6140 B(  9-C , 11-N ) :   1.2925
B( 11-N , 12-C ) :   0.9786 B( 11-N , 29-H ) :   0.9477 B( 12-C , 13-C ) :   0.9537
B( 12-C , 30-H ) :   1.0075 B( 13-C , 14-C ) :   1.3679 B( 13-C , 19-C ) :   1.3665
B( 14-C , 15-C ) :   1.3952 B( 14-C , 31-H ) :   0.9690 B( 15-C , 16-C ) :   1.3612
B( 15-C , 32-H ) :   0.9701 B( 16-C , 17-C ) :   1.3285 B( 16-C , 33-H ) :   0.9835
B( 17-C , 18-O ) :   1.1102 B( 17-C , 19-C ) :   1.3664 B( 18-O , 34-H ) :   0.9785
B( 19-C , 35-H ) :   0.9585

MP2 TOTAL ENERGY:    -1274.324235809 Eh
FINAL SINGLE POINT ENERGY     -1274.324235808990

DIPOLE MOMENT
-------------
                                X             Y             Z
Electronic contribution:     10.44565       9.56010       7.01488
Nuclear contribution   :    -11.91630     -11.10274      -6.68486
                        -----------------------------------------
Total Dipole Moment    :     -1.47065      -1.54265       0.33002
                        -----------------------------------------
Magnitude (a.u.)       :      2.15673
Magnitude (Debye)      :      5.48196

Rotational constants in cm-1:     0.011963     0.008833     0.005983
Rotational constants in MHz :   358.636514   264.797531   179.365836

                             ****ORCA TERMINATED NORMALLY****
TOTAL RUN TIME: 0 days 1 hours 46 minutes 38 seconds 56 msec
