                         Program Version 4.2.0 -  RELEASE  -
|  1> ! ri-mp2 cc-pvtz cc-pvtz/c TightSCF NoKeepInts
|  2>
|  3> %scf
|  4>   MaxCore 4096
|  5> end
|  6> *xyz  0  1
|  7>     C       13.7180094   15.7969403   14.0309035
|  8>     C       15.1625618   15.4515184   14.4297716
|  9>     O       15.7592179   16.6468831   14.9591844
| 10>     C       16.7922302   16.5306791   15.8423629
| 11>     O       17.4415609   15.5026717   15.9449832
| 12>     C       16.9964961   17.7152087   16.7458030
| 13>     C       16.6613441   18.9843387   16.3896545
| 14>     C       15.8380061   19.4356324   15.1988906
| 15>     N       17.1157738   20.0768302   17.1330429
| 16>     C       18.0775262   20.0082531   18.1042762
| 17>     S       18.6464497   21.3613328   18.8665546
| 18>     N       18.5610678   18.7583688   18.3957259
| 19>     C       18.0263145   17.4911166   17.8612397
| 20>     C       17.5493790   16.5378106   18.9492005
| 21>     C       18.0696182   15.2341774   19.0398839
| 22>     C       17.6305986   14.3578874   20.0465687
| 23>     C       16.6642849   14.7896644   20.9713373
| 24>     C       16.1430333   16.0878144   20.8821182
| 25>     O       15.2072209   16.5059890   21.7713673
| 26>     C       16.5816939   16.9575018   19.8785578
| 27>     H       13.1505063   16.1507358   14.9006985
| 28>     H       13.2097212   14.9133962   13.6258565
| 29>     H       13.7054276   16.5819692   13.2646831
| 30>     H       15.1383957   14.6606359   15.1926155
| 31>     H       15.7336570   15.0863803   13.5659756
| 32>     H       16.2867060   19.0876446   14.2600324
| 33>     H       15.7519959   20.5267523   15.1281879
| 34>     H       14.8188703   19.0332205   15.2573489
| 35>     H       16.7862278   21.0035938   16.9155320
| 36>     H       19.2533184   18.7321187   19.1337421
| 37>     H       18.9238179   17.0944481   17.3646413
| 38>     H       18.8056845   14.8948953   18.3148752
| 39>     H       18.0352920   13.3489870   20.1025731
| 40>     H       16.3213522   14.1156641   21.7491643
| 41>     H       15.0540041   15.7792134   22.3935062
| 42>     H       16.1696356   17.9597263   19.8271405
| 43> *
| 44>
| 45>                          ****END OF INPUT****

CARTESIAN COORDINATES (ANGSTROEM)
---------------------------------
  C     13.718009   15.796940   14.030904
  C     15.162562   15.451518   14.429772
  O     15.759218   16.646883   14.959184
  C     16.792230   16.530679   15.842363
  O     17.441561   15.502672   15.944983
  C     16.996496   17.715209   16.745803
  C     16.661344   18.984339   16.389654
  C     15.838006   19.435632   15.198891
  N     17.115774   20.076830   17.133043
  C     18.077526   20.008253   18.104276
  S     18.646450   21.361333   18.866555
  N     18.561068   18.758369   18.395726
  C     18.026315   17.491117   17.861240
  C     17.549379   16.537811   18.949200
  C     18.069618   15.234177   19.039884
  C     17.630599   14.357887   20.046569
  C     16.664285   14.789664   20.971337
  C     16.143033   16.087814   20.882118
  O     15.207221   16.505989   21.771367
  C     16.581694   16.957502   19.878558
  H     13.150506   16.150736   14.900699
  H     13.209721   14.913396   13.625856
  H     13.705428   16.581969   13.264683
  H     15.138396   14.660636   15.192615
  H     15.733657   15.086380   13.565976
  H     16.286706   19.087645   14.260032
  H     15.751996   20.526752   15.128188
  H     14.818870   19.033220   15.257349
  H     16.786228   21.003594   16.915532
  H     19.253318   18.732119   19.133742
  H     18.923818   17.094448   17.364641
  H     18.805685   14.894895   18.314875
  H     18.035292   13.348987   20.102573
  H     16.321352   14.115664   21.749164
  H     15.054004   15.779213   22.393506
  H     16.169636   17.959726   19.827140

 Total Charge           Charge          ....    0
 Multiplicity           Mult            ....    1
 Number of Electrons    NEL             ....  154
 Basis Dimension        Dim             ....  828

ORBITAL ENERGIES
----------------

  NO   OCC          E(Eh)            E(eV)
   0   2.0000     -91.887878     -2500.3963
   1   2.0000     -20.603383      -560.6465
   2   2.0000     -20.591402      -560.3205
   3   2.0000     -20.545172      -559.0626
   4   2.0000     -15.628495      -425.2730
   5   2.0000     -15.605496      -424.6471
   6   2.0000     -11.394956      -310.0725
   7   2.0000     -11.382376      -309.7302
   8   2.0000     -11.338281      -308.5303
   9   2.0000     -11.307316      -307.6877
  10   2.0000     -11.304021      -307.5980
  11   2.0000     -11.299877      -307.4853
  12   2.0000     -11.261085      -306.4297
  13   2.0000     -11.259039      -306.3740
  14   2.0000     -11.254559      -306.2521
  15   2.0000     -11.247346      -306.0558
  16   2.0000     -11.237603      -305.7907
  17   2.0000     -11.235199      -305.7253
  18   2.0000     -11.233750      -305.6859
  19   2.0000     -11.230455      -305.5962
  20   2.0000      -8.892963      -241.9898
  21   2.0000      -6.574541      -178.9023
  22   2.0000      -6.572537      -178.8478
  23   2.0000      -6.571950      -178.8318
  24   2.0000      -1.455396       -39.6033
  25   2.0000      -1.411147       -38.3993
  26   2.0000      -1.357078       -36.9280
  27   2.0000      -1.339808       -36.4580
  28   2.0000      -1.236931       -33.6586
  29   2.0000      -1.151980       -31.3470
  30   2.0000      -1.120594       -30.4929
  31   2.0000      -1.045099       -28.4386
  32   2.0000      -1.036836       -28.2137
  33   2.0000      -1.009520       -27.4704
  34   2.0000      -0.998714       -27.1764
  35   2.0000      -0.983774       -26.7698
  36   2.0000      -0.920425       -25.0460
  37   2.0000      -0.888687       -24.1824
  38   2.0000      -0.846921       -23.0459
  39   2.0000      -0.834458       -22.7068
  40   2.0000      -0.827600       -22.5201
  41   2.0000      -0.817931       -22.2570
  42   2.0000      -0.762579       -20.7508
  43   2.0000      -0.736073       -20.0296
  44   2.0000      -0.725790       -19.7498
  45   2.0000      -0.690565       -18.7912
  46   2.0000      -0.684497       -18.6261
  47   2.0000      -0.680675       -18.5221
  48   2.0000      -0.675604       -18.3841
  49   2.0000      -0.660420       -17.9710
  50   2.0000      -0.649281       -17.6678
  51   2.0000      -0.642010       -17.4700
  52   2.0000      -0.633352       -17.2344
  53   2.0000      -0.603266       -16.4157
  54   2.0000      -0.598638       -16.2898
  55   2.0000      -0.595039       -16.1918
  56   2.0000      -0.594216       -16.1694
  57   2.0000      -0.580093       -15.7851
  58   2.0000      -0.572690       -15.5837
  59   2.0000      -0.564784       -15.3686
  60   2.0000      -0.561530       -15.2800
  61   2.0000      -0.556337       -15.1387
  62   2.0000      -0.541817       -14.7436
  63   2.0000      -0.520838       -14.1727
  64   2.0000      -0.515558       -14.0291
  65   2.0000      -0.510234       -13.8842
  66   2.0000      -0.503202       -13.6928
  67   2.0000      -0.493946       -13.4409
  68   2.0000      -0.480808       -13.0835
  69   2.0000      -0.466001       -12.6805
  70   2.0000      -0.458972       -12.4893
  71   2.0000      -0.454231       -12.3603
  72   2.0000      -0.353018        -9.6061
  73   2.0000      -0.344171        -9.3654
  74   2.0000      -0.326949        -8.8967
  75   2.0000      -0.317015        -8.6264
  76   2.0000      -0.313895        -8.5415
  77   0.0000       0.077380         2.1056
  78   0.0000       0.112006         3.0478
  79   0.0000       0.120183         3.2704
  80   0.0000       0.135888         3.6977
  81   0.0000       0.138594         3.7713

MULLIKEN ATOMIC CHARGES
-----------------------
   0 C :   -0.272761
   1 C :    0.041023
   2 O :   -0.336174
   3 C :    0.410933
   4 O :   -0.420503
   5 C :   -0.172073
   6 C :    0.161701
   7 C :   -0.282519
   8 N :   -0.128821
   9 C :    0.207396
  10 S :   -0.442666
  11 N :   -0.210738
  12 C :    0.042636
  13 C :    0.032188
  14 C :   -0.165545
  15 C :   -0.134673
  16 C :   -0.277134
  17 C :    0.314118
  18 O :   -0.359261
  19 C :   -0.251520
  20 H :    0.097447
  21 H :    0.101132
  22 H :    0.093133
  23 H :    0.095985
  24 H :    0.095793
  25 H :    0.125651
  26 H :    0.103315
  27 H :    0.129148
  28 H :    0.198833
  29 H :    0.199981
  30 H :    0.154955
  31 H :    0.158249
  32 H :    0.159814
  33 H :    0.128071
  34 H :    0.239882
  35 H :    0.163003
Sum of atomic charges:   -0.0000000

LOEWDIN ATOMIC CHARGES
----------------------
   0 C :    0.106234
   1 C :   -0.016581
   2 O :    0.306895
   3 C :   -0.416168
   4 O :    0.104500
   5 C :   -0.092028
   6 C :   -0.064206
   7 C :    0.124925
   8 N :    0.405432
   9 C :   -0.458717
  10 S :   -0.037793
  11 N :    0.396530
  12 C :   -0.048264
  13 C :   -0.040431
  14 C :    0.025290
  15 C :    0.040940
  16 C :   -0.001233
  17 C :   -0.192621
  18 O :    0.392949
  19 C :    0.029581
  20 H :   -0.026606
  21 H :   -0.023060
  22 H :   -0.029099
  23 H :   -0.025787
  24 H :   -0.029790
  25 H :   -0.009526
  26 H :   -0.021263
  27 H :   -0.009641
  28 H :   -0.058800
  29 H :   -0.063058
  30 H :   -0.008330
  31 H :   -0.024011
  32 H :   -0.021107
  33 H :   -0.036234
  34 H :   -0.154942
  35 H :   -0.023982

  Mayer bond orders larger than 0.100000
B(  0-C ,  1-C ) :   0.9712 B(  0-C , 20-H ) :   0.9765 B(  0-C , 21-H ) :   0.9787
B(  0-C , 22-H ) :   0.9781 B(  1-C ,  2-O ) :   0.9066 B(  1-C , 23-H ) :   0.9739
B(  1-C , 24-H ) :   0.9810 B(  2-O ,  3-C ) :   1.1535 B(  3-C ,  4-O ) :   1.9889
B(  3-C ,  5-C ) :   1.0447 B(  5-C ,  6-C ) :   1.6545 B(  5-C , 12-C ) :   0.9501
B(  6-C ,  7-C ) :   0.9537 B(  6-C ,  8-N ) :   1.1354 B(  7-C , 25-H ) :   0.9650
B(  7-C , 26-H ) :   0.9914 B(  7-C , 27-H ) :   0.9636 B(  8-N ,  9-C ) :   1.1852
B(  8-N , 28-H ) :   0.9469 B(  9-C , 10-S ) :   1.6078 B(  9-C , 11-N ) :   1.3070
B( 11-N , 12-C ) :   0.9762 B( 11-N , 29-H ) :   0.9485 B( 12-C , 13-C ) :   0.9740
B( 12-C , 30-H ) :   0.9972 B( 13-C , 14-C ) :   1.3757 B( 13-C , 19-C ) :   1.3660
B( 14-C , 15-C ) :   1.3975 B( 14-C , 31-H ) :   0.9640 B( 15-C , 16-C ) :   1.3584
B( 15-C , 32-H ) :   0.9712 B( 16-C , 17-C ) :   1.3335 B( 16-C , 33-H ) :   0.9860
B( 17-C , 18-O ) :   1.1031 B( 17-C , 19-C ) :   1.3676 B( 18-O , 34-H ) :   0.9807
B( 19-C , 35-H ) :   0.9604

MP2 TOTAL ENERGY:    -1274.341215100 Eh
FINAL SINGLE POINT ENERGY     -1274.341215099765

DIPOLE MOMENT
-------------
                                X             Y             Z
Electronic contribution:     11.08669       8.60044      11.82150
Nuclear contribution   :    -12.50757      -9.94708     -12.87523
                        -----------------------------------------
Total Dipole Moment    :     -1.42088      -1.34664      -1.05373
                        -----------------------------------------
Magnitude (a.u.)       :      2.22321
Magnitude (Debye)      :      5.65096

Rotational constants in cm-1:     0.009715     0.008927     0.005555
Rotational constants in MHz :   291.256122   267.639552   166.522317

                             ****ORCA TERMINATED NORMALLY****
TOTAL RUN TIME: 0 days 1 hours 36 minutes 34 seconds 611 msec
