                         Program Version 4.2.0 -  RELEASE  -
|  1> ! ri-mp2 cc-pvtz cc-pvtz/c TightSCF NoKeepInts
|  2>
|  3> %scf
|  4>   MaxCore 4096
|  5> end
|  6> *xyz  0  1
|  7>     C       14.0542696   15.2695649   15.0702496
|  8>     C       15.2374361   15.6853431   14.1774458
|  9>     O       15.8649324   16.8320677   14.7795283
| 10>     C       16.8611480   16.6536093   15.6965680
| 11>     O       17.4734054   15.6032243   15.8000379
| 12>     C       17.0608933   17.8029871   16.6443975
| 13>     C       16.8098249   19.0948995   16.3026342
| 14>     C       16.0951685   19.6130239   15.0698597
| 15>     N       17.2621442   20.1453474   17.1054808
| 16>     C       18.1501720   20.0058560   18.1375522
| 17>     S       18.7266112   21.3102196   18.9753797
| 18>     N       18.5542723   18.7271215   18.4253274
| 19>     C       18.0005706   17.5009655   17.8189539
| 20>     C       17.4039072   16.5432687   18.8420182
| 21>     C       17.8499744   15.2119044   18.9242434
| 22>     C       17.2982063   14.3303174   19.8688837
| 23>     C       16.2926930   14.7845584   20.7395052
| 24>     C       15.8449704   16.1103750   20.6582380
| 25>     O       14.8711891   16.5503005   21.4946419
| 26>     C       16.3958181   16.9852843   19.7164416
| 27>     H       14.4090977   14.9523674   16.0593584
| 28>     H       13.5089038   14.4315681   14.6195166
| 29>     H       13.3547070   16.1040600   15.2033197
| 30>     H       15.9416529   14.8528013   14.0425611
| 31>     H       14.8510786   15.9638479   13.1886703
| 32>     H       16.5817547   19.2506940   14.1556631
| 33>     H       16.0819307   20.7082852   15.0132017
| 34>     H       15.0516019   19.2743091   15.0560674
| 35>     H       16.9912960   21.0920373   16.8928208
| 36>     H       19.1920894   18.6488942   19.2073805
| 37>     H       18.9107758   17.0742592   17.3729342
| 38>     H       18.6164085   14.8560218   18.2397558
| 39>     H       17.6466230   13.3002987   19.9185570
| 40>     H       15.8627634   14.1066360   21.4692157
| 41>     H       14.6399313   15.8150413   22.0817118
| 42>     H       16.0387783   18.0086397   19.6698790
| 43> *
| 44>
| 45>                          ****END OF INPUT****

CARTESIAN COORDINATES (ANGSTROEM)
---------------------------------
  C     14.054270   15.269565   15.070250
  C     15.237436   15.685343   14.177446
  O     15.864932   16.832068   14.779528
  C     16.861148   16.653609   15.696568
  O     17.473405   15.603224   15.800038
  C     17.060893   17.802987   16.644398
  C     16.809825   19.094900   16.302634
  C     16.095168   19.613024   15.069860
  N     17.262144   20.145347   17.105481
  C     18.150172   20.005856   18.137552
  S     18.726611   21.310220   18.975380
  N     18.554272   18.727121   18.425327
  C     18.000571   17.500965   17.818954
  C     17.403907   16.543269   18.842018
  C     17.849974   15.211904   18.924243
  C     17.298206   14.330317   19.868884
  C     16.292693   14.784558   20.739505
  C     15.844970   16.110375   20.658238
  O     14.871189   16.550300   21.494642
  C     16.395818   16.985284   19.716442
  H     14.409098   14.952367   16.059358
  H     13.508904   14.431568   14.619517
  H     13.354707   16.104060   15.203320
  H     15.941653   14.852801   14.042561
  H     14.851079   15.963848   13.188670
  H     16.581755   19.250694   14.155663
  H     16.081931   20.708285   15.013202
  H     15.051602   19.274309   15.056067
  H     16.991296   21.092037   16.892821
  H     19.192089   18.648894   19.207380
  H     18.910776   17.074259   17.372934
  H     18.616408   14.856022   18.239756
  H     17.646623   13.300299   19.918557
  H     15.862763   14.106636   21.469216
  H     14.639931   15.815041   22.081712
  H     16.038778   18.008640   19.669879

 Total Charge           Charge          ....    0
 Multiplicity           Mult            ....    1
 Number of Electrons    NEL             ....  154
 Basis Dimension        Dim             ....  828

ORBITAL ENERGIES
----------------

  NO   OCC          E(Eh)            E(eV)
   0   2.0000     -91.887927     -2500.3976
   1   2.0000     -20.602592      -560.6250
   2   2.0000     -20.591828      -560.3321
   3   2.0000     -20.545546      -559.0727
   4   2.0000     -15.628437      -425.2714
   5   2.0000     -15.605632      -424.6508
   6   2.0000     -11.396262      -310.1081
   7   2.0000     -11.382483      -309.7331
   8   2.0000     -11.338027      -308.5234
   9   2.0000     -11.307855      -307.7024
  10   2.0000     -11.304188      -307.6026
  11   2.0000     -11.299183      -307.4664
  12   2.0000     -11.260852      -306.4234
  13   2.0000     -11.258846      -306.3688
  14   2.0000     -11.255053      -306.2656
  15   2.0000     -11.247937      -306.0719
  16   2.0000     -11.238153      -305.8057
  17   2.0000     -11.234235      -305.6991
  18   2.0000     -11.230993      -305.6109
  19   2.0000     -11.229404      -305.5676
  20   2.0000      -8.893010      -241.9911
  21   2.0000      -6.574588      -178.9036
  22   2.0000      -6.572585      -178.8491
  23   2.0000      -6.571997      -178.8331
  24   2.0000      -1.453990       -39.5651
  25   2.0000      -1.411580       -38.4110
  26   2.0000      -1.357352       -36.9354
  27   2.0000      -1.339770       -36.4570
  28   2.0000      -1.236952       -33.6592
  29   2.0000      -1.152478       -31.3605
  30   2.0000      -1.120741       -30.4969
  31   2.0000      -1.043109       -28.3844
  32   2.0000      -1.034909       -28.1613
  33   2.0000      -1.009972       -27.4827
  34   2.0000      -0.998738       -27.1771
  35   2.0000      -0.983686       -26.7675
  36   2.0000      -0.920840       -25.0573
  37   2.0000      -0.893275       -24.3073
  38   2.0000      -0.847380       -23.0584
  39   2.0000      -0.834854       -22.7175
  40   2.0000      -0.828126       -22.5345
  41   2.0000      -0.815234       -22.1836
  42   2.0000      -0.757238       -20.6055
  43   2.0000      -0.736409       -20.0387
  44   2.0000      -0.726128       -19.7590
  45   2.0000      -0.690992       -18.8029
  46   2.0000      -0.685662       -18.6578
  47   2.0000      -0.679539       -18.4912
  48   2.0000      -0.669461       -18.2170
  49   2.0000      -0.657409       -17.8890
  50   2.0000      -0.649984       -17.6870
  51   2.0000      -0.644639       -17.5415
  52   2.0000      -0.631974       -17.1969
  53   2.0000      -0.607240       -16.5239
  54   2.0000      -0.601809       -16.3761
  55   2.0000      -0.598040       -16.2735
  56   2.0000      -0.595000       -16.1908
  57   2.0000      -0.581091       -15.8123
  58   2.0000      -0.573651       -15.6098
  59   2.0000      -0.562435       -15.3046
  60   2.0000      -0.558048       -15.1852
  61   2.0000      -0.552950       -15.0465
  62   2.0000      -0.536344       -14.5947
  63   2.0000      -0.532506       -14.4902
  64   2.0000      -0.515838       -14.0367
  65   2.0000      -0.508661       -13.8414
  66   2.0000      -0.497617       -13.5408
  67   2.0000      -0.493951       -13.4411
  68   2.0000      -0.481764       -13.1095
  69   2.0000      -0.464014       -12.6265
  70   2.0000      -0.459133       -12.4937
  71   2.0000      -0.451344       -12.2817
  72   2.0000      -0.353103        -9.6084
  73   2.0000      -0.344652        -9.3785
  74   2.0000      -0.327008        -8.8983
  75   2.0000      -0.317127        -8.6295
  76   2.0000      -0.314495        -8.5578
  77   0.0000       0.077444         2.1074
  78   0.0000       0.111335         3.0296
  79   0.0000       0.120123         3.2687
  80   0.0000       0.135847         3.6966
  81   0.0000       0.140991         3.8366

MULLIKEN ATOMIC CHARGES
-----------------------
   0 C :   -0.279708
   1 C :    0.018194
   2 O :   -0.351017
   3 C :    0.425510
   4 O :   -0.422615
   5 C :   -0.168206
   6 C :    0.156304
   7 C :   -0.280812
   8 N :   -0.129005
   9 C :    0.207488
  10 S :   -0.442529
  11 N :   -0.210952
  12 C :    0.042946
  13 C :    0.031479
  14 C :   -0.168290
  15 C :   -0.134487
  16 C :   -0.277457
  17 C :    0.314135
  18 O :   -0.358957
  19 C :   -0.251195
  20 H :    0.108704
  21 H :    0.095147
  22 H :    0.092727
  23 H :    0.118229
  24 H :    0.103679
  25 H :    0.125545
  26 H :    0.101319
  27 H :    0.128771
  28 H :    0.198819
  29 H :    0.199891
  30 H :    0.155521
  31 H :    0.159097
  32 H :    0.160056
  33 H :    0.128370
  34 H :    0.239915
  35 H :    0.163385
Sum of atomic charges:   -0.0000000

LOEWDIN ATOMIC CHARGES
----------------------
   0 C :    0.105197
   1 C :   -0.017268
   2 O :    0.306474
   3 C :   -0.415259
   4 O :    0.103645
   5 C :   -0.091613
   6 C :   -0.064359
   7 C :    0.125248
   8 N :    0.405431
   9 C :   -0.458542
  10 S :   -0.037756
  11 N :    0.396484
  12 C :   -0.048240
  13 C :   -0.040683
  14 C :    0.024803
  15 C :    0.040711
  16 C :   -0.001273
  17 C :   -0.192614
  18 O :    0.393117
  19 C :    0.029700
  20 H :   -0.023583
  21 H :   -0.025804
  22 H :   -0.028763
  23 H :   -0.027464
  24 H :   -0.027451
  25 H :   -0.009188
  26 H :   -0.021257
  27 H :   -0.009731
  28 H :   -0.058752
  29 H :   -0.063143
  30 H :   -0.008235
  31 H :   -0.023935
  32 H :   -0.021051
  33 H :   -0.036151
  34 H :   -0.154881
  35 H :   -0.023812

  Mayer bond orders larger than 0.100000
B(  0-C ,  1-C ) :   0.9659 B(  0-C , 20-H ) :   0.9766 B(  0-C , 21-H ) :   0.9757
B(  0-C , 22-H ) :   0.9777 B(  1-C ,  2-O ) :   0.8912 B(  1-C , 23-H ) :   0.9746
B(  1-C , 24-H ) :   0.9843 B(  2-O ,  3-C ) :   1.1388 B(  3-C ,  4-O ) :   1.9862
B(  3-C ,  5-C ) :   1.0366 B(  5-C ,  6-C ) :   1.6565 B(  5-C , 12-C ) :   0.9509
B(  6-C ,  7-C ) :   0.9554 B(  6-C ,  8-N ) :   1.1349 B(  7-C , 25-H ) :   0.9653
B(  7-C , 26-H ) :   0.9908 B(  7-C , 27-H ) :   0.9634 B(  8-N ,  9-C ) :   1.1855
B(  8-N , 28-H ) :   0.9469 B(  9-C , 10-S ) :   1.6082 B(  9-C , 11-N ) :   1.3063
B( 11-N , 12-C ) :   0.9766 B( 11-N , 29-H ) :   0.9486 B( 12-C , 13-C ) :   0.9735
B( 12-C , 30-H ) :   0.9970 B( 13-C , 14-C ) :   1.3762 B( 13-C , 19-C ) :   1.3657
B( 14-C , 15-C ) :   1.3974 B( 14-C , 31-H ) :   0.9637 B( 15-C , 16-C ) :   1.3586
B( 15-C , 32-H ) :   0.9712 B( 16-C , 17-C ) :   1.3333 B( 16-C , 33-H ) :   0.9859
B( 17-C , 18-O ) :   1.1035 B( 17-C , 19-C ) :   1.3674 B( 18-O , 34-H ) :   0.9806
B( 19-C , 35-H ) :   0.9602

MP2 TOTAL ENERGY:    -1274.341040435 Eh
FINAL SINGLE POINT ENERGY     -1274.341040434604

DIPOLE MOMENT
-------------
                                X             Y             Z
Electronic contribution:     10.36810       9.46409       9.94826
Nuclear contribution   :    -11.76397     -10.75594     -11.08037
                        -----------------------------------------
Total Dipole Moment    :     -1.39586      -1.29185      -1.13211
                        -----------------------------------------
Magnitude (a.u.)       :      2.21337
Magnitude (Debye)      :      5.62593

Rotational constants in cm-1:     0.010011     0.009273     0.005756
Rotational constants in MHz :   300.126054   278.008116   172.558303

                             ****ORCA TERMINATED NORMALLY****
TOTAL RUN TIME: 0 days 1 hours 44 minutes 36 seconds 774 msec
