                         Program Version 4.2.0 -  RELEASE  -
|  1> ! ri-mp2 cc-pvtz cc-pvtz/c TightSCF NoKeepInts
|  2>
|  3> %scf
|  4>   MaxCore 4096
|  5> end
|  6> *xyz  0  1
|  7>     C       14.1029173   15.1227999   14.7338546
|  8>     C       14.9207561   16.1739889   15.5014433
|  9>     O       16.2146367   16.2485358   14.8767522
| 10>     C       17.2984492   16.4238347   15.6856154
| 11>     O       18.1908214   15.5982685   15.7465867
| 12>     C       17.2541174   17.6450955   16.5505638
| 13>     C       16.9508183   18.8629695   16.0352977
| 14>     C       16.4453467   19.1698203   14.6390893
| 15>     N       17.1817349   20.0257528   16.7736243
| 16>     C       17.9234547   20.0731449   17.9242349
| 17>     S       18.2509979   21.5008741   18.6914340
| 18>     N       18.3996665   18.8745192   18.3951018
| 19>     C       18.0467088   17.5464887   17.8550617
| 20>     C       17.3976712   16.6124260   18.8661762
| 21>     C       17.8515769   15.2887276   19.0053198
| 22>     C       17.2423680   14.4175578   19.9237517
| 23>     C       16.1687132   14.8736475   20.7077252
| 24>     C       15.7106513   16.1907736   20.5666241
| 25>     O       14.6679399   16.6310737   21.3146845
| 26>     C       16.3180026   17.0553691   19.6502119
| 27>     H       14.6053307   14.1474588   14.7630552
| 28>     H       13.9819989   15.4170752   13.6838631
| 29>     H       13.1062024   15.0090038   15.1771701
| 30>     H       14.4143828   17.1466837   15.4816282
| 31>     H       15.0137246   15.8492475   16.5478835
| 32>     H       16.9277815   18.5299152   13.8891543
| 33>     H       16.6569691   20.2044567   14.3412227
| 34>     H       15.3624093   19.0202618   14.5655037
| 35>     H       16.8662635   20.9164921   16.4232906
| 36>     H       18.9361004   18.9361761   19.2515381
| 37>     H       19.0437420   17.1752880   17.5743789
| 38>     H       18.6729006   14.9307703   18.3877467
| 39>     H       17.6005652   13.3939876   20.0207089
| 40>     H       15.6946679   14.2032841   21.4170854
| 41>     H       14.4178973   15.9130332   21.9157385
| 42>     H       15.9487150   18.0711979   19.5548789
| 43> *
| 44>
| 45>                          ****END OF INPUT****

CARTESIAN COORDINATES (ANGSTROEM)
---------------------------------
  C     14.102917   15.122800   14.733855
  C     14.920756   16.173989   15.501443
  O     16.214637   16.248536   14.876752
  C     17.298449   16.423835   15.685615
  O     18.190821   15.598268   15.746587
  C     17.254117   17.645096   16.550564
  C     16.950818   18.862969   16.035298
  C     16.445347   19.169820   14.639089
  N     17.181735   20.025753   16.773624
  C     17.923455   20.073145   17.924235
  S     18.250998   21.500874   18.691434
  N     18.399666   18.874519   18.395102
  C     18.046709   17.546489   17.855062
  C     17.397671   16.612426   18.866176
  C     17.851577   15.288728   19.005320
  C     17.242368   14.417558   19.923752
  C     16.168713   14.873648   20.707725
  C     15.710651   16.190774   20.566624
  O     14.667940   16.631074   21.314684
  C     16.318003   17.055369   19.650212
  H     14.605331   14.147459   14.763055
  H     13.981999   15.417075   13.683863
  H     13.106202   15.009004   15.177170
  H     14.414383   17.146684   15.481628
  H     15.013725   15.849248   16.547884
  H     16.927781   18.529915   13.889154
  H     16.656969   20.204457   14.341223
  H     15.362409   19.020262   14.565504
  H     16.866263   20.916492   16.423291
  H     18.936100   18.936176   19.251538
  H     19.043742   17.175288   17.574379
  H     18.672901   14.930770   18.387747
  H     17.600565   13.393988   20.020709
  H     15.694668   14.203284   21.417085
  H     14.417897   15.913033   21.915738
  H     15.948715   18.071198   19.554879

 Total Charge           Charge          ....    0
 Multiplicity           Mult            ....    1
 Number of Electrons    NEL             ....  154
 Basis Dimension        Dim             ....  828

ORBITAL ENERGIES
----------------

  NO   OCC          E(Eh)            E(eV)
   0   2.0000     -91.890164     -2500.4585
   1   2.0000     -20.597496      -560.4864
   2   2.0000     -20.594593      -560.4074
   3   2.0000     -20.553875      -559.2994
   4   2.0000     -15.629890      -425.3109
   5   2.0000     -15.608608      -424.7318
   6   2.0000     -11.395650      -310.0914
   7   2.0000     -11.385499      -309.8152
   8   2.0000     -11.337980      -308.5221
   9   2.0000     -11.314279      -307.8772
  10   2.0000     -11.307425      -307.6907
  11   2.0000     -11.307220      -307.6851
  12   2.0000     -11.264636      -306.5263
  13   2.0000     -11.261535      -306.4419
  14   2.0000     -11.261427      -306.4390
  15   2.0000     -11.254279      -306.2445
  16   2.0000     -11.243876      -305.9614
  17   2.0000     -11.240036      -305.8569
  18   2.0000     -11.236653      -305.7649
  19   2.0000     -11.233511      -305.6794
  20   2.0000      -8.895255      -242.0522
  21   2.0000      -6.576831      -178.9647
  22   2.0000      -6.574825      -178.9101
  23   2.0000      -6.574237      -178.8941
  24   2.0000      -1.452478       -39.5239
  25   2.0000      -1.417239       -38.5650
  26   2.0000      -1.363081       -37.0913
  27   2.0000      -1.341633       -36.5077
  28   2.0000      -1.239208       -33.7206
  29   2.0000      -1.158619       -31.5276
  30   2.0000      -1.124554       -30.6007
  31   2.0000      -1.046746       -28.4834
  32   2.0000      -1.039211       -28.2784
  33   2.0000      -1.016309       -27.6552
  34   2.0000      -1.003864       -27.3165
  35   2.0000      -0.988252       -26.8917
  36   2.0000      -0.924926       -25.1685
  37   2.0000      -0.879804       -23.9407
  38   2.0000      -0.854866       -23.2621
  39   2.0000      -0.842513       -22.9259
  40   2.0000      -0.835766       -22.7424
  41   2.0000      -0.833749       -22.6875
  42   2.0000      -0.758622       -20.6432
  43   2.0000      -0.738118       -20.0852
  44   2.0000      -0.730972       -19.8907
  45   2.0000      -0.695126       -18.9154
  46   2.0000      -0.688260       -18.7285
  47   2.0000      -0.682621       -18.5751
  48   2.0000      -0.674708       -18.3597
  49   2.0000      -0.663452       -18.0535
  50   2.0000      -0.654546       -17.8111
  51   2.0000      -0.647288       -17.6136
  52   2.0000      -0.639232       -17.3944
  53   2.0000      -0.610788       -16.6204
  54   2.0000      -0.604435       -16.4475
  55   2.0000      -0.601535       -16.3686
  56   2.0000      -0.599567       -16.3150
  57   2.0000      -0.582263       -15.8442
  58   2.0000      -0.576994       -15.7008
  59   2.0000      -0.565631       -15.3916
  60   2.0000      -0.563538       -15.3347
  61   2.0000      -0.558804       -15.2058
  62   2.0000      -0.546594       -14.8736
  63   2.0000      -0.523332       -14.2406
  64   2.0000      -0.517492       -14.0817
  65   2.0000      -0.513661       -13.9774
  66   2.0000      -0.501657       -13.6508
  67   2.0000      -0.499055       -13.5800
  68   2.0000      -0.489386       -13.3169
  69   2.0000      -0.470465       -12.8020
  70   2.0000      -0.459811       -12.5121
  71   2.0000      -0.452789       -12.3210
  72   2.0000      -0.356322        -9.6960
  73   2.0000      -0.349971        -9.5232
  74   2.0000      -0.329404        -8.9636
  75   2.0000      -0.321668        -8.7530
  76   2.0000      -0.319697        -8.6994
  77   0.0000       0.076681         2.0866
  78   0.0000       0.105392         2.8679
  79   0.0000       0.117557         3.1989
  80   0.0000       0.131617         3.5815
  81   0.0000       0.134447         3.6585

MULLIKEN ATOMIC CHARGES
-----------------------
   0 C :   -0.253562
   1 C :    0.022843
   2 O :   -0.341526
   3 C :    0.433980
   4 O :   -0.376163
   5 C :   -0.219954
   6 C :    0.146749
   7 C :   -0.305122
   8 N :   -0.133043
   9 C :    0.206687
  10 S :   -0.440596
  11 N :   -0.216718
  12 C :    0.060567
  13 C :    0.021972
  14 C :   -0.200305
  15 C :   -0.130120
  16 C :   -0.277716
  17 C :    0.313286
  18 O :   -0.357179
  19 C :   -0.249644
  20 H :    0.107868
  21 H :    0.095824
  22 H :    0.088917
  23 H :    0.087763
  24 H :    0.104690
  25 H :    0.137716
  26 H :    0.114735
  27 H :    0.120497
  28 H :    0.198050
  29 H :    0.200839
  30 H :    0.161534
  31 H :    0.172116
  32 H :    0.163384
  33 H :    0.131071
  34 H :    0.240961
  35 H :    0.169598
Sum of atomic charges:   -0.0000000

LOEWDIN ATOMIC CHARGES
----------------------
   0 C :    0.111240
   1 C :   -0.024211
   2 O :    0.301281
   3 C :   -0.423187
   4 O :    0.126967
   5 C :   -0.093152
   6 C :   -0.075443
   7 C :    0.128147
   8 N :    0.404307
   9 C :   -0.457507
  10 S :   -0.036477
  11 N :    0.395922
  12 C :   -0.049353
  13 C :   -0.043749
  14 C :    0.021723
  15 C :    0.042959
  16 C :   -0.000683
  17 C :   -0.192916
  18 O :    0.394070
  19 C :    0.027282
  20 H :   -0.020877
  21 H :   -0.026649
  22 H :   -0.025636
  23 H :   -0.038389
  24 H :   -0.026226
  25 H :   -0.006283
  26 H :   -0.016291
  27 H :   -0.016155
  28 H :   -0.057950
  29 H :   -0.063526
  30 H :   -0.005762
  31 H :   -0.021838
  32 H :   -0.019344
  33 H :   -0.035197
  34 H :   -0.153601
  35 H :   -0.023495

  Mayer bond orders larger than 0.100000
B(  0-C ,  1-C ) :   0.9822 B(  0-C , 20-H ) :   0.9767 B(  0-C , 21-H ) :   0.9785
B(  0-C , 22-H ) :   0.9759 B(  1-C ,  2-O ) :   0.8974 B(  1-C , 23-H ) :   0.9726
B(  1-C , 24-H ) :   0.9713 B(  2-O ,  3-C ) :   1.1305 B(  3-C ,  4-O ) :   2.0881
B(  3-C ,  5-C ) :   0.9609 B(  5-C ,  6-C ) :   1.6952 B(  5-C , 12-C ) :   0.9430
B(  6-C ,  7-C ) :   0.9407 B(  6-C ,  8-N ) :   1.1253 B(  7-C , 25-H ) :   0.9676
B(  7-C , 26-H ) :   0.9861 B(  7-C , 27-H ) :   0.9672 B(  8-N ,  9-C ) :   1.1892
B(  8-N , 28-H ) :   0.9489 B(  9-C , 10-S ) :   1.6120 B(  9-C , 11-N ) :   1.2969
B( 11-N , 12-C ) :   0.9836 B( 11-N , 29-H ) :   0.9484 B( 12-C , 13-C ) :   0.9692
B( 12-C , 30-H ) :   0.9918 B( 13-C , 14-C ) :   1.3839 B( 13-C , 19-C ) :   1.3573
B( 14-C , 15-C ) :   1.3946 B( 14-C , 31-H ) :   0.9596 B( 15-C , 16-C ) :   1.3610
B( 15-C , 32-H ) :   0.9703 B( 16-C , 17-C ) :   1.3314 B( 16-C , 33-H ) :   0.9850
B( 17-C , 18-O ) :   1.1074 B( 17-C , 19-C ) :   1.3667 B( 18-O , 34-H ) :   0.9797
B( 19-C , 35-H ) :   0.9580

MP2 TOTAL ENERGY:    -1274.329106814 Eh
FINAL SINGLE POINT ENERGY     -1274.329106813526

DIPOLE MOMENT
-------------
                                X             Y             Z
Electronic contribution:     10.47144       9.10479       9.08967
Nuclear contribution   :    -12.04771     -10.22553      -9.50858
                        -----------------------------------------
Total Dipole Moment    :     -1.57626      -1.12074      -0.41890
                        -----------------------------------------
Magnitude (a.u.)       :      1.97893
Magnitude (Debye)      :      5.03003

Rotational constants in cm-1:     0.010381     0.009232     0.006071
Rotational constants in MHz :   311.229534   276.782070   182.010828

                             ****ORCA TERMINATED NORMALLY****
TOTAL RUN TIME: 0 days 1 hours 38 minutes 22 seconds 252 msec
