                         Program Version 4.2.0 -  RELEASE  -
|  1> ! ri-mp2 cc-pvtz cc-pvtz/c TightSCF NoKeepInts
|  2>
|  3> %scf
|  4>   MaxCore 4096
|  5> end
|  6> *xyz  0  1
|  7>     C       13.6522031   16.0445734   14.4571081
|  8>     C       14.9155459   15.6494061   15.2400801
|  9>     O       15.9718394   16.5341616   14.8416665
| 10>     C       17.0664661   16.5509043   15.6479588
| 11>     O       17.8262092   15.6003124   15.7054511
| 12>     C       17.1237234   17.7048898   16.6045391
| 13>     C       16.7227393   18.9543990   16.2545357
| 14>     C       15.9783553   19.3697807   15.0013362
| 15>     N       17.0376630   20.0544619   17.0559784
| 16>     C       17.9309381   20.0249233   18.0931442
| 17>     S       18.3385617   21.3904088   18.9323803
| 18>     N       18.4870862   18.8049618   18.3855499
| 19>     C       18.0884762   17.5189786   17.7805167
| 20>     C       17.6039724   16.4938986   18.7969664
| 21>     C       18.1791596   15.2116630   18.8514101
| 22>     C       17.7273517   14.2648746   19.7859321
| 23>     C       16.6916324   14.6035488   20.6736087
| 24>     C       16.1145407   15.8797510   20.6192500
| 25>     O       15.1099531   16.2074217   21.4704228
| 26>     C       16.5656074   16.8196202   19.6869417
| 27>     H       12.8201743   15.3756621   14.7089034
| 28>     H       13.8311145   15.9767482   13.3766410
| 29>     H       13.3500163   17.0712629   14.6958603
| 30>     H       14.7198679   15.7427035   16.3174099
| 31>     H       15.1919728   14.6081680   15.0249816
| 32>     H       16.4752370   18.9811340   14.1032697
| 33>     H       15.9184751   20.4588012   14.8846278
| 34>     H       14.9523092   18.9836362   15.0129940
| 35>     H       16.6570734   20.9613837   16.8373737
| 36>     H       19.1294515   18.8072172   19.1679408
| 37>     H       19.0448861   17.2038738   17.3378817
| 38>     H       18.9698186   14.9441348   18.1539563
| 39>     H       18.1767243   13.2737637   19.8150456
| 40>     H       16.3389813   13.8747594   21.3958275
| 41>     H       14.9702153   15.4504984   22.0591594
| 42>     H       16.1086582   17.8033133   19.6613505
| 43> *
| 44>
| 45>                          ****END OF INPUT****

CARTESIAN COORDINATES (ANGSTROEM)
---------------------------------
  C     13.652203   16.044573   14.457108
  C     14.915546   15.649406   15.240080
  O     15.971839   16.534162   14.841667
  C     17.066466   16.550904   15.647959
  O     17.826209   15.600312   15.705451
  C     17.123723   17.704890   16.604539
  C     16.722739   18.954399   16.254536
  C     15.978355   19.369781   15.001336
  N     17.037663   20.054462   17.055978
  C     17.930938   20.024923   18.093144
  S     18.338562   21.390409   18.932380
  N     18.487086   18.804962   18.385550
  C     18.088476   17.518979   17.780517
  C     17.603972   16.493899   18.796966
  C     18.179160   15.211663   18.851410
  C     17.727352   14.264875   19.785932
  C     16.691632   14.603549   20.673609
  C     16.114541   15.879751   20.619250
  O     15.109953   16.207422   21.470423
  C     16.565607   16.819620   19.686942
  H     12.820174   15.375662   14.708903
  H     13.831114   15.976748   13.376641
  H     13.350016   17.071263   14.695860
  H     14.719868   15.742703   16.317410
  H     15.191973   14.608168   15.024982
  H     16.475237   18.981134   14.103270
  H     15.918475   20.458801   14.884628
  H     14.952309   18.983636   15.012994
  H     16.657073   20.961384   16.837374
  H     19.129451   18.807217   19.167941
  H     19.044886   17.203874   17.337882
  H     18.969819   14.944135   18.153956
  H     18.176724   13.273764   19.815046
  H     16.338981   13.874759   21.395827
  H     14.970215   15.450498   22.059159
  H     16.108658   17.803313   19.661351

 Total Charge           Charge          ....    0
 Multiplicity           Mult            ....    1
 Number of Electrons    NEL             ....  154
 Basis Dimension        Dim             ....  828

ORBITAL ENERGIES
----------------

  NO   OCC          E(Eh)            E(eV)
   0   2.0000     -91.889704     -2500.4460
   1   2.0000     -20.594446      -560.4034
   2   2.0000     -20.588430      -560.2397
   3   2.0000     -20.552063      -559.2501
   4   2.0000     -15.630619      -425.3308
   5   2.0000     -15.607286      -424.6959
   6   2.0000     -11.393069      -310.0212
   7   2.0000     -11.384481      -309.7875
   8   2.0000     -11.339796      -308.5715
   9   2.0000     -11.310620      -307.7776
  10   2.0000     -11.305457      -307.6371
  11   2.0000     -11.303651      -307.5880
  12   2.0000     -11.261425      -306.4389
  13   2.0000     -11.260231      -306.4065
  14   2.0000     -11.257722      -306.3382
  15   2.0000     -11.250455      -306.1404
  16   2.0000     -11.240613      -305.8726
  17   2.0000     -11.236943      -305.7728
  18   2.0000     -11.236919      -305.7721
  19   2.0000     -11.233317      -305.6741
  20   2.0000      -8.894777      -242.0392
  21   2.0000      -6.576350      -178.9516
  22   2.0000      -6.574350      -178.8972
  23   2.0000      -6.573759      -178.8811
  24   2.0000      -1.454054       -39.5668
  25   2.0000      -1.414200       -38.4823
  26   2.0000      -1.359133       -36.9839
  27   2.0000      -1.341555       -36.5056
  28   2.0000      -1.238573       -33.7033
  29   2.0000      -1.155051       -31.4305
  30   2.0000      -1.122617       -30.5480
  31   2.0000      -1.045107       -28.4388
  32   2.0000      -1.038311       -28.2539
  33   2.0000      -1.012631       -27.5551
  34   2.0000      -1.001119       -27.2418
  35   2.0000      -0.986400       -26.8413
  36   2.0000      -0.922620       -25.1058
  37   2.0000      -0.883466       -24.0403
  38   2.0000      -0.849614       -23.1192
  39   2.0000      -0.838780       -22.8244
  40   2.0000      -0.830763       -22.6062
  41   2.0000      -0.828850       -22.5542
  42   2.0000      -0.760860       -20.7041
  43   2.0000      -0.736845       -20.0506
  44   2.0000      -0.728396       -19.8207
  45   2.0000      -0.692092       -18.8328
  46   2.0000      -0.687697       -18.7132
  47   2.0000      -0.682247       -18.5649
  48   2.0000      -0.675105       -18.3705
  49   2.0000      -0.654111       -17.7993
  50   2.0000      -0.653095       -17.7716
  51   2.0000      -0.640995       -17.4424
  52   2.0000      -0.632052       -17.1990
  53   2.0000      -0.620934       -16.8965
  54   2.0000      -0.605420       -16.4743
  55   2.0000      -0.601285       -16.3618
  56   2.0000      -0.597807       -16.2672
  57   2.0000      -0.577364       -15.7109
  58   2.0000      -0.574935       -15.6448
  59   2.0000      -0.566014       -15.4020
  60   2.0000      -0.559695       -15.2301
  61   2.0000      -0.549494       -14.9525
  62   2.0000      -0.545935       -14.8557
  63   2.0000      -0.522347       -14.2138
  64   2.0000      -0.518937       -14.1210
  65   2.0000      -0.511690       -13.9238
  66   2.0000      -0.506091       -13.7714
  67   2.0000      -0.496242       -13.5034
  68   2.0000      -0.481585       -13.1046
  69   2.0000      -0.463990       -12.6258
  70   2.0000      -0.461624       -12.5614
  71   2.0000      -0.452765       -12.3204
  72   2.0000      -0.355011        -9.6603
  73   2.0000      -0.347097        -9.4450
  74   2.0000      -0.328729        -8.9452
  75   2.0000      -0.318975        -8.6797
  76   2.0000      -0.317318        -8.6347
  77   0.0000       0.072272         1.9666
  78   0.0000       0.107786         2.9330
  79   0.0000       0.120118         3.2686
  80   0.0000       0.133926         3.6443
  81   0.0000       0.138079         3.7573

MULLIKEN ATOMIC CHARGES
-----------------------
   0 C :   -0.277175
   1 C :    0.041349
   2 O :   -0.364911
   3 C :    0.457003
   4 O :   -0.391832
   5 C :   -0.214211
   6 C :    0.150304
   7 C :   -0.285852
   8 N :   -0.127678
   9 C :    0.206327
  10 S :   -0.439942
  11 N :   -0.211324
  12 C :    0.046131
  13 C :    0.033991
  14 C :   -0.177199
  15 C :   -0.132403
  16 C :   -0.277761
  17 C :    0.314085
  18 O :   -0.358730
  19 C :   -0.257141
  20 H :    0.101545
  21 H :    0.103102
  22 H :    0.090285
  23 H :    0.086982
  24 H :    0.110246
  25 H :    0.130462
  26 H :    0.106752
  27 H :    0.122055
  28 H :    0.198952
  29 H :    0.199883
  30 H :    0.157084
  31 H :    0.163019
  32 H :    0.161319
  33 H :    0.129330
  34 H :    0.240485
  35 H :    0.165466
Sum of atomic charges:    0.0000000

LOEWDIN ATOMIC CHARGES
----------------------
   0 C :    0.109690
   1 C :   -0.021395
   2 O :    0.297517
   3 C :   -0.423197
   4 O :    0.124353
   5 C :   -0.097448
   6 C :   -0.066094
   7 C :    0.126609
   8 N :    0.405815
   9 C :   -0.458103
  10 S :   -0.035889
  11 N :    0.396135
  12 C :   -0.048690
  13 C :   -0.041731
  14 C :    0.024487
  15 C :    0.041945
  16 C :   -0.001028
  17 C :   -0.193320
  18 O :    0.393130
  19 C :    0.027830
  20 H :   -0.022720
  21 H :   -0.024165
  22 H :   -0.031230
  23 H :   -0.031136
  24 H :   -0.026142
  25 H :   -0.006796
  26 H :   -0.020042
  27 H :   -0.012142
  28 H :   -0.058214
  29 H :   -0.063286
  30 H :   -0.007232
  31 H :   -0.023113
  32 H :   -0.020338
  33 H :   -0.035781
  34 H :   -0.154323
  35 H :   -0.023956

  Mayer bond orders larger than 0.100000
B(  0-C ,  1-C ) :   0.9748 B(  0-C , 20-H ) :   0.9768 B(  0-C , 21-H ) :   0.9762
B(  0-C , 22-H ) :   0.9785 B(  1-C ,  2-O ) :   0.9036 B(  1-C , 23-H ) :   0.9678
B(  1-C , 24-H ) :   0.9812 B(  2-O ,  3-C ) :   1.0762 B(  3-C ,  4-O ) :   2.0470
B(  3-C ,  5-C ) :   1.0201 B(  5-C ,  6-C ) :   1.6639 B(  5-C , 12-C ) :   0.9510
B(  6-C ,  7-C ) :   0.9512 B(  6-C ,  8-N ) :   1.1379 B(  7-C , 25-H ) :   0.9652
B(  7-C , 26-H ) :   0.9902 B(  7-C , 27-H ) :   0.9655 B(  8-N ,  9-C ) :   1.1843
B(  8-N , 28-H ) :   0.9472 B(  9-C , 10-S ) :   1.6117 B(  9-C , 11-N ) :   1.3037
B( 11-N , 12-C ) :   0.9802 B( 11-N , 29-H ) :   0.9486 B( 12-C , 13-C ) :   0.9716
B( 12-C , 30-H ) :   0.9951 B( 13-C , 14-C ) :   1.3806 B( 13-C , 19-C ) :   1.3610
B( 14-C , 15-C ) :   1.3968 B( 14-C , 31-H ) :   0.9621 B( 15-C , 16-C ) :   1.3597
B( 15-C , 32-H ) :   0.9707 B( 16-C , 17-C ) :   1.3328 B( 16-C , 33-H ) :   0.9856
B( 17-C , 18-O ) :   1.1048 B( 17-C , 19-C ) :   1.3664 B( 18-O , 34-H ) :   0.9802
B( 19-C , 35-H ) :   0.9598

MP2 TOTAL ENERGY:    -1274.327752256 Eh
FINAL SINGLE POINT ENERGY     -1274.327752256348

DIPOLE MOMENT
-------------
                                X             Y             Z
Electronic contribution:     11.52870       7.84909       9.83768
Nuclear contribution   :    -12.99802      -9.09679     -10.46991
                        -----------------------------------------
Total Dipole Moment    :     -1.46932      -1.24770      -0.63224
                        -----------------------------------------
Magnitude (a.u.)       :      2.02864
Magnitude (Debye)      :      5.15640

Rotational constants in cm-1:     0.009779     0.009407     0.005940
Rotational constants in MHz :   293.154032   282.004490   178.070667

                             ****ORCA TERMINATED NORMALLY****
TOTAL RUN TIME: 0 days 1 hours 39 minutes 30 seconds 442 msec
