                         Program Version 4.2.0 -  RELEASE  -
|  1> ! ri-mp2 cc-pvtz cc-pvtz/c TightSCF NoKeepInts
|  2>
|  3> %scf
|  4>   MaxCore 4096
|  5> end
|  6> *xyz  0  1
|  7>     C       14.9080176   14.4305520   16.0783582
|  8>     C       15.8547591   14.9687341   14.9910892
|  9>     O       16.6643870   15.9952438   15.5921685
| 10>     C       16.3617002   17.3134578   15.3914691
| 11>     O       15.6854567   17.6903037   14.4494129
| 12>     C       16.8912897   18.2005806   16.4863635
| 13>     C       16.9064508   19.5509812   16.3438379
| 14>     C       16.2095384   20.3673960   15.2749794
| 15>     N       17.6259032   20.3600676   17.2262689
| 16>     C       18.5030029   19.8915773   18.1665523
| 17>     S       19.3935135   20.9099205   19.1183537
| 18>     N       18.6229582   18.5285497   18.2643805
| 19>     C       17.8017403   17.5423860   17.5374416
| 20>     C       17.0860024   16.5765522   18.4731465
| 21>     C       17.5928487   15.2807522   18.6826251
| 22>     C       16.9347967   14.3877910   19.5451506
| 23>     C       15.7610538   14.7945587   20.2025646
| 24>     C       15.2571442   16.0866974   19.9986622
| 25>     O       14.1250261   16.4823256   20.6332482
| 26>     C       15.9159623   16.9743001   19.1422648
| 27>     H       15.4776256   14.0350148   16.9281149
| 28>     H       14.2814273   13.6240826   15.6790170
| 29>     H       14.2491196   15.2271774   16.4462240
| 30>     H       16.5017446   14.1511868   14.6484162
| 31>     H       15.2857614   15.3351140   14.1258949
| 32>     H       15.1419439   20.1160830   15.2322291
| 33>     H       16.6360471   20.1550412   14.2863304
| 34>     H       16.2832113   21.4483580   15.4425026
| 35>     H       17.5635633   21.3627106   17.1502574
| 36>     H       19.2520471   18.2127312   18.9915489
| 37>     H       18.5806698   17.0174534   16.9663935
| 38>     H       18.4965294   14.9633068   18.1693238
| 39>     H       17.3330633   13.3865780   19.7002458
| 40>     H       15.2485067   14.1083401   20.8686545
| 41>     H       13.8385989   15.7512927   21.2010820
| 42>     H       15.5155886   17.9728016   19.0034273
| 43> *
| 44>
| 45>                          ****END OF INPUT****

CARTESIAN COORDINATES (ANGSTROEM)
---------------------------------
  C     14.908018   14.430552   16.078358
  C     15.854759   14.968734   14.991089
  O     16.664387   15.995244   15.592168
  C     16.361700   17.313458   15.391469
  O     15.685457   17.690304   14.449413
  C     16.891290   18.200581   16.486363
  C     16.906451   19.550981   16.343838
  C     16.209538   20.367396   15.274979
  N     17.625903   20.360068   17.226269
  C     18.503003   19.891577   18.166552
  S     19.393514   20.909920   19.118354
  N     18.622958   18.528550   18.264381
  C     17.801740   17.542386   17.537442
  C     17.086002   16.576552   18.473146
  C     17.592849   15.280752   18.682625
  C     16.934797   14.387791   19.545151
  C     15.761054   14.794559   20.202565
  C     15.257144   16.086697   19.998662
  O     14.125026   16.482326   20.633248
  C     15.915962   16.974300   19.142265
  H     15.477626   14.035015   16.928115
  H     14.281427   13.624083   15.679017
  H     14.249120   15.227177   16.446224
  H     16.501745   14.151187   14.648416
  H     15.285761   15.335114   14.125895
  H     15.141944   20.116083   15.232229
  H     16.636047   20.155041   14.286330
  H     16.283211   21.448358   15.442503
  H     17.563563   21.362711   17.150257
  H     19.252047   18.212731   18.991549
  H     18.580670   17.017453   16.966393
  H     18.496529   14.963307   18.169324
  H     17.333063   13.386578   19.700246
  H     15.248507   14.108340   20.868654
  H     13.838599   15.751293   21.201082
  H     15.515589   17.972802   19.003427

 Total Charge           Charge          ....    0
 Multiplicity           Mult            ....    1
 Number of Electrons    NEL             ....  154
 Basis Dimension        Dim             ....  828

ORBITAL ENERGIES
----------------

  NO   OCC          E(Eh)            E(eV)
   0   2.0000     -91.888984     -2500.4264
   1   2.0000     -20.598403      -560.5111
   2   2.0000     -20.598193      -560.5053
   3   2.0000     -20.540868      -558.9454
   4   2.0000     -15.629418      -425.2981
   5   2.0000     -15.607191      -424.6932
   6   2.0000     -11.394657      -310.0644
   7   2.0000     -11.383709      -309.7665
   8   2.0000     -11.337649      -308.5131
   9   2.0000     -11.315486      -307.9100
  10   2.0000     -11.307882      -307.7031
  11   2.0000     -11.293562      -307.3135
  12   2.0000     -11.262256      -306.4616
  13   2.0000     -11.259044      -306.3742
  14   2.0000     -11.256718      -306.3109
  15   2.0000     -11.251740      -306.1754
  16   2.0000     -11.245049      -305.9933
  17   2.0000     -11.240006      -305.8561
  18   2.0000     -11.239826      -305.8512
  19   2.0000     -11.222501      -305.3798
  20   2.0000      -8.894052      -242.0195
  21   2.0000      -6.575624      -178.9318
  22   2.0000      -6.573626      -178.8775
  23   2.0000      -6.573036      -178.8614
  24   2.0000      -1.449805       -39.4512
  25   2.0000      -1.417850       -38.5817
  26   2.0000      -1.353677       -36.8354
  27   2.0000      -1.340519       -36.4774
  28   2.0000      -1.238494       -33.7011
  29   2.0000      -1.158905       -31.5354
  30   2.0000      -1.121455       -30.5164
  31   2.0000      -1.043740       -28.4016
  32   2.0000      -1.035884       -28.1878
  33   2.0000      -1.016580       -27.6625
  34   2.0000      -0.996384       -27.1130
  35   2.0000      -0.984822       -26.7984
  36   2.0000      -0.922381       -25.0993
  37   2.0000      -0.890443       -24.2302
  38   2.0000      -0.846806       -23.0428
  39   2.0000      -0.839072       -22.8323
  40   2.0000      -0.835288       -22.7294
  41   2.0000      -0.814449       -22.1623
  42   2.0000      -0.760527       -20.6950
  43   2.0000      -0.734535       -19.9877
  44   2.0000      -0.721923       -19.6445
  45   2.0000      -0.697040       -18.9674
  46   2.0000      -0.688836       -18.7442
  47   2.0000      -0.678625       -18.4663
  48   2.0000      -0.670489       -18.2449
  49   2.0000      -0.663673       -18.0595
  50   2.0000      -0.646751       -17.5990
  51   2.0000      -0.641300       -17.4507
  52   2.0000      -0.635200       -17.2847
  53   2.0000      -0.608504       -16.5582
  54   2.0000      -0.602684       -16.3999
  55   2.0000      -0.600195       -16.3321
  56   2.0000      -0.595314       -16.1993
  57   2.0000      -0.578506       -15.7420
  58   2.0000      -0.569679       -15.5018
  59   2.0000      -0.566231       -15.4079
  60   2.0000      -0.560401       -15.2493
  61   2.0000      -0.548376       -14.9221
  62   2.0000      -0.537670       -14.6308
  63   2.0000      -0.527130       -14.3439
  64   2.0000      -0.525583       -14.3018
  65   2.0000      -0.513239       -13.9659
  66   2.0000      -0.501433       -13.6447
  67   2.0000      -0.497260       -13.5311
  68   2.0000      -0.481630       -13.1058
  69   2.0000      -0.463141       -12.6027
  70   2.0000      -0.451860       -12.2957
  71   2.0000      -0.447767       -12.1844
  72   2.0000      -0.353582        -9.6215
  73   2.0000      -0.350952        -9.5499
  74   2.0000      -0.328355        -8.9350
  75   2.0000      -0.322707        -8.7813
  76   2.0000      -0.318511        -8.6671
  77   0.0000       0.077228         2.1015
  78   0.0000       0.102916         2.8005
  79   0.0000       0.124119         3.3774
  80   0.0000       0.132260         3.5990
  81   0.0000       0.135530         3.6880

MULLIKEN ATOMIC CHARGES
-----------------------
   0 C :   -0.288506
   1 C :    0.014000
   2 O :   -0.351325
   3 C :    0.444707
   4 O :   -0.434620
   5 C :   -0.249688
   6 C :    0.181515
   7 C :   -0.267210
   8 N :   -0.126862
   9 C :    0.213536
  10 S :   -0.442571
  11 N :   -0.219409
  12 C :    0.074003
  13 C :    0.053390
  14 C :   -0.188521
  15 C :   -0.141251
  16 C :   -0.271638
  17 C :    0.316345
  18 O :   -0.356911
  19 C :   -0.248002
  20 H :    0.101273
  21 H :    0.103335
  22 H :    0.100377
  23 H :    0.101117
  24 H :    0.123227
  25 H :    0.132960
  26 H :    0.129760
  27 H :    0.094503
  28 H :    0.199450
  29 H :    0.201126
  30 H :    0.150685
  31 H :    0.150607
  32 H :    0.163666
  33 H :    0.131491
  34 H :    0.240998
  35 H :    0.164443
Sum of atomic charges:   -0.0000000

LOEWDIN ATOMIC CHARGES
----------------------
   0 C :    0.103944
   1 C :   -0.015025
   2 O :    0.308853
   3 C :   -0.415620
   4 O :    0.095749
   5 C :   -0.096156
   6 C :   -0.056221
   7 C :    0.131212
   8 N :    0.407337
   9 C :   -0.455455
  10 S :   -0.036723
  11 N :    0.394242
  12 C :   -0.054140
  13 C :   -0.037512
  14 C :    0.015165
  15 C :    0.040262
  16 C :   -0.000788
  17 C :   -0.188979
  18 O :    0.395667
  19 C :    0.033707
  20 H :   -0.027008
  21 H :   -0.027665
  22 H :   -0.026695
  23 H :   -0.028302
  24 H :   -0.028591
  25 H :   -0.004381
  26 H :   -0.004741
  27 H :   -0.023672
  28 H :   -0.057112
  29 H :   -0.064843
  30 H :   -0.013534
  31 H :   -0.029499
  32 H :   -0.021135
  33 H :   -0.035223
  34 H :   -0.153618
  35 H :   -0.023498

  Mayer bond orders larger than 0.100000
B(  0-C ,  1-C ) :   0.9671 B(  0-C , 20-H ) :   0.9723 B(  0-C , 21-H ) :   0.9781
B(  0-C , 22-H ) :   0.9767 B(  1-C ,  2-O ) :   0.8897 B(  1-C , 23-H ) :   0.9852
B(  1-C , 24-H ) :   0.9746 B(  2-O ,  3-C ) :   1.1634 B(  3-C ,  4-O ) :   1.9707
B(  3-C ,  5-C ) :   1.0624 B(  5-C ,  6-C ) :   1.6332 B(  5-C , 12-C ) :   0.9539
B(  6-C ,  7-C ) :   0.9653 B(  6-C ,  8-N ) :   1.1580 B(  7-C , 25-H ) :   0.9613
B(  7-C , 26-H ) :   0.9586 B(  7-C , 27-H ) :   0.9904 B(  8-N ,  9-C ) :   1.1870
B(  8-N , 28-H ) :   0.9465 B(  9-C , 10-S ) :   1.6026 B(  9-C , 11-N ) :   1.3121
B( 11-N , 12-C ) :   0.9612 B( 11-N , 29-H ) :   0.9483 B( 12-C , 13-C ) :   0.9652
B( 12-C , 30-H ) :   1.0006 B( 13-C , 14-C ) :   1.3491 B( 13-C , 19-C ) :   1.3769
B( 14-C , 15-C ) :   1.3917 B( 14-C , 31-H ) :   0.9733 B( 15-C , 16-C ) :   1.3552
B( 15-C , 32-H ) :   0.9711 B( 16-C , 17-C ) :   1.3341 B( 16-C , 33-H ) :   0.9849
B( 17-C , 18-O ) :   1.1051 B( 17-C , 19-C ) :   1.3641 B( 18-O , 34-H ) :   0.9795
B( 19-C , 35-H ) :   0.9593

MP2 TOTAL ENERGY:    -1274.343860851 Eh
FINAL SINGLE POINT ENERGY     -1274.343860850737

DIPOLE MOMENT
-------------
                                X             Y             Z
Electronic contribution:      8.29286      11.16144       6.67250
Nuclear contribution   :     -9.16551     -12.92336      -6.97721
                        -----------------------------------------
Total Dipole Moment    :     -0.87265      -1.76192      -0.30471
                        -----------------------------------------
Magnitude (a.u.)       :      1.98966
Magnitude (Debye)      :      5.05731

Rotational constants in cm-1:     0.012371     0.008419     0.006057
Rotational constants in MHz :   370.882531   252.394777   181.588000

                             ****ORCA TERMINATED NORMALLY****
TOTAL RUN TIME: 0 days 1 hours 40 minutes 7 seconds 642 msec
