                         Program Version 4.2.0 -  RELEASE  -
|  1> ! ri-mp2 cc-pvtz cc-pvtz/c TightSCF NoKeepInts
|  2>
|  3> %scf
|  4>   MaxCore 4096
|  5> end
|  6> *xyz  0  1
|  7>     C       13.7298193   15.6890003   14.4317248
|  8>     C       15.2526265   15.5213624   14.2958250
|  9>     O       15.8622490   16.6926612   14.8684726
| 10>     C       16.8630399   16.5606874   15.7873335
| 11>     O       17.5092996   15.5322523   15.9025863
| 12>     C       17.0404613   17.7364532   16.7080841
| 13>     C       16.7234173   19.0105768   16.3529929
| 14>     C       15.9445498   19.4777508   15.1386908
| 15>     N       17.1553475   20.0936506   17.1231242
| 16>     C       18.0809945   20.0113075   18.1277578
| 17>     S       18.6272930   21.3543215   18.9236622
| 18>     N       18.5485111   18.7565108   18.4240221
| 19>     C       18.0285059   17.4970031   17.8576757
| 20>     C       17.5081532   16.5354045   18.9180994
| 21>     C       18.0203400   15.2291083   19.0159087
| 22>     C       17.5409109   14.3450495   19.9970412
| 23>     C       16.5418856   14.7716515   20.8888657
| 24>     C       16.0285704   16.0724406   20.7923782
| 25>     O       15.0612129   16.4856095   21.6496403
| 26>     C       16.5075351   16.9498867   19.8143284
| 27>     H       13.4430675   15.7719209   15.4876267
| 28>     H       13.2083614   14.8250178   14.0019944
| 29>     H       13.3906471   16.5909490   13.9073894
| 30>     H       15.5552145   14.6044562   14.8202523
| 31>     H       15.5359935   15.4255374   13.2397165
| 32>     H       16.4245287   19.1370691   14.2127285
| 33>     H       15.8660296   20.5699345   15.0760811
| 34>     H       14.9221750   19.0798130   15.1574063
| 35>     H       16.8376777   21.0239656   16.9031588
| 36>     H       19.2134696   18.7198689   19.1862804
| 37>     H       18.9418011   17.1011848   17.3900331
| 38>     H       18.7819344   14.8939365   18.3157827
| 39>     H       17.9398736   13.3341950   20.0585945
| 40>     H       16.1676995   14.0916304   21.6467856
| 41>     H       14.8828373   15.7538160   22.2590636
| 42>     H       16.1009662   17.9540166   19.7568923
| 43> *
| 44>
| 45>                          ****END OF INPUT****

CARTESIAN COORDINATES (ANGSTROEM)
---------------------------------
  C     13.729819   15.689000   14.431725
  C     15.252626   15.521362   14.295825
  O     15.862249   16.692661   14.868473
  C     16.863040   16.560687   15.787334
  O     17.509300   15.532252   15.902586
  C     17.040461   17.736453   16.708084
  C     16.723417   19.010577   16.352993
  C     15.944550   19.477751   15.138691
  N     17.155348   20.093651   17.123124
  C     18.080994   20.011307   18.127758
  S     18.627293   21.354321   18.923662
  N     18.548511   18.756511   18.424022
  C     18.028506   17.497003   17.857676
  C     17.508153   16.535404   18.918099
  C     18.020340   15.229108   19.015909
  C     17.540911   14.345049   19.997041
  C     16.541886   14.771652   20.888866
  C     16.028570   16.072441   20.792378
  O     15.061213   16.485609   21.649640
  C     16.507535   16.949887   19.814328
  H     13.443067   15.771921   15.487627
  H     13.208361   14.825018   14.001994
  H     13.390647   16.590949   13.907389
  H     15.555214   14.604456   14.820252
  H     15.535994   15.425537   13.239717
  H     16.424529   19.137069   14.212729
  H     15.866030   20.569934   15.076081
  H     14.922175   19.079813   15.157406
  H     16.837678   21.023966   16.903159
  H     19.213470   18.719869   19.186280
  H     18.941801   17.101185   17.390033
  H     18.781934   14.893936   18.315783
  H     17.939874   13.334195   20.058594
  H     16.167700   14.091630   21.646786
  H     14.882837   15.753816   22.259064
  H     16.100966   17.954017   19.756892

 Total Charge           Charge          ....    0
 Multiplicity           Mult            ....    1
 Number of Electrons    NEL             ....  154
 Basis Dimension        Dim             ....  828

ORBITAL ENERGIES
----------------

  NO   OCC          E(Eh)            E(eV)
   0   2.0000     -91.887865     -2500.3959
   1   2.0000     -20.603080      -560.6383
   2   2.0000     -20.591547      -560.3245
   3   2.0000     -20.544859      -559.0540
   4   2.0000     -15.628475      -425.2724
   5   2.0000     -15.605496      -424.6471
   6   2.0000     -11.395839      -310.0966
   7   2.0000     -11.382358      -309.7297
   8   2.0000     -11.338278      -308.5302
   9   2.0000     -11.307471      -307.6919
  10   2.0000     -11.304015      -307.5979
  11   2.0000     -11.299411      -307.4726
  12   2.0000     -11.261143      -306.4313
  13   2.0000     -11.258992      -306.3727
  14   2.0000     -11.254675      -306.2553
  15   2.0000     -11.247500      -306.0600
  16   2.0000     -11.237746      -305.7946
  17   2.0000     -11.233889      -305.6896
  18   2.0000     -11.233468      -305.6782
  19   2.0000     -11.230591      -305.5999
  20   2.0000      -8.892950      -241.9895
  21   2.0000      -6.574527      -178.9020
  22   2.0000      -6.572524      -178.8475
  23   2.0000      -6.571937      -178.8315
  24   2.0000      -1.454042       -39.5665
  25   2.0000      -1.411294       -38.4033
  26   2.0000      -1.357115       -36.9290
  27   2.0000      -1.339808       -36.4580
  28   2.0000      -1.236938       -33.6588
  29   2.0000      -1.152083       -31.3498
  30   2.0000      -1.120538       -30.4914
  31   2.0000      -1.044638       -28.4260
  32   2.0000      -1.036581       -28.2068
  33   2.0000      -1.009639       -27.4737
  34   2.0000      -0.998764       -27.1777
  35   2.0000      -0.983725       -26.7685
  36   2.0000      -0.920515       -25.0485
  37   2.0000      -0.890024       -24.2188
  38   2.0000      -0.847066       -23.0499
  39   2.0000      -0.834542       -22.7090
  40   2.0000      -0.827742       -22.5240
  41   2.0000      -0.816830       -22.2271
  42   2.0000      -0.762195       -20.7404
  43   2.0000      -0.736241       -20.0341
  44   2.0000      -0.725870       -19.7519
  45   2.0000      -0.690971       -18.8023
  46   2.0000      -0.684981       -18.6393
  47   2.0000      -0.679163       -18.4810
  48   2.0000      -0.673280       -18.3209
  49   2.0000      -0.660696       -17.9785
  50   2.0000      -0.648760       -17.6537
  51   2.0000      -0.643012       -17.4972
  52   2.0000      -0.633218       -17.2307
  53   2.0000      -0.603642       -16.4259
  54   2.0000      -0.598596       -16.2886
  55   2.0000      -0.595164       -16.1952
  56   2.0000      -0.591576       -16.0976
  57   2.0000      -0.583729       -15.8841
  58   2.0000      -0.573067       -15.5939
  59   2.0000      -0.563193       -15.3252
  60   2.0000      -0.560524       -15.2526
  61   2.0000      -0.558294       -15.1919
  62   2.0000      -0.540532       -14.7086
  63   2.0000      -0.525491       -14.2993
  64   2.0000      -0.515618       -14.0307
  65   2.0000      -0.509065       -13.8524
  66   2.0000      -0.499965       -13.6047
  67   2.0000      -0.493921       -13.4403
  68   2.0000      -0.480888       -13.0856
  69   2.0000      -0.465973       -12.6798
  70   2.0000      -0.456525       -12.4227
  71   2.0000      -0.454693       -12.3728
  72   2.0000      -0.353046        -9.6069
  73   2.0000      -0.344303        -9.3689
  74   2.0000      -0.326941        -8.8965
  75   2.0000      -0.317025        -8.6267
  76   2.0000      -0.314047        -8.5457
  77   0.0000       0.077266         2.1025
  78   0.0000       0.111789         3.0419
  79   0.0000       0.120160         3.2697
  80   0.0000       0.136020         3.7013
  81   0.0000       0.139338         3.7916

MULLIKEN ATOMIC CHARGES
-----------------------
   0 C :   -0.268032
   1 C :    0.021927
   2 O :   -0.341220
   3 C :    0.425925
   4 O :   -0.422751
   5 C :   -0.181083
   6 C :    0.162424
   7 C :   -0.281567
   8 N :   -0.128795
   9 C :    0.207488
  10 S :   -0.442687
  11 N :   -0.210399
  12 C :    0.042563
  13 C :    0.031580
  14 C :   -0.165341
  15 C :   -0.134685
  16 C :   -0.277148
  17 C :    0.314142
  18 O :   -0.359240
  19 C :   -0.251730
  20 H :    0.099632
  21 H :    0.098363
  22 H :    0.090252
  23 H :    0.111952
  24 H :    0.097914
  25 H :    0.125760
  26 H :    0.102573
  27 H :    0.129012
  28 H :    0.198792
  29 H :    0.199905
  30 H :    0.155192
  31 H :    0.158317
  32 H :    0.159842
  33 H :    0.128112
  34 H :    0.239904
  35 H :    0.163108
Sum of atomic charges:   -0.0000000

LOEWDIN ATOMIC CHARGES
----------------------
   0 C :    0.104277
   1 C :   -0.012618
   2 O :    0.307681
   3 C :   -0.416003
   4 O :    0.103816
   5 C :   -0.092150
   6 C :   -0.064094
   7 C :    0.124850
   8 N :    0.405440
   9 C :   -0.458752
  10 S :   -0.037828
  11 N :    0.396552
  12 C :   -0.048303
  13 C :   -0.040429
  14 C :    0.025227
  15 C :    0.040911
  16 C :   -0.001256
  17 C :   -0.192655
  18 O :    0.392950
  19 C :    0.029505
  20 H :   -0.025492
  21 H :   -0.024323
  22 H :   -0.030266
  23 H :   -0.025709
  24 H :   -0.030461
  25 H :   -0.009256
  26 H :   -0.021311
  27 H :   -0.009854
  28 H :   -0.058803
  29 H :   -0.063061
  30 H :   -0.008338
  31 H :   -0.024010
  32 H :   -0.021115
  33 H :   -0.036228
  34 H :   -0.154930
  35 H :   -0.023963

  Mayer bond orders larger than 0.100000
B(  0-C ,  1-C ) :   0.9724 B(  0-C , 20-H ) :   0.9762 B(  0-C , 21-H ) :   0.9776
B(  0-C , 22-H ) :   0.9793 B(  1-C ,  2-O ) :   0.8947 B(  1-C , 23-H ) :   0.9728
B(  1-C , 24-H ) :   0.9826 B(  2-O ,  3-C ) :   1.1538 B(  3-C ,  4-O ) :   1.9857
B(  3-C ,  5-C ) :   1.0425 B(  5-C ,  6-C ) :   1.6565 B(  5-C , 12-C ) :   0.9495
B(  6-C ,  7-C ) :   0.9544 B(  6-C ,  8-N ) :   1.1363 B(  7-C , 25-H ) :   0.9651
B(  7-C , 26-H ) :   0.9909 B(  7-C , 27-H ) :   0.9638 B(  8-N ,  9-C ) :   1.1852
B(  8-N , 28-H ) :   0.9468 B(  9-C , 10-S ) :   1.6077 B(  9-C , 11-N ) :   1.3068
B( 11-N , 12-C ) :   0.9766 B( 11-N , 29-H ) :   0.9486 B( 12-C , 13-C ) :   0.9734
B( 12-C , 30-H ) :   0.9972 B( 13-C , 14-C ) :   1.3761 B( 13-C , 19-C ) :   1.3662
B( 14-C , 15-C ) :   1.3974 B( 14-C , 31-H ) :   0.9640 B( 15-C , 16-C ) :   1.3585
B( 15-C , 32-H ) :   0.9712 B( 16-C , 17-C ) :   1.3335 B( 16-C , 33-H ) :   0.9860
B( 17-C , 18-O ) :   1.1032 B( 17-C , 19-C ) :   1.3675 B( 18-O , 34-H ) :   0.9807
B( 19-C , 35-H ) :   0.9603

MP2 TOTAL ENERGY:    -1274.340038049 Eh
FINAL SINGLE POINT ENERGY     -1274.340038048895

DIPOLE MOMENT
-------------
                                X             Y             Z
Electronic contribution:     10.99967       8.74595      11.15785
Nuclear contribution   :    -12.39282     -10.09005     -12.25249
                        -----------------------------------------
Total Dipole Moment    :     -1.39315      -1.34410      -1.09465
                        -----------------------------------------
Magnitude (a.u.)       :      2.22390
Magnitude (Debye)      :      5.65270

Rotational constants in cm-1:     0.009640     0.009152     0.005648
Rotational constants in MHz :   289.000590   274.355073   169.319712

                             ****ORCA TERMINATED NORMALLY****
TOTAL RUN TIME: 0 days 1 hours 43 minutes 49 seconds 264 msec
