                         Program Version 4.2.0 -  RELEASE  -
|  1> ! ri-mp2 cc-pvtz cc-pvtz/c TightSCF NoKeepInts
|  2>
|  3> %scf
|  4>   MaxCore 4096
|  5> end
|  6> *xyz  0  1
|  7>     C       14.1448953   14.9243596   15.5498692
|  8>     C       15.0553664   16.0453309   16.0761047
|  9>     O       16.2601169   16.0168498   15.2889855
| 10>     C       17.1430713   17.0624394   15.2668324
| 11>     O       17.9243528   17.2206011   14.3479296
| 12>     C       17.0967325   17.9849559   16.4380716
| 13>     C       16.8809634   19.2966070   16.1934262
| 14>     C       16.3079653   19.8622795   14.9121380
| 15>     N       17.2187562   20.2746993   17.1300355
| 16>     C       18.0057129   20.0397451   18.2268508
| 17>     S       18.4728227   21.2561718   19.2449208
| 18>     N       18.4078730   18.7408779   18.4255275
| 19>     C       17.9319656   17.5739215   17.6552288
| 20>     C       17.3419463   16.4578955   18.5016727
| 21>     C       17.7257424   15.1224835   18.2817435
| 22>     C       17.1657876   14.0850232   19.0456932
| 23>     C       16.2166192   14.3860369   20.0376051
| 24>     C       15.8338738   15.7160406   20.2592694
| 25>     O       14.9115113   16.0086776   21.2097788
| 26>     C       16.3901892   16.7470340   19.4952100
| 27>     H       13.1988552   14.9031078   16.1042970
| 28>     H       14.6320978   13.9478486   15.6640853
| 29>     H       13.9188590   15.0754495   14.4868326
| 30>     H       14.5414295   17.0090212   15.9616822
| 31>     H       15.2623392   15.8774054   17.1375793
| 32>     H       15.4933693   19.2349478   14.5298777
| 33>     H       17.0831258   19.9031807   14.1348790
| 34>     H       15.9082342   20.8751525   15.0422474
| 35>     H       16.9718350   21.2380186   16.9666952
| 36>     H       18.9847161   18.5966315   19.2451198
| 37>     H       18.8896877   17.2367680   17.2312737
| 38>     H       18.4526587   14.8864792   17.5078384
| 39>     H       17.4667167   13.0539147   18.8664442
| 40>     H       15.7816071   13.5871335   20.6294531
| 41>     H       14.6867601   15.1824329   21.6641439
| 42>     H       16.0784447   17.7704781   19.6786580
| 43> *
| 44>
| 45>                          ****END OF INPUT****

CARTESIAN COORDINATES (ANGSTROEM)
---------------------------------
  C     14.144895   14.924360   15.549869
  C     15.055366   16.045331   16.076105
  O     16.260117   16.016850   15.288986
  C     17.143071   17.062439   15.266832
  O     17.924353   17.220601   14.347930
  C     17.096733   17.984956   16.438072
  C     16.880963   19.296607   16.193426
  C     16.307965   19.862279   14.912138
  N     17.218756   20.274699   17.130036
  C     18.005713   20.039745   18.226851
  S     18.472823   21.256172   19.244921
  N     18.407873   18.740878   18.425527
  C     17.931966   17.573922   17.655229
  C     17.341946   16.457895   18.501673
  C     17.725742   15.122483   18.281744
  C     17.165788   14.085023   19.045693
  C     16.216619   14.386037   20.037605
  C     15.833874   15.716041   20.259269
  O     14.911511   16.008678   21.209779
  C     16.390189   16.747034   19.495210
  H     13.198855   14.903108   16.104297
  H     14.632098   13.947849   15.664085
  H     13.918859   15.075449   14.486833
  H     14.541429   17.009021   15.961682
  H     15.262339   15.877405   17.137579
  H     15.493369   19.234948   14.529878
  H     17.083126   19.903181   14.134879
  H     15.908234   20.875152   15.042247
  H     16.971835   21.238019   16.966695
  H     18.984716   18.596632   19.245120
  H     18.889688   17.236768   17.231274
  H     18.452659   14.886479   17.507838
  H     17.466717   13.053915   18.866444
  H     15.781607   13.587133   20.629453
  H     14.686760   15.182433   21.664144
  H     16.078445   17.770478   19.678658

 Total Charge           Charge          ....    0
 Multiplicity           Mult            ....    1
 Number of Electrons    NEL             ....  154
 Basis Dimension        Dim             ....  828

ORBITAL ENERGIES
----------------

  NO   OCC          E(Eh)            E(eV)
   0   2.0000     -91.889808     -2500.4488
   1   2.0000     -20.604585      -560.6793
   2   2.0000     -20.600231      -560.5608
   3   2.0000     -20.552780      -559.2696
   4   2.0000     -15.626215      -425.2109
   5   2.0000     -15.610951      -424.7956
   6   2.0000     -11.396290      -310.1088
   7   2.0000     -11.385412      -309.8128
   8   2.0000     -11.327285      -308.2311
   9   2.0000     -11.323172      -308.1192
  10   2.0000     -11.316729      -307.9439
  11   2.0000     -11.299169      -307.4660
  12   2.0000     -11.270364      -306.6822
  13   2.0000     -11.264458      -306.5215
  14   2.0000     -11.259160      -306.3773
  15   2.0000     -11.255971      -306.2905
  16   2.0000     -11.252718      -306.2020
  17   2.0000     -11.247625      -306.0634
  18   2.0000     -11.247434      -306.0583
  19   2.0000     -11.231271      -305.6184
  20   2.0000      -8.894890      -242.0423
  21   2.0000      -6.576466      -178.9547
  22   2.0000      -6.574461      -178.9002
  23   2.0000      -6.573875      -178.8842
  24   2.0000      -1.448754       -39.4226
  25   2.0000      -1.424341       -38.7583
  26   2.0000      -1.362732       -37.0818
  27   2.0000      -1.339378       -36.4463
  28   2.0000      -1.239367       -33.7249
  29   2.0000      -1.166747       -31.7488
  30   2.0000      -1.126213       -30.6458
  31   2.0000      -1.051700       -28.6182
  32   2.0000      -1.037929       -28.2435
  33   2.0000      -1.024739       -27.8846
  34   2.0000      -1.003790       -27.3145
  35   2.0000      -0.989573       -26.9277
  36   2.0000      -0.927416       -25.2363
  37   2.0000      -0.878269       -23.8989
  38   2.0000      -0.853516       -23.2254
  39   2.0000      -0.844463       -22.9790
  40   2.0000      -0.842760       -22.9327
  41   2.0000      -0.838812       -22.8252
  42   2.0000      -0.760149       -20.6847
  43   2.0000      -0.739510       -20.1231
  44   2.0000      -0.730043       -19.8655
  45   2.0000      -0.702951       -19.1283
  46   2.0000      -0.692663       -18.8483
  47   2.0000      -0.680156       -18.5080
  48   2.0000      -0.676441       -18.4069
  49   2.0000      -0.667382       -18.1604
  50   2.0000      -0.654106       -17.7991
  51   2.0000      -0.651094       -17.7172
  52   2.0000      -0.636896       -17.3308
  53   2.0000      -0.614535       -16.7223
  54   2.0000      -0.608727       -16.5643
  55   2.0000      -0.605234       -16.4693
  56   2.0000      -0.591581       -16.0977
  57   2.0000      -0.581686       -15.8285
  58   2.0000      -0.577427       -15.7126
  59   2.0000      -0.567023       -15.4295
  60   2.0000      -0.563244       -15.3266
  61   2.0000      -0.559143       -15.2150
  62   2.0000      -0.550630       -14.9834
  63   2.0000      -0.529998       -14.4220
  64   2.0000      -0.522477       -14.2173
  65   2.0000      -0.517210       -14.0740
  66   2.0000      -0.509802       -13.8724
  67   2.0000      -0.504483       -13.7277
  68   2.0000      -0.487841       -13.2748
  69   2.0000      -0.468147       -12.7389
  70   2.0000      -0.454397       -12.3648
  71   2.0000      -0.451960       -12.2985
  72   2.0000      -0.357667        -9.7326
  73   2.0000      -0.352305        -9.5867
  74   2.0000      -0.331780        -9.0282
  75   2.0000      -0.328729        -8.9452
  76   2.0000      -0.319225        -8.6865
  77   0.0000       0.086514         2.3542
  78   0.0000       0.097765         2.6603
  79   0.0000       0.118877         3.2348
  80   0.0000       0.126507         3.4424
  81   0.0000       0.129783         3.5316

MULLIKEN ATOMIC CHARGES
-----------------------
   0 C :   -0.261175
   1 C :    0.025650
   2 O :   -0.300771
   3 C :    0.404090
   4 O :   -0.377346
   5 C :   -0.204140
   6 C :    0.144592
   7 C :   -0.292699
   8 N :   -0.135229
   9 C :    0.214724
  10 S :   -0.441099
  11 N :   -0.222725
  12 C :    0.027532
  13 C :    0.005910
  14 C :   -0.197963
  15 C :   -0.135598
  16 C :   -0.270791
  17 C :    0.308877
  18 O :   -0.354050
  19 C :   -0.230413
  20 H :    0.089022
  21 H :    0.099785
  22 H :    0.102333
  23 H :    0.090520
  24 H :    0.110848
  25 H :    0.112957
  26 H :    0.146532
  27 H :    0.099755
  28 H :    0.197246
  29 H :    0.201975
  30 H :    0.164438
  31 H :    0.160156
  32 H :    0.165534
  33 H :    0.135129
  34 H :    0.241733
  35 H :    0.174659
Sum of atomic charges:   -0.0000000

LOEWDIN ATOMIC CHARGES
----------------------
   0 C :    0.111389
   1 C :   -0.025516
   2 O :    0.309088
   3 C :   -0.418286
   4 O :    0.125992
   5 C :   -0.092569
   6 C :   -0.087376
   7 C :    0.129453
   8 N :    0.404210
   9 C :   -0.454286
  10 S :   -0.036670
  11 N :    0.395749
  12 C :   -0.054059
  13 C :   -0.046187
  14 C :    0.017900
  15 C :    0.044806
  16 C :    0.001445
  17 C :   -0.191483
  18 O :    0.397368
  19 C :    0.030466
  20 H :   -0.025291
  21 H :   -0.025228
  22 H :   -0.025377
  23 H :   -0.036548
  24 H :   -0.033770
  25 H :   -0.012009
  26 H :   -0.003018
  27 H :   -0.019556
  28 H :   -0.058647
  29 H :   -0.064197
  30 H :   -0.008067
  31 H :   -0.025131
  32 H :   -0.017883
  33 H :   -0.033388
  34 H :   -0.152164
  35 H :   -0.021161

  Mayer bond orders larger than 0.100000
B(  0-C ,  1-C ) :   0.9829 B(  0-C , 20-H ) :   0.9775 B(  0-C , 21-H ) :   0.9782
B(  0-C , 22-H ) :   0.9787 B(  1-C ,  2-O ) :   0.9031 B(  1-C , 23-H ) :   0.9725
B(  1-C , 24-H ) :   0.9612 B(  2-O ,  3-C ) :   1.1984 B(  3-C ,  4-O ) :   2.1262
B(  3-C ,  5-C ) :   0.9144 B(  5-C ,  6-C ) :   1.7116 B(  5-C , 12-C ) :   0.9593
B(  6-C ,  7-C ) :   0.9389 B(  6-C ,  8-N ) :   1.1182 B(  7-C , 25-H ) :   0.9786
B(  7-C , 26-H ) :   0.9586 B(  7-C , 27-H ) :   0.9861 B(  8-N ,  9-C ) :   1.2004
B(  8-N , 28-H ) :   0.9493 B(  9-C , 10-S ) :   1.6119 B(  9-C , 11-N ) :   1.2853
B( 11-N , 12-C ) :   0.9772 B( 11-N , 29-H ) :   0.9462 B( 12-C , 13-C ) :   0.9541
B( 12-C , 30-H ) :   1.0017 B( 13-C , 14-C ) :   1.3789 B( 13-C , 19-C ) :   1.3581
B( 14-C , 15-C ) :   1.3955 B( 14-C , 31-H ) :   0.9688 B( 15-C , 16-C ) :   1.3621
B( 15-C , 32-H ) :   0.9694 B( 16-C , 17-C ) :   1.3300 B( 16-C , 33-H ) :   0.9834
B( 17-C , 18-O ) :   1.1120 B( 17-C , 19-C ) :   1.3614 B( 18-O , 34-H ) :   0.9786
B( 19-C , 35-H ) :   0.9570

MP2 TOTAL ENERGY:    -1274.325892524 Eh
FINAL SINGLE POINT ENERGY     -1274.325892523541

DIPOLE MOMENT
-------------
                                X             Y             Z
Electronic contribution:     10.50898       9.27369       7.28047
Nuclear contribution   :    -12.13953     -10.85508      -7.13320
                        -----------------------------------------
Total Dipole Moment    :     -1.63055      -1.58139       0.14727
                        -----------------------------------------
Magnitude (a.u.)       :      2.27621
Magnitude (Debye)      :      5.78567

Rotational constants in cm-1:     0.011876     0.008863     0.006042
Rotational constants in MHz :   356.048029   265.706440   181.136739

                             ****ORCA TERMINATED NORMALLY****
TOTAL RUN TIME: 0 days 1 hours 43 minutes 11 seconds 456 msec
