                         Program Version 4.2.0 -  RELEASE  -
|  1> ! ri-mp2 cc-pvtz cc-pvtz/c TightSCF NoKeepInts
|  2>
|  3> %scf
|  4>   MaxCore 4096
|  5> end
|  6> *xyz  0  1
|  7>     C       14.4285219   15.2842290   14.9931675
|  8>     C       15.5666373   15.1745150   16.0280556
|  9>     O       16.7497771   15.8506998   15.5503915
| 10>     C       16.6953517   17.1883546   15.2887464
| 11>     O       16.3852770   17.5885876   14.1812212
| 12>     C       16.9872331   18.0630735   16.4820085
| 13>     C       16.9087215   19.4148642   16.3648148
| 14>     C       16.2210492   20.2033426   15.2689036
| 15>     N       17.4818890   20.2587505   17.3184896
| 16>     C       18.3483516   19.8459664   18.2930868
| 17>     S       19.0889223   20.9116696   19.3181965
| 18>     N       18.5908763   18.4979644   18.3594966
| 19>     C       17.8803372   17.4624556   17.5856260
| 20>     C       17.2215307   16.4294453   18.4875704
| 21>     C       17.7204523   15.1156275   18.5582575
| 22>     C       17.1083288   14.1650037   19.3923106
| 23>     C       15.9948931   14.5339694   20.1667948
| 24>     C       15.5045220   15.8458276   20.1073840
| 25>     O       14.4301561   16.2049500   20.8535534
| 26>     C       16.1137037   16.7891010   19.2738785
| 27>     H       14.0657567   16.3160339   14.9072523
| 28>     H       13.5813188   14.6533081   15.2877372
| 29>     H       14.7726961   14.9556181   14.0042326
| 30>     H       15.2255797   15.6018441   16.9782183
| 31>     H       15.8018471   14.1161189   16.1988299
| 32>     H       15.2445309   19.7650589   15.0268874
| 33>     H       16.8220388   20.1909382   14.3503394
| 34>     H       16.0459097   21.2510309   15.5404509
| 35>     H       17.3378802   21.2541043   17.2571182
| 36>     H       19.2175794   18.2203857   19.1044944
| 37>     H       18.7333301   17.0187839   17.0522644
| 38>     H       18.5792909   14.8284778   17.9566484
| 39>     H       17.4981783   13.1492906   19.4384452
| 40>     H       15.5200244   13.8032576   20.8136254
| 41>     H       14.1887687   15.4451987   21.4049389
| 42>     H       15.7257381   17.8021531   19.2445634
| 43> *
| 44>
| 45>                          ****END OF INPUT****

CARTESIAN COORDINATES (ANGSTROEM)
---------------------------------
  C     14.428522   15.284229   14.993168
  C     15.566637   15.174515   16.028056
  O     16.749777   15.850700   15.550391
  C     16.695352   17.188355   15.288746
  O     16.385277   17.588588   14.181221
  C     16.987233   18.063074   16.482008
  C     16.908721   19.414864   16.364815
  C     16.221049   20.203343   15.268904
  N     17.481889   20.258750   17.318490
  C     18.348352   19.845966   18.293087
  S     19.088922   20.911670   19.318196
  N     18.590876   18.497964   18.359497
  C     17.880337   17.462456   17.585626
  C     17.221531   16.429445   18.487570
  C     17.720452   15.115627   18.558257
  C     17.108329   14.165004   19.392311
  C     15.994893   14.533969   20.166795
  C     15.504522   15.845828   20.107384
  O     14.430156   16.204950   20.853553
  C     16.113704   16.789101   19.273878
  H     14.065757   16.316034   14.907252
  H     13.581319   14.653308   15.287737
  H     14.772696   14.955618   14.004233
  H     15.225580   15.601844   16.978218
  H     15.801847   14.116119   16.198830
  H     15.244531   19.765059   15.026887
  H     16.822039   20.190938   14.350339
  H     16.045910   21.251031   15.540451
  H     17.337880   21.254104   17.257118
  H     19.217579   18.220386   19.104494
  H     18.733330   17.018784   17.052264
  H     18.579291   14.828478   17.956648
  H     17.498178   13.149291   19.438445
  H     15.520024   13.803258   20.813625
  H     14.188769   15.445199   21.404939
  H     15.725738   17.802153   19.244563

 Total Charge           Charge          ....    0
 Multiplicity           Mult            ....    1
 Number of Electrons    NEL             ....  154
 Basis Dimension        Dim             ....  828

ORBITAL ENERGIES
----------------

  NO   OCC          E(Eh)            E(eV)
   0   2.0000     -91.891234     -2500.4876
   1   2.0000     -20.602384      -560.6194
   2   2.0000     -20.581324      -560.0463
   3   2.0000     -20.547121      -559.1156
   4   2.0000     -15.631370      -425.3512
   5   2.0000     -15.609443      -424.7545
   6   2.0000     -11.392540      -310.0068
   7   2.0000     -11.385493      -309.8150
   8   2.0000     -11.339520      -308.5640
   9   2.0000     -11.320300      -308.0410
  10   2.0000     -11.311927      -307.8132
  11   2.0000     -11.296932      -307.4051
  12   2.0000     -11.266090      -306.5659
  13   2.0000     -11.261352      -306.4370
  14   2.0000     -11.259411      -306.3841
  15   2.0000     -11.253727      -306.2295
  16   2.0000     -11.250167      -306.1326
  17   2.0000     -11.244730      -305.9847
  18   2.0000     -11.244203      -305.9703
  19   2.0000     -11.221148      -305.3430
  20   2.0000      -8.896284      -242.0802
  21   2.0000      -6.577850      -178.9924
  22   2.0000      -6.575858      -178.9382
  23   2.0000      -6.575260      -178.9219
  24   2.0000      -1.444753       -39.3137
  25   2.0000      -1.422132       -38.6982
  26   2.0000      -1.352822       -36.8122
  27   2.0000      -1.343164       -36.5493
  28   2.0000      -1.241296       -33.7774
  29   2.0000      -1.163204       -31.6524
  30   2.0000      -1.122732       -30.5511
  31   2.0000      -1.047460       -28.5028
  32   2.0000      -1.030150       -28.0318
  33   2.0000      -1.021198       -27.7882
  34   2.0000      -0.999591       -27.2003
  35   2.0000      -0.987384       -26.8681
  36   2.0000      -0.925449       -25.1828
  37   2.0000      -0.886666       -24.1274
  38   2.0000      -0.850255       -23.1366
  39   2.0000      -0.843298       -22.9473
  40   2.0000      -0.840127       -22.8610
  41   2.0000      -0.827805       -22.5257
  42   2.0000      -0.751861       -20.4592
  43   2.0000      -0.737196       -20.0601
  44   2.0000      -0.717271       -19.5179
  45   2.0000      -0.700503       -19.0616
  46   2.0000      -0.689925       -18.7738
  47   2.0000      -0.679070       -18.4784
  48   2.0000      -0.668381       -18.1876
  49   2.0000      -0.666965       -18.1490
  50   2.0000      -0.650237       -17.6938
  51   2.0000      -0.646376       -17.5888
  52   2.0000      -0.637828       -17.3562
  53   2.0000      -0.612444       -16.6654
  54   2.0000      -0.610015       -16.5993
  55   2.0000      -0.602870       -16.4049
  56   2.0000      -0.602035       -16.3822
  57   2.0000      -0.581338       -15.8190
  58   2.0000      -0.572341       -15.5742
  59   2.0000      -0.568861       -15.4795
  60   2.0000      -0.557367       -15.1667
  61   2.0000      -0.544094       -14.8056
  62   2.0000      -0.537683       -14.6311
  63   2.0000      -0.528314       -14.3762
  64   2.0000      -0.523234       -14.2379
  65   2.0000      -0.516266       -14.0483
  66   2.0000      -0.503298       -13.6954
  67   2.0000      -0.494999       -13.4696
  68   2.0000      -0.479502       -13.0479
  69   2.0000      -0.465079       -12.6554
  70   2.0000      -0.457662       -12.4536
  71   2.0000      -0.443560       -12.0699
  72   2.0000      -0.355712        -9.6794
  73   2.0000      -0.354658        -9.6507
  74   2.0000      -0.330815        -9.0019
  75   2.0000      -0.327489        -8.9114
  76   2.0000      -0.320880        -8.7316
  77   0.0000       0.071069         1.9339
  78   0.0000       0.097787         2.6609
  79   0.0000       0.122354         3.3294
  80   0.0000       0.128367         3.4930
  81   0.0000       0.131136         3.5684

MULLIKEN ATOMIC CHARGES
-----------------------
   0 C :   -0.271615
   1 C :    0.021008
   2 O :   -0.378911
   3 C :    0.470893
   4 O :   -0.393573
   5 C :   -0.272170
   6 C :    0.176044
   7 C :   -0.266917
   8 N :   -0.127085
   9 C :    0.208906
  10 S :   -0.438030
  11 N :   -0.210846
  12 C :    0.054207
  13 C :   -0.017511
  14 C :   -0.141238
  15 C :   -0.141531
  16 C :   -0.271681
  17 C :    0.307463
  18 O :   -0.356507
  19 C :   -0.233218
  20 H :    0.092640
  21 H :    0.095661
  22 H :    0.109226
  23 H :    0.103021
  24 H :    0.110146
  25 H :    0.127106
  26 H :    0.135661
  27 H :    0.094223
  28 H :    0.200057
  29 H :    0.200576
  30 H :    0.152560
  31 H :    0.152586
  32 H :    0.165166
  33 H :    0.134453
  34 H :    0.241565
  35 H :    0.167662
Sum of atomic charges:    0.0000000

LOEWDIN ATOMIC CHARGES
----------------------
   0 C :    0.105968
   1 C :   -0.022444
   2 O :    0.288127
   3 C :   -0.422605
   4 O :    0.122438
   5 C :   -0.104158
   6 C :   -0.054234
   7 C :    0.130503
   8 N :    0.407851
   9 C :   -0.458004
  10 S :   -0.033414
  11 N :    0.395170
  12 C :   -0.054081
  13 C :   -0.042429
  14 C :    0.021176
  15 C :    0.042200
  16 C :    0.000115
  17 C :   -0.192023
  18 O :    0.396354
  19 C :    0.031480
  20 H :   -0.030090
  21 H :   -0.028210
  22 H :   -0.022212
  23 H :   -0.034809
  24 H :   -0.022502
  25 H :   -0.005924
  26 H :   -0.003893
  27 H :   -0.023182
  28 H :   -0.056421
  29 H :   -0.063663
  30 H :   -0.011495
  31 H :   -0.026832
  32 H :   -0.019594
  33 H :   -0.034065
  34 H :   -0.152624
  35 H :   -0.022476

  Mayer bond orders larger than 0.100000
B(  0-C ,  1-C ) :   0.9832 B(  0-C , 20-H ) :   0.9738 B(  0-C , 21-H ) :   0.9761
B(  0-C , 22-H ) :   0.9765 B(  1-C ,  2-O ) :   0.8888 B(  1-C , 23-H ) :   0.9645
B(  1-C , 24-H ) :   0.9789 B(  2-O ,  3-C ) :   1.0954 B(  3-C ,  4-O ) :   2.0468
B(  3-C ,  5-C ) :   1.0473 B(  5-C ,  6-C ) :   1.6322 B(  5-C , 12-C ) :   0.9564
B(  6-C ,  7-C ) :   0.9668 B(  6-C ,  8-N ) :   1.1545 B(  7-C , 25-H ) :   0.9663
B(  7-C , 26-H ) :   0.9547 B(  7-C , 27-H ) :   0.9881 B(  8-N ,  9-C ) :   1.1857
B(  8-N , 28-H ) :   0.9468 B(  9-C , 10-S ) :   1.6115 B(  9-C , 11-N ) :   1.3059
B( 11-N , 12-C ) :   0.9688 B( 11-N , 29-H ) :   0.9486 B( 12-C , 13-C ) :   0.9672
B( 12-C , 30-H ) :   1.0030 B( 13-C , 14-C ) :   1.3570 B( 13-C , 19-C ) :   1.3700
B( 14-C , 15-C ) :   1.3916 B( 14-C , 31-H ) :   0.9737 B( 15-C , 16-C ) :   1.3605
B( 15-C , 32-H ) :   0.9696 B( 16-C , 17-C ) :   1.3315 B( 16-C , 33-H ) :   0.9834
B( 17-C , 18-O ) :   1.1077 B( 17-C , 19-C ) :   1.3647 B( 18-O , 34-H ) :   0.9789
B( 19-C , 35-H ) :   0.9599

MP2 TOTAL ENERGY:    -1274.324896159 Eh
FINAL SINGLE POINT ENERGY     -1274.324896158652

DIPOLE MOMENT
-------------
                                X             Y             Z
Electronic contribution:      9.89932       8.95647       7.82625
Nuclear contribution   :    -11.02593     -10.55005      -7.60177
                        -----------------------------------------
Total Dipole Moment    :     -1.12661      -1.59358       0.22448
                        -----------------------------------------
Magnitude (a.u.)       :      1.96447
Magnitude (Debye)      :      4.99328

Rotational constants in cm-1:     0.011793     0.008947     0.006058
Rotational constants in MHz :   353.536134   268.216749   181.617594

                             ****ORCA TERMINATED NORMALLY****
TOTAL RUN TIME: 0 days 1 hours 44 minutes 35 seconds 332 msec
