                         Program Version 4.2.0 -  RELEASE  -
|  1> ! ri-mp2 cc-pvtz cc-pvtz/c TightSCF NoKeepInts
|  2>
|  3> %scf
|  4>   MaxCore 4096
|  5> end
|  6> *xyz  0  1
|  7>     C       14.7067686   15.7251539   16.2883308
|  8>     C       15.0035257   16.2333342   14.8598444
|  9>     O       16.4197603   16.2719424   14.5579557
| 10>     C       17.4021869   16.4840991   15.4887753
| 11>     O       18.3589888   15.7352569   15.5654911
| 12>     C       17.2108284   17.6389255   16.4254550
| 13>     C       16.8856424   18.8737164   15.9640998
| 14>     C       16.4934900   19.2677966   14.5530482
| 15>     N       16.9933894   19.9945809   16.7903602
| 16>     C       17.6597931   20.0096056   17.9864006
| 17>     S       17.8590640   21.4018354   18.8560590
| 18>     N       18.1776481   18.8117726   18.4108845
| 19>     C       17.9203949   17.5031047   17.7778839
| 20>     C       17.2757463   16.4783350   18.7016874
| 21>     C       17.7407636   15.1511545   18.7247858
| 22>     C       17.1369863   14.1962120   19.5595593
| 23>     C       16.0584837   14.5714247   20.3786702
| 24>     C       15.5921396   15.8928919   20.3574135
| 25>     O       14.5454021   16.2561737   21.1403437
| 26>     C       16.1949482   16.8415141   19.5251084
| 27>     H       15.3217457   14.8496755   16.5352174
| 28>     H       13.6543906   15.4273723   16.3701547
| 29>     H       14.8797030   16.5040425   17.0383828
| 30>     H       14.5143133   15.5702031   14.1344355
| 31>     H       14.5577623   17.2271163   14.7410154
| 32>     H       16.9353181   18.6042671   13.7999262
| 33>     H       16.8466714   20.2769091   14.3048845
| 34>     H       15.4055148   19.2608980   14.4247313
| 35>     H       16.6500324   20.8877433   16.4741062
| 36>     H       18.6616831   18.8471417   19.2993949
| 37>     H       18.9517072   17.2005271   17.5424641
| 38>     H       18.5681160   14.8563943   18.0824054
| 39>     H       17.5038888   13.1711808   19.5654758
| 40>     H       15.5882042   13.8362682   21.0233409
| 41>     H       14.2961119   15.4832115   21.6691299
| 42>     H       15.8158867   17.8582190   19.5207782
| 43> *
| 44>
| 45>                          ****END OF INPUT****

CARTESIAN COORDINATES (ANGSTROEM)
---------------------------------
  C     14.706769   15.725154   16.288331
  C     15.003526   16.233334   14.859844
  O     16.419760   16.271942   14.557956
  C     17.402187   16.484099   15.488775
  O     18.358989   15.735257   15.565491
  C     17.210828   17.638925   16.425455
  C     16.885642   18.873716   15.964100
  C     16.493490   19.267797   14.553048
  N     16.993389   19.994581   16.790360
  C     17.659793   20.009606   17.986401
  S     17.859064   21.401835   18.856059
  N     18.177648   18.811773   18.410885
  C     17.920395   17.503105   17.777884
  C     17.275746   16.478335   18.701687
  C     17.740764   15.151154   18.724786
  C     17.136986   14.196212   19.559559
  C     16.058484   14.571425   20.378670
  C     15.592140   15.892892   20.357413
  O     14.545402   16.256174   21.140344
  C     16.194948   16.841514   19.525108
  H     15.321746   14.849675   16.535217
  H     13.654391   15.427372   16.370155
  H     14.879703   16.504043   17.038383
  H     14.514313   15.570203   14.134435
  H     14.557762   17.227116   14.741015
  H     16.935318   18.604267   13.799926
  H     16.846671   20.276909   14.304885
  H     15.405515   19.260898   14.424731
  H     16.650032   20.887743   16.474106
  H     18.661683   18.847142   19.299395
  H     18.951707   17.200527   17.542464
  H     18.568116   14.856394   18.082405
  H     17.503889   13.171181   19.565476
  H     15.588204   13.836268   21.023341
  H     14.296112   15.483211   21.669130
  H     15.815887   17.858219   19.520778

 Total Charge           Charge          ....    0
 Multiplicity           Mult            ....    1
 Number of Electrons    NEL             ....  154
 Basis Dimension        Dim             ....  828

ORBITAL ENERGIES
----------------

  NO   OCC          E(Eh)            E(eV)
   0   2.0000     -91.890133     -2500.4576
   1   2.0000     -20.597777      -560.4940
   2   2.0000     -20.594311      -560.3997
   3   2.0000     -20.551515      -559.2352
   4   2.0000     -15.629105      -425.2896
   5   2.0000     -15.608778      -424.7364
   6   2.0000     -11.398280      -310.1630
   7   2.0000     -11.385411      -309.8128
   8   2.0000     -11.337635      -308.5127
   9   2.0000     -11.314614      -307.8863
  10   2.0000     -11.310104      -307.7636
  11   2.0000     -11.308508      -307.7202
  12   2.0000     -11.264709      -306.5283
  13   2.0000     -11.264529      -306.5234
  14   2.0000     -11.261945      -306.4531
  15   2.0000     -11.254658      -306.2548
  16   2.0000     -11.244072      -305.9668
  17   2.0000     -11.239830      -305.8513
  18   2.0000     -11.236165      -305.7516
  19   2.0000     -11.231915      -305.6359
  20   2.0000      -8.895230      -242.0515
  21   2.0000      -6.576809      -178.9641
  22   2.0000      -6.574800      -178.9094
  23   2.0000      -6.574214      -178.8934
  24   2.0000      -1.446369       -39.3577
  25   2.0000      -1.417545       -38.5734
  26   2.0000      -1.359053       -36.9817
  27   2.0000      -1.341956       -36.5165
  28   2.0000      -1.239626       -33.7319
  29   2.0000      -1.158687       -31.5295
  30   2.0000      -1.124460       -30.5981
  31   2.0000      -1.046396       -28.4739
  32   2.0000      -1.036235       -28.1974
  33   2.0000      -1.016930       -27.6721
  34   2.0000      -1.005418       -27.3588
  35   2.0000      -0.989240       -26.9186
  36   2.0000      -0.925955       -25.1965
  37   2.0000      -0.899098       -24.4657
  38   2.0000      -0.852937       -23.2096
  39   2.0000      -0.840695       -22.8765
  40   2.0000      -0.834337       -22.7035
  41   2.0000      -0.827427       -22.5154
  42   2.0000      -0.744517       -20.2593
  43   2.0000      -0.733875       -19.9697
  44   2.0000      -0.731111       -19.8945
  45   2.0000      -0.694822       -18.9071
  46   2.0000      -0.686398       -18.6778
  47   2.0000      -0.681928       -18.5562
  48   2.0000      -0.675436       -18.3795
  49   2.0000      -0.662381       -18.0243
  50   2.0000      -0.656882       -17.8747
  51   2.0000      -0.649049       -17.6615
  52   2.0000      -0.638289       -17.3687
  53   2.0000      -0.623095       -16.9553
  54   2.0000      -0.609713       -16.5911
  55   2.0000      -0.604765       -16.4565
  56   2.0000      -0.601299       -16.3622
  57   2.0000      -0.584406       -15.9025
  58   2.0000      -0.575228       -15.6527
  59   2.0000      -0.564213       -15.3530
  60   2.0000      -0.562037       -15.2938
  61   2.0000      -0.549633       -14.9563
  62   2.0000      -0.541394       -14.7321
  63   2.0000      -0.536552       -14.6003
  64   2.0000      -0.521395       -14.1879
  65   2.0000      -0.511921       -13.9301
  66   2.0000      -0.500095       -13.6083
  67   2.0000      -0.495222       -13.4757
  68   2.0000      -0.485585       -13.2134
  69   2.0000      -0.470970       -12.8158
  70   2.0000      -0.457018       -12.4361
  71   2.0000      -0.449022       -12.2185
  72   2.0000      -0.357189        -9.7196
  73   2.0000      -0.348711        -9.4889
  74   2.0000      -0.329501        -8.9662
  75   2.0000      -0.322384        -8.7725
  76   2.0000      -0.319983        -8.7072
  77   0.0000       0.078527         2.1368
  78   0.0000       0.104748         2.8503
  79   0.0000       0.117341         3.1930
  80   0.0000       0.130978         3.5641
  81   0.0000       0.131945         3.5904

MULLIKEN ATOMIC CHARGES
-----------------------
   0 C :   -0.329979
   1 C :    0.042020
   2 O :   -0.350735
   3 C :    0.454120
   4 O :   -0.381015
   5 C :   -0.259178
   6 C :    0.180662
   7 C :   -0.330178
   8 N :   -0.136909
   9 C :    0.204796
  10 S :   -0.441618
  11 N :   -0.222952
  12 C :    0.072238
  13 C :    0.020176
  14 C :   -0.216522
  15 C :   -0.131160
  16 C :   -0.276046
  17 C :    0.321282
  18 O :   -0.357228
  19 C :   -0.261241
  20 H :    0.121964
  21 H :    0.114227
  22 H :    0.113270
  23 H :    0.124442
  24 H :    0.078819
  25 H :    0.144154
  26 H :    0.122163
  27 H :    0.123225
  28 H :    0.198457
  29 H :    0.202842
  30 H :    0.164503
  31 H :    0.178101
  32 H :    0.164509
  33 H :    0.131439
  34 H :    0.240923
  35 H :    0.176429
Sum of atomic charges:   -0.0000000

LOEWDIN ATOMIC CHARGES
----------------------
   0 C :    0.106442
   1 C :   -0.015395
   2 O :    0.291700
   3 C :   -0.419666
   4 O :    0.124666
   5 C :   -0.087679
   6 C :   -0.079286
   7 C :    0.126783
   8 N :    0.403776
   9 C :   -0.458979
  10 S :   -0.037206
  11 N :    0.396360
  12 C :   -0.047641
  13 C :   -0.042426
  14 C :    0.022275
  15 C :    0.043027
  16 C :   -0.000785
  17 C :   -0.192484
  18 O :    0.394810
  19 C :    0.027868
  20 H :   -0.020272
  21 H :   -0.023196
  22 H :   -0.033107
  23 H :   -0.020765
  24 H :   -0.039112
  25 H :   -0.007517
  26 H :   -0.013874
  27 H :   -0.018802
  28 H :   -0.057368
  29 H :   -0.063196
  30 H :   -0.004815
  31 H :   -0.021894
  32 H :   -0.019147
  33 H :   -0.035139
  34 H :   -0.153576
  35 H :   -0.024379

  Mayer bond orders larger than 0.100000
B(  0-C ,  1-C ) :   0.9562 B(  0-C , 20-H ) :   0.9690 B(  0-C , 21-H ) :   0.9764
B(  0-C , 22-H ) :   0.9704 B(  1-C ,  2-O ) :   0.9046 B(  1-C , 23-H ) :   0.9818
B(  1-C , 24-H ) :   0.9751 B(  2-O ,  3-C ) :   1.1351 B(  3-C ,  4-O ) :   2.0784
B(  3-C ,  5-C ) :   0.9471 B(  5-C ,  6-C ) :   1.6900 B(  5-C , 12-C ) :   0.9399
B(  6-C ,  7-C ) :   0.9376 B(  6-C ,  8-N ) :   1.1189 B(  7-C , 25-H ) :   0.9681
B(  7-C , 26-H ) :   0.9828 B(  7-C , 27-H ) :   0.9669 B(  8-N ,  9-C ) :   1.1934
B(  8-N , 28-H ) :   0.9499 B(  9-C , 10-S ) :   1.6103 B(  9-C , 11-N ) :   1.2953
B( 11-N , 12-C ) :   0.9784 B( 11-N , 29-H ) :   0.9478 B( 12-C , 13-C ) :   0.9714
B( 12-C , 30-H ) :   0.9912 B( 13-C , 14-C ) :   1.3870 B( 13-C , 19-C ) :   1.3439
B( 14-C , 15-C ) :   1.3953 B( 14-C , 31-H ) :   0.9575 B( 15-C , 16-C ) :   1.3596
B( 15-C , 32-H ) :   0.9700 B( 16-C , 17-C ) :   1.3318 B( 16-C , 33-H ) :   0.9848
B( 17-C , 18-O ) :   1.1082 B( 17-C , 19-C ) :   1.3601 B( 18-O , 34-H ) :   0.9798
B( 19-C , 35-H ) :   0.9575

MP2 TOTAL ENERGY:    -1274.326379949 Eh
FINAL SINGLE POINT ENERGY     -1274.326379949439

DIPOLE MOMENT
-------------
                                X             Y             Z
Electronic contribution:      8.69241       7.44469       6.69077
Nuclear contribution   :    -10.28424      -8.57122      -7.25514
                        -----------------------------------------
Total Dipole Moment    :     -1.59183      -1.12653      -0.56437
                        -----------------------------------------
Magnitude (a.u.)       :      2.03015
Magnitude (Debye)      :      5.16023

Rotational constants in cm-1:     0.011474     0.009355     0.006405
Rotational constants in MHz :   343.988547   280.465640   192.026348

                             ****ORCA TERMINATED NORMALLY****
TOTAL RUN TIME: 0 days 2 hours 2 minutes 44 seconds 445 msec
