                         Program Version 4.2.0 -  RELEASE  -
|  1> ! ri-mp2 cc-pvtz cc-pvtz/c TightSCF NoKeepInts
|  2>
|  3> %scf
|  4>   MaxCore 4096
|  5> end
|  6> *xyz  0  1
|  7>     C       14.3477723   16.7759791   16.0750477
|  8>     C       15.2115312   15.5818458   15.6140316
|  9>     O       16.4282585   15.9356964   14.9074948
| 10>     C       17.4978697   16.6230199   15.4265218
| 11>     O       18.6387982   16.3463035   15.1075281
| 12>     C       17.2104424   17.6768890   16.4322372
| 13>     C       16.8307053   18.9029814   16.0054094
| 14>     C       16.4101108   19.2772400   14.5995419
| 15>     N       16.8968865   20.0086411   16.8545164
| 16>     C       17.5443316   20.0082842   18.0628851
| 17>     S       17.6799716   21.3777883   18.9797243
| 18>     N       18.0989169   18.8159180   18.4625526
| 19>     C       17.9222473   17.5219611   17.7727774
| 20>     C       17.3362389   16.4023557   18.6186050
| 21>     C       17.8591157   15.1004021   18.5211734
| 22>     C       17.3027234   14.0502105   19.2701102
| 23>     C       16.2120961   14.3041756   20.1195220
| 24>     C       15.6857596   15.5999128   20.2136605
| 25>     O       14.6257196   15.8456033   21.0237076
| 26>     C       16.2410202   16.6434379   19.4662206
| 27>     H       14.7382519   17.2451574   16.9842430
| 28>     H       13.3370192   16.4243395   16.3158939
| 29>     H       14.2524775   17.5273847   15.2834332
| 30>     H       15.4602528   14.9611630   16.4857450
| 31>     H       14.6031172   14.9623517   14.9423691
| 32>     H       16.1334544   18.4050535   13.9956478
| 33>     H       17.2319396   19.7834296   14.0769754
| 34>     H       15.5450181   19.9514722   14.6057135
| 35>     H       16.5386973   20.9003757   16.5507256
| 36>     H       18.5711263   18.8440945   19.3576227
| 37>     H       18.9690876   17.2919593   17.5227976
| 38>     H       18.6961732   14.9015650   17.8546063
| 39>     H       17.7159347   13.0459971   19.1888285
| 40>     H       15.7788537   13.4955917   20.6992621
| 41>     H       14.4199375   15.0230560   21.4933074
| 42>     H       15.8151434   17.6383634   19.5475611
| 43> *
| 44>
| 45>                          ****END OF INPUT****

CARTESIAN COORDINATES (ANGSTROEM)
---------------------------------
  C     14.347772   16.775979   16.075048
  C     15.211531   15.581846   15.614032
  O     16.428258   15.935696   14.907495
  C     17.497870   16.623020   15.426522
  O     18.638798   16.346304   15.107528
  C     17.210442   17.676889   16.432237
  C     16.830705   18.902981   16.005409
  C     16.410111   19.277240   14.599542
  N     16.896887   20.008641   16.854516
  C     17.544332   20.008284   18.062885
  S     17.679972   21.377788   18.979724
  N     18.098917   18.815918   18.462553
  C     17.922247   17.521961   17.772777
  C     17.336239   16.402356   18.618605
  C     17.859116   15.100402   18.521173
  C     17.302723   14.050211   19.270110
  C     16.212096   14.304176   20.119522
  C     15.685760   15.599913   20.213660
  O     14.625720   15.845603   21.023708
  C     16.241020   16.643438   19.466221
  H     14.738252   17.245157   16.984243
  H     13.337019   16.424339   16.315894
  H     14.252477   17.527385   15.283433
  H     15.460253   14.961163   16.485745
  H     14.603117   14.962352   14.942369
  H     16.133454   18.405054   13.995648
  H     17.231940   19.783430   14.076975
  H     15.545018   19.951472   14.605713
  H     16.538697   20.900376   16.550726
  H     18.571126   18.844095   19.357623
  H     18.969088   17.291959   17.522798
  H     18.696173   14.901565   17.854606
  H     17.715935   13.045997   19.188828
  H     15.778854   13.495592   20.699262
  H     14.419937   15.023056   21.493307
  H     15.815143   17.638363   19.547561

 Total Charge           Charge          ....    0
 Multiplicity           Mult            ....    1
 Number of Electrons    NEL             ....  154
 Basis Dimension        Dim             ....  828

ORBITAL ENERGIES
----------------

  NO   OCC          E(Eh)            E(eV)
   0   2.0000     -91.889070     -2500.4287
   1   2.0000     -20.603566      -560.6515
   2   2.0000     -20.596859      -560.4690
   3   2.0000     -20.553109      -559.2785
   4   2.0000     -15.625526      -425.1922
   5   2.0000     -15.610082      -424.7719
   6   2.0000     -11.398723      -310.1750
   7   2.0000     -11.385260      -309.8087
   8   2.0000     -11.326710      -308.2154
   9   2.0000     -11.321805      -308.0820
  10   2.0000     -11.312286      -307.8229
  11   2.0000     -11.308234      -307.7127
  12   2.0000     -11.269453      -306.6574
  13   2.0000     -11.262617      -306.4714
  14   2.0000     -11.262203      -306.4601
  15   2.0000     -11.258101      -306.3485
  16   2.0000     -11.250621      -306.1450
  17   2.0000     -11.246264      -306.0264
  18   2.0000     -11.244902      -305.9894
  19   2.0000     -11.233798      -305.6872
  20   2.0000      -8.894175      -242.0228
  21   2.0000      -6.575758      -178.9355
  22   2.0000      -6.573746      -178.8807
  23   2.0000      -6.573165      -178.8649
  24   2.0000      -1.444873       -39.3170
  25   2.0000      -1.423267       -38.7291
  26   2.0000      -1.359420       -36.9917
  27   2.0000      -1.338926       -36.4340
  28   2.0000      -1.238501       -33.7013
  29   2.0000      -1.165591       -31.7173
  30   2.0000      -1.126665       -30.6581
  31   2.0000      -1.050875       -28.5958
  32   2.0000      -1.037775       -28.2393
  33   2.0000      -1.023441       -27.8493
  34   2.0000      -1.005699       -27.3665
  35   2.0000      -0.990466       -26.9519
  36   2.0000      -0.927519       -25.2391
  37   2.0000      -0.896523       -24.3956
  38   2.0000      -0.851799       -23.1786
  39   2.0000      -0.843544       -22.9540
  40   2.0000      -0.841360       -22.8946
  41   2.0000      -0.830610       -22.6021
  42   2.0000      -0.752641       -20.4804
  43   2.0000      -0.737999       -20.0820
  44   2.0000      -0.728636       -19.8272
  45   2.0000      -0.701486       -19.0884
  46   2.0000      -0.691054       -18.8045
  47   2.0000      -0.678785       -18.4707
  48   2.0000      -0.675471       -18.3805
  49   2.0000      -0.664399       -18.0792
  50   2.0000      -0.653902       -17.7936
  51   2.0000      -0.647099       -17.6085
  52   2.0000      -0.638313       -17.3694
  53   2.0000      -0.615508       -16.7488
  54   2.0000      -0.608619       -16.5614
  55   2.0000      -0.606913       -16.5150
  56   2.0000      -0.602928       -16.4065
  57   2.0000      -0.590583       -16.0706
  58   2.0000      -0.581322       -15.8186
  59   2.0000      -0.578439       -15.7401
  60   2.0000      -0.565440       -15.3864
  61   2.0000      -0.556542       -15.1443
  62   2.0000      -0.541299       -14.7295
  63   2.0000      -0.533317       -14.5123
  64   2.0000      -0.523722       -14.2512
  65   2.0000      -0.514329       -13.9956
  66   2.0000      -0.503677       -13.7057
  67   2.0000      -0.500540       -13.6204
  68   2.0000      -0.489974       -13.3329
  69   2.0000      -0.462338       -12.5809
  70   2.0000      -0.457439       -12.4475
  71   2.0000      -0.452713       -12.3189
  72   2.0000      -0.356251        -9.6941
  73   2.0000      -0.352030        -9.5792
  74   2.0000      -0.330199        -8.9852
  75   2.0000      -0.328149        -8.9294
  76   2.0000      -0.318526        -8.6675
  77   0.0000       0.089318         2.4305
  78   0.0000       0.100697         2.7401
  79   0.0000       0.119546         3.2530
  80   0.0000       0.121726         3.3123
  81   0.0000       0.127450         3.4681

MULLIKEN ATOMIC CHARGES
-----------------------
   0 C :   -0.332024
   1 C :    0.039832
   2 O :   -0.338454
   3 C :    0.411167
   4 O :   -0.374234
   5 C :   -0.215859
   6 C :    0.156685
   7 C :   -0.329207
   8 N :   -0.139584
   9 C :    0.211367
  10 S :   -0.443636
  11 N :   -0.229188
  12 C :    0.082143
  13 C :    0.030167
  14 C :   -0.242161
  15 C :   -0.125329
  16 C :   -0.278816
  17 C :    0.319639
  18 O :   -0.353853
  19 C :   -0.265341
  20 H :    0.117897
  21 H :    0.121553
  22 H :    0.101428
  23 H :    0.102478
  24 H :    0.122348
  25 H :    0.121992
  26 H :    0.150412
  27 H :    0.110638
  28 H :    0.197525
  29 H :    0.202319
  30 H :    0.170026
  31 H :    0.173952
  32 H :    0.166691
  33 H :    0.133941
  34 H :    0.241870
  35 H :    0.181618
Sum of atomic charges:    0.0000000

LOEWDIN ATOMIC CHARGES
----------------------
   0 C :    0.101363
   1 C :   -0.011343
   2 O :    0.289208
   3 C :   -0.416636
   4 O :    0.127066
   5 C :   -0.082467
   6 C :   -0.091176
   7 C :    0.124612
   8 N :    0.403676
   9 C :   -0.454391
  10 S :   -0.039035
  11 N :    0.395937
  12 C :   -0.051809
  13 C :   -0.044073
  14 C :    0.016558
  15 C :    0.044362
  16 C :   -0.000192
  17 C :   -0.190499
  18 O :    0.396727
  19 C :    0.029251
  20 H :   -0.034242
  21 H :   -0.022620
  22 H :   -0.030045
  23 H :   -0.028625
  24 H :   -0.019348
  25 H :   -0.012201
  26 H :   -0.006979
  27 H :   -0.017982
  28 H :   -0.057510
  29 H :   -0.064646
  30 H :   -0.003641
  31 H :   -0.022111
  32 H :   -0.017924
  33 H :   -0.034058
  34 H :   -0.152438
  35 H :   -0.022768

  Mayer bond orders larger than 0.100000
B(  0-C ,  1-C ) :   0.9556 B(  0-C , 20-H ) :   0.9696 B(  0-C , 21-H ) :   0.9790
B(  0-C , 22-H ) :   0.9766 B(  1-C ,  2-O ) :   0.9034 B(  1-C , 23-H ) :   0.9751
B(  1-C , 24-H ) :   0.9833 B(  2-O ,  3-C ) :   1.1598 B(  3-C ,  4-O ) :   2.1174
B(  3-C ,  5-C ) :   0.9198 B(  5-C ,  6-C ) :   1.7172 B(  5-C , 12-C ) :   0.9287
B(  6-C ,  7-C ) :   0.9476 B(  6-C ,  8-N ) :   1.1071 B(  7-C , 25-H ) :   0.9768
B(  7-C , 26-H ) :   0.9634 B(  7-C , 27-H ) :   0.9738 B(  8-N ,  9-C ) :   1.2016
B(  8-N , 28-H ) :   0.9499 B(  9-C , 10-S ) :   1.6092 B(  9-C , 11-N ) :   1.2858
B( 11-N , 12-C ) :   0.9819 B( 11-N , 29-H ) :   0.9476 B( 12-C , 13-C ) :   0.9604
B( 12-C , 30-H ) :   0.9923 B( 13-C , 14-C ) :   1.3810 B( 13-C , 19-C ) :   1.3448
B( 14-C , 15-C ) :   1.3947 B( 14-C , 31-H ) :   0.9626 B( 15-C , 16-C ) :   1.3619
B( 15-C , 32-H ) :   0.9690 B( 16-C , 17-C ) :   1.3300 B( 16-C , 33-H ) :   0.9842
B( 17-C , 18-O ) :   1.1125 B( 17-C , 19-C ) :   1.3630 B( 18-O , 34-H ) :   0.9787
B( 19-C , 35-H ) :   0.9536

MP2 TOTAL ENERGY:    -1274.323033160 Eh
FINAL SINGLE POINT ENERGY     -1274.323033159734

DIPOLE MOMENT
-------------
                                X             Y             Z
Electronic contribution:      9.08047       6.11571       6.62773
Nuclear contribution   :    -10.66577      -7.70915      -6.78477
                        -----------------------------------------
Total Dipole Moment    :     -1.58530      -1.59344      -0.15704
                        -----------------------------------------
Magnitude (a.u.)       :      2.25319
Magnitude (Debye)      :      5.72717

Rotational constants in cm-1:     0.011967     0.009120     0.006592
Rotational constants in MHz :   358.754774   273.419846   197.614229

                             ****ORCA TERMINATED NORMALLY****
TOTAL RUN TIME: 0 days 1 hours 48 minutes 59 seconds 535 msec
