                         Program Version 4.2.0 -  RELEASE  -
|  1> ! ri-mp2 cc-pvtz cc-pvtz/c TightSCF NoKeepInts
|  2>
|  3> %scf
|  4>   MaxCore 4096
|  5> end
|  6> *xyz  0  1
|  7>     C       14.9564789   15.2829691   13.2094378
|  8>     C       14.6874951   15.5039215   14.7076488
|  9>     O       15.5079219   16.6066212   15.1361125
| 10>     C       16.5199972   16.4009784   16.0296369
| 11>     O       16.9875944   15.2946552   16.2442233
| 12>     C       16.9367779   17.6194092   16.8056781
| 13>     C       16.8428989   18.8808547   16.3060898
| 14>     C       16.1254032   19.3386169   15.0510695
| 15>     N       17.4889631   19.9473913   16.9367879
| 16>     C       18.4204643   19.8118817   17.9302477
| 17>     S       19.2278778   21.1139378   18.5534040
| 18>     N       18.6655041   18.5345745   18.3655136
| 19>     C       17.9064240   17.3355744   17.9607292
| 20>     C       17.2609471   16.6110187   19.1347036
| 21>     C       17.5250616   15.2498223   19.3707332
| 22>     C       16.9312011   14.5842941   20.4562860
| 23>     C       16.0670665   15.2865407   21.3139048
| 24>     C       15.8007950   16.6427003   21.0798215
| 25>     O       14.9638825   17.3221071   21.9040514
| 26>     C       16.3930165   17.3021705   19.9980112
| 27>     H       14.7406229   16.1935105   12.6369573
| 28>     H       14.3262974   14.4738290   12.8207703
| 29>     H       16.0060897   15.0085838   13.0442961
| 30>     H       13.6295280   15.7579591   14.8519294
| 31>     H       14.8942946   14.5841518   15.2718999
| 32>     H       15.0468328   19.1543451   15.1320140
| 33>     H       16.4966648   18.7990555   14.1707137
| 34>     H       16.2577670   20.4086957   14.8501001
| 35>     H       17.3359437   20.8889445   16.6129583
| 36>     H       19.3407293   18.4636598   19.1162437
| 37>     H       18.7159795   16.7288736   17.5293916
| 38>     H       18.1814925   14.7026344   18.6981926
| 39>     H       17.1378059   13.5289948   20.6249871
| 40>     H       15.6052054   14.7760435   22.1523412
| 41>     H       14.6780729   16.7078512   22.5966823
| 42>     H       16.1779027   18.3528281   19.8344315
| 43> *
| 44>
| 45>                          ****END OF INPUT****

CARTESIAN COORDINATES (ANGSTROEM)
---------------------------------
  C     14.956479   15.282969   13.209438
  C     14.687495   15.503922   14.707649
  O     15.507922   16.606621   15.136112
  C     16.519997   16.400978   16.029637
  O     16.987594   15.294655   16.244223
  C     16.936778   17.619409   16.805678
  C     16.842899   18.880855   16.306090
  C     16.125403   19.338617   15.051070
  N     17.488963   19.947391   16.936788
  C     18.420464   19.811882   17.930248
  S     19.227878   21.113938   18.553404
  N     18.665504   18.534574   18.365514
  C     17.906424   17.335574   17.960729
  C     17.260947   16.611019   19.134704
  C     17.525062   15.249822   19.370733
  C     16.931201   14.584294   20.456286
  C     16.067066   15.286541   21.313905
  C     15.800795   16.642700   21.079821
  O     14.963882   17.322107   21.904051
  C     16.393017   17.302170   19.998011
  H     14.740623   16.193510   12.636957
  H     14.326297   14.473829   12.820770
  H     16.006090   15.008584   13.044296
  H     13.629528   15.757959   14.851929
  H     14.894295   14.584152   15.271900
  H     15.046833   19.154345   15.132014
  H     16.496665   18.799056   14.170714
  H     16.257767   20.408696   14.850100
  H     17.335944   20.888945   16.612958
  H     19.340729   18.463660   19.116244
  H     18.715979   16.728874   17.529392
  H     18.181492   14.702634   18.698193
  H     17.137806   13.528995   20.624987
  H     15.605205   14.776044   22.152341
  H     14.678073   16.707851   22.596682
  H     16.177903   18.352828   19.834432

 Total Charge           Charge          ....    0
 Multiplicity           Mult            ....    1
 Number of Electrons    NEL             ....  154
 Basis Dimension        Dim             ....  828

ORBITAL ENERGIES
----------------

  NO   OCC          E(Eh)            E(eV)
   0   2.0000     -91.887805     -2500.3943
   1   2.0000     -20.602736      -560.6289
   2   2.0000     -20.591305      -560.3179
   3   2.0000     -20.545677      -559.0763
   4   2.0000     -15.628346      -425.2689
   5   2.0000     -15.605452      -424.6459
   6   2.0000     -11.396595      -310.1171
   7   2.0000     -11.382318      -309.7286
   8   2.0000     -11.338055      -308.5242
   9   2.0000     -11.307286      -307.6869
  10   2.0000     -11.303972      -307.5967
  11   2.0000     -11.299552      -307.4764
  12   2.0000     -11.260966      -306.4265
  13   2.0000     -11.258986      -306.3726
  14   2.0000     -11.254571      -306.2524
  15   2.0000     -11.247382      -306.0568
  16   2.0000     -11.237586      -305.7903
  17   2.0000     -11.233693      -305.6843
  18   2.0000     -11.230498      -305.5974
  19   2.0000     -11.230473      -305.5967
  20   2.0000      -8.892891      -241.9879
  21   2.0000      -6.574469      -178.9004
  22   2.0000      -6.572465      -178.8459
  23   2.0000      -6.571878      -178.8299
  24   2.0000      -1.453944       -39.5638
  25   2.0000      -1.411048       -38.3966
  26   2.0000      -1.357581       -36.9417
  27   2.0000      -1.339700       -36.4551
  28   2.0000      -1.236832       -33.6559
  29   2.0000      -1.151969       -31.3467
  30   2.0000      -1.120563       -30.4921
  31   2.0000      -1.043836       -28.4042
  32   2.0000      -1.035944       -28.1895
  33   2.0000      -1.009483       -27.4694
  34   2.0000      -0.998366       -27.1669
  35   2.0000      -0.983365       -26.7587
  36   2.0000      -0.920444       -25.0466
  37   2.0000      -0.890007       -24.2183
  38   2.0000      -0.847261       -23.0551
  39   2.0000      -0.834670       -22.7125
  40   2.0000      -0.827594       -22.5200
  41   2.0000      -0.818810       -22.2810
  42   2.0000      -0.760234       -20.6870
  43   2.0000      -0.735843       -20.0233
  44   2.0000      -0.725839       -19.7511
  45   2.0000      -0.689917       -18.7736
  46   2.0000      -0.685421       -18.6513
  47   2.0000      -0.680110       -18.5067
  48   2.0000      -0.671887       -18.2830
  49   2.0000      -0.654841       -17.8191
  50   2.0000      -0.648554       -17.6481
  51   2.0000      -0.639086       -17.3904
  52   2.0000      -0.628258       -17.0958
  53   2.0000      -0.615143       -16.7389
  54   2.0000      -0.602704       -16.4004
  55   2.0000      -0.597939       -16.2707
  56   2.0000      -0.594551       -16.1785
  57   2.0000      -0.582727       -15.8568
  58   2.0000      -0.572612       -15.5816
  59   2.0000      -0.564449       -15.3594
  60   2.0000      -0.561285       -15.2733
  61   2.0000      -0.546905       -14.8820
  62   2.0000      -0.534754       -14.5514
  63   2.0000      -0.532108       -14.4794
  64   2.0000      -0.515411       -14.0251
  65   2.0000      -0.508649       -13.8410
  66   2.0000      -0.500635       -13.6230
  67   2.0000      -0.493790       -13.4367
  68   2.0000      -0.480661       -13.0794
  69   2.0000      -0.464045       -12.6273
  70   2.0000      -0.458065       -12.4646
  71   2.0000      -0.452944       -12.3252
  72   2.0000      -0.352958        -9.6045
  73   2.0000      -0.344117        -9.3639
  74   2.0000      -0.326885        -8.8950
  75   2.0000      -0.316982        -8.6255
  76   2.0000      -0.313929        -8.5424
  77   0.0000       0.077357         2.1050
  78   0.0000       0.112112         3.0507
  79   0.0000       0.121454         3.3049
  80   0.0000       0.135936         3.6990
  81   0.0000       0.139643         3.7999

MULLIKEN ATOMIC CHARGES
-----------------------
   0 C :   -0.272950
   1 C :    0.024498
   2 O :   -0.346448
   3 C :    0.427897
   4 O :   -0.425103
   5 C :   -0.175233
   6 C :    0.159948
   7 C :   -0.282076
   8 N :   -0.129178
   9 C :    0.207368
  10 S :   -0.442791
  11 N :   -0.210845
  12 C :    0.041269
  13 C :    0.031107
  14 C :   -0.167256
  15 C :   -0.134350
  16 C :   -0.276935
  17 C :    0.314273
  18 O :   -0.359090
  19 C :   -0.250420
  20 H :    0.090350
  21 H :    0.094481
  22 H :    0.102913
  23 H :    0.102548
  24 H :    0.115158
  25 H :    0.129643
  26 H :    0.125179
  27 H :    0.102368
  28 H :    0.198818
  29 H :    0.200032
  30 H :    0.155282
  31 H :    0.158722
  32 H :    0.159733
  33 H :    0.128045
  34 H :    0.239849
  35 H :    0.163196
Sum of atomic charges:   -0.0000000

LOEWDIN ATOMIC CHARGES
----------------------
   0 C :    0.103878
   1 C :   -0.013031
   2 O :    0.307332
   3 C :   -0.414936
   4 O :    0.102858
   5 C :   -0.091220
   6 C :   -0.064283
   7 C :    0.124865
   8 N :    0.405403
   9 C :   -0.458726
  10 S :   -0.037902
  11 N :    0.396503
  12 C :   -0.048277
  13 C :   -0.040498
  14 C :    0.024898
  15 C :    0.040860
  16 C :   -0.001134
  17 C :   -0.192428
  18 O :    0.393066
  19 C :    0.029828
  20 H :   -0.029912
  21 H :   -0.025973
  22 H :   -0.024550
  23 H :   -0.029274
  24 H :   -0.026511
  25 H :   -0.009303
  26 H :   -0.009771
  27 H :   -0.021237
  28 H :   -0.058798
  29 H :   -0.063085
  30 H :   -0.008392
  31 H :   -0.024074
  32 H :   -0.021147
  33 H :   -0.036216
  34 H :   -0.154929
  35 H :   -0.023883

  Mayer bond orders larger than 0.100000
B(  0-C ,  1-C ) :   0.9701 B(  0-C , 20-H ) :   0.9792 B(  0-C , 21-H ) :   0.9760
B(  0-C , 22-H ) :   0.9781 B(  1-C ,  2-O ) :   0.8897 B(  1-C , 23-H ) :   0.9822
B(  1-C , 24-H ) :   0.9724 B(  2-O ,  3-C ) :   1.1446 B(  3-C ,  4-O ) :   1.9787
B(  3-C ,  5-C ) :   1.0482 B(  5-C ,  6-C ) :   1.6574 B(  5-C , 12-C ) :   0.9477
B(  6-C ,  7-C ) :   0.9535 B(  6-C ,  8-N ) :   1.1344 B(  7-C , 25-H ) :   0.9635
B(  7-C , 26-H ) :   0.9657 B(  7-C , 27-H ) :   0.9913 B(  8-N ,  9-C ) :   1.1856
B(  8-N , 28-H ) :   0.9469 B(  9-C , 10-S ) :   1.6077 B(  9-C , 11-N ) :   1.3067
B( 11-N , 12-C ) :   0.9760 B( 11-N , 29-H ) :   0.9485 B( 12-C , 13-C ) :   0.9745
B( 12-C , 30-H ) :   0.9973 B( 13-C , 14-C ) :   1.3760 B( 13-C , 19-C ) :   1.3663
B( 14-C , 15-C ) :   1.3972 B( 14-C , 31-H ) :   0.9639 B( 15-C , 16-C ) :   1.3587
B( 15-C , 32-H ) :   0.9713 B( 16-C , 17-C ) :   1.3333 B( 16-C , 33-H ) :   0.9860
B( 17-C , 18-O ) :   1.1033 B( 17-C , 19-C ) :   1.3675 B( 18-O , 34-H ) :   0.9807
B( 19-C , 35-H ) :   0.9602

MP2 TOTAL ENERGY:    -1274.339480154 Eh
FINAL SINGLE POINT ENERGY     -1274.339480154309

DIPOLE MOMENT
-------------
                                X             Y             Z
Electronic contribution:      9.25363       9.20534      13.26426
Nuclear contribution   :    -10.84404     -10.41950     -14.22045
                        -----------------------------------------
Total Dipole Moment    :     -1.59041      -1.21416      -0.95619
                        -----------------------------------------
Magnitude (a.u.)       :      2.21763
Magnitude (Debye)      :      5.63677

Rotational constants in cm-1:     0.010030     0.008672     0.005399
Rotational constants in MHz :   300.690865   259.982313   161.868540

                             ****ORCA TERMINATED NORMALLY****
TOTAL RUN TIME: 0 days 1 hours 32 minutes 56 seconds 456 msec
