                         Program Version 4.2.0 -  RELEASE  -
|  1> ! ri-mp2 cc-pvtz cc-pvtz/c TightSCF NoKeepInts
|  2>
|  3> %scf
|  4>   MaxCore 4096
|  5> end
|  6> *xyz  0  1
|  7>     C       14.5029110   15.0579845   15.8584874
|  8>     C       15.8923118   14.8280218   15.2235774
|  9>     O       16.8036082   15.8838346   15.5886935
| 10>     C       16.4736957   17.1966160   15.3978943
| 11>     O       15.7854955   17.5571513   14.4581157
| 12>     C       17.0017193   18.0938896   16.4841172
| 13>     C       17.0415678   19.4405729   16.3181496
| 14>     C       16.3823640   20.2460867   15.2178014
| 15>     N       17.7556151   20.2532379   17.2016590
| 16>     C       18.6020952   19.7865163   18.1707390
| 17>     S       19.4862829   20.8064395   19.1266231
| 18>     N       18.6953979   18.4234162   18.2962023
| 19>     C       17.8759795   17.4380579   17.5655957
| 20>     C       17.1075078   16.5078361   18.4953467
| 21>     C       17.4742141   15.1550338   18.6188092
| 22>     C       16.7559871   14.2957103   19.4672474
| 23>     C       15.6649567   14.7944784   20.1996041
| 24>     C       15.3012919   16.1431787   20.0818594
| 25>     O       14.2478894   16.6269965   20.7868386
| 26>     C       16.0176725   16.9957333   19.2361344
| 27>     H       14.5930414   15.2151557   16.9408849
| 28>     H       13.8624531   14.1830533   15.6951166
| 29>     H       13.9956454   15.9260979   15.4201288
| 30>     H       16.2970280   13.8668531   15.5652903
| 31>     H       15.7894861   14.7852266   14.1309239
| 32>     H       16.8134701   19.9921721   14.2410049
| 33>     H       16.4873642   21.3287407   15.3548116
| 34>     H       15.3082949   20.0252657   15.1689892
| 35>     H       17.7124299   21.2552812   17.1065312
| 36>     H       19.3032420   18.1099017   19.0422717
| 37>     H       18.6594425   16.8875453   17.0256481
| 38>     H       18.3132238   14.7673862   18.0470717
| 39>     H       17.0449664   13.2498157   19.5550387
| 40>     H       15.1072270   14.1348592   20.8562640
| 41>     H       13.9065870   15.9043436   21.3347460
| 42>     H       15.7245347   18.0375096   19.1597829
| 43> *
| 44>
| 45>                          ****END OF INPUT****

CARTESIAN COORDINATES (ANGSTROEM)
---------------------------------
  C     14.502911   15.057984   15.858487
  C     15.892312   14.828022   15.223577
  O     16.803608   15.883835   15.588693
  C     16.473696   17.196616   15.397894
  O     15.785495   17.557151   14.458116
  C     17.001719   18.093890   16.484117
  C     17.041568   19.440573   16.318150
  C     16.382364   20.246087   15.217801
  N     17.755615   20.253238   17.201659
  C     18.602095   19.786516   18.170739
  S     19.486283   20.806439   19.126623
  N     18.695398   18.423416   18.296202
  C     17.875979   17.438058   17.565596
  C     17.107508   16.507836   18.495347
  C     17.474214   15.155034   18.618809
  C     16.755987   14.295710   19.467247
  C     15.664957   14.794478   20.199604
  C     15.301292   16.143179   20.081859
  O     14.247889   16.626997   20.786839
  C     16.017672   16.995733   19.236134
  H     14.593041   15.215156   16.940885
  H     13.862453   14.183053   15.695117
  H     13.995645   15.926098   15.420129
  H     16.297028   13.866853   15.565290
  H     15.789486   14.785227   14.130924
  H     16.813470   19.992172   14.241005
  H     16.487364   21.328741   15.354812
  H     15.308295   20.025266   15.168989
  H     17.712430   21.255281   17.106531
  H     19.303242   18.109902   19.042272
  H     18.659442   16.887545   17.025648
  H     18.313224   14.767386   18.047072
  H     17.044966   13.249816   19.555039
  H     15.107227   14.134859   20.856264
  H     13.906587   15.904344   21.334746
  H     15.724535   18.037510   19.159783

 Total Charge           Charge          ....    0
 Multiplicity           Mult            ....    1
 Number of Electrons    NEL             ....  154
 Basis Dimension        Dim             ....  828

ORBITAL ENERGIES
----------------

  NO   OCC          E(Eh)            E(eV)
   0   2.0000     -91.889362     -2500.4367
   1   2.0000     -20.598465      -560.5127
   2   2.0000     -20.593697      -560.3830
   3   2.0000     -20.541446      -558.9612
   4   2.0000     -15.629788      -425.3082
   5   2.0000     -15.607542      -424.7028
   6   2.0000     -11.394194      -310.0518
   7   2.0000     -11.384112      -309.7774
   8   2.0000     -11.337722      -308.5151
   9   2.0000     -11.315945      -307.9225
  10   2.0000     -11.307965      -307.7054
  11   2.0000     -11.298103      -307.4370
  12   2.0000     -11.262556      -306.4697
  13   2.0000     -11.258769      -306.3667
  14   2.0000     -11.257383      -306.3290
  15   2.0000     -11.252071      -306.1844
  16   2.0000     -11.245832      -306.0146
  17   2.0000     -11.240891      -305.8802
  18   2.0000     -11.240604      -305.8724
  19   2.0000     -11.222293      -305.3741
  20   2.0000      -8.894427      -242.0297
  21   2.0000      -6.575998      -178.9420
  22   2.0000      -6.574001      -178.8877
  23   2.0000      -6.573409      -178.8716
  24   2.0000      -1.447767       -39.3957
  25   2.0000      -1.418189       -38.5909
  26   2.0000      -1.352315       -36.7984
  27   2.0000      -1.340758       -36.4839
  28   2.0000      -1.238712       -33.7071
  29   2.0000      -1.159580       -31.5538
  30   2.0000      -1.121746       -30.5243
  31   2.0000      -1.044205       -28.4143
  32   2.0000      -1.033392       -28.1200
  33   2.0000      -1.017106       -27.6768
  34   2.0000      -0.996758       -27.1232
  35   2.0000      -0.985361       -26.8130
  36   2.0000      -0.922749       -25.1093
  37   2.0000      -0.895929       -24.3795
  38   2.0000      -0.847227       -23.0542
  39   2.0000      -0.839687       -22.8490
  40   2.0000      -0.836139       -22.7525
  41   2.0000      -0.815898       -22.2017
  42   2.0000      -0.749915       -20.4062
  43   2.0000      -0.734945       -19.9989
  44   2.0000      -0.722542       -19.6614
  45   2.0000      -0.697182       -18.9713
  46   2.0000      -0.689564       -18.7640
  47   2.0000      -0.676663       -18.4129
  48   2.0000      -0.671862       -18.2823
  49   2.0000      -0.660574       -17.9751
  50   2.0000      -0.647937       -17.6313
  51   2.0000      -0.639796       -17.4097
  52   2.0000      -0.634843       -17.2750
  53   2.0000      -0.615981       -16.7617
  54   2.0000      -0.608611       -16.5611
  55   2.0000      -0.601827       -16.3765
  56   2.0000      -0.600483       -16.3400
  57   2.0000      -0.578824       -15.7506
  58   2.0000      -0.570430       -15.5222
  59   2.0000      -0.566261       -15.4087
  60   2.0000      -0.553889       -15.0721
  61   2.0000      -0.545297       -14.8383
  62   2.0000      -0.533990       -14.5306
  63   2.0000      -0.527984       -14.3672
  64   2.0000      -0.525440       -14.2980
  65   2.0000      -0.513683       -13.9780
  66   2.0000      -0.500957       -13.6317
  67   2.0000      -0.498808       -13.5733
  68   2.0000      -0.481969       -13.1150
  69   2.0000      -0.464348       -12.6355
  70   2.0000      -0.454102       -12.3567
  71   2.0000      -0.444413       -12.0931
  72   2.0000      -0.353718        -9.6251
  73   2.0000      -0.351518        -9.5653
  74   2.0000      -0.328672        -8.9436
  75   2.0000      -0.323438        -8.8012
  76   2.0000      -0.318610        -8.6698
  77   0.0000       0.075336         2.0500
  78   0.0000       0.102929         2.8008
  79   0.0000       0.124426         3.3858
  80   0.0000       0.131438         3.5766
  81   0.0000       0.136276         3.7083

MULLIKEN ATOMIC CHARGES
-----------------------
   0 C :   -0.321926
   1 C :    0.027623
   2 O :   -0.369608
   3 C :    0.461103
   4 O :   -0.436132
   5 C :   -0.243954
   6 C :    0.175091
   7 C :   -0.267764
   8 N :   -0.125729
   9 C :    0.210921
  10 S :   -0.441112
  11 N :   -0.216173
  12 C :    0.070738
  13 C :    0.018914
  14 C :   -0.175500
  15 C :   -0.135476
  16 C :   -0.273720
  17 C :    0.310482
  18 O :   -0.358103
  19 C :   -0.237421
  20 H :    0.111071
  21 H :    0.101165
  22 H :    0.119236
  23 H :    0.111533
  24 H :    0.118205
  25 H :    0.129855
  26 H :    0.094900
  27 H :    0.133734
  28 H :    0.199679
  29 H :    0.200355
  30 H :    0.153409
  31 H :    0.156232
  32 H :    0.161706
  33 H :    0.131738
  34 H :    0.240817
  35 H :    0.164110
Sum of atomic charges:   -0.0000000

LOEWDIN ATOMIC CHARGES
----------------------
   0 C :    0.105171
   1 C :   -0.016679
   2 O :    0.300317
   3 C :   -0.415890
   4 O :    0.099196
   5 C :   -0.096386
   6 C :   -0.056114
   7 C :    0.131652
   8 N :    0.407329
   9 C :   -0.456080
  10 S :   -0.035990
  11 N :    0.394568
  12 C :   -0.053997
  13 C :   -0.040544
  14 C :    0.017625
  15 C :    0.038854
  16 C :   -0.001122
  17 C :   -0.190927
  18 O :    0.395881
  19 C :    0.032817
  20 H :   -0.026118
  21 H :   -0.026415
  22 H :   -0.026224
  23 H :   -0.025098
  24 H :   -0.028278
  25 H :   -0.004613
  26 H :   -0.023562
  27 H :   -0.004378
  28 H :   -0.057067
  29 H :   -0.064505
  30 H :   -0.012921
  31 H :   -0.028364
  32 H :   -0.020946
  33 H :   -0.035037
  34 H :   -0.153591
  35 H :   -0.022568

  Mayer bond orders larger than 0.100000
B(  0-C ,  1-C ) :   0.9559 B(  0-C , 20-H ) :   0.9695 B(  0-C , 21-H ) :   0.9783
B(  0-C , 22-H ) :   0.9741 B(  1-C ,  2-O ) :   0.8931 B(  1-C , 23-H ) :   0.9829
B(  1-C , 24-H ) :   0.9848 B(  2-O ,  3-C ) :   1.1379 B(  3-C ,  4-O ) :   1.9691
B(  3-C ,  5-C ) :   1.0672 B(  5-C ,  6-C ) :   1.6366 B(  5-C , 12-C ) :   0.9538
B(  6-C ,  7-C ) :   0.9643 B(  6-C ,  8-N ) :   1.1571 B(  7-C , 25-H ) :   0.9590
B(  7-C , 26-H ) :   0.9902 B(  7-C , 27-H ) :   0.9613 B(  8-N ,  9-C ) :   1.1863
B(  8-N , 28-H ) :   0.9463 B(  9-C , 10-S ) :   1.6069 B(  9-C , 11-N ) :   1.3089
B( 11-N , 12-C ) :   0.9699 B( 11-N , 29-H ) :   0.9486 B( 12-C , 13-C ) :   0.9602
B( 12-C , 30-H ) :   1.0001 B( 13-C , 14-C ) :   1.3560 B( 13-C , 19-C ) :   1.3827
B( 14-C , 15-C ) :   1.3912 B( 14-C , 31-H ) :   0.9704 B( 15-C , 16-C ) :   1.3584
B( 15-C , 32-H ) :   0.9708 B( 16-C , 17-C ) :   1.3337 B( 16-C , 33-H ) :   0.9847
B( 17-C , 18-O ) :   1.1060 B( 17-C , 19-C ) :   1.3641 B( 18-O , 34-H ) :   0.9796
B( 19-C , 35-H ) :   0.9593

MP2 TOTAL ENERGY:    -1274.340763358 Eh
FINAL SINGLE POINT ENERGY     -1274.340763357789

DIPOLE MOMENT
-------------
                                X             Y             Z
Electronic contribution:      9.52774       9.82729       7.06688
Nuclear contribution   :    -10.50610     -11.56784      -7.31045
                        -----------------------------------------
Total Dipole Moment    :     -0.97836      -1.74055      -0.24357
                        -----------------------------------------
Magnitude (a.u.)       :      2.01148
Magnitude (Debye)      :      5.11277

Rotational constants in cm-1:     0.012264     0.008617     0.006123
Rotational constants in MHz :   367.658442   258.329537   183.575149

                             ****ORCA TERMINATED NORMALLY****
TOTAL RUN TIME: 0 days 1 hours 51 minutes 50 seconds 813 msec
