                         Program Version 4.2.0 -  RELEASE  -
|  1> ! ri-mp2 cc-pvtz cc-pvtz/c TightSCF NoKeepInts
|  2>
|  3> %scf
|  4>   MaxCore 4096
|  5> end
|  6> *xyz  0  1
|  7>     C       14.8269435   14.3565021   16.4251066
|  8>     C       15.1113122   15.7634505   15.8735308
|  9>     O       16.4676436   15.7893424   15.3955107
| 10>     C       17.0319183   16.9959393   15.1034804
| 11>     O       17.3900918   17.2458834   13.9674771
| 12>     C       17.1316433   17.9665626   16.2458275
| 13>     C       17.1536009   19.2946031   15.9690092
| 14>     C       16.6803510   19.9573831   14.6920609
| 15>     N       17.6253956   20.2234768   16.8976625
| 16>     C       18.3268181   19.8913947   18.0245393
| 17>     S       18.9735166   21.0383065   19.0251467
| 18>     N       18.4890045   18.5506231   18.2671307
| 19>     C       17.8331974   17.4602214   17.5194677
| 20>     C       17.0469160   16.5352930   18.4351602
| 21>     C       17.5283819   15.2468564   18.7311482
| 22>     C       16.8355654   14.4153067   19.6276237
| 23>     C       15.6517755   14.8756822   20.2296079
| 24>     C       15.1770907   16.1632803   19.9443833
| 25>     O       14.0377487   16.6130188   20.5270823
| 26>     C       15.8748678   16.9929964   19.0610720
| 27>     H       15.5443536   14.0854957   17.2054618
| 28>     H       14.8971004   13.6100633   15.6242312
| 29>     H       13.8187800   14.3072148   16.8537022
| 30>     H       14.4195944   15.9901125   15.0513427
| 31>     H       14.9492067   16.5029384   16.6654117
| 32>     H       17.4801170   19.9522594   13.9397086
| 33>     H       16.3672326   20.9966573   14.8476005
| 34>     H       15.8252239   19.4221956   14.2608845
| 35>     H       17.5509689   21.2096600   16.7042344
| 36>     H       18.9955878   18.3359967   19.1170672
| 37>     H       18.7282970   16.9396965   17.1492395
| 38>     H       18.4436192   14.8886650   18.2665500
| 39>     H       17.2143253   13.4188867   19.8498886
| 40>     H       15.1111092   14.2349452   20.9186799
| 41>     H       13.7403401   15.9329792   21.1506730
| 42>     H       15.5073614   17.9961106   18.8712966
| 43> *
| 44>
| 45>                          ****END OF INPUT****

CARTESIAN COORDINATES (ANGSTROEM)
---------------------------------
  C     14.826944   14.356502   16.425107
  C     15.111312   15.763450   15.873531
  O     16.467644   15.789342   15.395511
  C     17.031918   16.995939   15.103480
  O     17.390092   17.245883   13.967477
  C     17.131643   17.966563   16.245828
  C     17.153601   19.294603   15.969009
  C     16.680351   19.957383   14.692061
  N     17.625396   20.223477   16.897662
  C     18.326818   19.891395   18.024539
  S     18.973517   21.038306   19.025147
  N     18.489005   18.550623   18.267131
  C     17.833197   17.460221   17.519468
  C     17.046916   16.535293   18.435160
  C     17.528382   15.246856   18.731148
  C     16.835565   14.415307   19.627624
  C     15.651775   14.875682   20.229608
  C     15.177091   16.163280   19.944383
  O     14.037749   16.613019   20.527082
  C     15.874868   16.992996   19.061072
  H     15.544354   14.085496   17.205462
  H     14.897100   13.610063   15.624231
  H     13.818780   14.307215   16.853702
  H     14.419594   15.990113   15.051343
  H     14.949207   16.502938   16.665412
  H     17.480117   19.952259   13.939709
  H     16.367233   20.996657   14.847600
  H     15.825224   19.422196   14.260884
  H     17.550969   21.209660   16.704234
  H     18.995588   18.335997   19.117067
  H     18.728297   16.939697   17.149240
  H     18.443619   14.888665   18.266550
  H     17.214325   13.418887   19.849889
  H     15.111109   14.234945   20.918680
  H     13.740340   15.932979   21.150673
  H     15.507361   17.996111   18.871297

 Total Charge           Charge          ....    0
 Multiplicity           Mult            ....    1
 Number of Electrons    NEL             ....  154
 Basis Dimension        Dim             ....  828

ORBITAL ENERGIES
----------------

  NO   OCC          E(Eh)            E(eV)
   0   2.0000     -91.891016     -2500.4817
   1   2.0000     -20.604804      -560.6852
   2   2.0000     -20.588382      -560.2383
   3   2.0000     -20.550766      -559.2148
   4   2.0000     -15.629494      -425.3002
   5   2.0000     -15.610432      -424.7815
   6   2.0000     -11.392174      -309.9968
   7   2.0000     -11.385719      -309.8212
   8   2.0000     -11.335026      -308.4417
   9   2.0000     -11.322755      -308.1078
  10   2.0000     -11.315598      -307.9131
  11   2.0000     -11.297042      -307.4081
  12   2.0000     -11.269284      -306.6528
  13   2.0000     -11.263126      -306.4853
  14   2.0000     -11.258188      -306.3509
  15   2.0000     -11.254902      -306.2615
  16   2.0000     -11.252460      -306.1950
  17   2.0000     -11.247614      -306.0631
  18   2.0000     -11.247569      -306.0619
  19   2.0000     -11.224420      -305.4320
  20   2.0000      -8.896071      -242.0744
  21   2.0000      -6.577639      -178.9866
  22   2.0000      -6.575644      -178.9324
  23   2.0000      -6.575049      -178.9162
  24   2.0000      -1.447616       -39.3916
  25   2.0000      -1.424560       -38.7642
  26   2.0000      -1.357450       -36.9381
  27   2.0000      -1.342303       -36.5259
  28   2.0000      -1.241370       -33.7794
  29   2.0000      -1.165731       -31.7212
  30   2.0000      -1.124076       -30.5877
  31   2.0000      -1.049964       -28.5710
  32   2.0000      -1.033444       -28.1214
  33   2.0000      -1.024082       -27.8667
  34   2.0000      -1.002154       -27.2700
  35   2.0000      -0.988517       -26.8989
  36   2.0000      -0.926920       -25.2228
  37   2.0000      -0.875610       -23.8266
  38   2.0000      -0.851830       -23.1795
  39   2.0000      -0.844894       -22.9907
  40   2.0000      -0.842480       -22.9250
  41   2.0000      -0.835736       -22.7415
  42   2.0000      -0.761967       -20.7342
  43   2.0000      -0.739810       -20.1312
  44   2.0000      -0.726769       -19.7764
  45   2.0000      -0.703555       -19.1447
  46   2.0000      -0.691838       -18.8259
  47   2.0000      -0.681465       -18.5436
  48   2.0000      -0.675152       -18.3718
  49   2.0000      -0.658736       -17.9251
  50   2.0000      -0.649103       -17.6630
  51   2.0000      -0.642901       -17.4942
  52   2.0000      -0.637617       -17.3504
  53   2.0000      -0.617939       -16.8150
  54   2.0000      -0.614297       -16.7159
  55   2.0000      -0.606258       -16.4971
  56   2.0000      -0.602722       -16.4009
  57   2.0000      -0.583654       -15.8820
  58   2.0000      -0.575272       -15.6539
  59   2.0000      -0.567194       -15.4341
  60   2.0000      -0.554789       -15.0966
  61   2.0000      -0.544818       -14.8253
  62   2.0000      -0.534380       -14.5412
  63   2.0000      -0.531548       -14.4642
  64   2.0000      -0.525877       -14.3098
  65   2.0000      -0.516826       -14.0635
  66   2.0000      -0.505955       -13.7677
  67   2.0000      -0.499598       -13.5947
  68   2.0000      -0.486749       -13.2451
  69   2.0000      -0.465207       -12.6589
  70   2.0000      -0.458901       -12.4873
  71   2.0000      -0.450198       -12.2505
  72   2.0000      -0.358351        -9.7512
  73   2.0000      -0.353282        -9.6133
  74   2.0000      -0.331947        -9.0327
  75   2.0000      -0.328734        -8.9453
  76   2.0000      -0.321107        -8.7378
  77   0.0000       0.076664         2.0861
  78   0.0000       0.095249         2.5919
  79   0.0000       0.119782         3.2594
  80   0.0000       0.126975         3.4552
  81   0.0000       0.127556         3.4710

MULLIKEN ATOMIC CHARGES
-----------------------
   0 C :   -0.280605
   1 C :    0.018349
   2 O :   -0.337295
   3 C :    0.424848
   4 O :   -0.369486
   5 C :   -0.270626
   6 C :    0.167373
   7 C :   -0.271569
   8 N :   -0.130525
   9 C :    0.210305
  10 S :   -0.439271
  11 N :   -0.210960
  12 C :    0.049811
  13 C :    0.010300
  14 C :   -0.182657
  15 C :   -0.137062
  16 C :   -0.270061
  17 C :    0.315912
  18 O :   -0.356938
  19 C :   -0.238034
  20 H :    0.108472
  21 H :    0.109472
  22 H :    0.088939
  23 H :    0.109699
  24 H :    0.100547
  25 H :    0.140457
  26 H :    0.095925
  27 H :    0.119195
  28 H :    0.199374
  29 H :    0.201052
  30 H :    0.153336
  31 H :    0.154251
  32 H :    0.167627
  33 H :    0.134731
  34 H :    0.242339
  35 H :    0.172776
Sum of atomic charges:   -0.0000000

LOEWDIN ATOMIC CHARGES
----------------------
   0 C :    0.112279
   1 C :   -0.024510
   2 O :    0.300512
   3 C :   -0.425176
   4 O :    0.129420
   5 C :   -0.103739
   6 C :   -0.066629
   7 C :    0.129160
   8 N :    0.406738
   9 C :   -0.456178
  10 S :   -0.034097
  11 N :    0.395241
  12 C :   -0.054345
  13 C :   -0.041139
  14 C :    0.018507
  15 C :    0.044175
  16 C :    0.003485
  17 C :   -0.191027
  18 O :    0.396562
  19 C :    0.035443
  20 H :   -0.028135
  21 H :   -0.026349
  22 H :   -0.025803
  23 H :   -0.032775
  24 H :   -0.041871
  25 H :   -0.004070
  26 H :   -0.021955
  27 H :   -0.008126
  28 H :   -0.056406
  29 H :   -0.063629
  30 H :   -0.011241
  31 H :   -0.027120
  32 H :   -0.019304
  33 H :   -0.033551
  34 H :   -0.152009
  35 H :   -0.022338

  Mayer bond orders larger than 0.100000
B(  0-C ,  1-C ) :   0.9783 B(  0-C , 20-H ) :   0.9720 B(  0-C , 21-H ) :   0.9801
B(  0-C , 22-H ) :   0.9759 B(  1-C ,  2-O ) :   0.8955 B(  1-C , 23-H ) :   0.9797
B(  1-C , 24-H ) :   0.9612 B(  2-O ,  3-C ) :   1.1485 B(  3-C ,  4-O ) :   2.1136
B(  3-C ,  5-C ) :   0.9776 B(  5-C ,  6-C ) :   1.6567 B(  5-C , 12-C ) :   0.9667
B(  6-C ,  7-C ) :   0.9569 B(  6-C ,  8-N ) :   1.1465 B(  7-C , 25-H ) :   0.9545
B(  7-C , 26-H ) :   0.9852 B(  7-C , 27-H ) :   0.9732 B(  8-N ,  9-C ) :   1.1916
B(  8-N , 28-H ) :   0.9484 B(  9-C , 10-S ) :   1.6107 B(  9-C , 11-N ) :   1.2999
B( 11-N , 12-C ) :   0.9689 B( 11-N , 29-H ) :   0.9478 B( 12-C , 13-C ) :   0.9674
B( 12-C , 30-H ) :   1.0072 B( 13-C , 14-C ) :   1.3595 B( 13-C , 19-C ) :   1.3488
B( 14-C , 15-C ) :   1.3798 B( 14-C , 31-H ) :   0.9733 B( 15-C , 16-C ) :   1.3645
B( 15-C , 32-H ) :   0.9703 B( 16-C , 17-C ) :   1.3292 B( 16-C , 33-H ) :   0.9836
B( 17-C , 18-O ) :   1.1081 B( 17-C , 19-C ) :   1.3660 B( 18-O , 34-H ) :   0.9783
B( 19-C , 35-H ) :   0.9602

MP2 TOTAL ENERGY:    -1274.325244370 Eh
FINAL SINGLE POINT ENERGY     -1274.325244369999

DIPOLE MOMENT
-------------
                                X             Y             Z
Electronic contribution:      9.13370      10.15023       4.66504
Nuclear contribution   :    -10.62041     -11.51060      -4.23616
                        -----------------------------------------
Total Dipole Moment    :     -1.48671      -1.36037       0.42888
                        -----------------------------------------
Magnitude (a.u.)       :      2.06030
Magnitude (Debye)      :      5.23687

Rotational constants in cm-1:     0.012645     0.008701     0.006105
Rotational constants in MHz :   379.095427   260.845900   183.021768

                             ****ORCA TERMINATED NORMALLY****
TOTAL RUN TIME: 0 days 1 hours 49 minutes 24 seconds 291 msec
