                         Program Version 4.2.0 -  RELEASE  -
|  1> ! ri-mp2 cc-pvtz cc-pvtz/c TightSCF NoKeepInts
|  2>
|  3> %scf
|  4>   MaxCore 4096
|  5> end
|  6> *xyz  0  1
|  7>     C       14.6940235   15.1258670   15.8320875
|  8>     C       15.0166408   15.8372608   14.4961103
|  9>     O       16.0448412   16.8446263   14.6327008
| 10>     C       17.0433465   16.7210471   15.5537838
| 11>     O       17.7176132   15.7087137   15.6424480
| 12>     C       17.1345584   17.8523193   16.5347055
| 13>     C       16.8701512   19.1404616   16.1949979
| 14>     C       16.2531282   19.6513818   14.9082864
| 15>     N       17.2169075   20.1879732   17.0519952
| 16>     C       18.0114401   20.0520476   18.1587601
| 17>     S       18.4647481   21.3542085   19.0721678
| 18>     N       18.4288199   18.7797422   18.4590173
| 19>     C       17.9777104   17.5505824   17.7777349
| 20>     C       17.3156394   16.5469327   18.7123331
| 21>     C       17.7779121   15.2205576   18.7831474
| 22>     C       17.1564571   14.2916453   19.6344169
| 23>     C       16.0633027   14.6928251   20.4214117
| 24>     C       15.5987119   16.0133610   20.3502817
| 25>     O       14.5387618   16.4014841   21.1032547
| 26>     C       16.2190039   16.9354738   19.5013285
| 27>     H       15.5195829   14.4806498   16.1581070
| 28>     H       13.8085672   14.4893872   15.7162745
| 29>     H       14.4845061   15.8538339   16.6261371
| 30>     H       15.3504844   15.0801652   13.7742249
| 31>     H       14.1072021   16.3019071   14.0941700
| 32>     H       15.2102156   19.3224364   14.8210936
| 33>     H       16.8010808   19.2736393   14.0357681
| 34>     H       16.2585482   20.7460394   14.8394526
| 35>     H       16.9371550   21.1305562   16.8323921
| 36>     H       18.9968410   18.7044782   19.2934417
| 37>     H       18.9371864   17.1623324   17.4056993
| 38>     H       18.6119681   14.9054213   18.1602827
| 39>     H       17.5193518   13.2662137   19.6761869
| 40>     H       15.5792671   13.9780790   21.0785608
| 41>     H       14.2754845   15.6430365   21.6458143
| 42>     H       15.8458410   17.9533133   19.4594247
| 43> *
| 44>
| 45>                          ****END OF INPUT****

CARTESIAN COORDINATES (ANGSTROEM)
---------------------------------
  C     14.694023   15.125867   15.832088
  C     15.016641   15.837261   14.496110
  O     16.044841   16.844626   14.632701
  C     17.043346   16.721047   15.553784
  O     17.717613   15.708714   15.642448
  C     17.134558   17.852319   16.534706
  C     16.870151   19.140462   16.194998
  C     16.253128   19.651382   14.908286
  N     17.216907   20.187973   17.051995
  C     18.011440   20.052048   18.158760
  S     18.464748   21.354208   19.072168
  N     18.428820   18.779742   18.459017
  C     17.977710   17.550582   17.777735
  C     17.315639   16.546933   18.712333
  C     17.777912   15.220558   18.783147
  C     17.156457   14.291645   19.634417
  C     16.063303   14.692825   20.421412
  C     15.598712   16.013361   20.350282
  O     14.538762   16.401484   21.103255
  C     16.219004   16.935474   19.501328
  H     15.519583   14.480650   16.158107
  H     13.808567   14.489387   15.716274
  H     14.484506   15.853834   16.626137
  H     15.350484   15.080165   13.774225
  H     14.107202   16.301907   14.094170
  H     15.210216   19.322436   14.821094
  H     16.801081   19.273639   14.035768
  H     16.258548   20.746039   14.839453
  H     16.937155   21.130556   16.832392
  H     18.996841   18.704478   19.293442
  H     18.937186   17.162332   17.405699
  H     18.611968   14.905421   18.160283
  H     17.519352   13.266214   19.676187
  H     15.579267   13.978079   21.078561
  H     14.275484   15.643036   21.645814
  H     15.845841   17.953313   19.459425

 Total Charge           Charge          ....    0
 Multiplicity           Mult            ....    1
 Number of Electrons    NEL             ....  154
 Basis Dimension        Dim             ....  828

ORBITAL ENERGIES
----------------

  NO   OCC          E(Eh)            E(eV)
   0   2.0000     -91.888593     -2500.4157
   1   2.0000     -20.594301      -560.3994
   2   2.0000     -20.589785      -560.2765
   3   2.0000     -20.548654      -559.1573
   4   2.0000     -15.628973      -425.2860
   5   2.0000     -15.606474      -424.6738
   6   2.0000     -11.394912      -310.0713
   7   2.0000     -11.383392      -309.7578
   8   2.0000     -11.337577      -308.5111
   9   2.0000     -11.310526      -307.7751
  10   2.0000     -11.304909      -307.6222
  11   2.0000     -11.304707      -307.6167
  12   2.0000     -11.259389      -306.3835
  13   2.0000     -11.259070      -306.3749
  14   2.0000     -11.257326      -306.3274
  15   2.0000     -11.250562      -306.1434
  16   2.0000     -11.240665      -305.8740
  17   2.0000     -11.236631      -305.7643
  18   2.0000     -11.233296      -305.6735
  19   2.0000     -11.227596      -305.5184
  20   2.0000      -8.893673      -242.0092
  21   2.0000      -6.575249      -178.9216
  22   2.0000      -6.573247      -178.8672
  23   2.0000      -6.572659      -178.8511
  24   2.0000      -1.448429       -39.4138
  25   2.0000      -1.414075       -38.4789
  26   2.0000      -1.355211       -36.8772
  27   2.0000      -1.340081       -36.4655
  28   2.0000      -1.237431       -33.6722
  29   2.0000      -1.154829       -31.4245
  30   2.0000      -1.121495       -30.5174
  31   2.0000      -1.043345       -28.3908
  32   2.0000      -1.032007       -28.0823
  33   2.0000      -1.012342       -27.5472
  34   2.0000      -0.999970       -27.2106
  35   2.0000      -0.985139       -26.8070
  36   2.0000      -0.922326       -25.0978
  37   2.0000      -0.897162       -24.4130
  38   2.0000      -0.848339       -23.0845
  39   2.0000      -0.836986       -22.7755
  40   2.0000      -0.830631       -22.6026
  41   2.0000      -0.817595       -22.2479
  42   2.0000      -0.745108       -20.2754
  43   2.0000      -0.732423       -19.9302
  44   2.0000      -0.727320       -19.7914
  45   2.0000      -0.691922       -18.8281
  46   2.0000      -0.686089       -18.6694
  47   2.0000      -0.677262       -18.4292
  48   2.0000      -0.670767       -18.2525
  49   2.0000      -0.661198       -17.9921
  50   2.0000      -0.652000       -17.7418
  51   2.0000      -0.645804       -17.5732
  52   2.0000      -0.632984       -17.2244
  53   2.0000      -0.620660       -16.8890
  54   2.0000      -0.604457       -16.4481
  55   2.0000      -0.600247       -16.3335
  56   2.0000      -0.597673       -16.2635
  57   2.0000      -0.577837       -15.7237
  58   2.0000      -0.574613       -15.6360
  59   2.0000      -0.563507       -15.3338
  60   2.0000      -0.552681       -15.0392
  61   2.0000      -0.547179       -14.8895
  62   2.0000      -0.537191       -14.6177
  63   2.0000      -0.529601       -14.4112
  64   2.0000      -0.518102       -14.0983
  65   2.0000      -0.509999       -13.8778
  66   2.0000      -0.498861       -13.5747
  67   2.0000      -0.494546       -13.4573
  68   2.0000      -0.480308       -13.0699
  69   2.0000      -0.464029       -12.6269
  70   2.0000      -0.457290       -12.4435
  71   2.0000      -0.449304       -12.2262
  72   2.0000      -0.353163        -9.6101
  73   2.0000      -0.346848        -9.4382
  74   2.0000      -0.327700        -8.9172
  75   2.0000      -0.317852        -8.6492
  76   2.0000      -0.317102        -8.6288
  77   0.0000       0.074671         2.0319
  78   0.0000       0.107596         2.9278
  79   0.0000       0.120686         3.2840
  80   0.0000       0.133573         3.6347
  81   0.0000       0.140108         3.8125

MULLIKEN ATOMIC CHARGES
-----------------------
   0 C :   -0.327339
   1 C :    0.055918
   2 O :   -0.378502
   3 C :    0.458365
   4 O :   -0.410924
   5 C :   -0.192553
   6 C :    0.151242
   7 C :   -0.279862
   8 N :   -0.127570
   9 C :    0.208339
  10 S :   -0.441590
  11 N :   -0.212304
  12 C :    0.047676
  13 C :    0.031756
  14 C :   -0.180316
  15 C :   -0.133617
  16 C :   -0.277472
  17 C :    0.316360
  18 O :   -0.358852
  19 C :   -0.256746
  20 H :    0.127335
  21 H :    0.106771
  22 H :    0.101669
  23 H :    0.101177
  24 H :    0.100027
  25 H :    0.125157
  26 H :    0.128129
  27 H :    0.102006
  28 H :    0.198671
  29 H :    0.199514
  30 H :    0.156388
  31 H :    0.163504
  32 H :    0.161723
  33 H :    0.129628
  34 H :    0.240332
  35 H :    0.165957
Sum of atomic charges:   -0.0000000

LOEWDIN ATOMIC CHARGES
----------------------
   0 C :    0.105832
   1 C :   -0.012344
   2 O :    0.290505
   3 C :   -0.418963
   4 O :    0.115498
   5 C :   -0.095114
   6 C :   -0.066201
   7 C :    0.126116
   8 N :    0.405456
   9 C :   -0.457663
  10 S :   -0.037240
  11 N :    0.396148
  12 C :   -0.048252
  13 C :   -0.041143
  14 C :    0.024523
  15 C :    0.040905
  16 C :   -0.001152
  17 C :   -0.193075
  18 O :    0.393493
  19 C :    0.029469
  20 H :   -0.023122
  21 H :   -0.024692
  22 H :   -0.027931
  23 H :   -0.028183
  24 H :   -0.026527
  25 H :   -0.009860
  26 H :   -0.007700
  27 H :   -0.020970
  28 H :   -0.058536
  29 H :   -0.063562
  30 H :   -0.007589
  31 H :   -0.023506
  32 H :   -0.020612
  33 H :   -0.035800
  34 H :   -0.154448
  35 H :   -0.023759

  Mayer bond orders larger than 0.100000
B(  0-C ,  1-C ) :   0.9577 B(  0-C , 20-H ) :   0.9697 B(  0-C , 21-H ) :   0.9758
B(  0-C , 22-H ) :   0.9715 B(  1-C ,  2-O ) :   0.9041 B(  1-C , 23-H ) :   0.9844
B(  1-C , 24-H ) :   0.9814 B(  2-O ,  3-C ) :   1.0782 B(  3-C ,  4-O ) :   2.0124
B(  3-C ,  5-C ) :   1.0304 B(  5-C ,  6-C ) :   1.6651 B(  5-C , 12-C ) :   0.9463
B(  6-C ,  7-C ) :   0.9546 B(  6-C ,  8-N ) :   1.1405 B(  7-C , 25-H ) :   0.9645
B(  7-C , 26-H ) :   0.9654 B(  7-C , 27-H ) :   0.9901 B(  8-N ,  9-C ) :   1.1851
B(  8-N , 28-H ) :   0.9471 B(  9-C , 10-S ) :   1.6099 B(  9-C , 11-N ) :   1.3039
B( 11-N , 12-C ) :   0.9790 B( 11-N , 29-H ) :   0.9486 B( 12-C , 13-C ) :   0.9675
B( 12-C , 30-H ) :   0.9959 B( 13-C , 14-C ) :   1.3795 B( 13-C , 19-C ) :   1.3619
B( 14-C , 15-C ) :   1.3951 B( 14-C , 31-H ) :   0.9620 B( 15-C , 16-C ) :   1.3596
B( 15-C , 32-H ) :   0.9706 B( 16-C , 17-C ) :   1.3329 B( 16-C , 33-H ) :   0.9854
B( 17-C , 18-O ) :   1.1049 B( 17-C , 19-C ) :   1.3641 B( 18-O , 34-H ) :   0.9803
B( 19-C , 35-H ) :   0.9599

MP2 TOTAL ENERGY:    -1274.330184360 Eh
FINAL SINGLE POINT ENERGY     -1274.330184360487

DIPOLE MOMENT
-------------
                                X             Y             Z
Electronic contribution:      9.16694       9.73022       8.02072
Nuclear contribution   :    -10.63906     -11.02900      -8.90312
                        -----------------------------------------
Total Dipole Moment    :     -1.47212      -1.29878      -0.88240
                        -----------------------------------------
Magnitude (a.u.)       :      2.15235
Magnitude (Debye)      :      5.47083

Rotational constants in cm-1:     0.011087     0.009216     0.006079
Rotational constants in MHz :   332.392080   276.289241   182.230592

                             ****ORCA TERMINATED NORMALLY****
TOTAL RUN TIME: 0 days 1 hours 44 minutes 33 seconds 819 msec
