                         Program Version 4.2.0 -  RELEASE  -
|  1> ! ri-mp2 cc-pvtz cc-pvtz/c TightSCF NoKeepInts
|  2>
|  3> %scf
|  4>   MaxCore 4096
|  5> end
|  6> *xyz  0  1
|  7>     C       14.4011271   14.8419271   15.0551968
|  8>     C       14.7918034   16.3117985   15.2840162
|  9>     O       16.1107670   16.5000569   14.7430694
| 10>     C       17.1503895   16.5132265   15.6231916
| 11>     O       17.9149345   15.5701461   15.7149770
| 12>     C       17.2118766   17.7095998   16.5253158
| 13>     C       16.9597323   18.9647238   16.0736554
| 14>     C       16.4012977   19.3638337   14.7221479
| 15>     N       17.2838486   20.0793703   16.8506538
| 16>     C       18.0607598   20.0355714   17.9775041
| 17>     S       18.4942977   21.4085134   18.7908779
| 18>     N       18.4778367   18.7928720   18.3845671
| 19>     C       18.0342683   17.5113652   17.8013092
| 20>     C       17.3591325   16.5815877   18.7999619
| 21>     C       17.7731115   15.2432052   18.9225760
| 22>     C       17.1409000   14.3803156   19.8332961
| 23>     C       16.0849424   14.8598735   20.6272170
| 24>     C       15.6674240   16.1921404   20.5035979
| 25>     O       14.6424907   16.6557953   21.2621557
| 26>     C       16.2978112   17.0484609   19.5950661
| 27>     H       15.0901501   14.1725635   15.5865184
| 28>     H       14.4357597   14.5934540   13.9870251
| 29>     H       13.3854310   14.6496752   15.4214468
| 30>     H       14.0801609   16.9550578   14.7507846
| 31>     H       14.7479627   16.5582589   16.3541956
| 32>     H       16.9056002   18.8218358   13.9117165
| 33>     H       16.5336365   20.4324783   14.5120614
| 34>     H       15.3288867   19.1463980   14.6594926
| 35>     H       17.0097454   21.0008848   16.5488127
| 36>     H       19.0385625   18.7870325   19.2274854
| 37>     H       18.9996891   17.0953265   17.4768797
| 38>     H       18.5796250   14.8672662   18.2965786
| 39>     H       17.4672775   13.3450078   19.9160469
| 40>     H       15.5930448   14.1960173   21.3304343
| 41>     H       14.3714489   15.9376011   21.8537721
| 42>     H       15.9612677   18.0767591   19.5143961
| 43> *
| 44>
| 45>                          ****END OF INPUT****

CARTESIAN COORDINATES (ANGSTROEM)
---------------------------------
  C     14.401127   14.841927   15.055197
  C     14.791803   16.311798   15.284016
  O     16.110767   16.500057   14.743069
  C     17.150389   16.513226   15.623192
  O     17.914935   15.570146   15.714977
  C     17.211877   17.709600   16.525316
  C     16.959732   18.964724   16.073655
  C     16.401298   19.363834   14.722148
  N     17.283849   20.079370   16.850654
  C     18.060760   20.035571   17.977504
  S     18.494298   21.408513   18.790878
  N     18.477837   18.792872   18.384567
  C     18.034268   17.511365   17.801309
  C     17.359133   16.581588   18.799962
  C     17.773111   15.243205   18.922576
  C     17.140900   14.380316   19.833296
  C     16.084942   14.859874   20.627217
  C     15.667424   16.192140   20.503598
  O     14.642491   16.655795   21.262156
  C     16.297811   17.048461   19.595066
  H     15.090150   14.172563   15.586518
  H     14.435760   14.593454   13.987025
  H     13.385431   14.649675   15.421447
  H     14.080161   16.955058   14.750785
  H     14.747963   16.558259   16.354196
  H     16.905600   18.821836   13.911716
  H     16.533637   20.432478   14.512061
  H     15.328887   19.146398   14.659493
  H     17.009745   21.000885   16.548813
  H     19.038563   18.787032   19.227485
  H     18.999689   17.095326   17.476880
  H     18.579625   14.867266   18.296579
  H     17.467278   13.345008   19.916047
  H     15.593045   14.196017   21.330434
  H     14.371449   15.937601   21.853772
  H     15.961268   18.076759   19.514396

 Total Charge           Charge          ....    0
 Multiplicity           Mult            ....    1
 Number of Electrons    NEL             ....  154
 Basis Dimension        Dim             ....  828

ORBITAL ENERGIES
----------------

  NO   OCC          E(Eh)            E(eV)
   0   2.0000     -91.890347     -2500.4635
   1   2.0000     -20.596523      -560.4599
   2   2.0000     -20.591294      -560.3176
   3   2.0000     -20.553438      -559.2875
   4   2.0000     -15.630836      -425.3367
   5   2.0000     -15.608323      -424.7241
   6   2.0000     -11.395120      -310.0770
   7   2.0000     -11.385371      -309.8117
   8   2.0000     -11.339674      -308.5682
   9   2.0000     -11.313060      -307.8440
  10   2.0000     -11.306850      -307.6750
  11   2.0000     -11.306603      -307.6683
  12   2.0000     -11.263775      -306.5029
  13   2.0000     -11.261210      -306.4331
  14   2.0000     -11.260189      -306.4053
  15   2.0000     -11.252901      -306.2070
  16   2.0000     -11.242761      -305.9311
  17   2.0000     -11.239167      -305.8333
  18   2.0000     -11.235453      -305.7322
  19   2.0000     -11.227955      -305.5282
  20   2.0000      -8.895427      -242.0569
  21   2.0000      -6.577001      -178.9693
  22   2.0000      -6.574999      -178.9148
  23   2.0000      -6.574408      -178.8987
  24   2.0000      -1.452670       -39.5292
  25   2.0000      -1.416278       -38.5389
  26   2.0000      -1.361787       -37.0561
  27   2.0000      -1.342100       -36.5204
  28   2.0000      -1.239345       -33.7243
  29   2.0000      -1.157385       -31.4940
  30   2.0000      -1.123823       -30.5808
  31   2.0000      -1.045646       -28.4535
  32   2.0000      -1.035826       -28.1862
  33   2.0000      -1.015076       -27.6216
  34   2.0000      -1.003123       -27.2964
  35   2.0000      -0.987610       -26.8742
  36   2.0000      -0.924364       -25.1532
  37   2.0000      -0.883552       -24.0427
  38   2.0000      -0.853792       -23.2329
  39   2.0000      -0.841446       -22.8969
  40   2.0000      -0.833766       -22.6879
  41   2.0000      -0.832428       -22.6515
  42   2.0000      -0.753803       -20.5120
  43   2.0000      -0.736675       -20.0459
  44   2.0000      -0.730139       -19.8681
  45   2.0000      -0.694598       -18.9010
  46   2.0000      -0.687134       -18.6979
  47   2.0000      -0.679844       -18.4995
  48   2.0000      -0.676828       -18.4174
  49   2.0000      -0.665331       -18.1046
  50   2.0000      -0.652983       -17.7686
  51   2.0000      -0.645932       -17.5767
  52   2.0000      -0.637948       -17.3595
  53   2.0000      -0.608880       -16.5685
  54   2.0000      -0.603401       -16.4194
  55   2.0000      -0.600032       -16.3277
  56   2.0000      -0.595906       -16.2154
  57   2.0000      -0.581105       -15.8127
  58   2.0000      -0.578292       -15.7361
  59   2.0000      -0.572762       -15.5856
  60   2.0000      -0.562146       -15.2968
  61   2.0000      -0.556201       -15.1350
  62   2.0000      -0.543564       -14.7911
  63   2.0000      -0.522378       -14.2146
  64   2.0000      -0.517239       -14.0748
  65   2.0000      -0.513048       -13.9607
  66   2.0000      -0.500813       -13.6278
  67   2.0000      -0.497816       -13.5463
  68   2.0000      -0.486315       -13.2333
  69   2.0000      -0.468433       -12.7467
  70   2.0000      -0.459472       -12.5029
  71   2.0000      -0.450633       -12.2624
  72   2.0000      -0.356049        -9.6886
  73   2.0000      -0.349169        -9.5014
  74   2.0000      -0.329471        -8.9654
  75   2.0000      -0.320357        -8.7173
  76   2.0000      -0.319425        -8.6920
  77   0.0000       0.073735         2.0064
  78   0.0000       0.105390         2.8678
  79   0.0000       0.119479         3.2512
  80   0.0000       0.132397         3.6027
  81   0.0000       0.137362         3.7378

MULLIKEN ATOMIC CHARGES
-----------------------
   0 C :   -0.253848
   1 C :    0.016134
   2 O :   -0.359499
   3 C :    0.463614
   4 O :   -0.383852
   5 C :   -0.252986
   6 C :    0.171353
   7 C :   -0.296989
   8 N :   -0.129617
   9 C :    0.205863
  10 S :   -0.439749
  11 N :   -0.213816
  12 C :    0.055525
  13 C :    0.029343
  14 C :   -0.190932
  15 C :   -0.130796
  16 C :   -0.277368
  17 C :    0.314553
  18 O :   -0.357952
  19 C :   -0.258907
  20 H :    0.106949
  21 H :    0.098466
  22 H :    0.088324
  23 H :    0.098015
  24 H :    0.102321
  25 H :    0.136555
  26 H :    0.110404
  27 H :    0.120312
  28 H :    0.198318
  29 H :    0.200213
  30 H :    0.159386
  31 H :    0.168334
  32 H :    0.162719
  33 H :    0.130291
  34 H :    0.240897
  35 H :    0.168421
Sum of atomic charges:   -0.0000000

LOEWDIN ATOMIC CHARGES
----------------------
   0 C :    0.108832
   1 C :   -0.024754
   2 O :    0.301355
   3 C :   -0.423496
   4 O :    0.127165
   5 C :   -0.097232
   6 C :   -0.070471
   7 C :    0.127852
   8 N :    0.405129
   9 C :   -0.458008
  10 S :   -0.035746
  11 N :    0.396102
  12 C :   -0.049522
  13 C :   -0.043003
  14 C :    0.023350
  15 C :    0.042646
  16 C :   -0.000592
  17 C :   -0.193221
  18 O :    0.393571
  19 C :    0.026988
  20 H :   -0.022146
  21 H :   -0.024500
  22 H :   -0.028080
  23 H :   -0.030703
  24 H :   -0.031294
  25 H :   -0.005831
  26 H :   -0.018217
  27 H :   -0.013176
  28 H :   -0.058135
  29 H :   -0.063328
  30 H :   -0.006460
  31 H :   -0.022288
  32 H :   -0.019712
  33 H :   -0.035387
  34 H :   -0.153813
  35 H :   -0.023874

  Mayer bond orders larger than 0.100000
B(  0-C ,  1-C ) :   0.9868 B(  0-C , 20-H ) :   0.9755 B(  0-C , 21-H ) :   0.9774
B(  0-C , 22-H ) :   0.9758 B(  1-C ,  2-O ) :   0.8926 B(  1-C , 23-H ) :   0.9793
B(  1-C , 24-H ) :   0.9624 B(  2-O ,  3-C ) :   1.1046 B(  3-C ,  4-O ) :   2.0627
B(  3-C ,  5-C ) :   0.9833 B(  5-C ,  6-C ) :   1.6796 B(  5-C , 12-C ) :   0.9506
B(  6-C ,  7-C ) :   0.9453 B(  6-C ,  8-N ) :   1.1330 B(  7-C , 25-H ) :   0.9649
B(  7-C , 26-H ) :   0.9883 B(  7-C , 27-H ) :   0.9680 B(  8-N ,  9-C ) :   1.1862
B(  8-N , 28-H ) :   0.9476 B(  9-C , 10-S ) :   1.6127 B(  9-C , 11-N ) :   1.3002
B( 11-N , 12-C ) :   0.9843 B( 11-N , 29-H ) :   0.9487 B( 12-C , 13-C ) :   0.9689
B( 12-C , 30-H ) :   0.9937 B( 13-C , 14-C ) :   1.3833 B( 13-C , 19-C ) :   1.3585
B( 14-C , 15-C ) :   1.3951 B( 14-C , 31-H ) :   0.9605 B( 15-C , 16-C ) :   1.3605
B( 15-C , 32-H ) :   0.9704 B( 16-C , 17-C ) :   1.3322 B( 16-C , 33-H ) :   0.9853
B( 17-C , 18-O ) :   1.1064 B( 17-C , 19-C ) :   1.3649 B( 18-O , 34-H ) :   0.9798
B( 19-C , 35-H ) :   0.9587

MP2 TOTAL ENERGY:    -1274.328209580 Eh
FINAL SINGLE POINT ENERGY     -1274.328209579822

DIPOLE MOMENT
-------------
                                X             Y             Z
Electronic contribution:     10.24378       9.50072       8.54865
Nuclear contribution   :    -11.82700     -10.51613      -9.04835
                        -----------------------------------------
Total Dipole Moment    :     -1.58322      -1.01541      -0.49970
                        -----------------------------------------
Magnitude (a.u.)       :      1.94611
Magnitude (Debye)      :      4.94662

Rotational constants in cm-1:     0.010711     0.009203     0.006052
Rotational constants in MHz :   321.093862   275.895894   181.431144

                             ****ORCA TERMINATED NORMALLY****
TOTAL RUN TIME: 0 days 1 hours 38 minutes 8 seconds 485 msec
