                         Program Version 4.2.0 -  RELEASE  -
|  1> ! ri-mp2 cc-pvtz cc-pvtz/c TightSCF NoKeepInts
|  2>
|  3> %scf
|  4>   MaxCore 4096
|  5> end
|  6> *xyz  0  1
|  7>     C       14.3340844   16.4453164   15.6248028
|  8>     C       15.3968607   15.3915323   16.0021832
|  9>     O       16.6470607   15.6332270   15.3173329
| 10>     C       17.3313809   16.8211226   15.2740697
| 11>     O       18.0802720   17.0725706   14.3483246
| 12>     C       17.1207118   17.7801194   16.4013392
| 13>     C       16.8713289   19.0727045   16.0847432
| 14>     C       16.3956564   19.5772963   14.7389236
| 15>     N       17.0700618   20.1005123   17.0075944
| 16>     C       17.7639735   19.9507160   18.1784790
| 17>     S       18.0785240   21.2282843   19.1802241
| 18>     N       18.2097171   18.6840477   18.4657838
| 19>     C       17.8571558   17.4645817   17.7114767
| 20>     C       17.2577360   16.3672648   18.5737276
| 21>     C       17.8082015   15.0725253   18.5648313
| 22>     C       17.2465980   14.0548941   19.3540688
| 23>     C       16.1294827   14.3358171   20.1596551
| 24>     C       15.5830674   15.6265851   20.1735909
| 25>     O       14.5012378   15.8989720   20.9451302
| 26>     C       16.1420527   16.6373908   19.3851213
| 27>     H       14.5040224   17.3988636   16.1360663
| 28>     H       13.3379376   16.0928586   15.9193057
| 29>     H       14.3231418   16.6174531   14.5410960
| 30>     H       15.5218489   15.3657721   17.0867502
| 31>     H       15.0309241   14.4010137   15.7024252
| 32>     H       15.7421969   18.8482600   14.2448878
| 33>     H       17.2525572   19.7477524   14.0735579
| 34>     H       15.8349881   20.5162558   14.8188304
| 35>     H       16.7934978   21.0425185   16.7803007
| 36>     H       18.7133342   18.6016020   19.3402677
| 37>     H       18.8644690   17.1607094   17.3903968
| 38>     H       18.6682483   14.8516805   17.9369061
| 39>     H       17.6770357   13.0546572   19.3395663
| 40>     H       15.6931665   13.5522389   20.7707965
| 41>     H       14.2982142   15.1016235   21.4576327
| 42>     H       15.7062532   17.6312605   19.4078114
| 43> *
| 44>
| 45>                          ****END OF INPUT****

CARTESIAN COORDINATES (ANGSTROEM)
---------------------------------
  C     14.334084   16.445316   15.624803
  C     15.396861   15.391532   16.002183
  O     16.647061   15.633227   15.317333
  C     17.331381   16.821123   15.274070
  O     18.080272   17.072571   14.348325
  C     17.120712   17.780119   16.401339
  C     16.871329   19.072704   16.084743
  C     16.395656   19.577296   14.738924
  N     17.070062   20.100512   17.007594
  C     17.763973   19.950716   18.178479
  S     18.078524   21.228284   19.180224
  N     18.209717   18.684048   18.465784
  C     17.857156   17.464582   17.711477
  C     17.257736   16.367265   18.573728
  C     17.808201   15.072525   18.564831
  C     17.246598   14.054894   19.354069
  C     16.129483   14.335817   20.159655
  C     15.583067   15.626585   20.173591
  O     14.501238   15.898972   20.945130
  C     16.142053   16.637391   19.385121
  H     14.504022   17.398864   16.136066
  H     13.337938   16.092859   15.919306
  H     14.323142   16.617453   14.541096
  H     15.521849   15.365772   17.086750
  H     15.030924   14.401014   15.702425
  H     15.742197   18.848260   14.244888
  H     17.252557   19.747752   14.073558
  H     15.834988   20.516256   14.818830
  H     16.793498   21.042518   16.780301
  H     18.713334   18.601602   19.340268
  H     18.864469   17.160709   17.390397
  H     18.668248   14.851680   17.936906
  H     17.677036   13.054657   19.339566
  H     15.693167   13.552239   20.770796
  H     14.298214   15.101623   21.457633
  H     15.706253   17.631260   19.407811

 Total Charge           Charge          ....    0
 Multiplicity           Mult            ....    1
 Number of Electrons    NEL             ....  154
 Basis Dimension        Dim             ....  828

ORBITAL ENERGIES
----------------

  NO   OCC          E(Eh)            E(eV)
   0   2.0000     -91.889998     -2500.4540
   1   2.0000     -20.605504      -560.7043
   2   2.0000     -20.595183      -560.4234
   3   2.0000     -20.550474      -559.2068
   4   2.0000     -15.626664      -425.2232
   5   2.0000     -15.610779      -424.7909
   6   2.0000     -11.396650      -310.1186
   7   2.0000     -11.385245      -309.8083
   8   2.0000     -11.328365      -308.2605
   9   2.0000     -11.324208      -308.1474
  10   2.0000     -11.316783      -307.9453
  11   2.0000     -11.300541      -307.5034
  12   2.0000     -11.270556      -306.6874
  13   2.0000     -11.265229      -306.5425
  14   2.0000     -11.256641      -306.3088
  15   2.0000     -11.256457      -306.3038
  16   2.0000     -11.253946      -306.2354
  17   2.0000     -11.248501      -306.0873
  18   2.0000     -11.248457      -306.0861
  19   2.0000     -11.232820      -305.6606
  20   2.0000      -8.895074      -242.0473
  21   2.0000      -6.576648      -178.9597
  22   2.0000      -6.574646      -178.9052
  23   2.0000      -6.574058      -178.8892
  24   2.0000      -1.443641       -39.2835
  25   2.0000      -1.425267       -38.7835
  26   2.0000      -1.357681       -36.9444
  27   2.0000      -1.340146       -36.4672
  28   2.0000      -1.239987       -33.7418
  29   2.0000      -1.167388       -31.7663
  30   2.0000      -1.125301       -30.6210
  31   2.0000      -1.051692       -28.6180
  32   2.0000      -1.035270       -28.1711
  33   2.0000      -1.025370       -27.9017
  34   2.0000      -1.003875       -27.3168
  35   2.0000      -0.989817       -26.9343
  36   2.0000      -0.927414       -25.2362
  37   2.0000      -0.897193       -24.4139
  38   2.0000      -0.851226       -23.1630
  39   2.0000      -0.844721       -22.9860
  40   2.0000      -0.844045       -22.9676
  41   2.0000      -0.830489       -22.5988
  42   2.0000      -0.752914       -20.4878
  43   2.0000      -0.740074       -20.1384
  44   2.0000      -0.719962       -19.5912
  45   2.0000      -0.703933       -19.1550
  46   2.0000      -0.692503       -18.8440
  47   2.0000      -0.679587       -18.4925
  48   2.0000      -0.676769       -18.4158
  49   2.0000      -0.664774       -18.0894
  50   2.0000      -0.650577       -17.7031
  51   2.0000      -0.648871       -17.6567
  52   2.0000      -0.636947       -17.3322
  53   2.0000      -0.621257       -16.9053
  54   2.0000      -0.613903       -16.7051
  55   2.0000      -0.608296       -16.5526
  56   2.0000      -0.604146       -16.4396
  57   2.0000      -0.584474       -15.9043
  58   2.0000      -0.578325       -15.7370
  59   2.0000      -0.567025       -15.4295
  60   2.0000      -0.562299       -15.3009
  61   2.0000      -0.550744       -14.9865
  62   2.0000      -0.540348       -14.7036
  63   2.0000      -0.536501       -14.5989
  64   2.0000      -0.529796       -14.4165
  65   2.0000      -0.517927       -14.0935
  66   2.0000      -0.505467       -13.7545
  67   2.0000      -0.503395       -13.6981
  68   2.0000      -0.486417       -13.2361
  69   2.0000      -0.465492       -12.6667
  70   2.0000      -0.452804       -12.3214
  71   2.0000      -0.448114       -12.1938
  72   2.0000      -0.358667        -9.7598
  73   2.0000      -0.352134        -9.5821
  74   2.0000      -0.332964        -9.0604
  75   2.0000      -0.328790        -8.9468
  76   2.0000      -0.319375        -8.6906
  77   0.0000       0.083736         2.2786
  78   0.0000       0.095707         2.6043
  79   0.0000       0.120661         3.2834
  80   0.0000       0.126286         3.4364
  81   0.0000       0.128857         3.5064

MULLIKEN ATOMIC CHARGES
-----------------------
   0 C :   -0.331759
   1 C :    0.039467
   2 O :   -0.323794
   3 C :    0.416638
   4 O :   -0.373490
   5 C :   -0.228453
   6 C :    0.149450
   7 C :   -0.288535
   8 N :   -0.132990
   9 C :    0.211388
  10 S :   -0.440944
  11 N :   -0.213856
  12 C :    0.025745
  13 C :    0.001472
  14 C :   -0.188269
  15 C :   -0.131676
  16 C :   -0.270454
  17 C :    0.304408
  18 O :   -0.354552
  19 C :   -0.228003
  20 H :    0.108798
  21 H :    0.114859
  22 H :    0.110306
  23 H :    0.099244
  24 H :    0.123920
  25 H :    0.116384
  26 H :    0.149285
  27 H :    0.099604
  28 H :    0.198125
  29 H :    0.200546
  30 H :    0.162858
  31 H :    0.158771
  32 H :    0.165298
  33 H :    0.135563
  34 H :    0.241944
  35 H :    0.172700
Sum of atomic charges:   -0.0000000

LOEWDIN ATOMIC CHARGES
----------------------
   0 C :    0.101737
   1 C :   -0.014749
   2 O :    0.299286
   3 C :   -0.419469
   4 O :    0.126800
   5 C :   -0.092684
   6 C :   -0.081603
   7 C :    0.129171
   8 N :    0.405554
   9 C :   -0.455716
  10 S :   -0.036211
  11 N :    0.395874
  12 C :   -0.055511
  13 C :   -0.047242
  14 C :    0.018852
  15 C :    0.045167
  16 C :    0.002116
  17 C :   -0.191660
  18 O :    0.397505
  19 C :    0.031233
  20 H :   -0.035821
  21 H :   -0.023093
  22 H :   -0.027907
  23 H :   -0.036869
  24 H :   -0.020359
  25 H :   -0.010919
  26 H :   -0.003067
  27 H :   -0.020354
  28 H :   -0.057681
  29 H :   -0.063906
  30 H :   -0.008961
  31 H :   -0.025486
  32 H :   -0.017871
  33 H :   -0.033108
  34 H :   -0.152050
  35 H :   -0.021001

  Mayer bond orders larger than 0.100000
B(  0-C ,  1-C ) :   0.9573 B(  0-C , 20-H ) :   0.9712 B(  0-C , 21-H ) :   0.9776
B(  0-C , 22-H ) :   0.9761 B(  1-C ,  2-O ) :   0.9015 B(  1-C , 23-H ) :   0.9625
B(  1-C , 24-H ) :   0.9844 B(  2-O ,  3-C ) :   1.1824 B(  3-C ,  4-O ) :   2.1183
B(  3-C ,  5-C ) :   0.9219 B(  5-C ,  6-C ) :   1.7001 B(  5-C , 12-C ) :   0.9591
B(  6-C ,  7-C ) :   0.9438 B(  6-C ,  8-N ) :   1.1242 B(  7-C , 25-H ) :   0.9758
B(  7-C , 26-H ) :   0.9577 B(  7-C , 27-H ) :   0.9836 B(  8-N ,  9-C ) :   1.1989
B(  8-N , 28-H ) :   0.9492 B(  9-C , 10-S ) :   1.6124 B(  9-C , 11-N ) :   1.2870
B( 11-N , 12-C ) :   0.9795 B( 11-N , 29-H ) :   0.9469 B( 12-C , 13-C ) :   0.9547
B( 12-C , 30-H ) :   1.0045 B( 13-C , 14-C ) :   1.3750 B( 13-C , 19-C ) :   1.3588
B( 14-C , 15-C ) :   1.3940 B( 14-C , 31-H ) :   0.9687 B( 15-C , 16-C ) :   1.3636
B( 15-C , 32-H ) :   0.9695 B( 16-C , 17-C ) :   1.3289 B( 16-C , 33-H ) :   0.9832
B( 17-C , 18-O ) :   1.1121 B( 17-C , 19-C ) :   1.3626 B( 18-O , 34-H ) :   0.9784
B( 19-C , 35-H ) :   0.9583

MP2 TOTAL ENERGY:    -1274.321439866 Eh
FINAL SINGLE POINT ENERGY     -1274.321439865646

DIPOLE MOMENT
-------------
                                X             Y             Z
Electronic contribution:      9.29293       6.54534       7.10529
Nuclear contribution   :    -10.79387      -8.26455      -6.86809
                        -----------------------------------------
Total Dipole Moment    :     -1.50094      -1.71922       0.23720
                        -----------------------------------------
Magnitude (a.u.)       :      2.29451
Magnitude (Debye)      :      5.83219

Rotational constants in cm-1:     0.011991     0.009085     0.006364
Rotational constants in MHz :   359.477887   272.356014   190.781165

                             ****ORCA TERMINATED NORMALLY****
TOTAL RUN TIME: 0 days 1 hours 49 minutes 5 seconds 746 msec
