                         Program Version 4.2.0 -  RELEASE  -
|  1> ! ri-mp2 cc-pvtz cc-pvtz/c TightSCF NoKeepInts
|  2>
|  3> %scf
|  4>   MaxCore 4096
|  5> end
|  6> *xyz  0  1
|  7>     C       14.6750801   14.5529467   15.4037007
|  8>     C       16.0658395   14.9197249   14.8512768
|  9>     O       16.6304178   15.9456297   15.6868978
| 10>     C       16.2511458   17.2508066   15.5294395
| 11>     O       15.5234608   17.6119996   14.6196125
| 12>     C       16.8349284   18.1533688   16.5834217
| 13>     C       16.8423058   19.5014030   16.4205785
| 14>     C       16.0937612   20.3018657   15.3748524
| 15>     N       17.6041111   20.3229204   17.2546891
| 16>     C       18.5267435   19.8676319   18.1571967
| 17>     S       19.4625497   20.8993252   19.0491888
| 18>     N       18.6508941   18.5060244   18.2696407
| 19>     C       17.7943788   17.5097174   17.5987094
| 20>     C       17.1108717   16.5672304   18.5810793
| 21>     C       17.4773830   15.2103184   18.6471531
| 22>     C       16.8420526   14.3427805   19.5515700
| 23>     C       15.8350863   14.8373704   20.3982639
| 24>     C       15.4714957   16.1898666   20.3368941
| 25>     O       14.5001926   16.6700106   21.1536607
| 26>     C       16.1055209   17.0506898   19.4355437
| 27>     H       14.7428565   14.2618439   16.4596396
| 28>     H       14.2475421   13.7140089   14.8416603
| 29>     H       13.9852505   15.4024362   15.3225115
| 30>     H       16.7076626   14.0303041   14.8877112
| 31>     H       15.9966562   15.2491134   13.8053635
| 32>     H       15.0250420   20.0520266   15.3902154
| 33>     H       16.4695496   20.0726170   14.3695910
| 34>     H       16.1771027   21.3852226   15.5209579
| 35>     H       17.5375653   21.3243830   17.1674607
| 36>     H       19.3155918   18.2000723   18.9689131
| 37>     H       18.5464673   16.9726109   17.0036825
| 38>     H       18.2507905   14.8258915   17.9876975
| 39>     H       17.1293399   13.2936738   19.5935922
| 40>     H       15.3414564   14.1714298   21.0983084
| 41>     H       14.2010031   15.9372606   21.7125068
| 42>     H       15.8149038   18.0954746   19.4048190
| 43> *
| 44>
| 45>                          ****END OF INPUT****

CARTESIAN COORDINATES (ANGSTROEM)
---------------------------------
  C     14.675080   14.552947   15.403701
  C     16.065839   14.919725   14.851277
  O     16.630418   15.945630   15.686898
  C     16.251146   17.250807   15.529440
  O     15.523461   17.612000   14.619612
  C     16.834928   18.153369   16.583422
  C     16.842306   19.501403   16.420579
  C     16.093761   20.301866   15.374852
  N     17.604111   20.322920   17.254689
  C     18.526743   19.867632   18.157197
  S     19.462550   20.899325   19.049189
  N     18.650894   18.506024   18.269641
  C     17.794379   17.509717   17.598709
  C     17.110872   16.567230   18.581079
  C     17.477383   15.210318   18.647153
  C     16.842053   14.342780   19.551570
  C     15.835086   14.837370   20.398264
  C     15.471496   16.189867   20.336894
  O     14.500193   16.670011   21.153661
  C     16.105521   17.050690   19.435544
  H     14.742857   14.261844   16.459640
  H     14.247542   13.714009   14.841660
  H     13.985250   15.402436   15.322511
  H     16.707663   14.030304   14.887711
  H     15.996656   15.249113   13.805364
  H     15.025042   20.052027   15.390215
  H     16.469550   20.072617   14.369591
  H     16.177103   21.385223   15.520958
  H     17.537565   21.324383   17.167461
  H     19.315592   18.200072   18.968913
  H     18.546467   16.972611   17.003682
  H     18.250791   14.825891   17.987697
  H     17.129340   13.293674   19.593592
  H     15.341456   14.171430   21.098308
  H     14.201003   15.937261   21.712507
  H     15.814904   18.095475   19.404819

 Total Charge           Charge          ....    0
 Multiplicity           Mult            ....    1
 Number of Electrons    NEL             ....  154
 Basis Dimension        Dim             ....  828

ORBITAL ENERGIES
----------------

  NO   OCC          E(Eh)            E(eV)
   0   2.0000     -91.888650     -2500.4173
   1   2.0000     -20.601335      -560.5908
   2   2.0000     -20.596085      -560.4480
   3   2.0000     -20.541396      -558.9598
   4   2.0000     -15.629004      -425.2868
   5   2.0000     -15.606852      -424.6840
   6   2.0000     -11.395839      -310.0965
   7   2.0000     -11.383354      -309.7568
   8   2.0000     -11.337170      -308.5001
   9   2.0000     -11.313249      -307.8492
  10   2.0000     -11.307231      -307.6854
  11   2.0000     -11.297104      -307.4098
  12   2.0000     -11.260275      -306.4077
  13   2.0000     -11.259478      -306.3860
  14   2.0000     -11.254648      -306.2545
  15   2.0000     -11.251595      -306.1715
  16   2.0000     -11.243329      -305.9465
  17   2.0000     -11.238654      -305.8193
  18   2.0000     -11.238309      -305.8099
  19   2.0000     -11.223097      -305.3960
  20   2.0000      -8.893724      -242.0105
  21   2.0000      -6.575298      -178.9230
  22   2.0000      -6.573298      -178.8685
  23   2.0000      -6.572709      -178.8525
  24   2.0000      -1.451431       -39.4954
  25   2.0000      -1.415767       -38.5250
  26   2.0000      -1.354558       -36.8594
  27   2.0000      -1.340148       -36.4673
  28   2.0000      -1.238027       -33.6884
  29   2.0000      -1.157279       -31.4912
  30   2.0000      -1.121066       -30.5058
  31   2.0000      -1.042599       -28.3706
  32   2.0000      -1.036330       -28.2000
  33   2.0000      -1.014563       -27.6077
  34   2.0000      -0.995698       -27.0943
  35   2.0000      -0.984290       -26.7839
  36   2.0000      -0.921591       -25.0778
  37   2.0000      -0.893726       -24.3195
  38   2.0000      -0.846355       -23.0305
  39   2.0000      -0.837737       -22.7960
  40   2.0000      -0.833799       -22.6888
  41   2.0000      -0.815819       -22.1996
  42   2.0000      -0.757315       -20.6076
  43   2.0000      -0.733307       -19.9543
  44   2.0000      -0.722296       -19.6547
  45   2.0000      -0.695247       -18.9186
  46   2.0000      -0.689056       -18.7502
  47   2.0000      -0.679805       -18.4984
  48   2.0000      -0.670939       -18.2572
  49   2.0000      -0.657173       -17.8826
  50   2.0000      -0.647175       -17.6105
  51   2.0000      -0.639645       -17.4056
  52   2.0000      -0.632500       -17.2112
  53   2.0000      -0.610743       -16.6192
  54   2.0000      -0.606047       -16.4914
  55   2.0000      -0.600066       -16.3286
  56   2.0000      -0.598651       -16.2901
  57   2.0000      -0.577012       -15.7013
  58   2.0000      -0.569565       -15.4987
  59   2.0000      -0.568662       -15.4741
  60   2.0000      -0.560363       -15.2482
  61   2.0000      -0.544531       -14.8174
  62   2.0000      -0.533875       -14.5275
  63   2.0000      -0.529989       -14.4217
  64   2.0000      -0.523439       -14.2435
  65   2.0000      -0.512858       -13.9556
  66   2.0000      -0.499995       -13.6056
  67   2.0000      -0.497681       -13.5426
  68   2.0000      -0.482508       -13.1297
  69   2.0000      -0.463124       -12.6022
  70   2.0000      -0.455376       -12.3914
  71   2.0000      -0.447385       -12.1740
  72   2.0000      -0.353014        -9.6060
  73   2.0000      -0.349512        -9.5107
  74   2.0000      -0.327823        -8.9205
  75   2.0000      -0.320610        -8.7242
  76   2.0000      -0.317813        -8.6481
  77   0.0000       0.077931         2.1206
  78   0.0000       0.105516         2.8712
  79   0.0000       0.124821         3.3965
  80   0.0000       0.132992         3.6189
  81   0.0000       0.138281         3.7628

MULLIKEN ATOMIC CHARGES
-----------------------
   0 C :   -0.293361
   1 C :    0.017274
   2 O :   -0.347727
   3 C :    0.441865
   4 O :   -0.440555
   5 C :   -0.219933
   6 C :    0.171582
   7 C :   -0.268734
   8 N :   -0.126119
   9 C :    0.209965
  10 S :   -0.442263
  11 N :   -0.214938
  12 C :    0.058544
  13 C :    0.045812
  14 C :   -0.179197
  15 C :   -0.135104
  16 C :   -0.276910
  17 C :    0.316574
  18 O :   -0.356825
  19 C :   -0.248138
  20 H :    0.104212
  21 H :    0.093941
  22 H :    0.111228
  23 H :    0.108752
  24 H :    0.114939
  25 H :    0.133832
  26 H :    0.128646
  27 H :    0.094674
  28 H :    0.199741
  29 H :    0.200190
  30 H :    0.152908
  31 H :    0.151086
  32 H :    0.160692
  33 H :    0.130170
  34 H :    0.240418
  35 H :    0.162761
Sum of atomic charges:   -0.0000000

LOEWDIN ATOMIC CHARGES
----------------------
   0 C :    0.105529
   1 C :   -0.018483
   2 O :    0.309923
   3 C :   -0.412943
   4 O :    0.093893
   5 C :   -0.093846
   6 C :   -0.057013
   7 C :    0.131064
   8 N :    0.407031
   9 C :   -0.456633
  10 S :   -0.036875
  11 N :    0.394731
  12 C :   -0.054593
  13 C :   -0.039968
  14 C :    0.016857
  15 C :    0.038837
  16 C :   -0.000782
  17 C :   -0.189718
  18 O :    0.395032
  19 C :    0.033494
  20 H :   -0.026521
  21 H :   -0.027814
  22 H :   -0.025075
  23 H :   -0.026476
  24 H :   -0.027921
  25 H :   -0.004289
  26 H :   -0.005226
  27 H :   -0.023648
  28 H :   -0.057178
  29 H :   -0.064346
  30 H :   -0.014042
  31 H :   -0.029333
  32 H :   -0.021512
  33 H :   -0.035400
  34 H :   -0.154075
  35 H :   -0.022681

  Mayer bond orders larger than 0.100000
B(  0-C ,  1-C ) :   0.9625 B(  0-C , 20-H ) :   0.9741 B(  0-C , 21-H ) :   0.9766
B(  0-C , 22-H ) :   0.9763 B(  1-C ,  2-O ) :   0.8971 B(  1-C , 23-H ) :   0.9847
B(  1-C , 24-H ) :   0.9785 B(  2-O ,  3-C ) :   1.1644 B(  3-C ,  4-O ) :   1.9500
B(  3-C ,  5-C ) :   1.0718 B(  5-C ,  6-C ) :   1.6447 B(  5-C , 12-C ) :   0.9559
B(  6-C ,  7-C ) :   0.9646 B(  6-C ,  8-N ) :   1.1529 B(  7-C , 25-H ) :   0.9613
B(  7-C , 26-H ) :   0.9591 B(  7-C , 27-H ) :   0.9905 B(  8-N ,  9-C ) :   1.1878
B(  8-N , 28-H ) :   0.9463 B(  9-C , 10-S ) :   1.6060 B(  9-C , 11-N ) :   1.3087
B( 11-N , 12-C ) :   0.9699 B( 11-N , 29-H ) :   0.9484 B( 12-C , 13-C ) :   0.9631
B( 12-C , 30-H ) :   1.0000 B( 13-C , 14-C ) :   1.3546 B( 13-C , 19-C ) :   1.3801
B( 14-C , 15-C ) :   1.3954 B( 14-C , 31-H ) :   0.9716 B( 15-C , 16-C ) :   1.3586
B( 15-C , 32-H ) :   0.9707 B( 16-C , 17-C ) :   1.3336 B( 16-C , 33-H ) :   0.9852
B( 17-C , 18-O ) :   1.1047 B( 17-C , 19-C ) :   1.3648 B( 18-O , 34-H ) :   0.9800
B( 19-C , 35-H ) :   0.9594

MP2 TOTAL ENERGY:    -1274.345074132 Eh
FINAL SINGLE POINT ENERGY     -1274.345074132110

DIPOLE MOMENT
-------------
                                X             Y             Z
Electronic contribution:      8.73899      10.94472       8.53558
Nuclear contribution   :     -9.56921     -12.73557      -9.01956
                        -----------------------------------------
Total Dipole Moment    :     -0.83022      -1.79085      -0.48397
                        -----------------------------------------
Magnitude (a.u.)       :      2.03240
Magnitude (Debye)      :      5.16594

Rotational constants in cm-1:     0.011504     0.008602     0.005913
Rotational constants in MHz :   344.891765   257.878561   177.266012

                             ****ORCA TERMINATED NORMALLY****
TOTAL RUN TIME: 0 days 1 hours 37 minutes 36 seconds 68 msec
