                         Program Version 4.2.0 -  RELEASE  -
|  1> ! ri-mp2 cc-pvtz cc-pvtz/c TightSCF NoKeepInts
|  2>
|  3> %scf
|  4>   MaxCore 4096
|  5> end
|  6> *xyz  0  1
|  7>     C       15.2732646   15.4665891   13.1018795
|  8>     C       14.6660718   15.5518127   14.5130856
|  9>     O       15.3200123   16.6304083   15.2070452
| 10>     C       16.3148718   16.3683546   16.1060636
| 11>     O       16.7247730   15.2385028   16.3171520
| 12>     C       16.8397538   17.5689634   16.8450248
| 13>     C       16.8055503   18.8293063   16.3341054
| 14>     C       16.0634754   19.3239865   15.1075915
| 15>     N       17.5444298   19.8581615   16.9243520
| 16>     C       18.5052258   19.6736126   17.8811715
| 17>     S       19.4195358   20.9274452   18.4535033
| 18>     N       18.6852602   18.3880781   18.3233698
| 19>     C       17.8356255   17.2362034   17.9646096
| 20>     C       17.1941987   16.5676945   19.1735902
| 21>     C       17.3833104   15.1957911   19.4194877
| 22>     C       16.7939541   14.5821822   20.5376022
| 23>     C       16.0102225   15.3475449   21.4181504
| 24>     C       15.8188783   16.7146093   21.1744663
| 25>     O       15.0597206   17.4551095   22.0210719
| 26>     C       16.4064669   17.3223468   20.0603201
| 27>     H       15.1645755   16.4214185   12.5728746
| 28>     H       14.7714655   14.6881972   12.5143140
| 29>     H       16.3407008   15.2179195   13.1567857
| 30>     H       13.5956845   15.7773457   14.4235666
| 31>     H       14.7648203   14.5939352   15.0421798
| 32>     H       14.9814682   19.1869646   15.2277328
| 33>     H       16.3787106   18.7730125   14.2127096
| 34>     H       16.2340947   20.3884598   14.9057339
| 35>     H       17.4386249   20.8042664   16.5950477
| 36>     H       19.3839833   18.2818455   19.0479662
| 37>     H       18.5870513   16.5744632   17.5097316
| 38>     H       17.9767886   14.6003734   18.7296965
| 39>     H       16.9414194   13.5182164   20.7136570
| 40>     H       15.5519062   14.8773049   22.2816853
| 41>     H       14.7610198   16.8673718   22.7310318
| 42>     H       16.2500847   18.3822026   19.8896446
| 43> *
| 44>
| 45>                          ****END OF INPUT****

CARTESIAN COORDINATES (ANGSTROEM)
---------------------------------
  C     15.273265   15.466589   13.101880
  C     14.666072   15.551813   14.513086
  O     15.320012   16.630408   15.207045
  C     16.314872   16.368355   16.106064
  O     16.724773   15.238503   16.317152
  C     16.839754   17.568963   16.845025
  C     16.805550   18.829306   16.334105
  C     16.063475   19.323987   15.107591
  N     17.544430   19.858162   16.924352
  C     18.505226   19.673613   17.881171
  S     19.419536   20.927445   18.453503
  N     18.685260   18.388078   18.323370
  C     17.835625   17.236203   17.964610
  C     17.194199   16.567695   19.173590
  C     17.383310   15.195791   19.419488
  C     16.793954   14.582182   20.537602
  C     16.010223   15.347545   21.418150
  C     15.818878   16.714609   21.174466
  O     15.059721   17.455109   22.021072
  C     16.406467   17.322347   20.060320
  H     15.164575   16.421419   12.572875
  H     14.771465   14.688197   12.514314
  H     16.340701   15.217920   13.156786
  H     13.595685   15.777346   14.423567
  H     14.764820   14.593935   15.042180
  H     14.981468   19.186965   15.227733
  H     16.378711   18.773012   14.212710
  H     16.234095   20.388460   14.905734
  H     17.438625   20.804266   16.595048
  H     19.383983   18.281845   19.047966
  H     18.587051   16.574463   17.509732
  H     17.976789   14.600373   18.729696
  H     16.941419   13.518216   20.713657
  H     15.551906   14.877305   22.281685
  H     14.761020   16.867372   22.731032
  H     16.250085   18.382203   19.889645

 Total Charge           Charge          ....    0
 Multiplicity           Mult            ....    1
 Number of Electrons    NEL             ....  154
 Basis Dimension        Dim             ....  828

ORBITAL ENERGIES
----------------

  NO   OCC          E(Eh)            E(eV)
   0   2.0000     -91.887703     -2500.3915
   1   2.0000     -20.605069      -560.6924
   2   2.0000     -20.590735      -560.3024
   3   2.0000     -20.544720      -559.0502
   4   2.0000     -15.628281      -425.2671
   5   2.0000     -15.605344      -424.6430
   6   2.0000     -11.397021      -310.1287
   7   2.0000     -11.382172      -309.7246
   8   2.0000     -11.338288      -308.5305
   9   2.0000     -11.306699      -307.6709
  10   2.0000     -11.303797      -307.5920
  11   2.0000     -11.299830      -307.4840
  12   2.0000     -11.261566      -306.4428
  13   2.0000     -11.259082      -306.3752
  14   2.0000     -11.254051      -306.2383
  15   2.0000     -11.246791      -306.0408
  16   2.0000     -11.237017      -305.7748
  17   2.0000     -11.233161      -305.6699
  18   2.0000     -11.231709      -305.6303
  19   2.0000     -11.229935      -305.5821
  20   2.0000      -8.892790      -241.9851
  21   2.0000      -6.574368      -178.8977
  22   2.0000      -6.572364      -178.8431
  23   2.0000      -6.571777      -178.8272
  24   2.0000      -1.454451       -39.5776
  25   2.0000      -1.410478       -38.3811
  26   2.0000      -1.357549       -36.9408
  27   2.0000      -1.339691       -36.4549
  28   2.0000      -1.236800       -33.6550
  29   2.0000      -1.151493       -31.3337
  30   2.0000      -1.120315       -30.4853
  31   2.0000      -1.043709       -28.4008
  32   2.0000      -1.036080       -28.1932
  33   2.0000      -1.008994       -27.4561
  34   2.0000      -0.998259       -27.1640
  35   2.0000      -0.983331       -26.7578
  36   2.0000      -0.920325       -25.0433
  37   2.0000      -0.892889       -24.2967
  38   2.0000      -0.847252       -23.0549
  39   2.0000      -0.834184       -22.6993
  40   2.0000      -0.827045       -22.5050
  41   2.0000      -0.817012       -22.2320
  42   2.0000      -0.759445       -20.6655
  43   2.0000      -0.735790       -20.0219
  44   2.0000      -0.725423       -19.7398
  45   2.0000      -0.689665       -18.7667
  46   2.0000      -0.684998       -18.6397
  47   2.0000      -0.680327       -18.5126
  48   2.0000      -0.672246       -18.2927
  49   2.0000      -0.655310       -17.8319
  50   2.0000      -0.649187       -17.6653
  51   2.0000      -0.639278       -17.3956
  52   2.0000      -0.629400       -17.1268
  53   2.0000      -0.612616       -16.6701
  54   2.0000      -0.602555       -16.3964
  55   2.0000      -0.597317       -16.2538
  56   2.0000      -0.593980       -16.1630
  57   2.0000      -0.583323       -15.8730
  58   2.0000      -0.572150       -15.5690
  59   2.0000      -0.565392       -15.3851
  60   2.0000      -0.561278       -15.2731
  61   2.0000      -0.546778       -14.8786
  62   2.0000      -0.537553       -14.6276
  63   2.0000      -0.533351       -14.5132
  64   2.0000      -0.514865       -14.0102
  65   2.0000      -0.508521       -13.8376
  66   2.0000      -0.499647       -13.5961
  67   2.0000      -0.493423       -13.4267
  68   2.0000      -0.480722       -13.0811
  69   2.0000      -0.465627       -12.6704
  70   2.0000      -0.456136       -12.4121
  71   2.0000      -0.453738       -12.3468
  72   2.0000      -0.352987        -9.6053
  73   2.0000      -0.343665        -9.3516
  74   2.0000      -0.326783        -8.8922
  75   2.0000      -0.316846        -8.6218
  76   2.0000      -0.313312        -8.5257
  77   0.0000       0.078046         2.1237
  78   0.0000       0.112792         3.0692
  79   0.0000       0.121460         3.3051
  80   0.0000       0.136479         3.7138
  81   0.0000       0.140151         3.8137

MULLIKEN ATOMIC CHARGES
-----------------------
   0 C :   -0.285732
   1 C :    0.023670
   2 O :   -0.342120
   3 C :    0.427522
   4 O :   -0.430791
   5 C :   -0.181473
   6 C :    0.166354
   7 C :   -0.283608
   8 N :   -0.128787
   9 C :    0.207442
  10 S :   -0.443041
  11 N :   -0.210600
  12 C :    0.040837
  13 C :    0.031186
  14 C :   -0.164756
  15 C :   -0.134198
  16 C :   -0.276610
  17 C :    0.314539
  18 O :   -0.359173
  19 C :   -0.250421
  20 H :    0.090957
  21 H :    0.100239
  22 H :    0.104870
  23 H :    0.105994
  24 H :    0.117647
  25 H :    0.131676
  26 H :    0.123599
  27 H :    0.103048
  28 H :    0.198772
  29 H :    0.199996
  30 H :    0.154867
  31 H :    0.158093
  32 H :    0.159420
  33 H :    0.127857
  34 H :    0.239790
  35 H :    0.162933
Sum of atomic charges:   -0.0000000

LOEWDIN ATOMIC CHARGES
----------------------
   0 C :    0.103190
   1 C :   -0.014184
   2 O :    0.308995
   3 C :   -0.414536
   4 O :    0.100420
   5 C :   -0.090246
   6 C :   -0.063714
   7 C :    0.124441
   8 N :    0.405383
   9 C :   -0.458913
  10 S :   -0.038069
  11 N :    0.396642
  12 C :   -0.048341
  13 C :   -0.040399
  14 C :    0.025148
  15 C :    0.040974
  16 C :   -0.000989
  17 C :   -0.192300
  18 O :    0.393057
  19 C :    0.029972
  20 H :   -0.030426
  21 H :   -0.025177
  22 H :   -0.025097
  23 H :   -0.027460
  24 H :   -0.026501
  25 H :   -0.008841
  26 H :   -0.010573
  27 H :   -0.021341
  28 H :   -0.058874
  29 H :   -0.062978
  30 H :   -0.008696
  31 H :   -0.024210
  32 H :   -0.021207
  33 H :   -0.036239
  34 H :   -0.154981
  35 H :   -0.023934

  Mayer bond orders larger than 0.100000
B(  0-C ,  1-C ) :   0.9652 B(  0-C , 20-H ) :   0.9787 B(  0-C , 21-H ) :   0.9764
B(  0-C , 22-H ) :   0.9776 B(  1-C ,  2-O ) :   0.8890 B(  1-C , 23-H ) :   0.9842
B(  1-C , 24-H ) :   0.9735 B(  2-O ,  3-C ) :   1.1636 B(  3-C ,  4-O ) :   1.9654
B(  3-C ,  5-C ) :   1.0593 B(  5-C ,  6-C ) :   1.6526 B(  5-C , 12-C ) :   0.9504
B(  6-C ,  7-C ) :   0.9529 B(  6-C ,  8-N ) :   1.1362 B(  7-C , 25-H ) :   0.9632
B(  7-C , 26-H ) :   0.9661 B(  7-C , 27-H ) :   0.9915 B(  8-N ,  9-C ) :   1.1853
B(  8-N , 28-H ) :   0.9469 B(  9-C , 10-S ) :   1.6072 B(  9-C , 11-N ) :   1.3070
B( 11-N , 12-C ) :   0.9769 B( 11-N , 29-H ) :   0.9484 B( 12-C , 13-C ) :   0.9754
B( 12-C , 30-H ) :   0.9978 B( 13-C , 14-C ) :   1.3750 B( 13-C , 19-C ) :   1.3674
B( 14-C , 15-C ) :   1.3971 B( 14-C , 31-H ) :   0.9641 B( 15-C , 16-C ) :   1.3587
B( 15-C , 32-H ) :   0.9713 B( 16-C , 17-C ) :   1.3334 B( 16-C , 33-H ) :   0.9861
B( 17-C , 18-O ) :   1.1030 B( 17-C , 19-C ) :   1.3676 B( 18-O , 34-H ) :   0.9808
B( 19-C , 35-H ) :   0.9601

MP2 TOTAL ENERGY:    -1274.342052863 Eh
FINAL SINGLE POINT ENERGY     -1274.342052862503

DIPOLE MOMENT
-------------
                                X             Y             Z
Electronic contribution:      8.56503       8.44795      13.71063
Nuclear contribution   :    -10.15797      -9.58129     -14.74482
                        -----------------------------------------
Total Dipole Moment    :     -1.59294      -1.13333      -1.03419
                        -----------------------------------------
Magnitude (a.u.)       :      2.21166
Magnitude (Debye)      :      5.62160

Rotational constants in cm-1:     0.010243     0.008523     0.005385
Rotational constants in MHz :   307.065163   255.524123   161.452444

                             ****ORCA TERMINATED NORMALLY****
TOTAL RUN TIME: 0 days 1 hours 32 minutes 29 seconds 648 msec
