                         Program Version 4.2.0 -  RELEASE  -
|  1> ! ri-mp2 cc-pvtz cc-pvtz/c TightSCF NoKeepInts
|  2>
|  3> %scf
|  4>   MaxCore 4096
|  5> end
|  6> *xyz  0  1
|  7>     C       14.6139231   15.4469482   16.1912891
|  8>     C       14.9282839   16.4052263   15.0252077
|  9>     O       16.3080096   16.2493187   14.6274404
| 10>     C       17.3585859   16.4942978   15.4735716
| 11>     O       18.3390241   15.7729018   15.4807503
| 12>     C       17.2067235   17.6442587   16.4214711
| 13>     C       16.9270885   18.8888344   15.9566415
| 14>     C       16.5475982   19.2851592   14.5419216
| 15>     N       17.0868911   20.0098419   16.7738904
| 16>     C       17.7704933   20.0057863   17.9604546
| 17>     S       18.0360714   21.3941662   18.8183880
| 18>     N       18.2494415   18.7912803   18.3839551
| 19>     C       17.9325720   17.4902253   17.7622380
| 20>     C       17.2724019   16.4883121   18.6978240
| 21>     C       17.6917931   15.1459334   18.7073222
| 22>     C       17.0712275   14.2096444   19.5508654
| 23>     C       16.0215843   14.6191604   20.3909484
| 24>     C       15.5993486   15.9556216   20.3809932
| 25>     O       14.5795541   16.3515055   21.1833955
| 26>     C       16.2179513   16.8856040   19.5391609
| 27>     H       15.1272075   15.7482371   17.1099893
| 28>     H       14.9212794   14.4226402   15.9446433
| 29>     H       13.5371404   15.4381403   16.3992529
| 30>     H       14.2829831   16.1551538   14.1730543
| 31>     H       14.7006610   17.4333922   15.3268762
| 32>     H       16.9233972   18.5737947   13.7963981
| 33>     H       16.9775500   20.2578781   14.2703106
| 34>     H       15.4605722   19.3616918   14.4244732
| 35>     H       16.7758809   20.9140919   16.4554027
| 36>     H       18.7490719   18.8129665   19.2642728
| 37>     H       18.9483393   17.1508423   17.5096975
| 38>     H       18.4956075   14.8254701   18.0473299
| 39>     H       17.4025558   13.1725197   19.5473843
| 40>     H       15.5386637   13.8985054   21.0426610
| 41>     H       14.3146821   15.5862844   21.7159012
| 42>     H       15.8728411   17.9143649   19.5426238
| 43> *
| 44>
| 45>                          ****END OF INPUT****

CARTESIAN COORDINATES (ANGSTROEM)
---------------------------------
  C     14.613923   15.446948   16.191289
  C     14.928284   16.405226   15.025208
  O     16.308010   16.249319   14.627440
  C     17.358586   16.494298   15.473572
  O     18.339024   15.772902   15.480750
  C     17.206723   17.644259   16.421471
  C     16.927088   18.888834   15.956641
  C     16.547598   19.285159   14.541922
  N     17.086891   20.009842   16.773890
  C     17.770493   20.005786   17.960455
  S     18.036071   21.394166   18.818388
  N     18.249441   18.791280   18.383955
  C     17.932572   17.490225   17.762238
  C     17.272402   16.488312   18.697824
  C     17.691793   15.145933   18.707322
  C     17.071227   14.209644   19.550865
  C     16.021584   14.619160   20.390948
  C     15.599349   15.955622   20.380993
  O     14.579554   16.351505   21.183395
  C     16.217951   16.885604   19.539161
  H     15.127208   15.748237   17.109989
  H     14.921279   14.422640   15.944643
  H     13.537140   15.438140   16.399253
  H     14.282983   16.155154   14.173054
  H     14.700661   17.433392   15.326876
  H     16.923397   18.573795   13.796398
  H     16.977550   20.257878   14.270311
  H     15.460572   19.361692   14.424473
  H     16.775881   20.914092   16.455403
  H     18.749072   18.812966   19.264273
  H     18.948339   17.150842   17.509698
  H     18.495607   14.825470   18.047330
  H     17.402556   13.172520   19.547384
  H     15.538664   13.898505   21.042661
  H     14.314682   15.586284   21.715901
  H     15.872841   17.914365   19.542624

 Total Charge           Charge          ....    0
 Multiplicity           Mult            ....    1
 Number of Electrons    NEL             ....  154
 Basis Dimension        Dim             ....  828

ORBITAL ENERGIES
----------------

  NO   OCC          E(Eh)            E(eV)
   0   2.0000     -91.890374     -2500.4642
   1   2.0000     -20.598919      -560.5251
   2   2.0000     -20.598665      -560.5182
   3   2.0000     -20.551385      -559.2316
   4   2.0000     -15.629199      -425.2921
   5   2.0000     -15.609325      -424.7513
   6   2.0000     -11.398882      -310.1794
   7   2.0000     -11.385810      -309.8236
   8   2.0000     -11.337600      -308.5118
   9   2.0000     -11.315930      -307.9221
  10   2.0000     -11.309249      -307.7403
  11   2.0000     -11.308195      -307.7116
  12   2.0000     -11.265994      -306.5633
  13   2.0000     -11.265003      -306.5363
  14   2.0000     -11.263155      -306.4860
  15   2.0000     -11.256039      -306.2924
  16   2.0000     -11.245280      -305.9996
  17   2.0000     -11.241102      -305.8859
  18   2.0000     -11.237696      -305.7933
  19   2.0000     -11.229181      -305.5616
  20   2.0000      -8.895471      -242.0581
  21   2.0000      -6.577050      -178.9706
  22   2.0000      -6.575040      -178.9159
  23   2.0000      -6.574454      -178.9000
  24   2.0000      -1.448360       -39.4119
  25   2.0000      -1.418424       -38.5973
  26   2.0000      -1.361254       -37.0416
  27   2.0000      -1.342169       -36.5223
  28   2.0000      -1.239948       -33.7407
  29   2.0000      -1.160100       -31.5679
  30   2.0000      -1.125540       -30.6275
  31   2.0000      -1.047522       -28.5045
  32   2.0000      -1.036180       -28.1959
  33   2.0000      -1.018094       -27.7037
  34   2.0000      -1.005823       -27.3698
  35   2.0000      -0.989745       -26.9323
  36   2.0000      -0.926365       -25.2077
  37   2.0000      -0.894609       -24.3436
  38   2.0000      -0.854085       -23.2408
  39   2.0000      -0.841656       -22.9026
  40   2.0000      -0.835516       -22.7356
  41   2.0000      -0.831530       -22.6271
  42   2.0000      -0.746783       -20.3210
  43   2.0000      -0.738289       -20.0899
  44   2.0000      -0.731472       -19.9044
  45   2.0000      -0.696050       -18.9405
  46   2.0000      -0.687874       -18.7180
  47   2.0000      -0.682738       -18.5782
  48   2.0000      -0.676099       -18.3976
  49   2.0000      -0.661427       -17.9983
  50   2.0000      -0.656523       -17.8649
  51   2.0000      -0.646701       -17.5976
  52   2.0000      -0.637924       -17.3588
  53   2.0000      -0.621533       -16.9128
  54   2.0000      -0.610354       -16.6086
  55   2.0000      -0.605873       -16.4866
  56   2.0000      -0.601967       -16.3804
  57   2.0000      -0.584921       -15.9165
  58   2.0000      -0.575912       -15.6714
  59   2.0000      -0.565447       -15.3866
  60   2.0000      -0.562937       -15.3183
  61   2.0000      -0.549840       -14.9619
  62   2.0000      -0.544950       -14.8288
  63   2.0000      -0.535694       -14.5770
  64   2.0000      -0.520791       -14.1714
  65   2.0000      -0.512252       -13.9391
  66   2.0000      -0.501478       -13.6459
  67   2.0000      -0.500080       -13.6079
  68   2.0000      -0.484736       -13.1903
  69   2.0000      -0.469233       -12.7685
  70   2.0000      -0.458296       -12.4709
  71   2.0000      -0.449584       -12.2338
  72   2.0000      -0.357767        -9.7353
  73   2.0000      -0.350719        -9.5436
  74   2.0000      -0.329774        -8.9736
  75   2.0000      -0.323529        -8.8037
  76   2.0000      -0.320549        -8.7226
  77   0.0000       0.079963         2.1759
  78   0.0000       0.104471         2.8428
  79   0.0000       0.117450         3.1960
  80   0.0000       0.130187         3.5426
  81   0.0000       0.130938         3.5630

MULLIKEN ATOMIC CHARGES
-----------------------
   0 C :   -0.303444
   1 C :    0.030189
   2 O :   -0.341974
   3 C :    0.446970
   4 O :   -0.381182
   5 C :   -0.232657
   6 C :    0.141197
   7 C :   -0.320858
   8 N :   -0.136304
   9 C :    0.206737
  10 S :   -0.441406
  11 N :   -0.222156
  12 C :    0.067900
  13 C :   -0.017636
  14 C :   -0.190873
  15 C :   -0.138651
  16 C :   -0.267788
  17 C :    0.307572
  18 O :   -0.357238
  19 C :   -0.226631
  20 H :    0.118474
  21 H :    0.112482
  22 H :    0.100518
  23 H :    0.122758
  24 H :    0.081442
  25 H :    0.141318
  26 H :    0.124290
  27 H :    0.122675
  28 H :    0.197990
  29 H :    0.203143
  30 H :    0.165652
  31 H :    0.177960
  32 H :    0.163845
  33 H :    0.132506
  34 H :    0.241011
  35 H :    0.172169
Sum of atomic charges:   -0.0000000

LOEWDIN ATOMIC CHARGES
----------------------
   0 C :    0.109424
   1 C :   -0.022249
   2 O :    0.298832
   3 C :   -0.416977
   4 O :    0.122885
   5 C :   -0.089009
   6 C :   -0.082485
   7 C :    0.126699
   8 N :    0.403564
   9 C :   -0.458575
  10 S :   -0.037009
  11 N :    0.396378
  12 C :   -0.048580
  13 C :   -0.045921
  14 C :    0.021424
  15 C :    0.044401
  16 C :    0.000024
  17 C :   -0.192064
  18 O :    0.395295
  19 C :    0.026571
  20 H :   -0.029085
  21 H :   -0.021881
  22 H :   -0.025058
  23 H :   -0.021159
  24 H :   -0.040274
  25 H :   -0.007339
  26 H :   -0.012925
  27 H :   -0.017995
  28 H :   -0.057162
  29 H :   -0.063150
  30 H :   -0.004755
  31 H :   -0.021425
  32 H :   -0.018724
  33 H :   -0.034793
  34 H :   -0.153346
  35 H :   -0.023560

  Mayer bond orders larger than 0.100000
B(  0-C ,  1-C ) :   0.9711 B(  0-C , 20-H ) :   0.9649 B(  0-C , 21-H ) :   0.9757
B(  0-C , 22-H ) :   0.9769 B(  1-C ,  2-O ) :   0.8981 B(  1-C , 23-H ) :   0.9803
B(  1-C , 24-H ) :   0.9686 B(  2-O ,  3-C ) :   1.1409 B(  3-C ,  4-O ) :   2.0819
B(  3-C ,  5-C ) :   0.9404 B(  5-C ,  6-C ) :   1.7148 B(  5-C , 12-C ) :   0.9357
B(  6-C ,  7-C ) :   0.9348 B(  6-C ,  8-N ) :   1.1154 B(  7-C , 25-H ) :   0.9699
B(  7-C , 26-H ) :   0.9819 B(  7-C , 27-H ) :   0.9659 B(  8-N ,  9-C ) :   1.1931
B(  8-N , 28-H ) :   0.9501 B(  9-C , 10-S ) :   1.6112 B(  9-C , 11-N ) :   1.2942
B( 11-N , 12-C ) :   0.9815 B( 11-N , 29-H ) :   0.9476 B( 12-C , 13-C ) :   0.9721
B( 12-C , 30-H ) :   0.9908 B( 13-C , 14-C ) :   1.3926 B( 13-C , 19-C ) :   1.3529
B( 14-C , 15-C ) :   1.3950 B( 14-C , 31-H ) :   0.9566 B( 15-C , 16-C ) :   1.3602
B( 15-C , 32-H ) :   0.9704 B( 16-C , 17-C ) :   1.3326 B( 16-C , 33-H ) :   0.9841
B( 17-C , 18-O ) :   1.1093 B( 17-C , 19-C ) :   1.3641 B( 18-O , 34-H ) :   0.9796
B( 19-C , 35-H ) :   0.9582

MP2 TOTAL ENERGY:    -1274.330930759 Eh
FINAL SINGLE POINT ENERGY     -1274.330930758966

DIPOLE MOMENT
-------------
                                X             Y             Z
Electronic contribution:      9.01966       7.82730       6.66914
Nuclear contribution   :    -10.65381      -8.87718      -7.14945
                        -----------------------------------------
Total Dipole Moment    :     -1.63415      -1.04988      -0.48031
                        -----------------------------------------
Magnitude (a.u.)       :      2.00085
Magnitude (Debye)      :      5.08575

Rotational constants in cm-1:     0.011476     0.009275     0.006357
Rotational constants in MHz :   344.056342   278.048264   190.590990

                             ****ORCA TERMINATED NORMALLY****
TOTAL RUN TIME: 0 days 2 hours 7 minutes 18 seconds 786 msec
