                         Program Version 4.2.0 -  RELEASE  -
|  1> ! ri-mp2 cc-pvtz cc-pvtz/c TightSCF NoKeepInts
|  2>
|  3> %scf
|  4>   MaxCore 4096
|  5> end
|  6> *xyz  0  1
|  7>     C       15.6473939   14.7957111   13.9047509
|  8>     C       14.9154389   15.2274854   15.1873204
|  9>     O       15.7968883   16.0924776   15.9255494
| 10>     C       15.6339104   17.4499105   15.8801214
| 11>     O       14.8083775   17.9829896   15.1578314
| 12>     C       16.5730376   18.1759547   16.8068259
| 13>     C       16.7586609   19.5169525   16.6973708
| 14>     C       15.9274269   20.4954616   15.8933206
| 15>     N       17.8132542   20.1541623   17.3552609
| 16>     C       18.8382037   19.5032620   17.9865255
| 17>     S       20.1093713   20.3179380   18.6619599
| 18>     N       18.7679764   18.1335630   18.0110741
| 19>     C       17.6284144   17.3262856   17.5357234
| 20>     C       17.0599078   16.4213314   18.6210207
| 21>     C       17.2205176   15.0253266   18.5481751
| 22>     C       16.6986138   14.1937402   19.5533701
| 23>     C       16.0140757   14.7634582   20.6407727
| 24>     C       15.8566293   16.1543756   20.7171108
| 25>     O       15.1975506   16.7069813   21.7665664
| 26>     C       16.3772052   16.9793362   19.7151410
| 27>     H       15.8548570   15.6657614   13.2689736
| 28>     H       15.0330270   14.0918717   13.3302852
| 29>     H       16.5987658   14.3057140   14.1458767
| 30>     H       13.9584251   15.7121624   14.9501181
| 31>     H       14.7007368   14.3352505   15.7894398
| 32>     H       14.8631695   20.3926688   16.1414218
| 33>     H       16.0337963   20.3016585   14.8183794
| 34>     H       16.2029810   21.5416623   16.0707992
| 35>     H       17.8880860   21.1583838   17.3253536
| 36>     H       19.5216909   17.6822504   18.5137171
| 37>     H       18.1243321   16.7320202   16.7552018
| 38>     H       17.7446636   14.5840910   17.7046675
| 39>     H       16.8246458   13.1145086   19.4877172
| 40>     H       15.6093378   14.1255198   21.4195134
| 41>     H       14.9336072   15.9856591   22.3571449
| 42>     H       16.2520236   18.0541142   19.7935990
| 43> *
| 44>
| 45>                          ****END OF INPUT****

CARTESIAN COORDINATES (ANGSTROEM)
---------------------------------
  C     15.647394   14.795711   13.904751
  C     14.915439   15.227485   15.187320
  O     15.796888   16.092478   15.925549
  C     15.633910   17.449910   15.880121
  O     14.808378   17.982990   15.157831
  C     16.573038   18.175955   16.806826
  C     16.758661   19.516952   16.697371
  C     15.927427   20.495462   15.893321
  N     17.813254   20.154162   17.355261
  C     18.838204   19.503262   17.986525
  S     20.109371   20.317938   18.661960
  N     18.767976   18.133563   18.011074
  C     17.628414   17.326286   17.535723
  C     17.059908   16.421331   18.621021
  C     17.220518   15.025327   18.548175
  C     16.698614   14.193740   19.553370
  C     16.014076   14.763458   20.640773
  C     15.856629   16.154376   20.717111
  O     15.197551   16.706981   21.766566
  C     16.377205   16.979336   19.715141
  H     15.854857   15.665761   13.268974
  H     15.033027   14.091872   13.330285
  H     16.598766   14.305714   14.145877
  H     13.958425   15.712162   14.950118
  H     14.700737   14.335251   15.789440
  H     14.863169   20.392669   16.141422
  H     16.033796   20.301658   14.818379
  H     16.202981   21.541662   16.070799
  H     17.888086   21.158384   17.325354
  H     19.521691   17.682250   18.513717
  H     18.124332   16.732020   16.755202
  H     17.744664   14.584091   17.704667
  H     16.824646   13.114509   19.487717
  H     15.609338   14.125520   21.419513
  H     14.933607   15.985659   22.357145
  H     16.252024   18.054114   19.793599

 Total Charge           Charge          ....    0
 Multiplicity           Mult            ....    1
 Number of Electrons    NEL             ....  154
 Basis Dimension        Dim             ....  828

ORBITAL ENERGIES
----------------

  NO   OCC          E(Eh)            E(eV)
   0   2.0000     -91.888667     -2500.4177
   1   2.0000     -20.601897      -560.6061
   2   2.0000     -20.595473      -560.4313
   3   2.0000     -20.541245      -558.9557
   4   2.0000     -15.629029      -425.2875
   5   2.0000     -15.606795      -424.6825
   6   2.0000     -11.395967      -310.1000
   7   2.0000     -11.383286      -309.7550
   8   2.0000     -11.337335      -308.5046
   9   2.0000     -11.312545      -307.8300
  10   2.0000     -11.307287      -307.6869
  11   2.0000     -11.296282      -307.3875
  12   2.0000     -11.259806      -306.3949
  13   2.0000     -11.259545      -306.3878
  14   2.0000     -11.254038      -306.2379
  15   2.0000     -11.251535      -306.1698
  16   2.0000     -11.242513      -305.9243
  17   2.0000     -11.237941      -305.7999
  18   2.0000     -11.237844      -305.7973
  19   2.0000     -11.228270      -305.5368
  20   2.0000      -8.893740      -242.0110
  21   2.0000      -6.575313      -178.9234
  22   2.0000      -6.573314      -178.8690
  23   2.0000      -6.572724      -178.8529
  24   2.0000      -1.451572       -39.4993
  25   2.0000      -1.415133       -38.5077
  26   2.0000      -1.354761       -36.8649
  27   2.0000      -1.340246       -36.4700
  28   2.0000      -1.238078       -33.6898
  29   2.0000      -1.156650       -31.4740
  30   2.0000      -1.120862       -30.5002
  31   2.0000      -1.042560       -28.3695
  32   2.0000      -1.038786       -28.2668
  33   2.0000      -1.013937       -27.5906
  34   2.0000      -0.996151       -27.1066
  35   2.0000      -0.984328       -26.7849
  36   2.0000      -0.921399       -25.0725
  37   2.0000      -0.892610       -24.2891
  38   2.0000      -0.846284       -23.0286
  39   2.0000      -0.837175       -22.7807
  40   2.0000      -0.833181       -22.6720
  41   2.0000      -0.816902       -22.2290
  42   2.0000      -0.761635       -20.7251
  43   2.0000      -0.732784       -19.9401
  44   2.0000      -0.722039       -19.6477
  45   2.0000      -0.694462       -18.8973
  46   2.0000      -0.687620       -18.7111
  47   2.0000      -0.680261       -18.5108
  48   2.0000      -0.672705       -18.3052
  49   2.0000      -0.656193       -17.8559
  50   2.0000      -0.646506       -17.5923
  51   2.0000      -0.640819       -17.4376
  52   2.0000      -0.628950       -17.1146
  53   2.0000      -0.611965       -16.6524
  54   2.0000      -0.605645       -16.4804
  55   2.0000      -0.599738       -16.3197
  56   2.0000      -0.598115       -16.2755
  57   2.0000      -0.577756       -15.7215
  58   2.0000      -0.570121       -15.5138
  59   2.0000      -0.568395       -15.4668
  60   2.0000      -0.563282       -15.3277
  61   2.0000      -0.541159       -14.7257
  62   2.0000      -0.536780       -14.6065
  63   2.0000      -0.533213       -14.5095
  64   2.0000      -0.523241       -14.2381
  65   2.0000      -0.512740       -13.9524
  66   2.0000      -0.500219       -13.6117
  67   2.0000      -0.496219       -13.5028
  68   2.0000      -0.484791       -13.1918
  69   2.0000      -0.462879       -12.5956
  70   2.0000      -0.454055       -12.3555
  71   2.0000      -0.449509       -12.2318
  72   2.0000      -0.352977        -9.6050
  73   2.0000      -0.348855        -9.4928
  74   2.0000      -0.327784        -8.9195
  75   2.0000      -0.320055        -8.7091
  76   2.0000      -0.317783        -8.6473
  77   0.0000       0.077973         2.1217
  78   0.0000       0.106151         2.8885
  79   0.0000       0.122703         3.3389
  80   0.0000       0.133104         3.6220
  81   0.0000       0.135625         3.6905

MULLIKEN ATOMIC CHARGES
-----------------------
   0 C :   -0.276720
   1 C :    0.019837
   2 O :   -0.343518
   3 C :    0.443800
   4 O :   -0.439877
   5 C :   -0.222265
   6 C :    0.171455
   7 C :   -0.269020
   8 N :   -0.126097
   9 C :    0.209889
  10 S :   -0.442205
  11 N :   -0.214338
  12 C :    0.050860
  13 C :    0.048465
  14 C :   -0.175964
  15 C :   -0.135663
  16 C :   -0.275314
  17 C :    0.316391
  18 O :   -0.357089
  19 C :   -0.246978
  20 H :    0.102648
  21 H :    0.093651
  22 H :    0.091646
  23 H :    0.117173
  24 H :    0.107545
  25 H :    0.133600
  26 H :    0.128635
  27 H :    0.094495
  28 H :    0.199847
  29 H :    0.200385
  30 H :    0.153376
  31 H :    0.149839
  32 H :    0.159655
  33 H :    0.129347
  34 H :    0.240384
  35 H :    0.162127
Sum of atomic charges:   -0.0000000

LOEWDIN ATOMIC CHARGES
----------------------
   0 C :    0.103929
   1 C :   -0.014696
   2 O :    0.312434
   3 C :   -0.413697
   4 O :    0.092942
   5 C :   -0.094164
   6 C :   -0.056456
   7 C :    0.130910
   8 N :    0.407115
   9 C :   -0.456868
  10 S :   -0.036776
  11 N :    0.394796
  12 C :   -0.055042
  13 C :   -0.039454
  14 C :    0.016914
  15 C :    0.039052
  16 C :   -0.000359
  17 C :   -0.189540
  18 O :    0.394890
  19 C :    0.033468
  20 H :   -0.025563
  21 H :   -0.026212
  22 H :   -0.029797
  23 H :   -0.027642
  24 H :   -0.027279
  25 H :   -0.004185
  26 H :   -0.005325
  27 H :   -0.023675
  28 H :   -0.057153
  29 H :   -0.064262
  30 H :   -0.014409
  31 H :   -0.029781
  32 H :   -0.021594
  33 H :   -0.035548
  34 H :   -0.154129
  35 H :   -0.022847

  Mayer bond orders larger than 0.100000
B(  0-C ,  1-C ) :   0.9674 B(  0-C , 20-H ) :   0.9784 B(  0-C , 21-H ) :   0.9758
B(  0-C , 22-H ) :   0.9786 B(  1-C ,  2-O ) :   0.8910 B(  1-C , 23-H ) :   0.9742
B(  1-C , 24-H ) :   0.9821 B(  2-O ,  3-C ) :   1.1740 B(  3-C ,  4-O ) :   1.9517
B(  3-C ,  5-C ) :   1.0766 B(  5-C ,  6-C ) :   1.6426 B(  5-C , 12-C ) :   0.9545
B(  6-C ,  7-C ) :   0.9656 B(  6-C ,  8-N ) :   1.1532 B(  7-C , 25-H ) :   0.9615
B(  7-C , 26-H ) :   0.9587 B(  7-C , 27-H ) :   0.9906 B(  8-N ,  9-C ) :   1.1877
B(  8-N , 28-H ) :   0.9463 B(  9-C , 10-S ) :   1.6060 B(  9-C , 11-N ) :   1.3090
B( 11-N , 12-C ) :   0.9690 B( 11-N , 29-H ) :   0.9484 B( 12-C , 13-C ) :   0.9652
B( 12-C , 30-H ) :   1.0012 B( 13-C , 14-C ) :   1.3546 B( 13-C , 19-C ) :   1.3814
B( 14-C , 15-C ) :   1.3964 B( 14-C , 31-H ) :   0.9720 B( 15-C , 16-C ) :   1.3601
B( 15-C , 32-H ) :   0.9710 B( 16-C , 17-C ) :   1.3339 B( 16-C , 33-H ) :   0.9853
B( 17-C , 18-O ) :   1.1038 B( 17-C , 19-C ) :   1.3650 B( 18-O , 34-H ) :   0.9800
B( 19-C , 35-H ) :   0.9596

MP2 TOTAL ENERGY:    -1274.343674419 Eh
FINAL SINGLE POINT ENERGY     -1274.343674419015

DIPOLE MOMENT
-------------
                                X             Y             Z
Electronic contribution:      7.97971       9.36120      10.96515
Nuclear contribution   :     -9.13888     -10.97654     -11.35868
                        -----------------------------------------
Total Dipole Moment    :     -1.15918      -1.61534      -0.39353
                        -----------------------------------------
Magnitude (a.u.)       :      2.02679
Magnitude (Debye)      :      5.15170

Rotational constants in cm-1:     0.010265     0.008864     0.005843
Rotational constants in MHz :   307.727431   265.728771   175.179294

                             ****ORCA TERMINATED NORMALLY****
TOTAL RUN TIME: 0 days 1 hours 51 minutes 1 seconds 926 msec
