                         Program Version 4.2.0 -  RELEASE  -
|  1> ! ri-mp2 cc-pvtz cc-pvtz/c TightSCF NoKeepInts
|  2>
|  3> %scf
|  4>   MaxCore 4096
|  5> end
|  6> *xyz  0  1
|  7>     C       14.5660036   16.2848360   16.1906618
|  8>     C       15.0946709   16.0258534   14.7618728
|  9>     O       16.5155302   16.2460820   14.5511358
| 10>     C       17.4652978   16.4933497   15.5096035
| 11>     O       18.4481141   15.7802028   15.5974776
| 12>     C       17.2173157   17.6213148   16.4651846
| 13>     C       16.8208100   18.8384282   16.0144805
| 14>     C       16.3692207   19.1955633   14.6122251
| 15>     N       16.8738884   19.9597007   16.8453902
| 16>     C       17.5396722   20.0007446   18.0413562
| 17>     S       17.6646381   21.3949303   18.9217758
| 18>     N       18.1189733   18.8282655   18.4583349
| 19>     C       17.9363439   17.5127117   17.8133522
| 20>     C       17.3427529   16.4477350   18.7244570
| 21>     C       17.9055461   15.1599608   18.7744655
| 22>     C       17.3486025   14.1683586   19.5991276
| 23>     C       16.2180742   14.4667807   20.3789535
| 24>     C       15.6526986   15.7482661   20.3278916
| 25>     O       14.5551559   16.0364089   21.0715929
| 26>     C       16.2090743   16.7333880   19.5057981
| 27>     H       15.1505903   15.7324272   16.9369098
| 28>     H       13.5294672   15.9347815   16.2695223
| 29>     H       14.5623740   17.3503446   16.4441110
| 30>     H       14.8847448   14.9758002   14.5190305
| 31>     H       14.5237897   16.6326580   14.0475671
| 32>     H       15.3243964   18.9087849   14.4491944
| 33>     H       16.9838340   18.6931797   13.8544384
| 34>     H       16.4517362   20.2711252   14.4116119
| 35>     H       16.4824338   20.8353189   16.5364000
| 36>     H       18.5981652   18.8824991   19.3484636
| 37>     H       18.9825428   17.2694884   17.5751268
| 38>     H       18.7720823   14.9242557   18.1599595
| 39>     H       17.7911724   13.1740419   19.6267954
| 40>     H       15.7837846   13.7029045   21.0154145
| 41>     H       14.3487111   15.2511829   21.6007579
| 42>     H       15.7547916   17.7183265   19.4775595
| 43> *
| 44>
| 45>                          ****END OF INPUT****

CARTESIAN COORDINATES (ANGSTROEM)
---------------------------------
  C     14.566004   16.284836   16.190662
  C     15.094671   16.025853   14.761873
  O     16.515530   16.246082   14.551136
  C     17.465298   16.493350   15.509604
  O     18.448114   15.780203   15.597478
  C     17.217316   17.621315   16.465185
  C     16.820810   18.838428   16.014481
  C     16.369221   19.195563   14.612225
  N     16.873888   19.959701   16.845390
  C     17.539672   20.000745   18.041356
  S     17.664638   21.394930   18.921776
  N     18.118973   18.828266   18.458335
  C     17.936344   17.512712   17.813352
  C     17.342753   16.447735   18.724457
  C     17.905546   15.159961   18.774466
  C     17.348602   14.168359   19.599128
  C     16.218074   14.466781   20.378953
  C     15.652699   15.748266   20.327892
  O     14.555156   16.036409   21.071593
  C     16.209074   16.733388   19.505798
  H     15.150590   15.732427   16.936910
  H     13.529467   15.934781   16.269522
  H     14.562374   17.350345   16.444111
  H     14.884745   14.975800   14.519030
  H     14.523790   16.632658   14.047567
  H     15.324396   18.908785   14.449194
  H     16.983834   18.693180   13.854438
  H     16.451736   20.271125   14.411612
  H     16.482434   20.835319   16.536400
  H     18.598165   18.882499   19.348464
  H     18.982543   17.269488   17.575127
  H     18.772082   14.924256   18.159959
  H     17.791172   13.174042   19.626795
  H     15.783785   13.702904   21.015414
  H     14.348711   15.251183   21.600758
  H     15.754792   17.718326   19.477559

 Total Charge           Charge          ....    0
 Multiplicity           Mult            ....    1
 Number of Electrons    NEL             ....  154
 Basis Dimension        Dim             ....  828

ORBITAL ENERGIES
----------------

  NO   OCC          E(Eh)            E(eV)
   0   2.0000     -91.890044     -2500.4552
   1   2.0000     -20.597546      -560.4877
   2   2.0000     -20.592436      -560.3487
   3   2.0000     -20.548973      -559.1660
   4   2.0000     -15.629632      -425.3039
   5   2.0000     -15.608478      -424.7283
   6   2.0000     -11.397382      -310.1385
   7   2.0000     -11.385187      -309.8067
   8   2.0000     -11.335901      -308.4656
   9   2.0000     -11.314249      -307.8764
  10   2.0000     -11.312710      -307.8345
  11   2.0000     -11.307425      -307.6907
  12   2.0000     -11.264905      -306.5337
  13   2.0000     -11.261554      -306.4425
  14   2.0000     -11.261313      -306.4359
  15   2.0000     -11.254374      -306.2471
  16   2.0000     -11.243991      -305.9646
  17   2.0000     -11.239687      -305.8474
  18   2.0000     -11.237382      -305.7847
  19   2.0000     -11.236354      -305.7567
  20   2.0000      -8.895135      -242.0489
  21   2.0000      -6.576713      -178.9615
  22   2.0000      -6.574706      -178.9069
  23   2.0000      -6.574119      -178.8909
  24   2.0000      -1.443096       -39.2686
  25   2.0000      -1.417325       -38.5674
  26   2.0000      -1.355659       -36.8893
  27   2.0000      -1.341589       -36.5065
  28   2.0000      -1.239142       -33.7188
  29   2.0000      -1.158506       -31.5246
  30   2.0000      -1.124212       -30.5914
  31   2.0000      -1.046253       -28.4700
  32   2.0000      -1.039394       -28.2833
  33   2.0000      -1.016408       -27.6579
  34   2.0000      -1.004845       -27.3432
  35   2.0000      -0.989522       -26.9263
  36   2.0000      -0.925803       -25.1924
  37   2.0000      -0.901039       -24.5185
  38   2.0000      -0.851992       -23.1839
  39   2.0000      -0.840315       -22.8661
  40   2.0000      -0.834117       -22.6975
  41   2.0000      -0.824689       -22.4409
  42   2.0000      -0.745527       -20.2868
  43   2.0000      -0.733295       -19.9540
  44   2.0000      -0.729468       -19.8498
  45   2.0000      -0.694404       -18.8957
  46   2.0000      -0.686921       -18.6921
  47   2.0000      -0.678419       -18.4607
  48   2.0000      -0.673674       -18.3316
  49   2.0000      -0.665097       -18.0982
  50   2.0000      -0.654880       -17.8202
  51   2.0000      -0.650724       -17.7071
  52   2.0000      -0.639954       -17.4140
  53   2.0000      -0.617523       -16.8036
  54   2.0000      -0.606178       -16.4950
  55   2.0000      -0.604268       -16.4430
  56   2.0000      -0.601384       -16.3645
  57   2.0000      -0.585457       -15.9311
  58   2.0000      -0.576555       -15.6889
  59   2.0000      -0.565519       -15.3886
  60   2.0000      -0.563780       -15.3412
  61   2.0000      -0.553609       -15.0645
  62   2.0000      -0.546224       -14.8635
  63   2.0000      -0.533091       -14.5061
  64   2.0000      -0.522086       -14.2067
  65   2.0000      -0.512561       -13.9475
  66   2.0000      -0.499668       -13.5967
  67   2.0000      -0.490239       -13.3401
  68   2.0000      -0.486368       -13.2348
  69   2.0000      -0.470688       -12.8081
  70   2.0000      -0.457074       -12.4376
  71   2.0000      -0.447688       -12.1822
  72   2.0000      -0.354709        -9.6521
  73   2.0000      -0.348764        -9.4903
  74   2.0000      -0.329328        -8.9615
  75   2.0000      -0.321952        -8.7608
  76   2.0000      -0.319417        -8.6918
  77   0.0000       0.077520         2.1094
  78   0.0000       0.105897         2.8816
  79   0.0000       0.116234         3.1629
  80   0.0000       0.131330         3.5737
  81   0.0000       0.132002         3.5919

MULLIKEN ATOMIC CHARGES
-----------------------
   0 C :   -0.335900
   1 C :    0.032786
   2 O :   -0.357086
   3 C :    0.447275
   4 O :   -0.379599
   5 C :   -0.240202
   6 C :    0.152066
   7 C :   -0.313652
   8 N :   -0.134224
   9 C :    0.205277
  10 S :   -0.441299
  11 N :   -0.218901
  12 C :    0.075559
  13 C :    0.008104
  14 C :   -0.197275
  15 C :   -0.132345
  16 C :   -0.277635
  17 C :    0.318301
  18 O :   -0.357938
  19 C :   -0.255778
  20 H :    0.127194
  21 H :    0.124104
  22 H :    0.107879
  23 H :    0.122593
  24 H :    0.097941
  25 H :    0.114857
  26 H :    0.143677
  27 H :    0.116755
  28 H :    0.198200
  29 H :    0.201622
  30 H :    0.163712
  31 H :    0.175372
  32 H :    0.163611
  33 H :    0.131578
  34 H :    0.241012
  35 H :    0.172360
Sum of atomic charges:   -0.0000000

LOEWDIN ATOMIC CHARGES
----------------------
   0 C :    0.103064
   1 C :   -0.014319
   2 O :    0.286990
   3 C :   -0.419428
   4 O :    0.122992
   5 C :   -0.089209
   6 C :   -0.078269
   7 C :    0.128429
   8 N :    0.404360
   9 C :   -0.458326
  10 S :   -0.037045
  11 N :    0.396528
  12 C :   -0.048155
  13 C :   -0.044259
  14 C :    0.021952
  15 C :    0.043147
  16 C :   -0.000827
  17 C :   -0.193483
  18 O :    0.394446
  19 C :    0.029014
  20 H :   -0.021578
  21 H :   -0.020649
  22 H :   -0.033769
  23 H :   -0.022345
  24 H :   -0.031072
  25 H :   -0.016314
  26 H :   -0.005416
  27 H :   -0.016085
  28 H :   -0.058493
  29 H :   -0.063299
  30 H :   -0.005189
  31 H :   -0.021358
  32 H :   -0.019122
  33 H :   -0.035134
  34 H :   -0.153714
  35 H :   -0.024064

  Mayer bond orders larger than 0.100000
B(  0-C ,  1-C ) :   0.9610 B(  0-C , 20-H ) :   0.9659 B(  0-C , 21-H ) :   0.9760
B(  0-C , 22-H ) :   0.9712 B(  1-C ,  2-O ) :   0.9026 B(  1-C , 23-H ) :   0.9813
B(  1-C , 24-H ) :   0.9783 B(  2-O ,  3-C ) :   1.1260 B(  3-C ,  4-O ) :   2.0758
B(  3-C ,  5-C ) :   0.9551 B(  5-C ,  6-C ) :   1.7103 B(  5-C , 12-C ) :   0.9359
B(  6-C ,  7-C ) :   0.9443 B(  6-C ,  8-N ) :   1.1155 B(  7-C , 25-H ) :   0.9657
B(  7-C , 26-H ) :   0.9661 B(  7-C , 27-H ) :   0.9878 B(  8-N ,  9-C ) :   1.1904
B(  8-N , 28-H ) :   0.9480 B(  9-C , 10-S ) :   1.6108 B(  9-C , 11-N ) :   1.2964
B( 11-N , 12-C ) :   0.9786 B( 11-N , 29-H ) :   0.9483 B( 12-C , 13-C ) :   0.9680
B( 12-C , 30-H ) :   0.9923 B( 13-C , 14-C ) :   1.3882 B( 13-C , 19-C ) :   1.3522
B( 14-C , 15-C ) :   1.3956 B( 14-C , 31-H ) :   0.9579 B( 15-C , 16-C ) :   1.3607
B( 15-C , 32-H ) :   0.9704 B( 16-C , 17-C ) :   1.3311 B( 16-C , 33-H ) :   0.9848
B( 17-C , 18-O ) :   1.1080 B( 17-C , 19-C ) :   1.3647 B( 18-O , 34-H ) :   0.9798
B( 19-C , 35-H ) :   0.9580

MP2 TOTAL ENERGY:    -1274.322409634 Eh
FINAL SINGLE POINT ENERGY     -1274.322409634003

DIPOLE MOMENT
-------------
                                X             Y             Z
Electronic contribution:      8.86214       6.72884       7.10883
Nuclear contribution   :    -10.43843      -7.92836      -7.70698
                        -----------------------------------------
Total Dipole Moment    :     -1.57629      -1.19952      -0.59815
                        -----------------------------------------
Magnitude (a.u.)       :      2.06914
Magnitude (Debye)      :      5.25932

Rotational constants in cm-1:     0.011308     0.009340     0.006483
Rotational constants in MHz :   339.007585   279.998046   194.344365

                             ****ORCA TERMINATED NORMALLY****
TOTAL RUN TIME: 0 days 1 hours 53 minutes 54 seconds 781 msec
