                         Program Version 4.2.0 -  RELEASE  -
|  1> ! ri-mp2 cc-pvtz cc-pvtz/c TightSCF NoKeepInts
|  2>
|  3> %scf
|  4>   MaxCore 4096
|  5> end
|  6> *xyz  0  1
|  7>     C       15.2492356   14.3772255   13.8815822
|  8>     C       14.7955779   15.4786064   14.8413923
|  9>     O       15.9338851   16.1867486   15.3691684
| 10>     C       15.6227006   17.1921731   16.2389243
| 11>     O       14.4785429   17.4919866   16.5388632
| 12>     C       16.7797568   17.9852511   16.7316520
| 13>     C       16.8849231   19.2703645   16.3356405
| 14>     C       16.0151158   19.9490250   15.2992510
| 15>     N       17.9032862   20.0898661   16.8088088
| 16>     C       18.7796378   19.7188493   17.7919738
| 17>     S       19.8045239   20.8162815   18.4836731
| 18>     N       18.7191732   18.4095477   18.2149978
| 19>     C       17.8220433   17.3599758   17.6741575
| 20>     C       17.2480768   16.5831233   18.8563409
| 21>     C       17.8451393   15.3608302   19.2239832
| 22>     C       17.3506401   14.6119982   20.3049525
| 23>     C       16.2476173   15.0890430   21.0309432
| 24>     C       15.6679138   16.3191069   20.6908282
| 25>     O       14.6064547   16.7764093   21.4018370
| 26>     C       16.1715200   17.0701105   19.6201836
| 27>     H       16.0710217   14.7052559   13.2381878
| 28>     H       14.4141254   14.0830304   13.2358192
| 29>     H       15.5717137   13.5062524   14.4598257
| 30>     H       14.1369917   16.1758684   14.3092737
| 31>     H       14.2172637   15.0326013   15.6567628
| 32>     H       15.6308325   19.2290658   14.5654132
| 33>     H       16.5773960   20.6993962   14.7283912
| 34>     H       15.1516636   20.4359591   15.7697559
| 35>     H       17.9512331   21.0511682   16.5091425
| 36>     H       19.2681746   18.2105755   19.0443970
| 37>     H       18.4413321   16.6768937   17.0774089
| 38>     H       18.7027605   14.9857127   18.6719789
| 39>     H       17.8162346   13.6649642   20.5747833
| 40>     H       15.8559818   14.5125787   21.8638236
| 41>     H       14.3393675   16.0687075   22.0084465
| 42>     H       15.7151430   18.0254474   19.3854363
| 43> *
| 44>
| 45>                          ****END OF INPUT****

CARTESIAN COORDINATES (ANGSTROEM)
---------------------------------
  C     15.249236   14.377225   13.881582
  C     14.795578   15.478606   14.841392
  O     15.933885   16.186749   15.369168
  C     15.622701   17.192173   16.238924
  O     14.478543   17.491987   16.538863
  C     16.779757   17.985251   16.731652
  C     16.884923   19.270364   16.335641
  C     16.015116   19.949025   15.299251
  N     17.903286   20.089866   16.808809
  C     18.779638   19.718849   17.791974
  S     19.804524   20.816281   18.483673
  N     18.719173   18.409548   18.214998
  C     17.822043   17.359976   17.674157
  C     17.248077   16.583123   18.856341
  C     17.845139   15.360830   19.223983
  C     17.350640   14.611998   20.304952
  C     16.247617   15.089043   21.030943
  C     15.667914   16.319107   20.690828
  O     14.606455   16.776409   21.401837
  C     16.171520   17.070110   19.620184
  H     16.071022   14.705256   13.238188
  H     14.414125   14.083030   13.235819
  H     15.571714   13.506252   14.459826
  H     14.136992   16.175868   14.309274
  H     14.217264   15.032601   15.656763
  H     15.630832   19.229066   14.565413
  H     16.577396   20.699396   14.728391
  H     15.151664   20.435959   15.769756
  H     17.951233   21.051168   16.509142
  H     19.268175   18.210575   19.044397
  H     18.441332   16.676894   17.077409
  H     18.702761   14.985713   18.671979
  H     17.816235   13.664964   20.574783
  H     15.855982   14.512579   21.863824
  H     14.339367   16.068707   22.008447
  H     15.715143   18.025447   19.385436

 Total Charge           Charge          ....    0
 Multiplicity           Mult            ....    1
 Number of Electrons    NEL             ....  154
 Basis Dimension        Dim             ....  828

ORBITAL ENERGIES
----------------

  NO   OCC          E(Eh)            E(eV)
   0   2.0000     -91.884279     -2500.2983
   1   2.0000     -20.612274      -560.8885
   2   2.0000     -20.595202      -560.4239
   3   2.0000     -20.550997      -559.2211
   4   2.0000     -15.620135      -425.0455
   5   2.0000     -15.605458      -424.6461
   6   2.0000     -11.394449      -310.0587
   7   2.0000     -11.380238      -309.6720
   8   2.0000     -11.320044      -308.0341
   9   2.0000     -11.314312      -307.8781
  10   2.0000     -11.314271      -307.8770
  11   2.0000     -11.295244      -307.3592
  12   2.0000     -11.263644      -306.4993
  13   2.0000     -11.256133      -306.2950
  14   2.0000     -11.255607      -306.2806
  15   2.0000     -11.255275      -306.2716
  16   2.0000     -11.245009      -305.9922
  17   2.0000     -11.241930      -305.9085
  18   2.0000     -11.240358      -305.8657
  19   2.0000     -11.231807      -305.6330
  20   2.0000      -8.889446      -241.8941
  21   2.0000      -6.571037      -178.8070
  22   2.0000      -6.569023      -178.7522
  23   2.0000      -6.568445      -178.7365
  24   2.0000      -1.458888       -39.6984
  25   2.0000      -1.414892       -38.5012
  26   2.0000      -1.360636       -37.0248
  27   2.0000      -1.334266       -36.3072
  28   2.0000      -1.233683       -33.5702
  29   2.0000      -1.158109       -31.5138
  30   2.0000      -1.121031       -30.5048
  31   2.0000      -1.045475       -28.4488
  32   2.0000      -1.042174       -28.3590
  33   2.0000      -1.015524       -27.6338
  34   2.0000      -0.997780       -27.1510
  35   2.0000      -0.983308       -26.7572
  36   2.0000      -0.922489       -25.1022
  37   2.0000      -0.887527       -24.1508
  38   2.0000      -0.843963       -22.9654
  39   2.0000      -0.834752       -22.7148
  40   2.0000      -0.834184       -22.6993
  41   2.0000      -0.819335       -22.2953
  42   2.0000      -0.766099       -20.8466
  43   2.0000      -0.731011       -19.8918
  44   2.0000      -0.725737       -19.7483
  45   2.0000      -0.695422       -18.9234
  46   2.0000      -0.686384       -18.6775
  47   2.0000      -0.682274       -18.5656
  48   2.0000      -0.678982       -18.4760
  49   2.0000      -0.667545       -18.1648
  50   2.0000      -0.650142       -17.6913
  51   2.0000      -0.647443       -17.6178
  52   2.0000      -0.632704       -17.2167
  53   2.0000      -0.607431       -16.5290
  54   2.0000      -0.602365       -16.3912
  55   2.0000      -0.598084       -16.2747
  56   2.0000      -0.590194       -16.0600
  57   2.0000      -0.577750       -15.7214
  58   2.0000      -0.574977       -15.6459
  59   2.0000      -0.569673       -15.5016
  60   2.0000      -0.565622       -15.3913
  61   2.0000      -0.554293       -15.0831
  62   2.0000      -0.540932       -14.7195
  63   2.0000      -0.525430       -14.2977
  64   2.0000      -0.514111       -13.9897
  65   2.0000      -0.509769       -13.8715
  66   2.0000      -0.507593       -13.8123
  67   2.0000      -0.496720       -13.5164
  68   2.0000      -0.489097       -13.3090
  69   2.0000      -0.462819       -12.5940
  70   2.0000      -0.460050       -12.5186
  71   2.0000      -0.458911       -12.4876
  72   2.0000      -0.353021        -9.6062
  73   2.0000      -0.348232        -9.4759
  74   2.0000      -0.325490        -8.8570
  75   2.0000      -0.321486        -8.7481
  76   2.0000      -0.312712        -8.5093
  77   0.0000       0.095851         2.6082
  78   0.0000       0.106152         2.8885
  79   0.0000       0.122300         3.3280
  80   0.0000       0.132331         3.6009
  81   0.0000       0.135381         3.6839

MULLIKEN ATOMIC CHARGES
-----------------------
   0 C :   -0.265461
   1 C :    0.051528
   2 O :   -0.330481
   3 C :    0.365291
   4 O :   -0.407923
   5 C :   -0.105938
   6 C :    0.128280
   7 C :   -0.286277
   8 N :   -0.128591
   9 C :    0.224548
  10 S :   -0.450153
  11 N :   -0.226382
  12 C :    0.099567
  13 C :   -0.035788
  14 C :   -0.193434
  15 C :   -0.130851
  16 C :   -0.267930
  17 C :    0.307055
  18 O :   -0.353125
  19 C :   -0.197381
  20 H :    0.098478
  21 H :    0.093257
  22 H :    0.096207
  23 H :    0.082080
  24 H :    0.094085
  25 H :    0.110190
  26 H :    0.099608
  27 H :    0.135342
  28 H :    0.194639
  29 H :    0.202394
  30 H :    0.145438
  31 H :    0.152485
  32 H :    0.160002
  33 H :    0.130592
  34 H :    0.240389
  35 H :    0.168259
Sum of atomic charges:    0.0000000

LOEWDIN ATOMIC CHARGES
----------------------
   0 C :    0.110337
   1 C :   -0.020826
   2 O :    0.297634
   3 C :   -0.416626
   4 O :    0.117087
   5 C :   -0.078715
   6 C :   -0.095386
   7 C :    0.129970
   8 N :    0.403105
   9 C :   -0.450662
  10 S :   -0.042308
  11 N :    0.388605
  12 C :   -0.041760
  13 C :   -0.044322
  14 C :    0.009473
  15 C :    0.040480
  16 C :    0.002894
  17 C :   -0.186114
  18 O :    0.396014
  19 C :    0.044291
  20 H :   -0.026808
  21 H :   -0.021852
  22 H :   -0.027871
  23 H :   -0.031646
  24 H :   -0.027519
  25 H :   -0.009507
  26 H :   -0.018173
  27 H :   -0.008068
  28 H :   -0.056975
  29 H :   -0.065172
  30 H :   -0.014120
  31 H :   -0.029492
  32 H :   -0.020134
  33 H :   -0.033530
  34 H :   -0.152889
  35 H :   -0.019412

  Mayer bond orders larger than 0.100000
B(  0-C ,  1-C ) :   0.9584 B(  0-C , 20-H ) :   0.9742 B(  0-C , 21-H ) :   0.9804
B(  0-C , 22-H ) :   0.9835 B(  1-C ,  2-O ) :   0.9078 B(  1-C , 23-H ) :   0.9799
B(  1-C , 24-H ) :   0.9784 B(  2-O ,  3-C ) :   1.2066 B(  3-C ,  4-O ) :   1.9870
B(  3-C ,  5-C ) :   0.9173 B(  5-C ,  6-C ) :   1.7250 B(  5-C , 12-C ) :   0.9640
B(  6-C ,  7-C ) :   0.9472 B(  6-C ,  8-N ) :   1.1381 B(  7-C , 25-H ) :   0.9756
B(  7-C , 26-H ) :   0.9852 B(  7-C , 27-H ) :   0.9649 B(  8-N ,  9-C ) :   1.1999
B(  8-N , 28-H ) :   0.9512 B(  9-C , 10-S ) :   1.5938 B(  9-C , 11-N ) :   1.2985
B( 11-N , 12-C ) :   0.9676 B( 11-N , 29-H ) :   0.9452 B( 12-C , 13-C ) :   0.9715
B( 12-C , 30-H ) :   0.9935 B( 13-C , 14-C ) :   1.3605 B( 13-C , 19-C ) :   1.3780
B( 14-C , 15-C ) :   1.3960 B( 14-C , 31-H ) :   0.9723 B( 15-C , 16-C ) :   1.3673
B( 15-C , 32-H ) :   0.9706 B( 16-C , 17-C ) :   1.3274 B( 16-C , 33-H ) :   0.9853
B( 17-C , 18-O ) :   1.1045 B( 17-C , 19-C ) :   1.3676 B( 18-O , 34-H ) :   0.9796
B( 19-C , 35-H ) :   0.9564

MP2 TOTAL ENERGY:    -1274.338602792 Eh
FINAL SINGLE POINT ENERGY     -1274.338602792340

DIPOLE MOMENT
-------------
                                X             Y             Z
Electronic contribution:      8.12844      10.63256      11.49465
Nuclear contribution   :     -9.09602     -12.54584     -12.38715
                        -----------------------------------------
Total Dipole Moment    :     -0.96758      -1.91328      -0.89250
                        -----------------------------------------
Magnitude (a.u.)       :      2.32237
Magnitude (Debye)      :      5.90300

Rotational constants in cm-1:     0.009933     0.008723     0.005678
Rotational constants in MHz :   297.781503   261.496520   170.233585

                             ****ORCA TERMINATED NORMALLY****
TOTAL RUN TIME: 0 days 1 hours 35 minutes 52 seconds 574 msec
