                         Program Version 4.2.0 -  RELEASE  -
|  1> ! ri-mp2 cc-pvtz cc-pvtz/c TightSCF NoKeepInts
|  2>
|  3> %scf
|  4>   MaxCore 4096
|  5> end
|  6> *xyz  0  1
|  7>     C       14.8272104   14.8824482   16.4627352
|  8>     C       15.7138380   15.0252197   15.2151653
|  9>     O       16.8877476   15.7972286   15.5387566
| 10>     C       16.8885523   17.1117870   15.1768558
| 11>     O       16.6541597   17.4411514   14.0271066
| 12>     C       17.0191630   18.0588385   16.3406547
| 13>     C       16.9163317   19.3992581   16.1402618
| 14>     C       16.3293072   20.1066087   14.9357270
| 15>     N       17.3628836   20.3104791   17.0996206
| 16>     C       18.1372793   19.9784542   18.1770735
| 17>     S       18.7405378   21.1210199   19.2095992
| 18>     N       18.4109483   18.6447641   18.3403528
| 19>     C       17.8096992   17.5467892   17.5596336
| 20>     C       17.1008851   16.5400804   18.4535474
| 21>     C       17.6661596   15.2741093   18.6943387
| 22>     C       17.0388989   14.3670323   19.5653911
| 23>     C       15.8387339   14.7303914   20.2007732
| 24>     C       15.2782025   15.9940154   19.9671975
| 25>     O       14.1211099   16.3481693   20.5805391
| 26>     C       15.9074525   16.8965832   19.1039961
| 27>     H       15.3628399   14.3563403   17.2602613
| 28>     H       13.9245641   14.3066062   16.2259291
| 29>     H       14.5147791   15.8656241   16.8344651
| 30>     H       16.0233049   14.0239359   14.8891223
| 31>     H       15.1438993   15.4806930   14.3933884
| 32>     H       15.3913305   19.6303595   14.6233159
| 33>     H       17.0212221   20.0580994   14.0849589
| 34>     H       16.1064854   21.1630957   15.1261514
| 35>     H       17.1961529   21.2956557   16.9704477
| 36>     H       18.9628457   18.4265325   19.1603811
| 37>     H       18.7242994   17.1051191   17.1390702
| 38>     H       18.5944275   14.9927947   18.2040284
| 39>     H       17.4822801   13.3890519   19.7449675
| 40>     H       15.3500620   14.0328923   20.8731452
| 41>     H       13.8692936   15.6216069   21.1703060
| 42>     H       15.4701130   17.8771652   18.9487358
| 43> *
| 44>
| 45>                          ****END OF INPUT****

CARTESIAN COORDINATES (ANGSTROEM)
---------------------------------
  C     14.827210   14.882448   16.462735
  C     15.713838   15.025220   15.215165
  O     16.887748   15.797229   15.538757
  C     16.888552   17.111787   15.176856
  O     16.654160   17.441151   14.027107
  C     17.019163   18.058839   16.340655
  C     16.916332   19.399258   16.140262
  C     16.329307   20.106609   14.935727
  N     17.362884   20.310479   17.099621
  C     18.137279   19.978454   18.177073
  S     18.740538   21.121020   19.209599
  N     18.410948   18.644764   18.340353
  C     17.809699   17.546789   17.559634
  C     17.100885   16.540080   18.453547
  C     17.666160   15.274109   18.694339
  C     17.038899   14.367032   19.565391
  C     15.838734   14.730391   20.200773
  C     15.278203   15.994015   19.967198
  O     14.121110   16.348169   20.580539
  C     15.907452   16.896583   19.103996
  H     15.362840   14.356340   17.260261
  H     13.924564   14.306606   16.225929
  H     14.514779   15.865624   16.834465
  H     16.023305   14.023936   14.889122
  H     15.143899   15.480693   14.393388
  H     15.391330   19.630359   14.623316
  H     17.021222   20.058099   14.084959
  H     16.106485   21.163096   15.126151
  H     17.196153   21.295656   16.970448
  H     18.962846   18.426533   19.160381
  H     18.724299   17.105119   17.139070
  H     18.594427   14.992795   18.204028
  H     17.482280   13.389052   19.744967
  H     15.350062   14.032892   20.873145
  H     13.869294   15.621607   21.170306
  H     15.470113   17.877165   18.948736

 Total Charge           Charge          ....    0
 Multiplicity           Mult            ....    1
 Number of Electrons    NEL             ....  154
 Basis Dimension        Dim             ....  828

ORBITAL ENERGIES
----------------

  NO   OCC          E(Eh)            E(eV)
   0   2.0000     -91.890509     -2500.4679
   1   2.0000     -20.599488      -560.5406
   2   2.0000     -20.587308      -560.2091
   3   2.0000     -20.545675      -559.0762
   4   2.0000     -15.630801      -425.3357
   5   2.0000     -15.608398      -424.7261
   6   2.0000     -11.393210      -310.0250
   7   2.0000     -11.384711      -309.7937
   8   2.0000     -11.339273      -308.5573
   9   2.0000     -11.316558      -307.9392
  10   2.0000     -11.310570      -307.7763
  11   2.0000     -11.294893      -307.3497
  12   2.0000     -11.263287      -306.4896
  13   2.0000     -11.259736      -306.3930
  14   2.0000     -11.257782      -306.3398
  15   2.0000     -11.253254      -306.2166
  16   2.0000     -11.246593      -306.0354
  17   2.0000     -11.241180      -305.8881
  18   2.0000     -11.241125      -305.8866
  19   2.0000     -11.220242      -305.3183
  20   2.0000      -8.895554      -242.0603
  21   2.0000      -6.577120      -178.9725
  22   2.0000      -6.575129      -178.9184
  23   2.0000      -6.574532      -178.9021
  24   2.0000      -1.448933       -39.4275
  25   2.0000      -1.419185       -38.6180
  26   2.0000      -1.352685       -36.8084
  27   2.0000      -1.342484       -36.5309
  28   2.0000      -1.240400       -33.7530
  29   2.0000      -1.160004       -31.5653
  30   2.0000      -1.122342       -30.5405
  31   2.0000      -1.044941       -28.4343
  32   2.0000      -1.033111       -28.1124
  33   2.0000      -1.017802       -27.6958
  34   2.0000      -0.999005       -27.1843
  35   2.0000      -0.986541       -26.8451
  36   2.0000      -0.923961       -25.1423
  37   2.0000      -0.887455       -24.1489
  38   2.0000      -0.848090       -23.0777
  39   2.0000      -0.840761       -22.8783
  40   2.0000      -0.836868       -22.7723
  41   2.0000      -0.817347       -22.2411
  42   2.0000      -0.759774       -20.6745
  43   2.0000      -0.735701       -20.0194
  44   2.0000      -0.722584       -19.6625
  45   2.0000      -0.698062       -18.9952
  46   2.0000      -0.689111       -18.7517
  47   2.0000      -0.675655       -18.3855
  48   2.0000      -0.671537       -18.2734
  49   2.0000      -0.669072       -18.2064
  50   2.0000      -0.647216       -17.6116
  51   2.0000      -0.644358       -17.5339
  52   2.0000      -0.636736       -17.3265
  53   2.0000      -0.609725       -16.5915
  54   2.0000      -0.603852       -16.4317
  55   2.0000      -0.601437       -16.3659
  56   2.0000      -0.587070       -15.9750
  57   2.0000      -0.578814       -15.7503
  58   2.0000      -0.572811       -15.5870
  59   2.0000      -0.567623       -15.4458
  60   2.0000      -0.566427       -15.4133
  61   2.0000      -0.547398       -14.8955
  62   2.0000      -0.541324       -14.7302
  63   2.0000      -0.526061       -14.3149
  64   2.0000      -0.518709       -14.1148
  65   2.0000      -0.514014       -13.9870
  66   2.0000      -0.503544       -13.7021
  67   2.0000      -0.500375       -13.6159
  68   2.0000      -0.478881       -13.0310
  69   2.0000      -0.463203       -12.6044
  70   2.0000      -0.450282       -12.2528
  71   2.0000      -0.448874       -12.2145
  72   2.0000      -0.354607        -9.6493
  73   2.0000      -0.351741        -9.5714
  74   2.0000      -0.329599        -8.9688
  75   2.0000      -0.324350        -8.8260
  76   2.0000      -0.320116        -8.7108
  77   0.0000       0.071751         1.9524
  78   0.0000       0.100926         2.7463
  79   0.0000       0.122181         3.3247
  80   0.0000       0.130790         3.5590
  81   0.0000       0.133838         3.6419

MULLIKEN ATOMIC CHARGES
-----------------------
   0 C :   -0.310967
   1 C :    0.038882
   2 O :   -0.371481
   3 C :    0.458606
   4 O :   -0.410286
   5 C :   -0.246751
   6 C :    0.172457
   7 C :   -0.266025
   8 N :   -0.126722
   9 C :    0.209348
  10 S :   -0.438892
  11 N :   -0.212666
  12 C :    0.046196
  13 C :    0.050357
  14 C :   -0.174422
  15 C :   -0.137924
  16 C :   -0.277956
  17 C :    0.331009
  18 O :   -0.359837
  19 C :   -0.270802
  20 H :    0.107704
  21 H :    0.113854
  22 H :    0.101439
  23 H :    0.103943
  24 H :    0.105522
  25 H :    0.126792
  26 H :    0.134773
  27 H :    0.094129
  28 H :    0.200173
  29 H :    0.201300
  30 H :    0.152273
  31 H :    0.150743
  32 H :    0.163974
  33 H :    0.132197
  34 H :    0.241469
  35 H :    0.167592
Sum of atomic charges:   -0.0000000

LOEWDIN ATOMIC CHARGES
----------------------
   0 C :    0.103266
   1 C :   -0.016234
   2 O :    0.295752
   3 C :   -0.421478
   4 O :    0.110872
   5 C :   -0.102183
   6 C :   -0.054257
   7 C :    0.130334
   8 N :    0.407962
   9 C :   -0.457670
  10 S :   -0.033908
  11 N :    0.395519
  12 C :   -0.053867
  13 C :   -0.039312
  14 C :    0.017549
  15 C :    0.039997
  16 C :   -0.000538
  17 C :   -0.189766
  18 O :    0.396016
  19 C :    0.035885
  20 H :   -0.025854
  21 H :   -0.027000
  22 H :   -0.030185
  23 H :   -0.026141
  24 H :   -0.028133
  25 H :   -0.005752
  26 H :   -0.004240
  27 H :   -0.023286
  28 H :   -0.056638
  29 H :   -0.063705
  30 H :   -0.012314
  31 H :   -0.028172
  32 H :   -0.020632
  33 H :   -0.034998
  34 H :   -0.153242
  35 H :   -0.023647

  Mayer bond orders larger than 0.100000
B(  0-C ,  1-C ) :   0.9673 B(  0-C , 20-H ) :   0.9725 B(  0-C , 21-H ) :   0.9780
B(  0-C , 22-H ) :   0.9734 B(  1-C ,  2-O ) :   0.8885 B(  1-C , 23-H ) :   0.9875
B(  1-C , 24-H ) :   0.9757 B(  2-O ,  3-C ) :   1.1193 B(  3-C ,  4-O ) :   2.0190
B(  3-C ,  5-C ) :   1.0612 B(  5-C ,  6-C ) :   1.6228 B(  5-C , 12-C ) :   0.9643
B(  6-C ,  7-C ) :   0.9660 B(  6-C ,  8-N ) :   1.1532 B(  7-C , 25-H ) :   0.9658
B(  7-C , 26-H ) :   0.9552 B(  7-C , 27-H ) :   0.9888 B(  8-N ,  9-C ) :   1.1855
B(  8-N , 28-H ) :   0.9470 B(  9-C , 10-S ) :   1.6097 B(  9-C , 11-N ) :   1.3080
B( 11-N , 12-C ) :   0.9661 B( 11-N , 29-H ) :   0.9483 B( 12-C , 13-C ) :   0.9602
B( 12-C , 30-H ) :   1.0046 B( 13-C , 14-C ) :   1.3562 B( 13-C , 19-C ) :   1.3590
B( 14-C , 15-C ) :   1.3917 B( 14-C , 31-H ) :   0.9726 B( 15-C , 16-C ) :   1.3556
B( 15-C , 32-H ) :   0.9707 B( 16-C , 17-C ) :   1.3346 B( 16-C , 33-H ) :   0.9848
B( 17-C , 18-O ) :   1.1042 B( 17-C , 19-C ) :   1.3537 B( 18-O , 34-H ) :   0.9792
B( 19-C , 35-H ) :   0.9613

MP2 TOTAL ENERGY:    -1274.329686423 Eh
FINAL SINGLE POINT ENERGY     -1274.329686423167

DIPOLE MOMENT
-------------
                                X             Y             Z
Electronic contribution:      8.44046      10.24740       5.68740
Nuclear contribution   :     -9.47681     -11.90242      -5.75160
                        -----------------------------------------
Total Dipole Moment    :     -1.03635      -1.65502      -0.06419
                        -----------------------------------------
Magnitude (a.u.)       :      1.95378
Magnitude (Debye)      :      4.96611

Rotational constants in cm-1:     0.012270     0.008872     0.006129
Rotational constants in MHz :   367.849421   265.984137   183.747759

                             ****ORCA TERMINATED NORMALLY****
TOTAL RUN TIME: 0 days 1 hours 44 minutes 58 seconds 871 msec
