                         Program Version 4.2.0 -  RELEASE  -
|  1> ! ri-mp2 cc-pvtz cc-pvtz/c TightSCF NoKeepInts
|  2>
|  3> %scf
|  4>   MaxCore 4096
|  5> end
|  6> *xyz  0  1
|  7>     C       14.3605024   15.5504587   15.8131001
|  8>     C       15.2045564   15.6580648   14.5262323
|  9>     O       16.0930448   16.7837953   14.6398717
| 10>     C       17.1133606   16.7057437   15.5401625
| 11>     O       17.8137393   15.7121085   15.6373369
| 12>     C       17.1492193   17.8289037   16.5337275
| 13>     C       16.8333892   19.1069229   16.2001577
| 14>     C       16.2051211   19.5985239   14.9113673
| 15>     N       17.1297672   20.1626970   17.0657551
| 16>     C       17.9237069   20.0534998   18.1758974
| 17>     S       18.3171719   21.3678226   19.0995558
| 18>     N       18.3934692   18.7981419   18.4702375
| 19>     C       17.9971095   17.5551430   17.7800128
| 20>     C       17.3725929   16.5202749   18.7061565
| 21>     C       17.8962428   15.2172579   18.7823311
| 22>     C       17.3102401   14.2600209   19.6274046
| 23>     C       16.1908947   14.6090383   20.4024108
| 24>     C       15.6651397   15.9061181   20.3256824
| 25>     O       14.5799616   16.2437040   21.0669787
| 26>     C       16.2504130   16.8565298   19.4831431
| 27>     H       14.9892551   15.3055862   16.6793086
| 28>     H       13.6082582   14.7589607   15.7109308
| 29>     H       13.8391370   16.4937683   16.0176701
| 30>     H       15.7693880   14.7300403   14.3611813
| 31>     H       14.5371335   15.8078834   13.6679394
| 32>     H       15.1754367   19.2315063   14.8177193
| 33>     H       16.7706219   19.2432027   14.0406797
| 34>     H       16.1708373   20.6928200   14.8453510
| 35>     H       16.8109923   21.0938266   16.8504488
| 36>     H       18.9596286   18.7417761   19.3074200
| 37>     H       18.9740342   17.2096317   17.4113490
| 38>     H       18.7509180   14.9419874   18.1686483
| 39>     H       17.7206413   13.2528460   19.6735583
| 40>     H       15.7341357   13.8721676   21.0546419
| 41>     H       14.3466555   15.4735204   21.6067120
| 42>     H       15.8302843   17.8557067   19.4369197
| 43> *
| 44>
| 45>                          ****END OF INPUT****

CARTESIAN COORDINATES (ANGSTROEM)
---------------------------------
  C     14.360502   15.550459   15.813100
  C     15.204556   15.658065   14.526232
  O     16.093045   16.783795   14.639872
  C     17.113361   16.705744   15.540162
  O     17.813739   15.712108   15.637337
  C     17.149219   17.828904   16.533728
  C     16.833389   19.106923   16.200158
  C     16.205121   19.598524   14.911367
  N     17.129767   20.162697   17.065755
  C     17.923707   20.053500   18.175897
  S     18.317172   21.367823   19.099556
  N     18.393469   18.798142   18.470237
  C     17.997110   17.555143   17.780013
  C     17.372593   16.520275   18.706156
  C     17.896243   15.217258   18.782331
  C     17.310240   14.260021   19.627405
  C     16.190895   14.609038   20.402411
  C     15.665140   15.906118   20.325682
  O     14.579962   16.243704   21.066979
  C     16.250413   16.856530   19.483143
  H     14.989255   15.305586   16.679309
  H     13.608258   14.758961   15.710931
  H     13.839137   16.493768   16.017670
  H     15.769388   14.730040   14.361181
  H     14.537133   15.807883   13.667939
  H     15.175437   19.231506   14.817719
  H     16.770622   19.243203   14.040680
  H     16.170837   20.692820   14.845351
  H     16.810992   21.093827   16.850449
  H     18.959629   18.741776   19.307420
  H     18.974034   17.209632   17.411349
  H     18.750918   14.941987   18.168648
  H     17.720641   13.252846   19.673558
  H     15.734136   13.872168   21.054642
  H     14.346656   15.473520   21.606712
  H     15.830284   17.855707   19.436920

 Total Charge           Charge          ....    0
 Multiplicity           Mult            ....    1
 Number of Electrons    NEL             ....  154
 Basis Dimension        Dim             ....  828

ORBITAL ENERGIES
----------------

  NO   OCC          E(Eh)            E(eV)
   0   2.0000     -91.888767     -2500.4205
   1   2.0000     -20.594199      -560.3967
   2   2.0000     -20.592745      -560.3571
   3   2.0000     -20.549307      -559.1751
   4   2.0000     -15.629193      -425.2920
   5   2.0000     -15.606637      -424.6782
   6   2.0000     -11.394504      -310.0602
   7   2.0000     -11.383579      -309.7629
   8   2.0000     -11.337762      -308.5162
   9   2.0000     -11.310481      -307.7738
  10   2.0000     -11.305242      -307.6313
  11   2.0000     -11.300898      -307.5131
  12   2.0000     -11.259515      -306.3870
  13   2.0000     -11.259468      -306.3857
  14   2.0000     -11.257351      -306.3281
  15   2.0000     -11.250579      -306.1438
  16   2.0000     -11.240740      -305.8761
  17   2.0000     -11.236637      -305.7644
  18   2.0000     -11.233495      -305.6789
  19   2.0000     -11.228728      -305.5492
  20   2.0000      -8.893845      -242.0138
  21   2.0000      -6.575420      -178.9263
  22   2.0000      -6.573418      -178.8718
  23   2.0000      -6.572829      -178.8558
  24   2.0000      -1.452658       -39.5288
  25   2.0000      -1.413975       -38.4762
  26   2.0000      -1.357109       -36.9288
  27   2.0000      -1.340310       -36.4717
  28   2.0000      -1.237633       -33.6777
  29   2.0000      -1.154971       -31.4283
  30   2.0000      -1.121931       -30.5293
  31   2.0000      -1.043721       -28.4011
  32   2.0000      -1.032818       -28.1044
  33   2.0000      -1.012356       -27.5476
  34   2.0000      -1.000281       -27.2190
  35   2.0000      -0.985485       -26.8164
  36   2.0000      -0.922331       -25.0979
  37   2.0000      -0.894425       -24.3386
  38   2.0000      -0.848106       -23.0781
  39   2.0000      -0.836865       -22.7722
  40   2.0000      -0.830640       -22.6029
  41   2.0000      -0.816360       -22.2143
  42   2.0000      -0.752966       -20.4892
  43   2.0000      -0.736236       -20.0340
  44   2.0000      -0.727799       -19.8044
  45   2.0000      -0.692537       -18.8449
  46   2.0000      -0.686141       -18.6708
  47   2.0000      -0.678658       -18.4672
  48   2.0000      -0.670947       -18.2574
  49   2.0000      -0.660278       -17.9671
  50   2.0000      -0.652893       -17.7661
  51   2.0000      -0.645692       -17.5702
  52   2.0000      -0.634041       -17.2531
  53   2.0000      -0.609702       -16.5908
  54   2.0000      -0.603401       -16.4194
  55   2.0000      -0.600053       -16.3283
  56   2.0000      -0.597656       -16.2631
  57   2.0000      -0.580471       -15.7954
  58   2.0000      -0.574852       -15.6425
  59   2.0000      -0.562707       -15.3120
  60   2.0000      -0.555595       -15.1185
  61   2.0000      -0.551850       -15.0166
  62   2.0000      -0.540080       -14.6963
  63   2.0000      -0.530499       -14.4356
  64   2.0000      -0.518463       -14.1081
  65   2.0000      -0.510526       -13.8921
  66   2.0000      -0.497792       -13.5456
  67   2.0000      -0.494104       -13.4453
  68   2.0000      -0.482114       -13.1190
  69   2.0000      -0.464053       -12.6275
  70   2.0000      -0.459475       -12.5029
  71   2.0000      -0.450079       -12.2473
  72   2.0000      -0.353573        -9.6212
  73   2.0000      -0.346960        -9.4413
  74   2.0000      -0.327853        -8.9213
  75   2.0000      -0.317995        -8.6531
  76   2.0000      -0.317291        -8.6339
  77   0.0000       0.074900         2.0381
  78   0.0000       0.108081         2.9410
  79   0.0000       0.119375         3.2483
  80   0.0000       0.133782         3.6404
  81   0.0000       0.141113         3.8399

MULLIKEN ATOMIC CHARGES
-----------------------
   0 C :   -0.307338
   1 C :    0.031537
   2 O :   -0.367504
   3 C :    0.425228
   4 O :   -0.406628
   5 C :   -0.169523
   6 C :    0.146078
   7 C :   -0.281197
   8 N :   -0.127758
   9 C :    0.208275
  10 S :   -0.441207
  11 N :   -0.211438
  12 C :    0.053226
  13 C :    0.018067
  14 C :   -0.168658
  15 C :   -0.135103
  16 C :   -0.278014
  17 C :    0.314101
  18 O :   -0.358738
  19 C :   -0.249244
  20 H :    0.120980
  21 H :    0.104125
  22 H :    0.094903
  23 H :    0.112084
  24 H :    0.107015
  25 H :    0.125989
  26 H :    0.127171
  27 H :    0.101674
  28 H :    0.198378
  29 H :    0.199385
  30 H :    0.155993
  31 H :    0.162037
  32 H :    0.161075
  33 H :    0.129969
  34 H :    0.240283
  35 H :    0.164775
Sum of atomic charges:   -0.0000000

LOEWDIN ATOMIC CHARGES
----------------------
   0 C :    0.105360
   1 C :   -0.019886
   2 O :    0.297937
   3 C :   -0.418459
   4 O :    0.113753
   5 C :   -0.094214
   6 C :   -0.066509
   7 C :    0.126287
   8 N :    0.405551
   9 C :   -0.457636
  10 S :   -0.036983
  11 N :    0.396146
  12 C :   -0.048066
  13 C :   -0.042267
  14 C :    0.023963
  15 C :    0.041002
  16 C :   -0.001231
  17 C :   -0.193267
  18 O :    0.393607
  19 C :    0.029807
  20 H :   -0.022932
  21 H :   -0.025111
  22 H :   -0.028908
  23 H :   -0.026852
  24 H :   -0.024847
  25 H :   -0.010335
  26 H :   -0.007969
  27 H :   -0.020783
  28 H :   -0.058491
  29 H :   -0.063507
  30 H :   -0.007499
  31 H :   -0.023338
  32 H :   -0.020485
  33 H :   -0.035726
  34 H :   -0.154461
  35 H :   -0.023650

  Mayer bond orders larger than 0.100000
B(  0-C ,  1-C ) :   0.9590 B(  0-C , 20-H ) :   0.9696 B(  0-C , 21-H ) :   0.9768
B(  0-C , 22-H ) :   0.9761 B(  1-C ,  2-O ) :   0.8993 B(  1-C , 23-H ) :   0.9797
B(  1-C , 24-H ) :   0.9842 B(  2-O ,  3-C ) :   1.0933 B(  3-C ,  4-O ) :   2.0149
B(  3-C ,  5-C ) :   1.0226 B(  5-C ,  6-C ) :   1.6670 B(  5-C , 12-C ) :   0.9478
B(  6-C ,  7-C ) :   0.9559 B(  6-C ,  8-N ) :   1.1379 B(  7-C , 25-H ) :   0.9639
B(  7-C , 26-H ) :   0.9657 B(  7-C , 27-H ) :   0.9898 B(  8-N ,  9-C ) :   1.1850
B(  8-N , 28-H ) :   0.9471 B(  9-C , 10-S ) :   1.6107 B(  9-C , 11-N ) :   1.3034
B( 11-N , 12-C ) :   0.9798 B( 11-N , 29-H ) :   0.9487 B( 12-C , 13-C ) :   0.9666
B( 12-C , 30-H ) :   0.9953 B( 13-C , 14-C ) :   1.3806 B( 13-C , 19-C ) :   1.3660
B( 14-C , 15-C ) :   1.3970 B( 14-C , 31-H ) :   0.9622 B( 15-C , 16-C ) :   1.3594
B( 15-C , 32-H ) :   0.9711 B( 16-C , 17-C ) :   1.3322 B( 16-C , 33-H ) :   0.9853
B( 17-C , 18-O ) :   1.1051 B( 17-C , 19-C ) :   1.3666 B( 18-O , 34-H ) :   0.9803
B( 19-C , 35-H ) :   0.9601

MP2 TOTAL ENERGY:    -1274.334519283 Eh
FINAL SINGLE POINT ENERGY     -1274.334519283431

DIPOLE MOMENT
-------------
                                X             Y             Z
Electronic contribution:      9.52229       9.05150       7.96560
Nuclear contribution   :    -10.89095     -10.37948      -8.87776
                        -----------------------------------------
Total Dipole Moment    :     -1.36866      -1.32799      -0.91217
                        -----------------------------------------
Magnitude (a.u.)       :      2.11396
Magnitude (Debye)      :      5.37326

Rotational constants in cm-1:     0.010981     0.009239     0.006153
Rotational constants in MHz :   329.204969   276.971944   184.464656

                             ****ORCA TERMINATED NORMALLY****
TOTAL RUN TIME: 0 days 1 hours 40 minutes 37 seconds 298 msec
