                         Program Version 4.2.0 -  RELEASE  -
|  1> ! ri-mp2 cc-pvtz cc-pvtz/c TightSCF NoKeepInts
|  2>
|  3> %scf
|  4>   MaxCore 4096
|  5> end
|  6> *xyz  0  1
|  7>     C       14.1710450   16.1697860   15.2530423
|  8>     C       15.3122606   15.5729379   16.0961989
|  9>     O       16.5460732   15.7215495   15.3631904
| 10>     C       17.2679929   16.8850576   15.3098006
| 11>     O       18.0076797   17.1249675   14.3739323
| 12>     C       17.0962634   17.8334990   16.4509991
| 13>     C       16.8455557   19.1317950   16.1626500
| 14>     C       16.3517643   19.6671667   14.8355515
| 15>     N       17.0795136   20.1420931   17.0966174
| 16>     C       17.8062390   19.9676444   18.2443846
| 17>     S       18.1591383   21.2261004   19.2573911
| 18>     N       18.2520112   18.6935232   18.4978209
| 19>     C       17.8701967   17.4894181   17.7329971
| 20>     C       17.2999999   16.3667872   18.5861819
| 21>     C       17.7628395   15.0479927   18.4254686
| 22>     C       17.2264131   14.0048105   19.1984403
| 23>     C       16.2217311   14.2833957   20.1409433
| 24>     C       15.7612199   15.5969603   20.3052511
| 25>     O       14.7867566   15.8677698   21.2090849
| 26>     C       16.2946072   16.6333965   19.5323095
| 27>     H       14.2695963   17.2578799   15.1700378
| 28>     H       13.2007245   15.9527620   15.7162356
| 29>     H       14.1709630   15.7410730   14.2427323
| 30>     H       15.3325800   16.0498025   17.0792724
| 31>     H       15.1168352   14.5033789   16.2475367
| 32>     H       15.7581201   18.9231170   14.2916443
| 33>     H       17.2029104   19.9303277   14.1936713
| 34>     H       15.7254737   20.5592725   14.9556257
| 35>     H       16.8036270   21.0898179   16.8932627
| 36>     H       18.7835591   18.5935418   19.3538266
| 37>     H       18.8657505   17.1883371   17.3743462
| 38>     H       18.5343601   14.8288757   17.6907587
| 39>     H       17.5894170   12.9867265   19.0654201
| 40>     H       15.8051410   13.4802488   20.7403202
| 41>     H       14.5861235   15.0445034   21.6798062
| 42>     H       15.9225176   17.6436839   19.6712474
| 43> *
| 44>
| 45>                          ****END OF INPUT****

CARTESIAN COORDINATES (ANGSTROEM)
---------------------------------
  C     14.171045   16.169786   15.253042
  C     15.312261   15.572938   16.096199
  O     16.546073   15.721550   15.363190
  C     17.267993   16.885058   15.309801
  O     18.007680   17.124968   14.373932
  C     17.096263   17.833499   16.450999
  C     16.845556   19.131795   16.162650
  C     16.351764   19.667167   14.835551
  N     17.079514   20.142093   17.096617
  C     17.806239   19.967644   18.244385
  S     18.159138   21.226100   19.257391
  N     18.252011   18.693523   18.497821
  C     17.870197   17.489418   17.732997
  C     17.300000   16.366787   18.586182
  C     17.762839   15.047993   18.425469
  C     17.226413   14.004810   19.198440
  C     16.221731   14.283396   20.140943
  C     15.761220   15.596960   20.305251
  O     14.786757   15.867770   21.209085
  C     16.294607   16.633396   19.532310
  H     14.269596   17.257880   15.170038
  H     13.200724   15.952762   15.716236
  H     14.170963   15.741073   14.242732
  H     15.332580   16.049802   17.079272
  H     15.116835   14.503379   16.247537
  H     15.758120   18.923117   14.291644
  H     17.202910   19.930328   14.193671
  H     15.725474   20.559272   14.955626
  H     16.803627   21.089818   16.893263
  H     18.783559   18.593542   19.353827
  H     18.865751   17.188337   17.374346
  H     18.534360   14.828876   17.690759
  H     17.589417   12.986726   19.065420
  H     15.805141   13.480249   20.740320
  H     14.586123   15.044503   21.679806
  H     15.922518   17.643684   19.671247

 Total Charge           Charge          ....    0
 Multiplicity           Mult            ....    1
 Number of Electrons    NEL             ....  154
 Basis Dimension        Dim             ....  828

ORBITAL ENERGIES
----------------

  NO   OCC          E(Eh)            E(eV)
   0   2.0000     -91.890343     -2500.4634
   1   2.0000     -20.604617      -560.6801
   2   2.0000     -20.598437      -560.5120
   3   2.0000     -20.551393      -559.2318
   4   2.0000     -15.626828      -425.2276
   5   2.0000     -15.611300      -424.8051
   6   2.0000     -11.396855      -310.1242
   7   2.0000     -11.385836      -309.8243
   8   2.0000     -11.329471      -308.2906
   9   2.0000     -11.323198      -308.1199
  10   2.0000     -11.317439      -307.9632
  11   2.0000     -11.300240      -307.4952
  12   2.0000     -11.270560      -306.6875
  13   2.0000     -11.264277      -306.5166
  14   2.0000     -11.258266      -306.3530
  15   2.0000     -11.257954      -306.3445
  16   2.0000     -11.252566      -306.1979
  17   2.0000     -11.247544      -306.0612
  18   2.0000     -11.247353      -306.0560
  19   2.0000     -11.232472      -305.6511
  20   2.0000      -8.895417      -242.0566
  21   2.0000      -6.576991      -178.9690
  22   2.0000      -6.574988      -178.9145
  23   2.0000      -6.574400      -178.8985
  24   2.0000      -1.446634       -39.3649
  25   2.0000      -1.424363       -38.7589
  26   2.0000      -1.360459       -37.0200
  27   2.0000      -1.340372       -36.4734
  28   2.0000      -1.240276       -33.7496
  29   2.0000      -1.166508       -31.7423
  30   2.0000      -1.125668       -30.6310
  31   2.0000      -1.051275       -28.6067
  32   2.0000      -1.036810       -28.2130
  33   2.0000      -1.024632       -27.8816
  34   2.0000      -1.004138       -27.3240
  35   2.0000      -0.989943       -26.9377
  36   2.0000      -0.927513       -25.2389
  37   2.0000      -0.891730       -24.2652
  38   2.0000      -0.852238       -23.1906
  39   2.0000      -0.844684       -22.9850
  40   2.0000      -0.842828       -22.9345
  41   2.0000      -0.834828       -22.7168
  42   2.0000      -0.756906       -20.5965
  43   2.0000      -0.739319       -20.1179
  44   2.0000      -0.722227       -19.6528
  45   2.0000      -0.702911       -19.1272
  46   2.0000      -0.693628       -18.8746
  47   2.0000      -0.679731       -18.4964
  48   2.0000      -0.677781       -18.4434
  49   2.0000      -0.667751       -18.1704
  50   2.0000      -0.651202       -17.7201
  51   2.0000      -0.646650       -17.5962
  52   2.0000      -0.632928       -17.2228
  53   2.0000      -0.618683       -16.8352
  54   2.0000      -0.613530       -16.6950
  55   2.0000      -0.607742       -16.5375
  56   2.0000      -0.604539       -16.4503
  57   2.0000      -0.584429       -15.9031
  58   2.0000      -0.578937       -15.7537
  59   2.0000      -0.567218       -15.4348
  60   2.0000      -0.561186       -15.2707
  61   2.0000      -0.550741       -14.9864
  62   2.0000      -0.548290       -14.9197
  63   2.0000      -0.533072       -14.5056
  64   2.0000      -0.527968       -14.3667
  65   2.0000      -0.518251       -14.1023
  66   2.0000      -0.506381       -13.7793
  67   2.0000      -0.504268       -13.7218
  68   2.0000      -0.486918       -13.2497
  69   2.0000      -0.466570       -12.6960
  70   2.0000      -0.455084       -12.3835
  71   2.0000      -0.449351       -12.2275
  72   2.0000      -0.358520        -9.7558
  73   2.0000      -0.352260        -9.5855
  74   2.0000      -0.331453        -9.0193
  75   2.0000      -0.329127        -8.9560
  76   2.0000      -0.320504        -8.7214
  77   0.0000       0.085812         2.3351
  78   0.0000       0.096642         2.6298
  79   0.0000       0.121369         3.3026
  80   0.0000       0.127057         3.4574
  81   0.0000       0.128088         3.4855

MULLIKEN ATOMIC CHARGES
-----------------------
   0 C :   -0.291519
   1 C :    0.032788
   2 O :   -0.323785
   3 C :    0.406140
   4 O :   -0.374239
   5 C :   -0.206760
   6 C :    0.144282
   7 C :   -0.294274
   8 N :   -0.135048
   9 C :    0.213127
  10 S :   -0.440369
  11 N :   -0.221907
  12 C :    0.028061
  13 C :    0.010768
  14 C :   -0.191679
  15 C :   -0.137371
  16 C :   -0.271650
  17 C :    0.309679
  18 O :   -0.353292
  19 C :   -0.235967
  20 H :    0.086281
  21 H :    0.101853
  22 H :    0.112410
  23 H :    0.103906
  24 H :    0.121611
  25 H :    0.114930
  26 H :    0.147216
  27 H :    0.102479
  28 H :    0.197972
  29 H :    0.202568
  30 H :    0.163095
  31 H :    0.157972
  32 H :    0.166103
  33 H :    0.135429
  34 H :    0.241716
  35 H :    0.177473
Sum of atomic charges:    0.0000000

LOEWDIN ATOMIC CHARGES
----------------------
   0 C :    0.104459
   1 C :   -0.020126
   2 O :    0.306373
   3 C :   -0.421421
   4 O :    0.125954
   5 C :   -0.095508
   6 C :   -0.082963
   7 C :    0.128850
   8 N :    0.405197
   9 C :   -0.455236
  10 S :   -0.035797
  11 N :    0.395710
  12 C :   -0.053945
  13 C :   -0.046164
  14 C :    0.020484
  15 C :    0.045342
  16 C :    0.001502
  17 C :   -0.191123
  18 O :    0.397300
  19 C :    0.029394
  20 H :   -0.034571
  21 H :   -0.024568
  22 H :   -0.023216
  23 H :   -0.038364
  24 H :   -0.021142
  25 H :   -0.012865
  26 H :   -0.003670
  27 H :   -0.019691
  28 H :   -0.057299
  29 H :   -0.063869
  30 H :   -0.008650
  31 H :   -0.025293
  32 H :   -0.017975
  33 H :   -0.033528
  34 H :   -0.152175
  35 H :   -0.021406

  Mayer bond orders larger than 0.100000
B(  0-C ,  1-C ) :   0.9755 B(  0-C , 20-H ) :   0.9772 B(  0-C , 21-H ) :   0.9771
B(  0-C , 22-H ) :   0.9765 B(  1-C ,  2-O ) :   0.8846 B(  1-C , 23-H ) :   0.9552
B(  1-C , 24-H ) :   0.9809 B(  2-O ,  3-C ) :   1.1745 B(  3-C ,  4-O ) :   2.1254
B(  3-C ,  5-C ) :   0.9108 B(  5-C ,  6-C ) :   1.7015 B(  5-C , 12-C ) :   0.9564
B(  6-C ,  7-C ) :   0.9489 B(  6-C ,  8-N ) :   1.1245 B(  7-C , 25-H ) :   0.9786
B(  7-C , 26-H ) :   0.9569 B(  7-C , 27-H ) :   0.9818 B(  8-N ,  9-C ) :   1.1994
B(  8-N , 28-H ) :   0.9497 B(  9-C , 10-S ) :   1.6126 B(  9-C , 11-N ) :   1.2862
B( 11-N , 12-C ) :   0.9792 B( 11-N , 29-H ) :   0.9457 B( 12-C , 13-C ) :   0.9656
B( 12-C , 30-H ) :   1.0024 B( 13-C , 14-C ) :   1.3789 B( 13-C , 19-C ) :   1.3475
B( 14-C , 15-C ) :   1.3958 B( 14-C , 31-H ) :   0.9703 B( 15-C , 16-C ) :   1.3618
B( 15-C , 32-H ) :   0.9692 B( 16-C , 17-C ) :   1.3314 B( 16-C , 33-H ) :   0.9830
B( 17-C , 18-O ) :   1.1121 B( 17-C , 19-C ) :   1.3610 B( 18-O , 34-H ) :   0.9787
B( 19-C , 35-H ) :   0.9563

MP2 TOTAL ENERGY:    -1274.324788920 Eh
FINAL SINGLE POINT ENERGY     -1274.324788920333

DIPOLE MOMENT
-------------
                                X             Y             Z
Electronic contribution:      9.83897       6.91551       8.06184
Nuclear contribution   :    -11.34809      -8.60567      -7.89918
                        -----------------------------------------
Total Dipole Moment    :     -1.50912      -1.69015       0.16266
                        -----------------------------------------
Magnitude (a.u.)       :      2.27168
Magnitude (Debye)      :      5.77414

Rotational constants in cm-1:     0.011632     0.009113     0.006199
Rotational constants in MHz :   348.705002   273.211551   185.830546

                             ****ORCA TERMINATED NORMALLY****
TOTAL RUN TIME: 0 days 1 hours 46 minutes 55 seconds 264 msec
