                         Program Version 4.2.0 -  RELEASE  -
|  1> ! ri-mp2 cc-pvtz cc-pvtz/c TightSCF NoKeepInts
|  2>
|  3> %scf
|  4>   MaxCore 4096
|  5> end
|  6> *xyz  0  1
|  7>     C       14.6947030   14.9589458   14.2655668
|  8>     C       15.3692655   14.9839163   15.6536444
|  9>     O       16.3935444   15.9976003   15.7469750
| 10>     C       16.1248336   17.3345533   15.6221656
| 11>     O       15.3270886   17.7811736   14.8175089
| 12>     C       16.8356157   18.1560703   16.6656176
| 13>     C       16.9067109   19.5082418   16.5585648
| 14>     C       16.1301861   20.3951891   15.6070578
| 15>     N       17.7737610   20.2498236   17.3644167
| 16>     C       18.7373274   19.7066946   18.1702076
| 17>     S       19.7941993   20.6462767   19.0280786
| 18>     N       18.7957854   18.3369245   18.2136971
| 19>     C       17.8353150   17.4185650   17.5736068
| 20>     C       17.1858431   16.4651270   18.5685289
| 21>     C       17.5417121   15.1039394   18.5923024
| 22>     C       16.9377995   14.2244812   19.5066413
| 23>     C       15.9735195   14.7114494   20.4058470
| 24>     C       15.6216230   16.0683232   20.3873642
| 25>     O       14.6919015   16.5412231   21.2550035
| 26>     C       16.2236562   16.9408235   19.4753574
| 27>     H       13.9773087   15.7806456   14.1526741
| 28>     H       14.1432328   14.0211873   14.1282069
| 29>     H       15.4430178   15.0355047   13.4669644
| 30>     H       14.6097496   15.1441474   16.4304820
| 31>     H       15.8315101   14.0058344   15.8384250
| 32>     H       15.0519600   20.2144550   15.7045865
| 33>     H       16.4053459   20.1807036   14.5664996
| 34>     H       16.2987137   21.4645756   15.7801014
| 35>     H       17.7559030   21.2563500   17.3247225
| 36>     H       19.4966175   17.9654258   18.8423546
| 37>     H       18.5066525   16.8726606   16.8955060
| 38>     H       18.2841765   14.7262967   17.8941600
| 39>     H       17.2182871   13.1725986   19.5178493
| 40>     H       15.5052419   14.0366144   21.1149057
| 41>     H       14.4214917   15.8047127   21.8236624
| 42>     H       15.9434007   17.9889461   19.4787473
| 43> *
| 44>
| 45>                          ****END OF INPUT****

CARTESIAN COORDINATES (ANGSTROEM)
---------------------------------
  C     14.694703   14.958946   14.265567
  C     15.369265   14.983916   15.653644
  O     16.393544   15.997600   15.746975
  C     16.124834   17.334553   15.622166
  O     15.327089   17.781174   14.817509
  C     16.835616   18.156070   16.665618
  C     16.906711   19.508242   16.558565
  C     16.130186   20.395189   15.607058
  N     17.773761   20.249824   17.364417
  C     18.737327   19.706695   18.170208
  S     19.794199   20.646277   19.028079
  N     18.795785   18.336924   18.213697
  C     17.835315   17.418565   17.573607
  C     17.185843   16.465127   18.568529
  C     17.541712   15.103939   18.592302
  C     16.937799   14.224481   19.506641
  C     15.973519   14.711449   20.405847
  C     15.621623   16.068323   20.387364
  O     14.691902   16.541223   21.255003
  C     16.223656   16.940824   19.475357
  H     13.977309   15.780646   14.152674
  H     14.143233   14.021187   14.128207
  H     15.443018   15.035505   13.466964
  H     14.609750   15.144147   16.430482
  H     15.831510   14.005834   15.838425
  H     15.051960   20.214455   15.704586
  H     16.405346   20.180704   14.566500
  H     16.298714   21.464576   15.780101
  H     17.755903   21.256350   17.324723
  H     19.496617   17.965426   18.842355
  H     18.506653   16.872661   16.895506
  H     18.284176   14.726297   17.894160
  H     17.218287   13.172599   19.517849
  H     15.505242   14.036614   21.114906
  H     14.421492   15.804713   21.823662
  H     15.943401   17.988946   19.478747

 Total Charge           Charge          ....    0
 Multiplicity           Mult            ....    1
 Number of Electrons    NEL             ....  154
 Basis Dimension        Dim             ....  828

ORBITAL ENERGIES
----------------

  NO   OCC          E(Eh)            E(eV)
   0   2.0000     -91.889035     -2500.4278
   1   2.0000     -20.598038      -560.5011
   2   2.0000     -20.592014      -560.3372
   3   2.0000     -20.543350      -559.0130
   4   2.0000     -15.629422      -425.2982
   5   2.0000     -15.607022      -424.6886
   6   2.0000     -11.395606      -310.0902
   7   2.0000     -11.383624      -309.7642
   8   2.0000     -11.337392      -308.5061
   9   2.0000     -11.315367      -307.9068
  10   2.0000     -11.307427      -307.6907
  11   2.0000     -11.300080      -307.4908
  12   2.0000     -11.262110      -306.4576
  13   2.0000     -11.258082      -306.3480
  14   2.0000     -11.256768      -306.3122
  15   2.0000     -11.251958      -306.1813
  16   2.0000     -11.245024      -305.9926
  17   2.0000     -11.240264      -305.8631
  18   2.0000     -11.239962      -305.8549
  19   2.0000     -11.218310      -305.2657
  20   2.0000      -8.894105      -242.0209
  21   2.0000      -6.575677      -178.9333
  22   2.0000      -6.573680      -178.8789
  23   2.0000      -6.573088      -178.8628
  24   2.0000      -1.445674       -39.3388
  25   2.0000      -1.417700       -38.5776
  26   2.0000      -1.354600       -36.8606
  27   2.0000      -1.340512       -36.4772
  28   2.0000      -1.238380       -33.6980
  29   2.0000      -1.158747       -31.5311
  30   2.0000      -1.120850       -30.4999
  31   2.0000      -1.043522       -28.3957
  32   2.0000      -1.033703       -28.1285
  33   2.0000      -1.016461       -27.6593
  34   2.0000      -0.995831       -27.0980
  35   2.0000      -0.984208       -26.7817
  36   2.0000      -0.922213       -25.0947
  37   2.0000      -0.890972       -24.2446
  38   2.0000      -0.847276       -23.0555
  39   2.0000      -0.839198       -22.8357
  40   2.0000      -0.835525       -22.7358
  41   2.0000      -0.821092       -22.3430
  42   2.0000      -0.751105       -20.4386
  43   2.0000      -0.733377       -19.9562
  44   2.0000      -0.719620       -19.5819
  45   2.0000      -0.696539       -18.9538
  46   2.0000      -0.688800       -18.7432
  47   2.0000      -0.679364       -18.4864
  48   2.0000      -0.669495       -18.2179
  49   2.0000      -0.655042       -17.8246
  50   2.0000      -0.648312       -17.6415
  51   2.0000      -0.645814       -17.5735
  52   2.0000      -0.634789       -17.2735
  53   2.0000      -0.608314       -16.5531
  54   2.0000      -0.602296       -16.3893
  55   2.0000      -0.600156       -16.3311
  56   2.0000      -0.594908       -16.1883
  57   2.0000      -0.582058       -15.8386
  58   2.0000      -0.575701       -15.6656
  59   2.0000      -0.569888       -15.5075
  60   2.0000      -0.563230       -15.3263
  61   2.0000      -0.540446       -14.7063
  62   2.0000      -0.534951       -14.5567
  63   2.0000      -0.525040       -14.2871
  64   2.0000      -0.519333       -14.1318
  65   2.0000      -0.512891       -13.9565
  66   2.0000      -0.500180       -13.6106
  67   2.0000      -0.497176       -13.5288
  68   2.0000      -0.484620       -13.1872
  69   2.0000      -0.463743       -12.6191
  70   2.0000      -0.455524       -12.3955
  71   2.0000      -0.439725       -11.9655
  72   2.0000      -0.353022        -9.6062
  73   2.0000      -0.350928        -9.5492
  74   2.0000      -0.328316        -8.9339
  75   2.0000      -0.322695        -8.7810
  76   2.0000      -0.318295        -8.6613
  77   0.0000       0.074656         2.0315
  78   0.0000       0.103547         2.8177
  79   0.0000       0.124777         3.3954
  80   0.0000       0.132070         3.5938
  81   0.0000       0.136208         3.7064

MULLIKEN ATOMIC CHARGES
-----------------------
   0 C :   -0.279185
   1 C :    0.044147
   2 O :   -0.370280
   3 C :    0.447194
   4 O :   -0.428180
   5 C :   -0.231847
   6 C :    0.177117
   7 C :   -0.267099
   8 N :   -0.125690
   9 C :    0.211511
  10 S :   -0.441821
  11 N :   -0.216650
  12 C :    0.071095
  13 C :    0.033493
  14 C :   -0.181508
  15 C :   -0.131266
  16 C :   -0.278021
  17 C :    0.315782
  18 O :   -0.356351
  19 C :   -0.249498
  20 H :    0.117587
  21 H :    0.091240
  22 H :    0.096410
  23 H :    0.091644
  24 H :    0.099942
  25 H :    0.133104
  26 H :    0.129231
  27 H :    0.094795
  28 H :    0.199466
  29 H :    0.200520
  30 H :    0.151875
  31 H :    0.153431
  32 H :    0.161795
  33 H :    0.131251
  34 H :    0.240866
  35 H :    0.163897
Sum of atomic charges:   -0.0000000

LOEWDIN ATOMIC CHARGES
----------------------
   0 C :    0.103801
   1 C :   -0.014837
   2 O :    0.295049
   3 C :   -0.413528
   4 O :    0.110653
   5 C :   -0.096995
   6 C :   -0.055704
   7 C :    0.130974
   8 N :    0.407254
   9 C :   -0.456448
  10 S :   -0.036429
  11 N :    0.394425
  12 C :   -0.054703
  13 C :   -0.038959
  14 C :    0.017577
  15 C :    0.038860
  16 C :   -0.001271
  17 C :   -0.190083
  18 O :    0.395303
  19 C :    0.032268
  20 H :   -0.027433
  21 H :   -0.030599
  22 H :   -0.025495
  23 H :   -0.029683
  24 H :   -0.024463
  25 H :   -0.004556
  26 H :   -0.004906
  27 H :   -0.023653
  28 H :   -0.057189
  29 H :   -0.064536
  30 H :   -0.013199
  31 H :   -0.028746
  32 H :   -0.021101
  33 H :   -0.035266
  34 H :   -0.153694
  35 H :   -0.022689

  Mayer bond orders larger than 0.100000
B(  0-C ,  1-C ) :   0.9804 B(  0-C , 20-H ) :   0.9722 B(  0-C , 21-H ) :   0.9773
B(  0-C , 22-H ) :   0.9753 B(  1-C ,  2-O ) :   0.8959 B(  1-C , 23-H ) :   0.9729
B(  1-C , 24-H ) :   0.9824 B(  2-O ,  3-C ) :   1.1089 B(  3-C ,  4-O ) :   1.9761
B(  3-C ,  5-C ) :   1.0821 B(  5-C ,  6-C ) :   1.6326 B(  5-C , 12-C ) :   0.9552
B(  6-C ,  7-C ) :   0.9657 B(  6-C ,  8-N ) :   1.1540 B(  7-C , 25-H ) :   0.9608
B(  7-C , 26-H ) :   0.9589 B(  7-C , 27-H ) :   0.9908 B(  8-N ,  9-C ) :   1.1866
B(  8-N , 28-H ) :   0.9463 B(  9-C , 10-S ) :   1.6058 B(  9-C , 11-N ) :   1.3099
B( 11-N , 12-C ) :   0.9656 B( 11-N , 29-H ) :   0.9484 B( 12-C , 13-C ) :   0.9614
B( 12-C , 30-H ) :   1.0007 B( 13-C , 14-C ) :   1.3542 B( 13-C , 19-C ) :   1.3809
B( 14-C , 15-C ) :   1.3925 B( 14-C , 31-H ) :   0.9718 B( 15-C , 16-C ) :   1.3599
B( 15-C , 32-H ) :   0.9705 B( 16-C , 17-C ) :   1.3334 B( 16-C , 33-H ) :   0.9846
B( 17-C , 18-O ) :   1.1054 B( 17-C , 19-C ) :   1.3646 B( 18-O , 34-H ) :   0.9796
B( 19-C , 35-H ) :   0.9594

MP2 TOTAL ENERGY:    -1274.333108909 Eh
FINAL SINGLE POINT ENERGY     -1274.333108909206

DIPOLE MOMENT
-------------
                                X             Y             Z
Electronic contribution:      9.73535       9.75489       9.73688
Nuclear contribution   :    -10.80212     -11.43509      -9.93533
                        -----------------------------------------
Total Dipole Moment    :     -1.06677      -1.68020      -0.19845
                        -----------------------------------------
Magnitude (a.u.)       :      2.00011
Magnitude (Debye)      :      5.08388

Rotational constants in cm-1:     0.011235     0.008656     0.005847
Rotational constants in MHz :   336.827029   259.515247   175.287974

                             ****ORCA TERMINATED NORMALLY****
TOTAL RUN TIME: 0 days 1 hours 39 minutes 3 seconds 610 msec
