                         Program Version 4.2.0 -  RELEASE  -
|  1> ! ri-mp2 cc-pvtz cc-pvtz/c TightSCF NoKeepInts
|  2>
|  3> %scf
|  4>   MaxCore 4096
|  5> end
|  6> *xyz  0  1
|  7>     C       14.6233482   14.9002135   13.7381128
|  8>     C       14.6251946   15.6886866   15.0586746
|  9>     O       15.7049799   16.6355950   14.9968784
| 10>     C       16.7437130   16.4811026   15.8651356
| 11>     O       17.2570083   15.3931445   16.0649789
| 12>     C       17.0575184   17.6935521   16.6937822
| 13>     C       16.9170415   18.9590617   16.2183759
| 14>     C       16.2391575   19.4009340   14.9362739
| 15>     N       17.4726326   20.0433028   16.9024423
| 16>     C       18.3638268   19.9327427   17.9355421
| 17>     S       19.0672102   21.2602647   18.6271323
| 18>     N       18.6599650   18.6595920   18.3519746
| 19>     C       17.9880629   17.4315359   17.8844197
| 20>     C       17.3287553   16.6411381   19.0069865
| 21>     C       17.6457539   15.2863151   19.2123560
| 22>     C       17.0367034   14.5589001   20.2486366
| 23>     C       16.1035450   15.1922448   21.0873660
| 24>     C       15.7842149   16.5417792   20.8834364
| 25>     O       14.8800745   17.1544984   21.6886462
| 26>     C       16.3914684   17.2628650   19.8503525
| 27>     H       14.5067864   15.5759012   12.8818112
| 28>     H       13.7991838   14.1768625   13.7220173
| 29>     H       15.5651495   14.3491544   13.6196451
| 30>     H       13.6718770   16.2214921   15.1679567
| 31>     H       14.7347484   15.0019667   15.9101296
| 32>     H       16.6592636   18.8733439   14.0705666
| 33>     H       16.3535698   20.4743781   14.7421222
| 34>     H       15.1635060   19.1883538   14.9725130
| 35>     H       17.2832558   20.9830672   16.5927048
| 36>     H       19.3045660   18.6063366   19.1306266
| 37>     H       18.8482838   16.8807297   17.4766046
| 38>     H       18.3562126   14.7920624   18.5537187
| 39>     H       17.2855358   13.5091985   20.3939968
| 40>     H       15.6300000   14.6337794   21.8878981
| 41>     H       14.6005918   16.5085086   22.3545696
| 42>     H       16.1342954   18.3073960   19.7096156
| 43> *
| 44>
| 45>                          ****END OF INPUT****

CARTESIAN COORDINATES (ANGSTROEM)
---------------------------------
  C     14.623348   14.900213   13.738113
  C     14.625195   15.688687   15.058675
  O     15.704980   16.635595   14.996878
  C     16.743713   16.481103   15.865136
  O     17.257008   15.393144   16.064979
  C     17.057518   17.693552   16.693782
  C     16.917041   18.959062   16.218376
  C     16.239158   19.400934   14.936274
  N     17.472633   20.043303   16.902442
  C     18.363827   19.932743   17.935542
  S     19.067210   21.260265   18.627132
  N     18.659965   18.659592   18.351975
  C     17.988063   17.431536   17.884420
  C     17.328755   16.641138   19.006987
  C     17.645754   15.286315   19.212356
  C     17.036703   14.558900   20.248637
  C     16.103545   15.192245   21.087366
  C     15.784215   16.541779   20.883436
  O     14.880074   17.154498   21.688646
  C     16.391468   17.262865   19.850352
  H     14.506786   15.575901   12.881811
  H     13.799184   14.176863   13.722017
  H     15.565150   14.349154   13.619645
  H     13.671877   16.221492   15.167957
  H     14.734748   15.001967   15.910130
  H     16.659264   18.873344   14.070567
  H     16.353570   20.474378   14.742122
  H     15.163506   19.188354   14.972513
  H     17.283256   20.983067   16.592705
  H     19.304566   18.606337   19.130627
  H     18.848284   16.880730   17.476605
  H     18.356213   14.792062   18.553719
  H     17.285536   13.509199   20.393997
  H     15.630000   14.633779   21.887898
  H     14.600592   16.508509   22.354570
  H     16.134295   18.307396   19.709616

 Total Charge           Charge          ....    0
 Multiplicity           Mult            ....    1
 Number of Electrons    NEL             ....  154
 Basis Dimension        Dim             ....  828

ORBITAL ENERGIES
----------------

  NO   OCC          E(Eh)            E(eV)
   0   2.0000     -91.888713     -2500.4190
   1   2.0000     -20.594020      -560.3918
   2   2.0000     -20.592838      -560.3596
   3   2.0000     -20.549383      -559.1771
   4   2.0000     -15.629469      -425.2995
   5   2.0000     -15.606311      -424.6693
   6   2.0000     -11.395329      -310.0827
   7   2.0000     -11.383330      -309.7561
   8   2.0000     -11.338840      -308.5455
   9   2.0000     -11.308929      -307.7316
  10   2.0000     -11.304744      -307.6177
  11   2.0000     -11.301620      -307.5327
  12   2.0000     -11.260360      -306.4100
  13   2.0000     -11.259845      -306.3960
  14   2.0000     -11.256175      -306.2961
  15   2.0000     -11.249000      -306.1009
  16   2.0000     -11.239160      -305.8331
  17   2.0000     -11.235287      -305.7277
  18   2.0000     -11.232009      -305.6385
  19   2.0000     -11.226704      -305.4941
  20   2.0000      -8.893791      -242.0124
  21   2.0000      -6.575366      -178.9248
  22   2.0000      -6.573365      -178.8703
  23   2.0000      -6.572775      -178.8543
  24   2.0000      -1.453954       -39.5641
  25   2.0000      -1.412584       -38.4384
  26   2.0000      -1.357935       -36.9513
  27   2.0000      -1.340560       -36.4785
  28   2.0000      -1.237643       -33.6780
  29   2.0000      -1.153488       -31.3880
  30   2.0000      -1.121563       -30.5193
  31   2.0000      -1.043565       -28.3968
  32   2.0000      -1.034930       -28.1619
  33   2.0000      -1.011011       -27.5110
  34   2.0000      -0.999293       -27.1921
  35   2.0000      -0.984234       -26.7824
  36   2.0000      -0.921458       -25.0741
  37   2.0000      -0.885597       -24.0983
  38   2.0000      -0.848544       -23.0901
  39   2.0000      -0.836595       -22.7649
  40   2.0000      -0.829188       -22.5634
  41   2.0000      -0.823996       -22.4221
  42   2.0000      -0.758774       -20.6473
  43   2.0000      -0.735764       -20.0212
  44   2.0000      -0.727165       -19.7872
  45   2.0000      -0.691353       -18.8127
  46   2.0000      -0.686850       -18.6901
  47   2.0000      -0.680120       -18.5070
  48   2.0000      -0.671073       -18.2608
  49   2.0000      -0.657846       -17.9009
  50   2.0000      -0.646630       -17.5957
  51   2.0000      -0.640875       -17.4391
  52   2.0000      -0.630926       -17.1684
  53   2.0000      -0.612355       -16.6630
  54   2.0000      -0.603178       -16.4133
  55   2.0000      -0.599464       -16.3122
  56   2.0000      -0.596048       -16.2193
  57   2.0000      -0.583989       -15.8911
  58   2.0000      -0.574058       -15.6209
  59   2.0000      -0.564973       -15.3737
  60   2.0000      -0.561697       -15.2845
  61   2.0000      -0.548984       -14.9386
  62   2.0000      -0.535598       -14.5744
  63   2.0000      -0.520662       -14.1679
  64   2.0000      -0.516892       -14.0654
  65   2.0000      -0.510153       -13.8820
  66   2.0000      -0.503740       -13.7075
  67   2.0000      -0.495076       -13.4717
  68   2.0000      -0.480881       -13.0854
  69   2.0000      -0.462811       -12.5937
  70   2.0000      -0.457211       -12.4413
  71   2.0000      -0.453852       -12.3499
  72   2.0000      -0.353699        -9.6246
  73   2.0000      -0.345588        -9.4039
  74   2.0000      -0.327755        -8.9187
  75   2.0000      -0.317893        -8.6503
  76   2.0000      -0.315644        -8.5891
  77   0.0000       0.074242         2.0202
  78   0.0000       0.110134         2.9969
  79   0.0000       0.121141         3.2964
  80   0.0000       0.134994         3.6734
  81   0.0000       0.139474         3.7953

MULLIKEN ATOMIC CHARGES
-----------------------
   0 C :   -0.265908
   1 C :    0.038632
   2 O :   -0.362334
   3 C :    0.428259
   4 O :   -0.408539
   5 C :   -0.175752
   6 C :    0.153320
   7 C :   -0.279376
   8 N :   -0.128133
   9 C :    0.207275
  10 S :   -0.441276
  11 N :   -0.210965
  12 C :    0.041347
  13 C :    0.032372
  14 C :   -0.172358
  15 C :   -0.134413
  16 C :   -0.277468
  17 C :    0.313817
  18 O :   -0.358845
  19 C :   -0.251782
  20 H :    0.090580
  21 H :    0.088604
  22 H :    0.108546
  23 H :    0.097489
  24 H :    0.101834
  25 H :    0.126994
  26 H :    0.102288
  27 H :    0.126788
  28 H :    0.198920
  29 H :    0.199961
  30 H :    0.156062
  31 H :    0.160587
  32 H :    0.160674
  33 H :    0.128693
  34 H :    0.240093
  35 H :    0.164014
Sum of atomic charges:   -0.0000000

LOEWDIN ATOMIC CHARGES
----------------------
   0 C :    0.105513
   1 C :   -0.015767
   2 O :    0.302247
   3 C :   -0.419698
   4 O :    0.112698
   5 C :   -0.094357
   6 C :   -0.064303
   7 C :    0.125753
   8 N :    0.405713
   9 C :   -0.458404
  10 S :   -0.036830
  11 N :    0.396237
  12 C :   -0.048384
  13 C :   -0.040994
  14 C :    0.024320
  15 C :    0.040827
  16 C :   -0.001231
  17 C :   -0.192693
  18 O :    0.393139
  19 C :    0.029250
  20 H :   -0.029251
  21 H :   -0.027944
  22 H :   -0.022426
  23 H :   -0.030540
  24 H :   -0.025402
  25 H :   -0.008393
  26 H :   -0.020860
  27 H :   -0.009544
  28 H :   -0.058482
  29 H :   -0.063227
  30 H :   -0.007879
  31 H :   -0.023722
  32 H :   -0.020838
  33 H :   -0.036037
  34 H :   -0.154683
  35 H :   -0.023814

  Mayer bond orders larger than 0.100000
B(  0-C ,  1-C ) :   0.9768 B(  0-C , 20-H ) :   0.9786 B(  0-C , 21-H ) :   0.9760
B(  0-C , 22-H ) :   0.9764 B(  1-C ,  2-O ) :   0.8912 B(  1-C , 23-H ) :   0.9808
B(  1-C , 24-H ) :   0.9716 B(  2-O ,  3-C ) :   1.0896 B(  3-C ,  4-O ) :   2.0047
B(  3-C ,  5-C ) :   1.0431 B(  5-C ,  6-C ) :   1.6562 B(  5-C , 12-C ) :   0.9473
B(  6-C ,  7-C ) :   0.9546 B(  6-C ,  8-N ) :   1.1365 B(  7-C , 25-H ) :   0.9655
B(  7-C , 26-H ) :   0.9905 B(  7-C , 27-H ) :   0.9641 B(  8-N ,  9-C ) :   1.1847
B(  8-N , 28-H ) :   0.9469 B(  9-C , 10-S ) :   1.6097 B(  9-C , 11-N ) :   1.3054
B( 11-N , 12-C ) :   0.9760 B( 11-N , 29-H ) :   0.9484 B( 12-C , 13-C ) :   0.9718
B( 12-C , 30-H ) :   0.9965 B( 13-C , 14-C ) :   1.3769 B( 13-C , 19-C ) :   1.3649
B( 14-C , 15-C ) :   1.3972 B( 14-C , 31-H ) :   0.9632 B( 15-C , 16-C ) :   1.3589
B( 15-C , 32-H ) :   0.9710 B( 16-C , 17-C ) :   1.3331 B( 16-C , 33-H ) :   0.9858
B( 17-C , 18-O ) :   1.1040 B( 17-C , 19-C ) :   1.3673 B( 18-O , 34-H ) :   0.9805
B( 19-C , 35-H ) :   0.9601

MP2 TOTAL ENERGY:    -1274.331553533 Eh
FINAL SINGLE POINT ENERGY     -1274.331553533488

DIPOLE MOMENT
-------------
                                X             Y             Z
Electronic contribution:     10.16592      10.08804      11.57825
Nuclear contribution   :    -11.75880     -11.26144     -12.32335
                        -----------------------------------------
Total Dipole Moment    :     -1.59288      -1.17340      -0.74510
                        -----------------------------------------
Magnitude (a.u.)       :      2.11407
Magnitude (Debye)      :      5.37354

Rotational constants in cm-1:     0.009874     0.009063     0.005550
Rotational constants in MHz :   296.029487   271.715804   166.373251

                             ****ORCA TERMINATED NORMALLY****
TOTAL RUN TIME: 0 days 1 hours 33 minutes 8 seconds 974 msec
