                         Program Version 4.2.0 -  RELEASE  -
|  1> ! ri-mp2 cc-pvtz cc-pvtz/c TightSCF NoKeepInts
|  2>
|  3> %scf
|  4>   MaxCore 4096
|  5> end
|  6> *xyz  0  1
|  7>     C       13.7505634   15.5944107   14.3202480
|  8>     C       15.2831573   15.5509103   14.1989419
|  9>     O       15.7981291   16.6939159   14.9072071
| 10>     C       16.7942324   16.5452286   15.8295830
| 11>     O       17.4273397   15.5087188   15.9459394
| 12>     C       17.0092233   17.7292663   16.7324769
| 13>     C       16.7070353   19.0053149   16.3704850
| 14>     C       15.9098999   19.4753347   15.1691107
| 15>     N       17.1728956   20.0884385   17.1205935
| 16>     C       18.1163085   20.0004938   18.1079739
| 17>     S       18.7013944   21.3420459   18.8783842
| 18>     N       18.5674440   18.7409124   18.4087991
| 19>     C       18.0149637   17.4849531   17.8659370
| 20>     C       17.4990935   16.5441622   18.9470707
| 21>     C       17.9922029   15.2310153   19.0511132
| 22>     C       17.5174174   14.3664559   20.0516919
| 23>     C       16.5424480   14.8196605   20.9569132
| 24>     C       16.0482499   16.1273721   20.8543803
| 25>     O       15.1042119   16.5662821   21.7247578
| 26>     C       16.5225499   16.9853735   19.8569984
| 27>     H       13.4450114   15.5391016   15.3726924
| 28>     H       13.2987193   14.7487905   13.7875261
| 29>     H       13.3536184   16.5228423   13.8913968
| 30>     H       15.6435790   14.6046788   14.6251043
| 31>     H       15.5855353   15.5922061   13.1446048
| 32>     H       16.3711934   19.1296853   14.2355847
| 33>     H       15.8370617   20.5678721   15.1057972
| 34>     H       14.8852482   19.0845889   15.2069433
| 35>     H       16.8670426   21.0218424   16.8970590
| 36>     H       19.2459663   18.7004748   19.1588070
| 37>     H       18.9123089   17.0685529   17.3855024
| 38>     H       18.7348814   14.8753097   18.3409016
| 39>     H       17.9011566   13.3500263   20.1178691
| 40>     H       16.1718424   14.1547508   21.7298409
| 41>     H       14.9240057   15.8438019   22.3446460
| 42>     H       16.1310694   17.9952102   19.7951192
| 43> *
| 44>
| 45>                          ****END OF INPUT****

CARTESIAN COORDINATES (ANGSTROEM)
---------------------------------
  C     13.750563   15.594411   14.320248
  C     15.283157   15.550910   14.198942
  O     15.798129   16.693916   14.907207
  C     16.794232   16.545229   15.829583
  O     17.427340   15.508719   15.945939
  C     17.009223   17.729266   16.732477
  C     16.707035   19.005315   16.370485
  C     15.909900   19.475335   15.169111
  N     17.172896   20.088438   17.120593
  C     18.116308   20.000494   18.107974
  S     18.701394   21.342046   18.878384
  N     18.567444   18.740912   18.408799
  C     18.014964   17.484953   17.865937
  C     17.499094   16.544162   18.947071
  C     17.992203   15.231015   19.051113
  C     17.517417   14.366456   20.051692
  C     16.542448   14.819660   20.956913
  C     16.048250   16.127372   20.854380
  O     15.104212   16.566282   21.724758
  C     16.522550   16.985374   19.856998
  H     13.445011   15.539102   15.372692
  H     13.298719   14.748791   13.787526
  H     13.353618   16.522842   13.891397
  H     15.643579   14.604679   14.625104
  H     15.585535   15.592206   13.144605
  H     16.371193   19.129685   14.235585
  H     15.837062   20.567872   15.105797
  H     14.885248   19.084589   15.206943
  H     16.867043   21.021842   16.897059
  H     19.245966   18.700475   19.158807
  H     18.912309   17.068553   17.385502
  H     18.734881   14.875310   18.340902
  H     17.901157   13.350026   20.117869
  H     16.171842   14.154751   21.729841
  H     14.924006   15.843802   22.344646
  H     16.131069   17.995210   19.795119

 Total Charge           Charge          ....    0
 Multiplicity           Mult            ....    1
 Number of Electrons    NEL             ....  154
 Basis Dimension        Dim             ....  828

ORBITAL ENERGIES
----------------

  NO   OCC          E(Eh)            E(eV)
   0   2.0000     -91.887725     -2500.3921
   1   2.0000     -20.604532      -560.6778
   2   2.0000     -20.591168      -560.3142
   3   2.0000     -20.544265      -559.0379
   4   2.0000     -15.628336      -425.2687
   5   2.0000     -15.605345      -424.6430
   6   2.0000     -11.396265      -310.1081
   7   2.0000     -11.382187      -309.7250
   8   2.0000     -11.338291      -308.5306
   9   2.0000     -11.307075      -307.6812
  10   2.0000     -11.303832      -307.5929
  11   2.0000     -11.299103      -307.4642
  12   2.0000     -11.261363      -306.4373
  13   2.0000     -11.258968      -306.3721
  14   2.0000     -11.254311      -306.2454
  15   2.0000     -11.247115      -306.0496
  16   2.0000     -11.237370      -305.7844
  17   2.0000     -11.233513      -305.6794
  18   2.0000     -11.233169      -305.6701
  19   2.0000     -11.230230      -305.5901
  20   2.0000      -8.892811      -241.9857
  21   2.0000      -6.574389      -178.8982
  22   2.0000      -6.572385      -178.8437
  23   2.0000      -6.571798      -178.8277
  24   2.0000      -1.453947       -39.5639
  25   2.0000      -1.410914       -38.3929
  26   2.0000      -1.357146       -36.9298
  27   2.0000      -1.339708       -36.4553
  28   2.0000      -1.236828       -33.6558
  29   2.0000      -1.151735       -31.3403
  30   2.0000      -1.120317       -30.4854
  31   2.0000      -1.044636       -28.4260
  32   2.0000      -1.036450       -28.2032
  33   2.0000      -1.009293       -27.4643
  34   2.0000      -0.998554       -27.1720
  35   2.0000      -0.983456       -26.7612
  36   2.0000      -0.920321       -25.0432
  37   2.0000      -0.890163       -24.2226
  38   2.0000      -0.847012       -23.0484
  39   2.0000      -0.834231       -22.7006
  40   2.0000      -0.827371       -22.5139
  41   2.0000      -0.816407       -22.2156
  42   2.0000      -0.762258       -20.7421
  43   2.0000      -0.736221       -20.0336
  44   2.0000      -0.725587       -19.7442
  45   2.0000      -0.690899       -18.8003
  46   2.0000      -0.685134       -18.6434
  47   2.0000      -0.679068       -18.4784
  48   2.0000      -0.671940       -18.2844
  49   2.0000      -0.660558       -17.9747
  50   2.0000      -0.648020       -17.6335
  51   2.0000      -0.643176       -17.5017
  52   2.0000      -0.632868       -17.2212
  53   2.0000      -0.603634       -16.4257
  54   2.0000      -0.598377       -16.2827
  55   2.0000      -0.595119       -16.1940
  56   2.0000      -0.592151       -16.1132
  57   2.0000      -0.584644       -15.9090
  58   2.0000      -0.572820       -15.5872
  59   2.0000      -0.562015       -15.2932
  60   2.0000      -0.560510       -15.2523
  61   2.0000      -0.557624       -15.1737
  62   2.0000      -0.539250       -14.6737
  63   2.0000      -0.527323       -14.3492
  64   2.0000      -0.515244       -14.0205
  65   2.0000      -0.508645       -13.8409
  66   2.0000      -0.499215       -13.5843
  67   2.0000      -0.493658       -13.4331
  68   2.0000      -0.480954       -13.0874
  69   2.0000      -0.466636       -12.6978
  70   2.0000      -0.455886       -12.4053
  71   2.0000      -0.454611       -12.3706
  72   2.0000      -0.352980        -9.6051
  73   2.0000      -0.343975        -9.3600
  74   2.0000      -0.326805        -8.8928
  75   2.0000      -0.316878        -8.6227
  76   2.0000      -0.313640        -8.5346
  77   0.0000       0.077693         2.1141
  78   0.0000       0.112319         3.0564
  79   0.0000       0.119924         3.2633
  80   0.0000       0.136271         3.7081
  81   0.0000       0.139508         3.7962

MULLIKEN ATOMIC CHARGES
-----------------------
   0 C :   -0.265163
   1 C :    0.017504
   2 O :   -0.339467
   3 C :    0.426879
   4 O :   -0.426193
   5 C :   -0.183822
   6 C :    0.165757
   7 C :   -0.281736
   8 N :   -0.128788
   9 C :    0.207394
  10 S :   -0.442945
  11 N :   -0.210462
  12 C :    0.042700
  13 C :    0.031557
  14 C :   -0.164263
  15 C :   -0.134644
  16 C :   -0.277014
  17 C :    0.314325
  18 O :   -0.359283
  19 C :   -0.251424
  20 H :    0.099940
  21 H :    0.096091
  22 H :    0.089756
  23 H :    0.117762
  24 H :    0.096178
  25 H :    0.125007
  26 H :    0.102393
  27 H :    0.129950
  28 H :    0.198771
  29 H :    0.199912
  30 H :    0.155046
  31 H :    0.157912
  32 H :    0.159620
  33 H :    0.127978
  34 H :    0.239848
  35 H :    0.162922
Sum of atomic charges:   -0.0000000

LOEWDIN ATOMIC CHARGES
----------------------
   0 C :    0.104510
   1 C :   -0.012000
   2 O :    0.308383
   3 C :   -0.415297
   4 O :    0.102337
   5 C :   -0.091470
   6 C :   -0.063828
   7 C :    0.124600
   8 N :    0.405402
   9 C :   -0.458866
  10 S :   -0.037994
  11 N :    0.396629
  12 C :   -0.048324
  13 C :   -0.040345
  14 C :    0.025327
  15 C :    0.040916
  16 C :   -0.001215
  17 C :   -0.192572
  18 O :    0.392947
  19 C :    0.029662
  20 H :   -0.025126
  21 H :   -0.024567
  22 H :   -0.030310
  23 H :   -0.026172
  24 H :   -0.031100
  25 H :   -0.009558
  26 H :   -0.021382
  27 H :   -0.009712
  28 H :   -0.058859
  29 H :   -0.063008
  30 H :   -0.008507
  31 H :   -0.024106
  32 H :   -0.021177
  33 H :   -0.036259
  34 H :   -0.154976
  35 H :   -0.023983

  Mayer bond orders larger than 0.100000
B(  0-C ,  1-C ) :   0.9730 B(  0-C , 20-H ) :   0.9764 B(  0-C , 21-H ) :   0.9770
B(  0-C , 22-H ) :   0.9795 B(  1-C ,  2-O ) :   0.8916 B(  1-C , 23-H ) :   0.9732
B(  1-C , 24-H ) :   0.9822 B(  2-O ,  3-C ) :   1.1636 B(  3-C ,  4-O ) :   1.9796
B(  3-C ,  5-C ) :   1.0460 B(  5-C ,  6-C ) :   1.6545 B(  5-C , 12-C ) :   0.9504
B(  6-C ,  7-C ) :   0.9535 B(  6-C ,  8-N ) :   1.1365 B(  7-C , 25-H ) :   0.9654
B(  7-C , 26-H ) :   0.9912 B(  7-C , 27-H ) :   0.9636 B(  8-N ,  9-C ) :   1.1852
B(  8-N , 28-H ) :   0.9468 B(  9-C , 10-S ) :   1.6074 B(  9-C , 11-N ) :   1.3072
B( 11-N , 12-C ) :   0.9764 B( 11-N , 29-H ) :   0.9485 B( 12-C , 13-C ) :   0.9740
B( 12-C , 30-H ) :   0.9976 B( 13-C , 14-C ) :   1.3757 B( 13-C , 19-C ) :   1.3667
B( 14-C , 15-C ) :   1.3974 B( 14-C , 31-H ) :   0.9642 B( 15-C , 16-C ) :   1.3584
B( 15-C , 32-H ) :   0.9713 B( 16-C , 17-C ) :   1.3335 B( 16-C , 33-H ) :   0.9861
B( 17-C , 18-O ) :   1.1030 B( 17-C , 19-C ) :   1.3675 B( 18-O , 34-H ) :   0.9807
B( 19-C , 35-H ) :   0.9603

MP2 TOTAL ENERGY:    -1274.341228026 Eh
FINAL SINGLE POINT ENERGY     -1274.341228025789

DIPOLE MOMENT
-------------
                                X             Y             Z
Electronic contribution:     10.92751       8.87232      11.51448
Nuclear contribution   :    -12.31097     -10.20281     -12.65443
                        -----------------------------------------
Total Dipole Moment    :     -1.38345      -1.33049      -1.13995
                        -----------------------------------------
Magnitude (a.u.)       :      2.23240
Magnitude (Debye)      :      5.67432

Rotational constants in cm-1:     0.009691     0.009016     0.005579
Rotational constants in MHz :   290.523424   270.299379   167.268707

                             ****ORCA TERMINATED NORMALLY****
TOTAL RUN TIME: 0 days 1 hours 50 minutes 12 seconds 537 msec
