                         Program Version 4.2.0 -  RELEASE  -
|  1> ! ri-mp2 cc-pvtz cc-pvtz/c TightSCF NoKeepInts
|  2>
|  3> %scf
|  4>   MaxCore 4096
|  5> end
|  6> *xyz  0  1
|  7>     C       14.3948115   15.2104367   15.2946346
|  8>     C       15.8267654   14.8279197   15.7292548
|  9>     O       16.8032368   15.8948475   15.6179457
| 10>     C       16.4902136   17.2102273   15.4049107
| 11>     O       15.8546818   17.5784318   14.4326200
| 12>     C       16.9856014   18.1107089   16.5056914
| 13>     C       16.9789173   19.4609165   16.3588962
| 14>     C       16.2836720   20.2622769   15.2776139
| 15>     N       17.6677221   20.2858430   17.2510636
| 16>     C       18.5357857   19.8366733   18.2088914
| 17>     S       19.3892247   20.8737182   19.1742754
| 18>     N       18.6786663   18.4764806   18.3138944
| 19>     C       17.8894079   17.4732070   17.5753399
| 20>     C       17.1767328   16.4962349   18.5014918
| 21>     C       17.7269650   15.2260161   18.7540436
| 22>     C       17.0670471   14.3177966   19.5989207
| 23>     C       15.8494272   14.6844915   20.1975310
| 24>     C       15.3034488   15.9522678   19.9532371
| 25>     O       14.1286158   16.3092176   20.5301964
| 26>     C       15.9623607   16.8539697   19.1118020
| 27>     H       14.0127200   16.0556652   15.8807856
| 28>     H       13.7148379   14.3638074   15.4472523
| 29>     H       14.3636475   15.4739524   14.2298036
| 30>     H       15.7856538   14.5013569   16.7763940
| 31>     H       16.1665530   13.9691925   15.1362437
| 32>     H       15.2246082   19.9822949   15.2095571
| 33>     H       16.7378594   20.0648721   14.2981170
| 34>     H       16.3241296   21.3442214   15.4499073
| 35>     H       17.5897227   21.2869469   17.1690658
| 36>     H       19.3019965   18.1752279   19.0521255
| 37>     H       18.6877158   16.9617080   17.0187458
| 38>     H       18.6663709   14.9402221   18.2879303
| 39>     H       17.4994273   13.3366661   19.7885632
| 40>     H       15.3364012   13.9869075   20.8515924
| 41>     H       13.8544222   15.5823296   21.1095448
| 42>     H       15.5276299   17.8329474   18.9401168
| 43> *
| 44>
| 45>                          ****END OF INPUT****

CARTESIAN COORDINATES (ANGSTROEM)
---------------------------------
  C     14.394811   15.210437   15.294635
  C     15.826765   14.827920   15.729255
  O     16.803237   15.894847   15.617946
  C     16.490214   17.210227   15.404911
  O     15.854682   17.578432   14.432620
  C     16.985601   18.110709   16.505691
  C     16.978917   19.460916   16.358896
  C     16.283672   20.262277   15.277614
  N     17.667722   20.285843   17.251064
  C     18.535786   19.836673   18.208891
  S     19.389225   20.873718   19.174275
  N     18.678666   18.476481   18.313894
  C     17.889408   17.473207   17.575340
  C     17.176733   16.496235   18.501492
  C     17.726965   15.226016   18.754044
  C     17.067047   14.317797   19.598921
  C     15.849427   14.684491   20.197531
  C     15.303449   15.952268   19.953237
  O     14.128616   16.309218   20.530196
  C     15.962361   16.853970   19.111802
  H     14.012720   16.055665   15.880786
  H     13.714838   14.363807   15.447252
  H     14.363648   15.473952   14.229804
  H     15.785654   14.501357   16.776394
  H     16.166553   13.969193   15.136244
  H     15.224608   19.982295   15.209557
  H     16.737859   20.064872   14.298117
  H     16.324130   21.344221   15.449907
  H     17.589723   21.286947   17.169066
  H     19.301996   18.175228   19.052125
  H     18.687716   16.961708   17.018746
  H     18.666371   14.940222   18.287930
  H     17.499427   13.336666   19.788563
  H     15.336401   13.986907   20.851592
  H     13.854422   15.582330   21.109545
  H     15.527630   17.832947   18.940117

 Total Charge           Charge          ....    0
 Multiplicity           Mult            ....    1
 Number of Electrons    NEL             ....  154
 Basis Dimension        Dim             ....  828

ORBITAL ENERGIES
----------------

  NO   OCC          E(Eh)            E(eV)
   0   2.0000     -91.889330     -2500.4358
   1   2.0000     -20.601117      -560.5849
   2   2.0000     -20.585399      -560.1572
   3   2.0000     -20.542320      -558.9849
   4   2.0000     -15.629678      -425.3052
   5   2.0000     -15.607483      -424.7012
   6   2.0000     -11.393890      -310.0435
   7   2.0000     -11.383985      -309.7740
   8   2.0000     -11.337506      -308.5092
   9   2.0000     -11.318827      -308.0009
  10   2.0000     -11.308220      -307.7123
  11   2.0000     -11.298714      -307.4537
  12   2.0000     -11.264912      -306.5339
  13   2.0000     -11.260027      -306.4009
  14   2.0000     -11.257669      -306.3368
  15   2.0000     -11.251938      -306.1808
  16   2.0000     -11.248145      -306.0776
  17   2.0000     -11.243026      -305.9383
  18   2.0000     -11.242690      -305.9291
  19   2.0000     -11.223447      -305.4055
  20   2.0000      -8.894400      -242.0289
  21   2.0000      -6.575972      -178.9413
  22   2.0000      -6.573974      -178.8869
  23   2.0000      -6.573383      -178.8708
  24   2.0000      -1.440749       -39.2048
  25   2.0000      -1.420781       -38.6614
  26   2.0000      -1.350372       -36.7455
  27   2.0000      -1.340799       -36.4850
  28   2.0000      -1.238900       -33.7122
  29   2.0000      -1.161572       -31.6080
  30   2.0000      -1.121295       -30.5120
  31   2.0000      -1.045525       -28.4502
  32   2.0000      -1.032255       -28.0891
  33   2.0000      -1.019618       -27.7452
  34   2.0000      -0.997394       -27.1405
  35   2.0000      -0.985250       -26.8100
  36   2.0000      -0.923387       -25.1266
  37   2.0000      -0.894640       -24.3444
  38   2.0000      -0.848135       -23.0789
  39   2.0000      -0.841446       -22.8969
  40   2.0000      -0.837991       -22.8029
  41   2.0000      -0.819859       -22.3095
  42   2.0000      -0.744671       -20.2635
  43   2.0000      -0.734915       -19.9981
  44   2.0000      -0.717071       -19.5125
  45   2.0000      -0.699184       -19.0258
  46   2.0000      -0.688175       -18.7262
  47   2.0000      -0.675189       -18.3728
  48   2.0000      -0.669730       -18.2243
  49   2.0000      -0.661705       -18.0059
  50   2.0000      -0.649591       -17.6763
  51   2.0000      -0.643933       -17.5223
  52   2.0000      -0.636545       -17.3213
  53   2.0000      -0.616697       -16.7812
  54   2.0000      -0.611137       -16.6299
  55   2.0000      -0.603716       -16.4279
  56   2.0000      -0.601584       -16.3699
  57   2.0000      -0.580566       -15.7980
  58   2.0000      -0.570706       -15.5297
  59   2.0000      -0.566729       -15.4215
  60   2.0000      -0.552080       -15.0229
  61   2.0000      -0.541230       -14.7276
  62   2.0000      -0.535087       -14.5605
  63   2.0000      -0.527981       -14.3671
  64   2.0000      -0.523000       -14.2315
  65   2.0000      -0.514159       -13.9910
  66   2.0000      -0.501872       -13.6566
  67   2.0000      -0.492235       -13.3944
  68   2.0000      -0.487672       -13.2702
  69   2.0000      -0.462924       -12.5968
  70   2.0000      -0.452919       -12.3246
  71   2.0000      -0.440554       -11.9881
  72   2.0000      -0.355222        -9.6661
  73   2.0000      -0.352043        -9.5796
  74   2.0000      -0.329428        -8.9642
  75   2.0000      -0.325561        -8.8590
  76   2.0000      -0.318875        -8.6770
  77   0.0000       0.074248         2.0204
  78   0.0000       0.100487         2.7344
  79   0.0000       0.123191         3.3522
  80   0.0000       0.130642         3.5549
  81   0.0000       0.132152         3.5960

MULLIKEN ATOMIC CHARGES
-----------------------
   0 C :   -0.299773
   1 C :    0.040491
   2 O :   -0.381830
   3 C :    0.461564
   4 O :   -0.416094
   5 C :   -0.273190
   6 C :    0.185025
   7 C :   -0.266407
   8 N :   -0.127152
   9 C :    0.214683
  10 S :   -0.442335
  11 N :   -0.219986
  12 C :    0.083291
  13 C :    0.018807
  14 C :   -0.183886
  15 C :   -0.131250
  16 C :   -0.275383
  17 C :    0.311589
  18 O :   -0.355835
  19 C :   -0.238182
  20 H :    0.097461
  21 H :    0.100900
  22 H :    0.121742
  23 H :    0.103245
  24 H :    0.106122
  25 H :    0.131506
  26 H :    0.131285
  27 H :    0.094550
  28 H :    0.199202
  29 H :    0.200902
  30 H :    0.150785
  31 H :    0.153611
  32 H :    0.163241
  33 H :    0.133013
  34 H :    0.241617
  35 H :    0.166671
Sum of atomic charges:   -0.0000000

LOEWDIN ATOMIC CHARGES
----------------------
   0 C :    0.104552
   1 C :   -0.011663
   2 O :    0.288739
   3 C :   -0.417635
   4 O :    0.112042
   5 C :   -0.099974
   6 C :   -0.055634
   7 C :    0.131154
   8 N :    0.407447
   9 C :   -0.455412
  10 S :   -0.036578
  11 N :    0.394021
  12 C :   -0.054549
  13 C :   -0.037552
  14 C :    0.016177
  15 C :    0.040190
  16 C :   -0.001632
  17 C :   -0.190178
  18 O :    0.396049
  19 C :    0.031988
  20 H :   -0.028497
  21 H :   -0.025725
  22 H :   -0.023947
  23 H :   -0.029636
  24 H :   -0.026729
  25 H :   -0.004921
  26 H :   -0.004296
  27 H :   -0.023683
  28 H :   -0.057076
  29 H :   -0.065104
  30 H :   -0.012611
  31 H :   -0.028226
  32 H :   -0.020113
  33 H :   -0.034656
  34 H :   -0.152987
  35 H :   -0.023346

  Mayer bond orders larger than 0.100000
B(  0-C ,  1-C ) :   0.9746 B(  0-C , 20-H ) :   0.9746 B(  0-C , 21-H ) :   0.9738
B(  0-C , 22-H ) :   0.9722 B(  1-C ,  2-O ) :   0.8954 B(  1-C , 23-H ) :   0.9701
B(  1-C , 24-H ) :   0.9817 B(  2-O ,  3-C ) :   1.1072 B(  3-C ,  4-O ) :   2.0005
B(  3-C ,  5-C ) :   1.0614 B(  5-C ,  6-C ) :   1.6276 B(  5-C , 12-C ) :   0.9540
B(  6-C ,  7-C ) :   0.9657 B(  6-C ,  8-N ) :   1.1595 B(  7-C , 25-H ) :   0.9622
B(  7-C , 26-H ) :   0.9578 B(  7-C , 27-H ) :   0.9898 B(  8-N ,  9-C ) :   1.1862
B(  8-N , 28-H ) :   0.9466 B(  9-C , 10-S ) :   1.6024 B(  9-C , 11-N ) :   1.3120
B( 11-N , 12-C ) :   0.9618 B( 11-N , 29-H ) :   0.9484 B( 12-C , 13-C ) :   0.9640
B( 12-C , 30-H ) :   0.9998 B( 13-C , 14-C ) :   1.3511 B( 13-C , 19-C ) :   1.3749
B( 14-C , 15-C ) :   1.3952 B( 14-C , 31-H ) :   0.9733 B( 15-C , 16-C ) :   1.3570
B( 15-C , 32-H ) :   0.9704 B( 16-C , 17-C ) :   1.3326 B( 16-C , 33-H ) :   0.9844
B( 17-C , 18-O ) :   1.1069 B( 17-C , 19-C ) :   1.3650 B( 18-O , 34-H ) :   0.9790
B( 19-C , 35-H ) :   0.9589

MP2 TOTAL ENERGY:    -1274.329404438 Eh
FINAL SINGLE POINT ENERGY     -1274.329404438009

DIPOLE MOMENT
-------------
                                X             Y             Z
Electronic contribution:      9.56575       9.57653       7.32771
Nuclear contribution   :    -10.57106     -11.30871      -7.31749
                        -----------------------------------------
Total Dipole Moment    :     -1.00531      -1.73218       0.01022
                        -----------------------------------------
Magnitude (a.u.)       :      2.00280
Magnitude (Debye)      :      5.09070

Rotational constants in cm-1:     0.012290     0.008556     0.006114
Rotational constants in MHz :   368.457909   256.488303   183.283190

                             ****ORCA TERMINATED NORMALLY****
TOTAL RUN TIME: 0 days 1 hours 44 minutes 31 seconds 980 msec
