                         Program Version 4.2.0 -  RELEASE  -
|  1> ! ri-mp2 cc-pvtz cc-pvtz/c TightSCF NoKeepInts
|  2>
|  3> %scf
|  4>   MaxCore 4096
|  5> end
|  6> *xyz  0  1
|  7>     C       15.4277289   13.8091920   15.3954369
|  8>     C       15.4207951   15.2176120   14.7776699
|  9>     O       15.9456042   16.1160056   15.7691879
| 10>     C       15.6059775   17.4396759   15.7389735
| 11>     O       14.7347558   17.8688713   15.0014183
| 12>     C       16.4654569   18.2777811   16.6483937
| 13>     C       16.4905328   19.6306438   16.5317312
| 14>     C       15.5394896   20.5001921   15.7353629
| 15>     N       17.4697145   20.3909632   17.1752473
| 16>     C       18.5682880   19.8684083   17.8020313
| 17>     S       19.7406010   20.8305378   18.4621176
| 18>     N       18.6584997   18.5000451   17.8359898
| 19>     C       17.6190977   17.5616628   17.3719322
| 20>     C       17.1674708   16.6014337   18.4647230
| 21>     C       17.4824575   15.2320001   18.3915278
| 22>     C       17.0646542   14.3486813   19.4011490
| 23>     C       16.3301320   14.8400869   20.4940918
| 24>     C       16.0195135   16.2049555   20.5712352
| 25>     O       15.3116621   16.6820535   21.6259716
| 26>     C       16.4363951   17.0814795   19.5645333
| 27>     H       16.4500525   13.5020030   15.6475069
| 28>     H       15.0114681   13.0778512   14.6920775
| 29>     H       14.8244324   13.7875133   16.3119193
| 30>     H       16.0281116   15.2513877   13.8638502
| 31>     H       14.3846991   15.4783083   14.5208497
| 32>     H       15.6622913   20.3233713   14.6592782
| 33>     H       15.6842353   21.5720530   15.9146575
| 34>     H       14.4977031   20.2659218   15.9895600
| 35>     H       17.4263502   21.3968447   17.1392110
| 36>     H       19.4626677   18.1433787   18.3365360
| 37>     H       18.1760076   17.0254811   16.5906318
| 38>     H       18.0443624   14.8505827   17.5433628
| 39>     H       17.3085694   13.2899799   19.3342358
| 40>     H       16.0049948   14.1620055   21.2761753
| 41>     H       15.1302700   15.9355170   22.2163126
| 42>     H       16.1919579   18.1355194   19.6431113
| 43> *
| 44>
| 45>                          ****END OF INPUT****

CARTESIAN COORDINATES (ANGSTROEM)
---------------------------------
  C     15.427729   13.809192   15.395437
  C     15.420795   15.217612   14.777670
  O     15.945604   16.116006   15.769188
  C     15.605977   17.439676   15.738974
  O     14.734756   17.868871   15.001418
  C     16.465457   18.277781   16.648394
  C     16.490533   19.630644   16.531731
  C     15.539490   20.500192   15.735363
  N     17.469714   20.390963   17.175247
  C     18.568288   19.868408   17.802031
  S     19.740601   20.830538   18.462118
  N     18.658500   18.500045   17.835990
  C     17.619098   17.561663   17.371932
  C     17.167471   16.601434   18.464723
  C     17.482457   15.232000   18.391528
  C     17.064654   14.348681   19.401149
  C     16.330132   14.840087   20.494092
  C     16.019513   16.204956   20.571235
  O     15.311662   16.682053   21.625972
  C     16.436395   17.081480   19.564533
  H     16.450053   13.502003   15.647507
  H     15.011468   13.077851   14.692077
  H     14.824432   13.787513   16.311919
  H     16.028112   15.251388   13.863850
  H     14.384699   15.478308   14.520850
  H     15.662291   20.323371   14.659278
  H     15.684235   21.572053   15.914657
  H     14.497703   20.265922   15.989560
  H     17.426350   21.396845   17.139211
  H     19.462668   18.143379   18.336536
  H     18.176008   17.025481   16.590632
  H     18.044362   14.850583   17.543363
  H     17.308569   13.289980   19.334236
  H     16.004995   14.162005   21.276175
  H     15.130270   15.935517   22.216313
  H     16.191958   18.135519   19.643111

 Total Charge           Charge          ....    0
 Multiplicity           Mult            ....    1
 Number of Electrons    NEL             ....  154
 Basis Dimension        Dim             ....  828

ORBITAL ENERGIES
----------------

  NO   OCC          E(Eh)            E(eV)
   0   2.0000     -91.888521     -2500.4138
   1   2.0000     -20.602155      -560.6131
   2   2.0000     -20.595379      -560.4288
   3   2.0000     -20.541240      -558.9556
   4   2.0000     -15.628772      -425.2805
   5   2.0000     -15.606760      -424.6815
   6   2.0000     -11.395234      -310.0801
   7   2.0000     -11.383178      -309.7520
   8   2.0000     -11.336957      -308.4943
   9   2.0000     -11.312444      -307.8273
  10   2.0000     -11.307313      -307.6876
  11   2.0000     -11.296630      -307.3969
  12   2.0000     -11.259672      -306.3913
  13   2.0000     -11.259626      -306.3900
  14   2.0000     -11.253869      -306.2334
  15   2.0000     -11.251298      -306.1634
  16   2.0000     -11.242626      -305.9274
  17   2.0000     -11.238027      -305.8023
  18   2.0000     -11.237820      -305.7966
  19   2.0000     -11.230563      -305.5992
  20   2.0000      -8.893598      -242.0071
  21   2.0000      -6.575173      -178.9196
  22   2.0000      -6.573173      -178.8651
  23   2.0000      -6.572584      -178.8491
  24   2.0000      -1.452442       -39.5230
  25   2.0000      -1.415058       -38.5057
  26   2.0000      -1.354886       -36.8683
  27   2.0000      -1.340047       -36.4645
  28   2.0000      -1.237964       -33.6867
  29   2.0000      -1.156655       -31.4742
  30   2.0000      -1.120740       -30.4969
  31   2.0000      -1.043266       -28.3887
  32   2.0000      -1.040200       -28.3053
  33   2.0000      -1.014013       -27.5927
  34   2.0000      -0.996041       -27.1037
  35   2.0000      -0.984428       -26.7877
  36   2.0000      -0.921295       -25.0697
  37   2.0000      -0.888658       -24.1816
  38   2.0000      -0.845909       -23.0183
  39   2.0000      -0.837087       -22.7783
  40   2.0000      -0.833180       -22.6720
  41   2.0000      -0.817206       -22.2373
  42   2.0000      -0.765946       -20.8425
  43   2.0000      -0.732330       -19.9277
  44   2.0000      -0.720466       -19.6049
  45   2.0000      -0.694996       -18.9118
  46   2.0000      -0.689288       -18.7565
  47   2.0000      -0.679260       -18.4836
  48   2.0000      -0.670862       -18.2551
  49   2.0000      -0.666093       -18.1253
  50   2.0000      -0.645292       -17.5593
  51   2.0000      -0.643379       -17.5072
  52   2.0000      -0.634895       -17.2764
  53   2.0000      -0.605998       -16.4900
  54   2.0000      -0.600882       -16.3508
  55   2.0000      -0.598111       -16.2754
  56   2.0000      -0.592801       -16.1309
  57   2.0000      -0.577661       -15.7190
  58   2.0000      -0.569245       -15.4899
  59   2.0000      -0.567615       -15.4456
  60   2.0000      -0.562712       -15.3122
  61   2.0000      -0.549667       -14.9572
  62   2.0000      -0.539641       -14.6844
  63   2.0000      -0.524959       -14.2849
  64   2.0000      -0.523184       -14.2366
  65   2.0000      -0.512672       -13.9505
  66   2.0000      -0.502046       -13.6614
  67   2.0000      -0.496980       -13.5235
  68   2.0000      -0.483577       -13.1588
  69   2.0000      -0.462429       -12.5833
  70   2.0000      -0.460333       -12.5263
  71   2.0000      -0.447810       -12.1855
  72   2.0000      -0.352816        -9.6006
  73   2.0000      -0.348970        -9.4959
  74   2.0000      -0.327666        -8.9162
  75   2.0000      -0.319872        -8.7042
  76   2.0000      -0.317569        -8.6415
  77   0.0000       0.078243         2.1291
  78   0.0000       0.105890         2.8814
  79   0.0000       0.123257         3.3540
  80   0.0000       0.133190         3.6243
  81   0.0000       0.136687         3.7194

MULLIKEN ATOMIC CHARGES
-----------------------
   0 C :   -0.277804
   1 C :    0.034297
   2 O :   -0.335654
   3 C :    0.436704
   4 O :   -0.435192
   5 C :   -0.222433
   6 C :    0.172241
   7 C :   -0.269253
   8 N :   -0.126303
   9 C :    0.210330
  10 S :   -0.442605
  11 N :   -0.213765
  12 C :    0.048813
  13 C :    0.050317
  14 C :   -0.179355
  15 C :   -0.132842
  16 C :   -0.275837
  17 C :    0.316906
  18 O :   -0.357105
  19 C :   -0.247441
  20 H :    0.087800
  21 H :    0.102613
  22 H :    0.106773
  23 H :    0.086560
  24 H :    0.110949
  25 H :    0.128694
  26 H :    0.094272
  27 H :    0.133446
  28 H :    0.199683
  29 H :    0.200160
  30 H :    0.150785
  31 H :    0.152293
  32 H :    0.159681
  33 H :    0.129707
  34 H :    0.240319
  35 H :    0.162248
Sum of atomic charges:   -0.0000000

LOEWDIN ATOMIC CHARGES
----------------------
   0 C :    0.106183
   1 C :   -0.015098
   2 O :    0.311538
   3 C :   -0.412864
   4 O :    0.094971
   5 C :   -0.094336
   6 C :   -0.057128
   7 C :    0.130831
   8 N :    0.406936
   9 C :   -0.456887
  10 S :   -0.037164
  11 N :    0.394744
  12 C :   -0.055393
  13 C :   -0.039881
  14 C :    0.018700
  15 C :    0.039931
  16 C :   -0.000116
  17 C :   -0.189580
  18 O :    0.394863
  19 C :    0.033709
  20 H :   -0.031551
  21 H :   -0.024868
  22 H :   -0.023234
  23 H :   -0.032310
  24 H :   -0.027096
  25 H :   -0.005347
  26 H :   -0.023688
  27 H :   -0.004175
  28 H :   -0.057155
  29 H :   -0.064299
  30 H :   -0.015015
  31 H :   -0.031124
  32 H :   -0.021679
  33 H :   -0.035454
  34 H :   -0.154186
  35 H :   -0.022778

  Mayer bond orders larger than 0.100000
B(  0-C ,  1-C ) :   0.9737 B(  0-C , 20-H ) :   0.9791 B(  0-C , 21-H ) :   0.9781
B(  0-C , 22-H ) :   0.9742 B(  1-C ,  2-O ) :   0.9037 B(  1-C , 23-H ) :   0.9797
B(  1-C , 24-H ) :   0.9764 B(  2-O ,  3-C ) :   1.1820 B(  3-C ,  4-O ) :   1.9659
B(  3-C ,  5-C ) :   1.0719 B(  5-C ,  6-C ) :   1.6477 B(  5-C , 12-C ) :   0.9527
B(  6-C ,  7-C ) :   0.9662 B(  6-C ,  8-N ) :   1.1531 B(  7-C , 25-H ) :   0.9584
B(  7-C , 26-H ) :   0.9903 B(  7-C , 27-H ) :   0.9620 B(  8-N ,  9-C ) :   1.1880
B(  8-N , 28-H ) :   0.9464 B(  9-C , 10-S ) :   1.6059 B(  9-C , 11-N ) :   1.3084
B( 11-N , 12-C ) :   0.9714 B( 11-N , 29-H ) :   0.9484 B( 12-C , 13-C ) :   0.9669
B( 12-C , 30-H ) :   1.0009 B( 13-C , 14-C ) :   1.3569 B( 13-C , 19-C ) :   1.3802
B( 14-C , 15-C ) :   1.3940 B( 14-C , 31-H ) :   0.9703 B( 15-C , 16-C ) :   1.3609
B( 15-C , 32-H ) :   0.9704 B( 16-C , 17-C ) :   1.3335 B( 16-C , 33-H ) :   0.9852
B( 17-C , 18-O ) :   1.1039 B( 17-C , 19-C ) :   1.3658 B( 18-O , 34-H ) :   0.9801
B( 19-C , 35-H ) :   0.9595

MP2 TOTAL ENERGY:    -1274.343907890 Eh
FINAL SINGLE POINT ENERGY     -1274.343907890466

DIPOLE MOMENT
-------------
                                X             Y             Z
Electronic contribution:      7.62885      12.18054       7.88734
Nuclear contribution   :     -8.52328     -13.94151      -8.30797
                        -----------------------------------------
Total Dipole Moment    :     -0.89443      -1.76098      -0.42064
                        -----------------------------------------
Magnitude (a.u.)       :      2.01940
Magnitude (Debye)      :      5.13291

Rotational constants in cm-1:     0.011153     0.008481     0.005872
Rotational constants in MHz :   334.365230   254.257633   176.026462

                             ****ORCA TERMINATED NORMALLY****
TOTAL RUN TIME: 0 days 1 hours 41 minutes 41 seconds 918 msec
