                         Program Version 4.2.0 -  RELEASE  -
|  1> ! ri-mp2 cc-pvtz cc-pvtz/c TightSCF NoKeepInts
|  2>
|  3> %scf
|  4>   MaxCore 4096
|  5> end
|  6> *xyz  0  1
|  7>     C       14.4348603   16.3614442   15.9001903
|  8>     C       15.5021689   15.2489328   16.0072670
|  9>     O       16.7539286   15.5922075   15.3624831
| 10>     C       17.2812528   16.8486003   15.2093123
| 11>     O       17.8528990   17.1481202   14.1772078
| 12>     C       17.1271638   17.8096654   16.3493067
| 13>     C       16.9145332   19.1158299   16.0572002
| 14>     C       16.4096185   19.6644651   14.7393636
| 15>     N       17.1537902   20.1203138   16.9959522
| 16>     C       17.8480635   19.9288208   18.1599736
| 17>     S       18.2113513   21.1786744   19.1800937
| 18>     N       18.2506496   18.6434843   18.4250832
| 19>     C       17.8535957   17.4481405   17.6551425
| 20>     C       17.2137188   16.3754289   18.5191050
| 21>     C       17.8081776   15.1058511   18.6408445
| 22>     C       17.2156173   14.1169030   19.4440545
| 23>     C       16.0245550   14.4024588   20.1339195
| 24>     C       15.4373201   15.6703689   20.0221161
| 25>     O       14.2864186   15.9481514   20.6839457
| 26>     C       16.0282945   16.6526938   19.2213296
| 27>     H       14.6173753   17.1763151   16.6090513
| 28>     H       13.4457896   15.9494850   16.1352125
| 29>     H       14.3926589   16.7701491   14.8828281
| 30>     H       15.6563495   14.9910396   17.0586335
| 31>     H       15.1129878   14.3440712   15.5228793
| 32>     H       15.7229067   18.9616738   14.2520192
| 33>     H       17.2479767   19.8297486   14.0497115
| 34>     H       15.8737658   20.6137031   14.8579474
| 35>     H       16.9054614   21.0742066   16.7864200
| 36>     H       18.7505533   18.5304038   19.2982266
| 37>     H       18.8486194   17.1112202   17.3296787
| 38>     H       18.7269970   14.8817609   18.1042623
| 39>     H       17.6794230   13.1353516   19.5300511
| 40>     H       15.5639481   13.6409938   20.7551266
| 41>     H       14.0695213   15.1778688   21.2310660
| 42>     H       15.5646890   17.6314541   19.1509947
| 43> *
| 44>
| 45>                          ****END OF INPUT****

CARTESIAN COORDINATES (ANGSTROEM)
---------------------------------
  C     14.434860   16.361444   15.900190
  C     15.502169   15.248933   16.007267
  O     16.753929   15.592208   15.362483
  C     17.281253   16.848600   15.209312
  O     17.852899   17.148120   14.177208
  C     17.127164   17.809665   16.349307
  C     16.914533   19.115830   16.057200
  C     16.409619   19.664465   14.739364
  N     17.153790   20.120314   16.995952
  C     17.848063   19.928821   18.159974
  S     18.211351   21.178674   19.180094
  N     18.250650   18.643484   18.425083
  C     17.853596   17.448141   17.655143
  C     17.213719   16.375429   18.519105
  C     17.808178   15.105851   18.640845
  C     17.215617   14.116903   19.444055
  C     16.024555   14.402459   20.133919
  C     15.437320   15.670369   20.022116
  O     14.286419   15.948151   20.683946
  C     16.028295   16.652694   19.221330
  H     14.617375   17.176315   16.609051
  H     13.445790   15.949485   16.135213
  H     14.392659   16.770149   14.882828
  H     15.656349   14.991040   17.058633
  H     15.112988   14.344071   15.522879
  H     15.722907   18.961674   14.252019
  H     17.247977   19.829749   14.049712
  H     15.873766   20.613703   14.857947
  H     16.905461   21.074207   16.786420
  H     18.750553   18.530404   19.298227
  H     18.848619   17.111220   17.329679
  H     18.726997   14.881761   18.104262
  H     17.679423   13.135352   19.530051
  H     15.563948   13.640994   20.755127
  H     14.069521   15.177869   21.231066
  H     15.564689   17.631454   19.150995

 Total Charge           Charge          ....    0
 Multiplicity           Mult            ....    1
 Number of Electrons    NEL             ....  154
 Basis Dimension        Dim             ....  828

ORBITAL ENERGIES
----------------

  NO   OCC          E(Eh)            E(eV)
   0   2.0000     -91.890188     -2500.4591
   1   2.0000     -20.605949      -560.7164
   2   2.0000     -20.590419      -560.2938
   3   2.0000     -20.548560      -559.1548
   4   2.0000     -15.627346      -425.2417
   5   2.0000     -15.610511      -424.7836
   6   2.0000     -11.395091      -310.0762
   7   2.0000     -11.385177      -309.8064
   8   2.0000     -11.329824      -308.3002
   9   2.0000     -11.324443      -308.1537
  10   2.0000     -11.316271      -307.9314
  11   2.0000     -11.300299      -307.4968
  12   2.0000     -11.270229      -306.6785
  13   2.0000     -11.265302      -306.5444
  14   2.0000     -11.256366      -306.3013
  15   2.0000     -11.254936      -306.2624
  16   2.0000     -11.254577      -306.2526
  17   2.0000     -11.248925      -306.0988
  18   2.0000     -11.248791      -306.0952
  19   2.0000     -11.233275      -305.6729
  20   2.0000      -8.895260      -242.0523
  21   2.0000      -6.576833      -178.9647
  22   2.0000      -6.574833      -178.9103
  23   2.0000      -6.574243      -178.8943
  24   2.0000      -1.441046       -39.2128
  25   2.0000      -1.425723       -38.7959
  26   2.0000      -1.354118       -36.8474
  27   2.0000      -1.340654       -36.4810
  28   2.0000      -1.240366       -33.7521
  29   2.0000      -1.167471       -31.7685
  30   2.0000      -1.124240       -30.5921
  31   2.0000      -1.051287       -28.6070
  32   2.0000      -1.033930       -28.1347
  33   2.0000      -1.025396       -27.9024
  34   2.0000      -1.003503       -27.3067
  35   2.0000      -0.989240       -26.9186
  36   2.0000      -0.927187       -25.2300
  37   2.0000      -0.898420       -24.4473
  38   2.0000      -0.850679       -23.1482
  39   2.0000      -0.845168       -22.9982
  40   2.0000      -0.844287       -22.9742
  41   2.0000      -0.827265       -22.5110
  42   2.0000      -0.749885       -20.4054
  43   2.0000      -0.740368       -20.1464
  44   2.0000      -0.718429       -19.5494
  45   2.0000      -0.704365       -19.1667
  46   2.0000      -0.691225       -18.8092
  47   2.0000      -0.678301       -18.4575
  48   2.0000      -0.675735       -18.3877
  49   2.0000      -0.661916       -18.0116
  50   2.0000      -0.653535       -17.7836
  51   2.0000      -0.648852       -17.6561
  52   2.0000      -0.638741       -17.3810
  53   2.0000      -0.620676       -16.8895
  54   2.0000      -0.614928       -16.7330
  55   2.0000      -0.608214       -16.5503
  56   2.0000      -0.603309       -16.4169
  57   2.0000      -0.584410       -15.9026
  58   2.0000      -0.576854       -15.6970
  59   2.0000      -0.567001       -15.4289
  60   2.0000      -0.559019       -15.2117
  61   2.0000      -0.550031       -14.9671
  62   2.0000      -0.540293       -14.7021
  63   2.0000      -0.535259       -14.5651
  64   2.0000      -0.530842       -14.4449
  65   2.0000      -0.517261       -14.0754
  66   2.0000      -0.505681       -13.7603
  67   2.0000      -0.498172       -13.5559
  68   2.0000      -0.484715       -13.1898
  69   2.0000      -0.467757       -12.7283
  70   2.0000      -0.450774       -12.2662
  71   2.0000      -0.446434       -12.1481
  72   2.0000      -0.359695        -9.7878
  73   2.0000      -0.351602        -9.5676
  74   2.0000      -0.333552        -9.0764
  75   2.0000      -0.328752        -8.9458
  76   2.0000      -0.319521        -8.6946
  77   0.0000       0.080254         2.1838
  78   0.0000       0.095460         2.5976
  79   0.0000       0.120200         3.2708
  80   0.0000       0.126433         3.4404
  81   0.0000       0.128693         3.5019

MULLIKEN ATOMIC CHARGES
-----------------------
   0 C :   -0.330553
   1 C :    0.033469
   2 O :   -0.333356
   3 C :    0.411459
   4 O :   -0.370564
   5 C :   -0.256417
   6 C :    0.166145
   7 C :   -0.281850
   8 N :   -0.129584
   9 C :    0.208600
  10 S :   -0.440527
  11 N :   -0.209096
  12 C :    0.049238
  13 C :   -0.001958
  14 C :   -0.167353
  15 C :   -0.132667
  16 C :   -0.272023
  17 C :    0.310103
  18 O :   -0.355732
  19 C :   -0.251811
  20 H :    0.112033
  21 H :    0.117368
  22 H :    0.107780
  23 H :    0.101028
  24 H :    0.124710
  25 H :    0.117561
  26 H :    0.145842
  27 H :    0.097242
  28 H :    0.198047
  29 H :    0.199682
  30 H :    0.157859
  31 H :    0.155382
  32 H :    0.164959
  33 H :    0.135519
  34 H :    0.242331
  35 H :    0.177132
Sum of atomic charges:   -0.0000000

LOEWDIN ATOMIC CHARGES
----------------------
   0 C :    0.102381
   1 C :   -0.012451
   2 O :    0.293405
   3 C :   -0.423184
   4 O :    0.126904
   5 C :   -0.093867
   6 C :   -0.074704
   7 C :    0.129037
   8 N :    0.405989
   9 C :   -0.456154
  10 S :   -0.035725
  11 N :    0.395634
  12 C :   -0.055566
  13 C :   -0.045823
  14 C :    0.019450
  15 C :    0.044069
  16 C :    0.002012
  17 C :   -0.192101
  18 O :    0.397357
  19 C :    0.034253
  20 H :   -0.036193
  21 H :   -0.021898
  22 H :   -0.028778
  23 H :   -0.034811
  24 H :   -0.022341
  25 H :   -0.010705
  26 H :   -0.003504
  27 H :   -0.021387
  28 H :   -0.057123
  29 H :   -0.063853
  30 H :   -0.009807
  31 H :   -0.025884
  32 H :   -0.018182
  33 H :   -0.032963
  34 H :   -0.151938
  35 H :   -0.021550

  Mayer bond orders larger than 0.100000
B(  0-C ,  1-C ) :   0.9580 B(  0-C , 20-H ) :   0.9684 B(  0-C , 21-H ) :   0.9765
B(  0-C , 22-H ) :   0.9757 B(  1-C ,  2-O ) :   0.9048 B(  1-C , 23-H ) :   0.9671
B(  1-C , 24-H ) :   0.9843 B(  2-O ,  3-C ) :   1.1717 B(  3-C ,  4-O ) :   2.1144
B(  3-C ,  5-C ) :   0.9423 B(  5-C ,  6-C ) :   1.6795 B(  5-C , 12-C ) :   0.9578
B(  6-C ,  7-C ) :   0.9464 B(  6-C ,  8-N ) :   1.1334 B(  7-C , 25-H ) :   0.9748
B(  7-C , 26-H ) :   0.9566 B(  7-C , 27-H ) :   0.9842 B(  8-N ,  9-C ) :   1.1965
B(  8-N , 28-H ) :   0.9492 B(  9-C , 10-S ) :   1.6125 B(  9-C , 11-N ) :   1.2908
B( 11-N , 12-C ) :   0.9778 B( 11-N , 29-H ) :   0.9478 B( 12-C , 13-C ) :   0.9527
B( 12-C , 30-H ) :   1.0056 B( 13-C , 14-C ) :   1.3653 B( 13-C , 19-C ) :   1.3579
B( 14-C , 15-C ) :   1.3959 B( 14-C , 31-H ) :   0.9702 B( 15-C , 16-C ) :   1.3622
B( 15-C , 32-H ) :   0.9699 B( 16-C , 17-C ) :   1.3285 B( 16-C , 33-H ) :   0.9833
B( 17-C , 18-O ) :   1.1112 B( 17-C , 19-C ) :   1.3638 B( 18-O , 34-H ) :   0.9783
B( 19-C , 35-H ) :   0.9556

MP2 TOTAL ENERGY:    -1274.320022491 Eh
FINAL SINGLE POINT ENERGY     -1274.320022490680

DIPOLE MOMENT
-------------
                                X             Y             Z
Electronic contribution:      9.10137       6.77723       6.22549
Nuclear contribution   :    -10.55631      -8.47417      -5.87541
                        -----------------------------------------
Total Dipole Moment    :     -1.45494      -1.69693       0.35008
                        -----------------------------------------
Magnitude (a.u.)       :      2.26252
Magnitude (Debye)      :      5.75086

Rotational constants in cm-1:     0.012303     0.009057     0.006420
Rotational constants in MHz :   368.836695   271.509122   192.464318

                             ****ORCA TERMINATED NORMALLY****
TOTAL RUN TIME: 0 days 1 hours 47 minutes 20 seconds 483 msec
