                         Program Version 4.2.0 -  RELEASE  -
|  1> ! ri-mp2 cc-pvtz cc-pvtz/c TightSCF NoKeepInts
|  2>
|  3> %scf
|  4>   MaxCore 4096
|  5> end
|  6> *xyz  0  1
|  7>     C       14.3663324   15.3120825   15.6556872
|  8>     C       15.8314733   14.8213164   15.6945282
|  9>     O       16.8206018   15.8747054   15.5785115
| 10>     C       16.5109686   17.1901271   15.3680409
| 11>     O       15.8663640   17.5525273   14.3995037
| 12>     C       17.0127962   18.0918905   16.4639948
| 13>     C       17.0208597   19.4409081   16.3095132
| 14>     C       16.3421976   20.2415868   15.2173999
| 15>     N       17.7121105   20.2635066   17.2018884
| 16>     C       18.5657151   19.8101237   18.1708247
| 17>     S       19.4214724   20.8432731   19.1383328
| 18>     N       18.6918762   18.4489476   18.2857903
| 19>     C       17.9003825   17.4498811   17.5438680
| 20>     C       17.1666467   16.4848652   18.4662686
| 21>     C       17.7065679   15.2147206   18.7402527
| 22>     C       17.0257069   14.3156205   19.5782336
| 23>     C       15.7969128   14.6911678   20.1477638
| 24>     C       15.2610761   15.9589444   19.8821716
| 25>     O       14.0748880   16.3241260   20.4299662
| 26>     C       15.9413706   16.8520084   19.0486802
| 27>     H       14.1845092   16.0794807   16.4186698
| 28>     H       13.6846183   14.4763590   15.8538795
| 29>     H       14.1082567   15.7204006   14.6705650
| 30>     H       15.9973442   14.2846567   16.6374477
| 31>     H       15.9819577   14.1012208   14.8799264
| 32>     H       16.7948553   20.0248164   14.2413036
| 33>     H       16.4014738   21.3245934   15.3771110
| 34>     H       15.2785720   19.9791843   15.1501604
| 35>     H       17.6460186   21.2649237   17.1134316
| 36>     H       19.3041711   18.1452693   19.0322065
| 37>     H       18.6979348   16.9267047   16.9971407
| 38>     H       18.6541181   14.9216138   18.2957000
| 39>     H       17.4501965   13.3343955   19.7844260
| 40>     H       15.2672525   14.0003287   20.7956727
| 41>     H       13.7857429   15.6027802   21.0089925
| 42>     H       15.5136591   17.8309431   18.8601462
| 43> *
| 44>
| 45>                          ****END OF INPUT****

CARTESIAN COORDINATES (ANGSTROEM)
---------------------------------
  C     14.366332   15.312082   15.655687
  C     15.831473   14.821316   15.694528
  O     16.820602   15.874705   15.578511
  C     16.510969   17.190127   15.368041
  O     15.866364   17.552527   14.399504
  C     17.012796   18.091891   16.463995
  C     17.020860   19.440908   16.309513
  C     16.342198   20.241587   15.217400
  N     17.712111   20.263507   17.201888
  C     18.565715   19.810124   18.170825
  S     19.421472   20.843273   19.138333
  N     18.691876   18.448948   18.285790
  C     17.900382   17.449881   17.543868
  C     17.166647   16.484865   18.466269
  C     17.706568   15.214721   18.740253
  C     17.025707   14.315620   19.578234
  C     15.796913   14.691168   20.147764
  C     15.261076   15.958944   19.882172
  O     14.074888   16.324126   20.429966
  C     15.941371   16.852008   19.048680
  H     14.184509   16.079481   16.418670
  H     13.684618   14.476359   15.853879
  H     14.108257   15.720401   14.670565
  H     15.997344   14.284657   16.637448
  H     15.981958   14.101221   14.879926
  H     16.794855   20.024816   14.241304
  H     16.401474   21.324593   15.377111
  H     15.278572   19.979184   15.150160
  H     17.646019   21.264924   17.113432
  H     19.304171   18.145269   19.032206
  H     18.697935   16.926705   16.997141
  H     18.654118   14.921614   18.295700
  H     17.450197   13.334395   19.784426
  H     15.267252   14.000329   20.795673
  H     13.785743   15.602780   21.008993
  H     15.513659   17.830943   18.860146

 Total Charge           Charge          ....    0
 Multiplicity           Mult            ....    1
 Number of Electrons    NEL             ....  154
 Basis Dimension        Dim             ....  828

ORBITAL ENERGIES
----------------

  NO   OCC          E(Eh)            E(eV)
   0   2.0000     -91.889509     -2500.4407
   1   2.0000     -20.601454      -560.5941
   2   2.0000     -20.584665      -560.1372
   3   2.0000     -20.542345      -558.9856
   4   2.0000     -15.629889      -425.3109
   5   2.0000     -15.607700      -424.7071
   6   2.0000     -11.393312      -310.0278
   7   2.0000     -11.384230      -309.7807
   8   2.0000     -11.337686      -308.5141
   9   2.0000     -11.318988      -308.0053
  10   2.0000     -11.308434      -307.7181
  11   2.0000     -11.298485      -307.4474
  12   2.0000     -11.265287      -306.5440
  13   2.0000     -11.260340      -306.4094
  14   2.0000     -11.257754      -306.3391
  15   2.0000     -11.252087      -306.1848
  16   2.0000     -11.248411      -306.0848
  17   2.0000     -11.243188      -305.9427
  18   2.0000     -11.243072      -305.9396
  19   2.0000     -11.224358      -305.4303
  20   2.0000      -8.894576      -242.0337
  21   2.0000      -6.576148      -178.9461
  22   2.0000      -6.574150      -178.8917
  23   2.0000      -6.573559      -178.8756
  24   2.0000      -1.441278       -39.2192
  25   2.0000      -1.421109       -38.6703
  26   2.0000      -1.349930       -36.7335
  27   2.0000      -1.340935       -36.4887
  28   2.0000      -1.239060       -33.7165
  29   2.0000      -1.161896       -31.6168
  30   2.0000      -1.121603       -30.5204
  31   2.0000      -1.045828       -28.4584
  32   2.0000      -1.031939       -28.0805
  33   2.0000      -1.019969       -27.7548
  34   2.0000      -0.997771       -27.1507
  35   2.0000      -0.985680       -26.8217
  36   2.0000      -0.923632       -25.1333
  37   2.0000      -0.895870       -24.3779
  38   2.0000      -0.848272       -23.0826
  39   2.0000      -0.841732       -22.9047
  40   2.0000      -0.838300       -22.8113
  41   2.0000      -0.818893       -22.2832
  42   2.0000      -0.744245       -20.2519
  43   2.0000      -0.735286       -20.0082
  44   2.0000      -0.718654       -19.5556
  45   2.0000      -0.699607       -19.0373
  46   2.0000      -0.688797       -18.7431
  47   2.0000      -0.674635       -18.3578
  48   2.0000      -0.671333       -18.2679
  49   2.0000      -0.659315       -17.9409
  50   2.0000      -0.650332       -17.6964
  51   2.0000      -0.642787       -17.4911
  52   2.0000      -0.636551       -17.3214
  53   2.0000      -0.621364       -16.9082
  54   2.0000      -0.611542       -16.6409
  55   2.0000      -0.604001       -16.4357
  56   2.0000      -0.601825       -16.3765
  57   2.0000      -0.580936       -15.8081
  58   2.0000      -0.570812       -15.5326
  59   2.0000      -0.566645       -15.4192
  60   2.0000      -0.549268       -14.9463
  61   2.0000      -0.542201       -14.7540
  62   2.0000      -0.534944       -14.5566
  63   2.0000      -0.528337       -14.3768
  64   2.0000      -0.522975       -14.2309
  65   2.0000      -0.514444       -13.9987
  66   2.0000      -0.502064       -13.6618
  67   2.0000      -0.492362       -13.3979
  68   2.0000      -0.488298       -13.2873
  69   2.0000      -0.463072       -12.6008
  70   2.0000      -0.454614       -12.3707
  71   2.0000      -0.440798       -11.9947
  72   2.0000      -0.355323        -9.6688
  73   2.0000      -0.352227        -9.5846
  74   2.0000      -0.329646        -8.9701
  75   2.0000      -0.325758        -8.8643
  76   2.0000      -0.319065        -8.6822
  77   0.0000       0.074199         2.0191
  78   0.0000       0.099849         2.7170
  79   0.0000       0.122631         3.3370
  80   0.0000       0.130594         3.5537
  81   0.0000       0.131509         3.5785

MULLIKEN ATOMIC CHARGES
-----------------------
   0 C :   -0.316807
   1 C :    0.039596
   2 O :   -0.384336
   3 C :    0.478152
   4 O :   -0.420959
   5 C :   -0.284601
   6 C :    0.184162
   7 C :   -0.267616
   8 N :   -0.126431
   9 C :    0.215165
  10 S :   -0.442105
  11 N :   -0.220265
  12 C :    0.083387
  13 C :    0.042165
  14 C :   -0.195460
  15 C :   -0.129009
  16 C :   -0.274952
  17 C :    0.320261
  18 O :   -0.357096
  19 C :   -0.263302
  20 H :    0.100002
  21 H :    0.103343
  22 H :    0.126333
  23 H :    0.106927
  24 H :    0.111897
  25 H :    0.131241
  26 H :    0.094711
  27 H :    0.132081
  28 H :    0.199063
  29 H :    0.200860
  30 H :    0.150942
  31 H :    0.153254
  32 H :    0.164608
  33 H :    0.133252
  34 H :    0.241740
  35 H :    0.169799
Sum of atomic charges:    0.0000000

LOEWDIN ATOMIC CHARGES
----------------------
   0 C :    0.104732
   1 C :   -0.010746
   2 O :    0.289120
   3 C :   -0.419080
   4 O :    0.109842
   5 C :   -0.100181
   6 C :   -0.055791
   7 C :    0.131424
   8 N :    0.407498
   9 C :   -0.455124
  10 S :   -0.036404
  11 N :    0.393930
  12 C :   -0.054345
  13 C :   -0.037196
  14 C :    0.016575
  15 C :    0.040286
  16 C :   -0.001413
  17 C :   -0.189939
  18 O :    0.396061
  19 C :    0.033062
  20 H :   -0.029339
  21 H :   -0.024658
  22 H :   -0.024640
  23 H :   -0.028710
  24 H :   -0.028065
  25 H :   -0.004223
  26 H :   -0.023631
  27 H :   -0.004754
  28 H :   -0.057043
  29 H :   -0.065193
  30 H :   -0.012517
  31 H :   -0.028237
  32 H :   -0.020130
  33 H :   -0.034621
  34 H :   -0.152851
  35 H :   -0.023702

  Mayer bond orders larger than 0.100000
B(  0-C ,  1-C ) :   0.9658 B(  0-C , 20-H ) :   0.9731 B(  0-C , 21-H ) :   0.9750
B(  0-C , 22-H ) :   0.9717 B(  1-C ,  2-O ) :   0.8916 B(  1-C , 23-H ) :   0.9720
B(  1-C , 24-H ) :   0.9847 B(  2-O ,  3-C ) :   1.1093 B(  3-C ,  4-O ) :   1.9929
B(  3-C ,  5-C ) :   1.0615 B(  5-C ,  6-C ) :   1.6277 B(  5-C , 12-C ) :   0.9540
B(  6-C ,  7-C ) :   0.9654 B(  6-C ,  8-N ) :   1.1619 B(  7-C , 25-H ) :   0.9581
B(  7-C , 26-H ) :   0.9896 B(  7-C , 27-H ) :   0.9620 B(  8-N ,  9-C ) :   1.1855
B(  8-N , 28-H ) :   0.9466 B(  9-C , 10-S ) :   1.6025 B(  9-C , 11-N ) :   1.3118
B( 11-N , 12-C ) :   0.9623 B( 11-N , 29-H ) :   0.9484 B( 12-C , 13-C ) :   0.9653
B( 12-C , 30-H ) :   0.9993 B( 13-C , 14-C ) :   1.3481 B( 13-C , 19-C ) :   1.3654
B( 14-C , 15-C ) :   1.3931 B( 14-C , 31-H ) :   0.9739 B( 15-C , 16-C ) :   1.3568
B( 15-C , 32-H ) :   0.9698 B( 16-C , 17-C ) :   1.3338 B( 16-C , 33-H ) :   0.9842
B( 17-C , 18-O ) :   1.1050 B( 17-C , 19-C ) :   1.3606 B( 18-O , 34-H ) :   0.9791
B( 19-C , 35-H ) :   0.9591

MP2 TOTAL ENERGY:    -1274.330633219 Eh
FINAL SINGLE POINT ENERGY     -1274.330633218882

DIPOLE MOMENT
-------------
                                X             Y             Z
Electronic contribution:      9.65151       9.31695       6.57374
Nuclear contribution   :    -10.67084     -11.02598      -6.53050
                        -----------------------------------------
Total Dipole Moment    :     -1.01933      -1.70903       0.04325
                        -----------------------------------------
Magnitude (a.u.)       :      1.99040
Magnitude (Debye)      :      5.05920

Rotational constants in cm-1:     0.012587     0.008545     0.006198
Rotational constants in MHz :   377.358409   256.171156   185.821527

                             ****ORCA TERMINATED NORMALLY****
TOTAL RUN TIME: 0 days 2 hours 3 minutes 3 seconds 737 msec
