                         Program Version 4.2.0 -  RELEASE  -
|  1> ! ri-mp2 cc-pvtz cc-pvtz/c TightSCF NoKeepInts
|  2>
|  3> %scf
|  4>   MaxCore 4096
|  5> end
|  6> *xyz  0  1
|  7>     C       14.1814496   15.2336775   13.9788652
|  8>     C       14.8759757   15.6801042   15.2759109
|  9>     O       16.0748222   16.3748453   14.9039263
| 10>     C       17.0793833   16.3806426   15.8200401
| 11>     O       17.7276795   15.3765964   16.0561196
| 12>     C       17.1788607   17.6338214   16.6401272
| 13>     C       16.9131355   18.8628401   16.1253199
| 14>     C       16.2814333   19.1911809   14.7868293
| 15>     N       17.2751909   20.0196666   16.8199560
| 16>     C       18.0954744   20.0393562   17.9158283
| 17>     S       18.5705053   21.4561427   18.6243922
| 18>     N       18.5201642   18.8209341   18.3824226
| 19>     C       18.0467906   17.5097514   17.8974861
| 20>     C       17.4102425   16.6561241   18.9861794
| 21>     C       17.8688859   15.3496640   19.2327716
| 22>     C       17.2780532   14.5620624   20.2350103
| 23>     C       16.2199338   15.0858337   20.9975149
| 24>     C       15.7591569   16.3866150   20.7519101
| 25>     O       14.7336735   16.8928071   21.4821598
| 26>     C       16.3485428   17.1677173   19.7526476
| 27>     H       14.8392316   14.5753998   13.3971968
| 28>     H       13.9230782   16.1008478   13.3586591
| 29>     H       13.2594347   14.6842830   14.2046963
| 30>     H       14.2193838   16.3313371   15.8677053
| 31>     H       15.1162513   14.7888745   15.8731497
| 32>     H       16.8156412   18.6901992   13.9693713
| 33>     H       16.2932544   20.2649739   14.5631915
| 34>     H       15.2354634   18.8621977   14.7580898
| 35>     H       16.9924770   20.9228886   16.4744305
| 36>     H       19.1093951   18.8624939   19.2045325
| 37>     H       18.9972523   17.0677393   17.5640790
| 38>     H       18.6771115   14.9384543   18.6321330
| 39>     H       17.6378757   13.5501313   20.4127163
| 40>     H       15.7600776   14.4802771   21.7714039
| 41>     H       14.4910914   16.2260549   22.1422037
| 42>     H       15.9806270   18.1734646   19.5790241
| 43> *
| 44>
| 45>                          ****END OF INPUT****

CARTESIAN COORDINATES (ANGSTROEM)
---------------------------------
  C     14.181450   15.233678   13.978865
  C     14.875976   15.680104   15.275911
  O     16.074822   16.374845   14.903926
  C     17.079383   16.380643   15.820040
  O     17.727680   15.376596   16.056120
  C     17.178861   17.633821   16.640127
  C     16.913135   18.862840   16.125320
  C     16.281433   19.191181   14.786829
  N     17.275191   20.019667   16.819956
  C     18.095474   20.039356   17.915828
  S     18.570505   21.456143   18.624392
  N     18.520164   18.820934   18.382423
  C     18.046791   17.509751   17.897486
  C     17.410242   16.656124   18.986179
  C     17.868886   15.349664   19.232772
  C     17.278053   14.562062   20.235010
  C     16.219934   15.085834   20.997515
  C     15.759157   16.386615   20.751910
  O     14.733674   16.892807   21.482160
  C     16.348543   17.167717   19.752648
  H     14.839232   14.575400   13.397197
  H     13.923078   16.100848   13.358659
  H     13.259435   14.684283   14.204696
  H     14.219384   16.331337   15.867705
  H     15.116251   14.788875   15.873150
  H     16.815641   18.690199   13.969371
  H     16.293254   20.264974   14.563192
  H     15.235463   18.862198   14.758090
  H     16.992477   20.922889   16.474431
  H     19.109395   18.862494   19.204532
  H     18.997252   17.067739   17.564079
  H     18.677111   14.938454   18.632133
  H     17.637876   13.550131   20.412716
  H     15.760078   14.480277   21.771404
  H     14.491091   16.226055   22.142204
  H     15.980627   18.173465   19.579024

 Total Charge           Charge          ....    0
 Multiplicity           Mult            ....    1
 Number of Electrons    NEL             ....  154
 Basis Dimension        Dim             ....  828

ORBITAL ENERGIES
----------------

  NO   OCC          E(Eh)            E(eV)
   0   2.0000     -91.889671     -2500.4451
   1   2.0000     -20.593949      -560.3898
   2   2.0000     -20.588799      -560.2497
   3   2.0000     -20.551798      -559.2429
   4   2.0000     -15.630780      -425.3352
   5   2.0000     -15.607121      -424.6914
   6   2.0000     -11.393414      -310.0306
   7   2.0000     -11.384367      -309.7844
   8   2.0000     -11.340332      -308.5861
   9   2.0000     -11.310054      -307.7622
  10   2.0000     -11.305174      -307.6294
  11   2.0000     -11.303771      -307.5913
  12   2.0000     -11.261843      -306.4503
  13   2.0000     -11.260360      -306.4100
  14   2.0000     -11.257254      -306.3255
  15   2.0000     -11.249980      -306.1275
  16   2.0000     -11.240135      -305.8596
  17   2.0000     -11.236416      -305.7584
  18   2.0000     -11.233343      -305.6748
  19   2.0000     -11.232896      -305.6626
  20   2.0000      -8.894745      -242.0383
  21   2.0000      -6.576318      -178.9507
  22   2.0000      -6.574318      -178.8963
  23   2.0000      -6.573726      -178.8802
  24   2.0000      -1.453963       -39.5643
  25   2.0000      -1.413693       -38.4685
  26   2.0000      -1.359205       -36.9859
  27   2.0000      -1.341632       -36.5077
  28   2.0000      -1.238566       -33.7031
  29   2.0000      -1.154568       -31.4174
  30   2.0000      -1.122349       -30.5407
  31   2.0000      -1.044666       -28.4268
  32   2.0000      -1.037299       -28.2263
  33   2.0000      -1.012178       -27.5428
  34   2.0000      -1.000880       -27.2353
  35   2.0000      -0.985834       -26.8259
  36   2.0000      -0.922465       -25.1016
  37   2.0000      -0.881637       -23.9906
  38   2.0000      -0.850292       -23.1376
  39   2.0000      -0.838787       -22.8245
  40   2.0000      -0.830369       -22.5955
  41   2.0000      -0.829015       -22.5586
  42   2.0000      -0.760845       -20.7036
  43   2.0000      -0.736760       -20.0483
  44   2.0000      -0.728179       -19.8148
  45   2.0000      -0.692044       -18.8315
  46   2.0000      -0.688536       -18.7360
  47   2.0000      -0.681121       -18.5342
  48   2.0000      -0.673075       -18.3153
  49   2.0000      -0.655563       -17.8388
  50   2.0000      -0.648747       -17.6533
  51   2.0000      -0.642303       -17.4780
  52   2.0000      -0.632201       -17.2031
  53   2.0000      -0.621166       -16.9028
  54   2.0000      -0.604973       -16.4621
  55   2.0000      -0.600838       -16.3496
  56   2.0000      -0.597256       -16.2522
  57   2.0000      -0.579638       -15.7728
  58   2.0000      -0.575114       -15.6496
  59   2.0000      -0.563382       -15.3304
  60   2.0000      -0.560798       -15.2601
  61   2.0000      -0.551180       -14.9984
  62   2.0000      -0.537493       -14.6259
  63   2.0000      -0.522161       -14.2087
  64   2.0000      -0.518095       -14.0981
  65   2.0000      -0.511395       -13.9158
  66   2.0000      -0.505053       -13.7432
  67   2.0000      -0.495916       -13.4946
  68   2.0000      -0.481449       -13.1009
  69   2.0000      -0.463834       -12.6216
  70   2.0000      -0.461703       -12.5636
  71   2.0000      -0.453374       -12.3369
  72   2.0000      -0.354956        -9.6588
  73   2.0000      -0.346641        -9.4326
  74   2.0000      -0.328678        -8.9438
  75   2.0000      -0.318883        -8.6772
  76   2.0000      -0.316770        -8.6198
  77   0.0000       0.072065         1.9610
  78   0.0000       0.108421         2.9503
  79   0.0000       0.118579         3.2267
  80   0.0000       0.134192         3.6515
  81   0.0000       0.138497         3.7687

MULLIKEN ATOMIC CHARGES
-----------------------
   0 C :   -0.260200
   1 C :    0.028250
   2 O :   -0.369695
   3 C :    0.464439
   4 O :   -0.391660
   5 C :   -0.224632
   6 C :    0.158814
   7 C :   -0.284559
   8 N :   -0.128154
   9 C :    0.206180
  10 S :   -0.439902
  11 N :   -0.211298
  12 C :    0.044053
  13 C :    0.032525
  14 C :   -0.175257
  15 C :   -0.133622
  16 C :   -0.277572
  17 C :    0.313505
  18 O :   -0.358944
  19 C :   -0.253755
  20 H :    0.106273
  21 H :    0.091430
  22 H :    0.089689
  23 H :    0.093396
  24 H :    0.109075
  25 H :    0.131269
  26 H :    0.105855
  27 H :    0.121467
  28 H :    0.198912
  29 H :    0.199927
  30 H :    0.156698
  31 H :    0.162261
  32 H :    0.161242
  33 H :    0.129053
  34 H :    0.240402
  35 H :    0.164533
Sum of atomic charges:   -0.0000000

LOEWDIN ATOMIC CHARGES
----------------------
   0 C :    0.110018
   1 C :   -0.022324
   2 O :    0.300129
   3 C :   -0.423687
   4 O :    0.123286
   5 C :   -0.097445
   6 C :   -0.064932
   7 C :    0.126053
   8 N :    0.405898
   9 C :   -0.458322
  10 S :   -0.035805
  11 N :    0.396196
  12 C :   -0.048842
  13 C :   -0.041435
  14 C :    0.024460
  15 C :    0.041482
  16 C :   -0.001094
  17 C :   -0.192989
  18 O :    0.393029
  19 C :    0.028274
  20 H :   -0.021914
  21 H :   -0.029408
  22 H :   -0.025059
  23 H :   -0.035921
  24 H :   -0.024589
  25 H :   -0.006935
  26 H :   -0.020207
  27 H :   -0.010952
  28 H :   -0.058287
  29 H :   -0.063222
  30 H :   -0.007398
  31 H :   -0.023289
  32 H :   -0.020478
  33 H :   -0.035864
  34 H :   -0.154398
  35 H :   -0.024030

  Mayer bond orders larger than 0.100000
B(  0-C ,  1-C ) :   0.9791 B(  0-C , 20-H ) :   0.9770 B(  0-C , 21-H ) :   0.9792
B(  0-C , 22-H ) :   0.9755 B(  1-C ,  2-O ) :   0.8917 B(  1-C , 23-H ) :   0.9730
B(  1-C , 24-H ) :   0.9738 B(  2-O ,  3-C ) :   1.0843 B(  3-C ,  4-O ) :   2.0505
B(  3-C ,  5-C ) :   1.0184 B(  5-C ,  6-C ) :   1.6591 B(  5-C , 12-C ) :   0.9527
B(  6-C ,  7-C ) :   0.9518 B(  6-C ,  8-N ) :   1.1396 B(  7-C , 25-H ) :   0.9651
B(  7-C , 26-H ) :   0.9895 B(  7-C , 27-H ) :   0.9667 B(  8-N ,  9-C ) :   1.1834
B(  8-N , 28-H ) :   0.9471 B(  9-C , 10-S ) :   1.6116 B(  9-C , 11-N ) :   1.3048
B( 11-N , 12-C ) :   0.9783 B( 11-N , 29-H ) :   0.9486 B( 12-C , 13-C ) :   0.9722
B( 12-C , 30-H ) :   0.9956 B( 13-C , 14-C ) :   1.3789 B( 13-C , 19-C ) :   1.3626
B( 14-C , 15-C ) :   1.3971 B( 14-C , 31-H ) :   0.9625 B( 15-C , 16-C ) :   1.3593
B( 15-C , 32-H ) :   0.9707 B( 16-C , 17-C ) :   1.3328 B( 16-C , 33-H ) :   0.9857
B( 17-C , 18-O ) :   1.1043 B( 17-C , 19-C ) :   1.3677 B( 18-O , 34-H ) :   0.9802
B( 19-C , 35-H ) :   0.9600

MP2 TOTAL ENERGY:    -1274.327625345 Eh
FINAL SINGLE POINT ENERGY     -1274.327625345153

DIPOLE MOMENT
-------------
                                X             Y             Z
Electronic contribution:     10.65083       9.52416      10.73172
Nuclear contribution   :    -12.15758     -10.72247     -11.37516
                        -----------------------------------------
Total Dipole Moment    :     -1.50675      -1.19831      -0.64344
                        -----------------------------------------
Magnitude (a.u.)       :      2.02985
Magnitude (Debye)      :      5.15946

Rotational constants in cm-1:     0.009702     0.009352     0.005752
Rotational constants in MHz :   290.849171   280.363057   172.454149

                             ****ORCA TERMINATED NORMALLY****
TOTAL RUN TIME: 0 days 1 hours 40 minutes 24 seconds 735 msec
