                         Program Version 4.2.0 -  RELEASE  -
|  1> ! ri-mp2 cc-pvtz cc-pvtz/c TightSCF NoKeepInts
|  2>
|  3> %scf
|  4>   MaxCore 4096
|  5> end
|  6> *xyz  0  1
|  7>     C       14.0788970   15.1437887   15.2545752
|  8>     C       14.9663654   16.3908809   15.3961713
|  9>     O       16.2984052   16.0038615   15.0036935
| 10>     C       17.4331666   16.4642967   15.6225277
| 11>     O       18.4922543   15.8743837   15.5166516
| 12>     C       17.2767481   17.6489466   16.5192602
| 13>     C       16.9619897   18.8617329   16.0028348
| 14>     C       16.5241332   19.1704430   14.5852134
| 15>     N       17.1169213   20.0231411   16.7617033
| 16>     C       17.8070675   20.0814657   17.9439550
| 17>     S       18.0534811   21.5103019   18.7387801
| 18>     N       18.3054150   18.8938206   18.4210887
| 19>     C       18.0194204   17.5616429   17.8516603
| 20>     C       17.3755592   16.5762771   18.8149729
| 21>     C       17.8284901   15.2461406   18.8713743
| 22>     C       17.2237282   14.3224172   19.7399851
| 23>     C       16.1547691   14.7319345   20.5555086
| 24>     C       15.6966819   16.0552843   20.4951637
| 25>     O       14.6579015   16.4505821   21.2732088
| 26>     C       16.2998299   16.9727538   19.6286854
| 27>     H       14.4451261   14.3348321   15.8995469
| 28>     H       14.0785190   14.7846308   14.2177463
| 29>     H       13.0447331   15.3700064   15.5413375
| 30>     H       14.5877002   17.1983570   14.7581518
| 31>     H       14.9301844   16.7130376   16.4455713
| 32>     H       16.7344088   18.3488355   13.8896772
| 33>     H       17.0569574   20.0458180   14.1916543
| 34>     H       15.4500849   19.3869130   14.5413692
| 35>     H       16.7922318   20.9075412   16.4032384
| 36>     H       18.8080197   18.9630479   19.2972901
| 37>     H       19.0399322   17.2335211   17.6028226
| 38>     H       18.6467649   14.9254298   18.2294251
| 39>     H       17.5815647   13.2946831   19.7745017
| 40>     H       15.6839657   14.0209255   21.2264231
| 41>     H       14.4069536   15.6965411   21.8280158
| 42>     H       15.9286290   17.9917843   19.5942146
| 43> *
| 44>
| 45>                          ****END OF INPUT****

CARTESIAN COORDINATES (ANGSTROEM)
---------------------------------
  C     14.078897   15.143789   15.254575
  C     14.966365   16.390881   15.396171
  O     16.298405   16.003861   15.003694
  C     17.433167   16.464297   15.622528
  O     18.492254   15.874384   15.516652
  C     17.276748   17.648947   16.519260
  C     16.961990   18.861733   16.002835
  C     16.524133   19.170443   14.585213
  N     17.116921   20.023141   16.761703
  C     17.807067   20.081466   17.943955
  S     18.053481   21.510302   18.738780
  N     18.305415   18.893821   18.421089
  C     18.019420   17.561643   17.851660
  C     17.375559   16.576277   18.814973
  C     17.828490   15.246141   18.871374
  C     17.223728   14.322417   19.739985
  C     16.154769   14.731934   20.555509
  C     15.696682   16.055284   20.495164
  O     14.657901   16.450582   21.273209
  C     16.299830   16.972754   19.628685
  H     14.445126   14.334832   15.899547
  H     14.078519   14.784631   14.217746
  H     13.044733   15.370006   15.541337
  H     14.587700   17.198357   14.758152
  H     14.930184   16.713038   16.445571
  H     16.734409   18.348835   13.889677
  H     17.056957   20.045818   14.191654
  H     15.450085   19.386913   14.541369
  H     16.792232   20.907541   16.403238
  H     18.808020   18.963048   19.297290
  H     19.039932   17.233521   17.602823
  H     18.646765   14.925430   18.229425
  H     17.581565   13.294683   19.774502
  H     15.683966   14.020925   21.226423
  H     14.406954   15.696541   21.828016
  H     15.928629   17.991784   19.594215

 Total Charge           Charge          ....    0
 Multiplicity           Mult            ....    1
 Number of Electrons    NEL             ....  154
 Basis Dimension        Dim             ....  828

ORBITAL ENERGIES
----------------

  NO   OCC          E(Eh)            E(eV)
   0   2.0000     -91.889757     -2500.4474
   1   2.0000     -20.605286      -560.6983
   2   2.0000     -20.599498      -560.5408
   3   2.0000     -20.549718      -559.1862
   4   2.0000     -15.627732      -425.2522
   5   2.0000     -15.609588      -424.7585
   6   2.0000     -11.399229      -310.1888
   7   2.0000     -11.385737      -309.8217
   8   2.0000     -11.333757      -308.4072
   9   2.0000     -11.316844      -307.9470
  10   2.0000     -11.310175      -307.7655
  11   2.0000     -11.306690      -307.6707
  12   2.0000     -11.267857      -306.6140
  13   2.0000     -11.264622      -306.5260
  14   2.0000     -11.264055      -306.5105
  15   2.0000     -11.257082      -306.3208
  16   2.0000     -11.245866      -306.0156
  17   2.0000     -11.242153      -305.9145
  18   2.0000     -11.239350      -305.8383
  19   2.0000     -11.233452      -305.6778
  20   2.0000      -8.894867      -242.0416
  21   2.0000      -6.576449      -178.9543
  22   2.0000      -6.574435      -178.8995
  23   2.0000      -6.573854      -178.8837
  24   2.0000      -1.449732       -39.4492
  25   2.0000      -1.419208       -38.6186
  26   2.0000      -1.362770       -37.0829
  27   2.0000      -1.340948       -36.4890
  28   2.0000      -1.239357       -33.7246
  29   2.0000      -1.161207       -31.5980
  30   2.0000      -1.126387       -30.6506
  31   2.0000      -1.048554       -28.5326
  32   2.0000      -1.041699       -28.3461
  33   2.0000      -1.019045       -27.7296
  34   2.0000      -1.006214       -27.3805
  35   2.0000      -0.989564       -26.9274
  36   2.0000      -0.926581       -25.2136
  37   2.0000      -0.882724       -24.0201
  38   2.0000      -0.856301       -23.3011
  39   2.0000      -0.842489       -22.9253
  40   2.0000      -0.837692       -22.7948
  41   2.0000      -0.836055       -22.7502
  42   2.0000      -0.757234       -20.6054
  43   2.0000      -0.740353       -20.1460
  44   2.0000      -0.732025       -19.9194
  45   2.0000      -0.697297       -18.9744
  46   2.0000      -0.689618       -18.7655
  47   2.0000      -0.683635       -18.6026
  48   2.0000      -0.674984       -18.3673
  49   2.0000      -0.661643       -18.0042
  50   2.0000      -0.659870       -17.9560
  51   2.0000      -0.647736       -17.6258
  52   2.0000      -0.639019       -17.3886
  53   2.0000      -0.612949       -16.6792
  54   2.0000      -0.607511       -16.5312
  55   2.0000      -0.602926       -16.4065
  56   2.0000      -0.597046       -16.2464
  57   2.0000      -0.580930       -15.8079
  58   2.0000      -0.577936       -15.7265
  59   2.0000      -0.572166       -15.5694
  60   2.0000      -0.561773       -15.2866
  61   2.0000      -0.560061       -15.2400
  62   2.0000      -0.552644       -15.0382
  63   2.0000      -0.528531       -14.3821
  64   2.0000      -0.518709       -14.1148
  65   2.0000      -0.514852       -14.0098
  66   2.0000      -0.505433       -13.7535
  67   2.0000      -0.501495       -13.6464
  68   2.0000      -0.488742       -13.2994
  69   2.0000      -0.472150       -12.8479
  70   2.0000      -0.455871       -12.4049
  71   2.0000      -0.451892       -12.2966
  72   2.0000      -0.356267        -9.6945
  73   2.0000      -0.351722        -9.5708
  74   2.0000      -0.329271        -8.9599
  75   2.0000      -0.324383        -8.8269
  76   2.0000      -0.319704        -8.6996
  77   0.0000       0.084672         2.3041
  78   0.0000       0.103316         2.8114
  79   0.0000       0.116147         3.1605
  80   0.0000       0.129908         3.5350
  81   0.0000       0.130464         3.5501

MULLIKEN ATOMIC CHARGES
-----------------------
   0 C :   -0.252045
   1 C :    0.019805
   2 O :   -0.308990
   3 C :    0.413651
   4 O :   -0.383272
   5 C :   -0.231176
   6 C :    0.174755
   7 C :   -0.343100
   8 N :   -0.140122
   9 C :    0.208413
  10 S :   -0.442905
  11 N :   -0.221862
  12 C :    0.062474
  13 C :    0.028440
  14 C :   -0.220792
  15 C :   -0.127548
  16 C :   -0.276884
  17 C :    0.315258
  18 O :   -0.355995
  19 C :   -0.257279
  20 H :    0.105007
  21 H :    0.100800
  22 H :    0.088055
  23 H :    0.088082
  24 H :    0.107940
  25 H :    0.136564
  26 H :    0.133881
  27 H :    0.124969
  28 H :    0.197960
  29 H :    0.202320
  30 H :    0.167163
  31 H :    0.175600
  32 H :    0.164664
  33 H :    0.131483
  34 H :    0.241360
  35 H :    0.173330
Sum of atomic charges:   -0.0000000

LOEWDIN ATOMIC CHARGES
----------------------
   0 C :    0.110802
   1 C :   -0.022707
   2 O :    0.308452
   3 C :   -0.415866
   4 O :    0.118301
   5 C :   -0.085433
   6 C :   -0.089370
   7 C :    0.124754
   8 N :    0.402722
   9 C :   -0.456642
  10 S :   -0.038235
  11 N :    0.396050
  12 C :   -0.049700
  13 C :   -0.044115
  14 C :    0.020199
  15 C :    0.044895
  16 C :    0.000076
  17 C :   -0.191387
  18 O :    0.394895
  19 C :    0.026609
  20 H :   -0.022212
  21 H :   -0.025551
  22 H :   -0.025684
  23 H :   -0.036312
  24 H :   -0.032517
  25 H :   -0.007650
  26 H :   -0.010429
  27 H :   -0.018050
  28 H :   -0.057079
  29 H :   -0.063588
  30 H :   -0.004003
  31 H :   -0.021217
  32 H :   -0.018583
  33 H :   -0.034833
  34 H :   -0.153166
  35 H :   -0.023427

  Mayer bond orders larger than 0.100000
B(  0-C ,  1-C ) :   0.9845 B(  0-C , 20-H ) :   0.9781 B(  0-C , 21-H ) :   0.9789
B(  0-C , 22-H ) :   0.9769 B(  1-C ,  2-O ) :   0.9073 B(  1-C , 23-H ) :   0.9718
B(  1-C , 24-H ) :   0.9588 B(  2-O ,  3-C ) :   1.1899 B(  3-C ,  4-O ) :   2.0932
B(  3-C ,  5-C ) :   0.9242 B(  5-C ,  6-C ) :   1.7107 B(  5-C , 12-C ) :   0.9400
B(  6-C ,  7-C ) :   0.9332 B(  6-C ,  8-N ) :   1.1098 B(  7-C , 25-H ) :   0.9755
B(  7-C , 26-H ) :   0.9745 B(  7-C , 27-H ) :   0.9671 B(  8-N ,  9-C ) :   1.1969
B(  8-N , 28-H ) :   0.9510 B(  9-C , 10-S ) :   1.6101 B(  9-C , 11-N ) :   1.2915
B( 11-N , 12-C ) :   0.9848 B( 11-N , 29-H ) :   0.9475 B( 12-C , 13-C ) :   0.9681
B( 12-C , 30-H ) :   0.9897 B( 13-C , 14-C ) :   1.3853 B( 13-C , 19-C ) :   1.3527
B( 14-C , 15-C ) :   1.3935 B( 14-C , 31-H ) :   0.9596 B( 15-C , 16-C ) :   1.3617
B( 15-C , 32-H ) :   0.9696 B( 16-C , 17-C ) :   1.3312 B( 16-C , 33-H ) :   0.9850
B( 17-C , 18-O ) :   1.1089 B( 17-C , 19-C ) :   1.3649 B( 18-O , 34-H ) :   0.9793
B( 19-C , 35-H ) :   0.9566

MP2 TOTAL ENERGY:    -1274.331844482 Eh
FINAL SINGLE POINT ENERGY     -1274.331844482309

DIPOLE MOMENT
-------------
                                X             Y             Z
Electronic contribution:     10.26601       8.57669       8.47029
Nuclear contribution   :    -11.94521      -9.67997      -8.86159
                        -----------------------------------------
Total Dipole Moment    :     -1.67920      -1.10328      -0.39130
                        -----------------------------------------
Magnitude (a.u.)       :      2.04696
Magnitude (Debye)      :      5.20296

Rotational constants in cm-1:     0.010796     0.009077     0.006208
Rotational constants in MHz :   323.645661   272.126184   186.122125

                             ****ORCA TERMINATED NORMALLY****
TOTAL RUN TIME: 0 days 1 hours 38 minutes 53 seconds 783 msec
