                         Program Version 4.2.0 -  RELEASE  -
|  1> ! ri-mp2 cc-pvtz cc-pvtz/c TightSCF NoKeepInts
|  2>
|  3> %scf
|  4>   MaxCore 4096
|  5> end
|  6> *xyz  0  1
|  7>     C       14.0006680   15.3829652   14.6430961
|  8>     C       14.9778802   16.1161525   15.5760678
|  9>     O       16.2770576   16.0683921   14.9582916
| 10>     C       17.3764007   16.3646101   15.7133117
| 11>     O       18.3486777   15.6329640   15.7394905
| 12>     C       17.2646043   17.5931936   16.5596126
| 13>     C       16.9296187   18.7869233   16.0096522
| 14>     C       16.4463190   19.0403593   14.5946141
| 15>     N       17.1048048   19.9742640   16.7233952
| 16>     C       17.8267085   20.0749369   17.8833980
| 17>     S       18.0908646   21.5308873   18.6213584
| 18>     N       18.3393605   18.9054941   18.3889081
| 19>     C       18.0411628   17.5533642   17.8758998
| 20>     C       17.4153159   16.6136774   18.8958765
| 21>     C       17.8953362   15.2994875   19.0374761
| 22>     C       17.3075790   14.4203281   19.9622269
| 23>     C       16.2288766   14.8585955   20.7494535
| 24>     C       15.7443881   16.1659246   20.6053218
| 25>     O       14.6965007   16.5886181   21.3562646
| 26>     C       16.3303908   17.0385797   19.6826340
| 27>     H       14.3237249   14.3461606   14.4846712
| 28>     H       13.9492353   15.8811370   13.6669804
| 29>     H       12.9927436   15.3660866   15.0752880
| 30>     H       14.6432069   17.1472372   15.7408211
| 31>     H       15.0029101   15.5992764   16.5457996
| 32>     H       16.9021235   18.3434509   13.8798116
| 33>     H       16.7092350   20.0477233   14.2477435
| 34>     H       15.3577499   18.9382341   14.5191140
| 35>     H       16.7643097   20.8446955   16.3462375
| 36>     H       18.8623609   19.0064650   19.2499378
| 37>     H       19.0549604   17.2135017   17.6160664
| 38>     H       18.7211607   14.9554020   18.4178268
| 39>     H       17.6863576   13.4044200   20.0618967
| 40>     H       15.7714006   14.1820151   21.4638049
| 41>     H       14.4630247   15.8682397   21.9611965
| 42>     H       15.9399812   18.0462374   19.5844544
| 43> *
| 44>
| 45>                          ****END OF INPUT****

CARTESIAN COORDINATES (ANGSTROEM)
---------------------------------
  C     14.000668   15.382965   14.643096
  C     14.977880   16.116152   15.576068
  O     16.277058   16.068392   14.958292
  C     17.376401   16.364610   15.713312
  O     18.348678   15.632964   15.739491
  C     17.264604   17.593194   16.559613
  C     16.929619   18.786923   16.009652
  C     16.446319   19.040359   14.594614
  N     17.104805   19.974264   16.723395
  C     17.826708   20.074937   17.883398
  S     18.090865   21.530887   18.621358
  N     18.339360   18.905494   18.388908
  C     18.041163   17.553364   17.875900
  C     17.415316   16.613677   18.895876
  C     17.895336   15.299487   19.037476
  C     17.307579   14.420328   19.962227
  C     16.228877   14.858595   20.749453
  C     15.744388   16.165925   20.605322
  O     14.696501   16.588618   21.356265
  C     16.330391   17.038580   19.682634
  H     14.323725   14.346161   14.484671
  H     13.949235   15.881137   13.666980
  H     12.992744   15.366087   15.075288
  H     14.643207   17.147237   15.740821
  H     15.002910   15.599276   16.545800
  H     16.902123   18.343451   13.879812
  H     16.709235   20.047723   14.247743
  H     15.357750   18.938234   14.519114
  H     16.764310   20.844695   16.346238
  H     18.862361   19.006465   19.249938
  H     19.054960   17.213502   17.616066
  H     18.721161   14.955402   18.417827
  H     17.686358   13.404420   20.061897
  H     15.771401   14.182015   21.463805
  H     14.463025   15.868240   21.961196
  H     15.939981   18.046237   19.584454

 Total Charge           Charge          ....    0
 Multiplicity           Mult            ....    1
 Number of Electrons    NEL             ....  154
 Basis Dimension        Dim             ....  828

ORBITAL ENERGIES
----------------

  NO   OCC          E(Eh)            E(eV)
   0   2.0000     -91.890119     -2500.4572
   1   2.0000     -20.598482      -560.5132
   2   2.0000     -20.598041      -560.5012
   3   2.0000     -20.553298      -559.2837
   4   2.0000     -15.629365      -425.2966
   5   2.0000     -15.608949      -424.7411
   6   2.0000     -11.396484      -310.1141
   7   2.0000     -11.385662      -309.8196
   8   2.0000     -11.336701      -308.4873
   9   2.0000     -11.314966      -307.8959
  10   2.0000     -11.308212      -307.7121
  11   2.0000     -11.306855      -307.6752
  12   2.0000     -11.265735      -306.5562
  13   2.0000     -11.262404      -306.4656
  14   2.0000     -11.262107      -306.4575
  15   2.0000     -11.255086      -306.2665
  16   2.0000     -11.244410      -305.9760
  17   2.0000     -11.240525      -305.8702
  18   2.0000     -11.237356      -305.7840
  19   2.0000     -11.235897      -305.7443
  20   2.0000      -8.895215      -242.0511
  21   2.0000      -6.576793      -178.9636
  22   2.0000      -6.574785      -178.9090
  23   2.0000      -6.574199      -178.8930
  24   2.0000      -1.452050       -39.5123
  25   2.0000      -1.417766       -38.5794
  26   2.0000      -1.363591       -37.1052
  27   2.0000      -1.341449       -36.5027
  28   2.0000      -1.239245       -33.7216
  29   2.0000      -1.159348       -31.5475
  30   2.0000      -1.125203       -30.6183
  31   2.0000      -1.047255       -28.4973
  32   2.0000      -1.041067       -28.3289
  33   2.0000      -1.017066       -27.6758
  34   2.0000      -1.004487       -27.3335
  35   2.0000      -0.988875       -26.9087
  36   2.0000      -0.925415       -25.1818
  37   2.0000      -0.880062       -23.9477
  38   2.0000      -0.855391       -23.2764
  39   2.0000      -0.842807       -22.9339
  40   2.0000      -0.836570       -22.7642
  41   2.0000      -0.834385       -22.7048
  42   2.0000      -0.759305       -20.6617
  43   2.0000      -0.738989       -20.1089
  44   2.0000      -0.731560       -19.9068
  45   2.0000      -0.695462       -18.9245
  46   2.0000      -0.688369       -18.7315
  47   2.0000      -0.684068       -18.6144
  48   2.0000      -0.674213       -18.3463
  49   2.0000      -0.663119       -18.0444
  50   2.0000      -0.655254       -17.8304
  51   2.0000      -0.647791       -17.6273
  52   2.0000      -0.639562       -17.4034
  53   2.0000      -0.612069       -16.6552
  54   2.0000      -0.605293       -16.4709
  55   2.0000      -0.603204       -16.4140
  56   2.0000      -0.600941       -16.3524
  57   2.0000      -0.582939       -15.8626
  58   2.0000      -0.576680       -15.6923
  59   2.0000      -0.565502       -15.3881
  60   2.0000      -0.560593       -15.2545
  61   2.0000      -0.560145       -15.2423
  62   2.0000      -0.547564       -14.9000
  63   2.0000      -0.524406       -14.2698
  64   2.0000      -0.522752       -14.2248
  65   2.0000      -0.514217       -13.9926
  66   2.0000      -0.502773       -13.6812
  67   2.0000      -0.500268       -13.6130
  68   2.0000      -0.489404       -13.3174
  69   2.0000      -0.469361       -12.7720
  70   2.0000      -0.461322       -12.5532
  71   2.0000      -0.452276       -12.3071
  72   2.0000      -0.356409        -9.6984
  73   2.0000      -0.350389        -9.5346
  74   2.0000      -0.329431        -8.9643
  75   2.0000      -0.322490        -8.7754
  76   2.0000      -0.319714        -8.6999
  77   0.0000       0.078603         2.1389
  78   0.0000       0.105110         2.8602
  79   0.0000       0.115976         3.1559
  80   0.0000       0.131086         3.5670
  81   0.0000       0.132236         3.5983

MULLIKEN ATOMIC CHARGES
-----------------------
   0 C :   -0.257173
   1 C :    0.020356
   2 O :   -0.328371
   3 C :    0.424138
   4 O :   -0.375982
   5 C :   -0.223873
   6 C :    0.151034
   7 C :   -0.310688
   8 N :   -0.135324
   9 C :    0.207368
  10 S :   -0.441188
  11 N :   -0.218808
  12 C :    0.059996
  13 C :    0.024057
  14 C :   -0.209774
  15 C :   -0.128837
  16 C :   -0.278113
  17 C :    0.313670
  18 O :   -0.356823
  19 C :   -0.250740
  20 H :    0.107543
  21 H :    0.094948
  22 H :    0.090457
  23 H :    0.088985
  24 H :    0.111158
  25 H :    0.139847
  26 H :    0.119174
  27 H :    0.119920
  28 H :    0.197911
  29 H :    0.201460
  30 H :    0.163294
  31 H :    0.173905
  32 H :    0.163890
  33 H :    0.131186
  34 H :    0.241060
  35 H :    0.170337
Sum of atomic charges:   -0.0000000

LOEWDIN ATOMIC CHARGES
----------------------
   0 C :    0.112010
   1 C :   -0.026644
   2 O :    0.302656
   3 C :   -0.419368
   4 O :    0.125785
   5 C :   -0.090476
   6 C :   -0.080255
   7 C :    0.128040
   8 N :    0.403660
   9 C :   -0.457183
  10 S :   -0.036932
  11 N :    0.395947
  12 C :   -0.049497
  13 C :   -0.043783
  14 C :    0.020832
  15 C :    0.043310
  16 C :   -0.000647
  17 C :   -0.192370
  18 O :    0.394314
  19 C :    0.027263
  20 H :   -0.021518
  21 H :   -0.027344
  22 H :   -0.024373
  23 H :   -0.039440
  24 H :   -0.026571
  25 H :   -0.006466
  26 H :   -0.014740
  27 H :   -0.016790
  28 H :   -0.057829
  29 H :   -0.063562
  30 H :   -0.005229
  31 H :   -0.021637
  32 H :   -0.019105
  33 H :   -0.035107
  34 H :   -0.153470
  35 H :   -0.023480

  Mayer bond orders larger than 0.100000
B(  0-C ,  1-C ) :   0.9797 B(  0-C , 20-H ) :   0.9773 B(  0-C , 21-H ) :   0.9777
B(  0-C , 22-H ) :   0.9761 B(  1-C ,  2-O ) :   0.9008 B(  1-C , 23-H ) :   0.9690
B(  1-C , 24-H ) :   0.9746 B(  2-O ,  3-C ) :   1.1484 B(  3-C ,  4-O ) :   2.0985
B(  3-C ,  5-C ) :   0.9401 B(  5-C ,  6-C ) :   1.7048 B(  5-C , 12-C ) :   0.9436
B(  6-C ,  7-C ) :   0.9379 B(  6-C ,  8-N ) :   1.1194 B(  7-C , 25-H ) :   0.9690
B(  7-C , 26-H ) :   0.9844 B(  7-C , 27-H ) :   0.9664 B(  8-N ,  9-C ) :   1.1912
B(  8-N , 28-H ) :   0.9493 B(  9-C , 10-S ) :   1.6114 B(  9-C , 11-N ) :   1.2949
B( 11-N , 12-C ) :   0.9839 B( 11-N , 29-H ) :   0.9482 B( 12-C , 13-C ) :   0.9689
B( 12-C , 30-H ) :   0.9910 B( 13-C , 14-C ) :   1.3839 B( 13-C , 19-C ) :   1.3572
B( 14-C , 15-C ) :   1.3937 B( 14-C , 31-H ) :   0.9595 B( 15-C , 16-C ) :   1.3612
B( 15-C , 32-H ) :   0.9701 B( 16-C , 17-C ) :   1.3311 B( 16-C , 33-H ) :   0.9850
B( 17-C , 18-O ) :   1.1077 B( 17-C , 19-C ) :   1.3670 B( 18-O , 34-H ) :   0.9796
B( 19-C , 35-H ) :   0.9575

MP2 TOTAL ENERGY:    -1274.330753940 Eh
FINAL SINGLE POINT ENERGY     -1274.330753939667

DIPOLE MOMENT
-------------
                                X             Y             Z
Electronic contribution:     10.47776       8.57624       9.27247
Nuclear contribution   :    -12.07015      -9.72933      -9.65123
                        -----------------------------------------
Total Dipole Moment    :     -1.59239      -1.15309      -0.37876
                        -----------------------------------------
Magnitude (a.u.)       :      2.00219
Magnitude (Debye)      :      5.08916

Rotational constants in cm-1:     0.010266     0.009253     0.006122
Rotational constants in MHz :   307.774986   277.409597   183.523279

                             ****ORCA TERMINATED NORMALLY****
TOTAL RUN TIME: 0 days 1 hours 41 minutes 36 seconds 362 msec
