                         Program Version 4.2.0 -  RELEASE  -
|  1> ! ri-mp2 cc-pvtz cc-pvtz/c TightSCF NoKeepInts
|  2>
|  3> %scf
|  4>   MaxCore 4096
|  5> end
|  6> *xyz  0  1
|  7>     C       14.9896614   14.2528569   14.8676841
|  8>     C       15.0821015   15.3780202   15.9112924
|  9>     O       16.2446942   16.1624881   15.5955449
| 10>     C       16.0860859   17.5124474   15.5013143
| 11>     O       15.3262718   17.9993679   14.6830207
| 12>     C       16.8112908   18.2722815   16.5799109
| 13>     C       16.9062695   19.6261124   16.5288812
| 14>     C       16.1334042   20.5653780   15.6260468
| 15>     N       17.7954162   20.3174334   17.3549092
| 16>     C       18.7623974   19.7233933   18.1196531
| 17>     S       19.8487010   20.6063419   19.0004722
| 18>     N       18.7991803   18.3522662   18.1001538
| 19>     C       17.8106690   17.4791891   17.4400297
| 20>     C       17.1708966   16.4899849   18.4049053
| 21>     C       17.5813402   15.1441889   18.4227199
| 22>     C       16.9863166   14.2287705   19.3070533
| 23>     C       15.9767538   14.6642508   20.1826234
| 24>     C       15.5721629   16.0063438   20.1718780
| 25>     O       14.5981245   16.4296104   21.0159755
| 26>     C       16.1647805   16.9147265   19.2892002
| 27>     H       14.1178162   13.6168635   15.0627040
| 28>     H       15.8884859   13.6246034   14.8951839
| 29>     H       14.8902232   14.6725676   13.8585367
| 30>     H       14.1672556   15.9858143   15.8706898
| 31>     H       15.1700154   14.9541075   16.9198703
| 32>     H       15.0546552   20.3804093   15.7081124
| 33>     H       16.4131765   20.4100055   14.5761461
| 34>     H       16.3011779   21.6231633   15.8604626
| 35>     H       17.7952332   21.3249619   17.3585709
| 36>     H       19.5051251   17.9421646   18.6984475
| 37>     H       18.4600717   16.9539256   16.7250360
| 38>     H       18.3583058   14.8055243   17.7421489
| 39>     H       17.3083112   13.1886528   19.3127604
| 40>     H       15.5151300   13.9611332   20.8683253
| 41>     H       14.3517288   15.6796108   21.5781922
| 42>     H       15.8437699   17.9510403   19.2995436
| 43> *
| 44>
| 45>                          ****END OF INPUT****

CARTESIAN COORDINATES (ANGSTROEM)
---------------------------------
  C     14.989661   14.252857   14.867684
  C     15.082102   15.378020   15.911292
  O     16.244694   16.162488   15.595545
  C     16.086086   17.512447   15.501314
  O     15.326272   17.999368   14.683021
  C     16.811291   18.272281   16.579911
  C     16.906270   19.626112   16.528881
  C     16.133404   20.565378   15.626047
  N     17.795416   20.317433   17.354909
  C     18.762397   19.723393   18.119653
  S     19.848701   20.606342   19.000472
  N     18.799180   18.352266   18.100154
  C     17.810669   17.479189   17.440030
  C     17.170897   16.489985   18.404905
  C     17.581340   15.144189   18.422720
  C     16.986317   14.228770   19.307053
  C     15.976754   14.664251   20.182623
  C     15.572163   16.006344   20.171878
  O     14.598124   16.429610   21.015975
  C     16.164780   16.914727   19.289200
  H     14.117816   13.616863   15.062704
  H     15.888486   13.624603   14.895184
  H     14.890223   14.672568   13.858537
  H     14.167256   15.985814   15.870690
  H     15.170015   14.954107   16.919870
  H     15.054655   20.380409   15.708112
  H     16.413176   20.410005   14.576146
  H     16.301178   21.623163   15.860463
  H     17.795233   21.324962   17.358571
  H     19.505125   17.942165   18.698448
  H     18.460072   16.953926   16.725036
  H     18.358306   14.805524   17.742149
  H     17.308311   13.188653   19.312760
  H     15.515130   13.961133   20.868325
  H     14.351729   15.679611   21.578192
  H     15.843770   17.951040   19.299544

 Total Charge           Charge          ....    0
 Multiplicity           Mult            ....    1
 Number of Electrons    NEL             ....  154
 Basis Dimension        Dim             ....  828

ORBITAL ENERGIES
----------------

  NO   OCC          E(Eh)            E(eV)
   0   2.0000     -91.890459     -2500.4665
   1   2.0000     -20.601194      -560.5870
   2   2.0000     -20.585652      -560.1641
   3   2.0000     -20.544715      -559.0501
   4   2.0000     -15.630965      -425.3402
   5   2.0000     -15.608589      -424.7313
   6   2.0000     -11.392345      -310.0015
   7   2.0000     -11.385062      -309.8033
   8   2.0000     -11.339062      -308.5516
   9   2.0000     -11.319071      -308.0076
  10   2.0000     -11.309623      -307.7505
  11   2.0000     -11.294013      -307.3257
  12   2.0000     -11.265121      -306.5395
  13   2.0000     -11.260263      -306.4073
  14   2.0000     -11.258526      -306.3601
  15   2.0000     -11.252956      -306.2085
  16   2.0000     -11.248598      -306.0899
  17   2.0000     -11.243557      -305.9527
  18   2.0000     -11.243107      -305.9405
  19   2.0000     -11.223029      -305.3941
  20   2.0000      -8.895516      -242.0593
  21   2.0000      -6.577084      -178.9716
  22   2.0000      -6.575090      -178.9173
  23   2.0000      -6.574495      -178.9011
  24   2.0000      -1.448769       -39.4230
  25   2.0000      -1.420874       -38.6639
  26   2.0000      -1.353124       -36.8204
  27   2.0000      -1.342067       -36.5195
  28   2.0000      -1.240075       -33.7441
  29   2.0000      -1.162095       -31.6222
  30   2.0000      -1.122587       -30.5471
  31   2.0000      -1.046290       -28.4710
  32   2.0000      -1.034328       -28.1455
  33   2.0000      -1.019954       -27.7544
  34   2.0000      -0.997899       -27.1542
  35   2.0000      -0.986197       -26.8358
  36   2.0000      -0.924353       -25.1529
  37   2.0000      -0.880492       -23.9594
  38   2.0000      -0.848797       -23.0969
  39   2.0000      -0.841760       -22.9055
  40   2.0000      -0.838528       -22.8175
  41   2.0000      -0.826213       -22.4824
  42   2.0000      -0.761821       -20.7302
  43   2.0000      -0.737170       -20.0594
  44   2.0000      -0.724188       -19.7062
  45   2.0000      -0.699839       -19.0436
  46   2.0000      -0.690109       -18.7788
  47   2.0000      -0.677949       -18.4479
  48   2.0000      -0.673022       -18.3139
  49   2.0000      -0.652817       -17.7641
  50   2.0000      -0.649503       -17.6739
  51   2.0000      -0.641543       -17.4573
  52   2.0000      -0.632259       -17.2046
  53   2.0000      -0.614106       -16.7107
  54   2.0000      -0.611417       -16.6375
  55   2.0000      -0.603273       -16.4159
  56   2.0000      -0.601844       -16.3770
  57   2.0000      -0.581162       -15.8142
  58   2.0000      -0.571794       -15.5593
  59   2.0000      -0.566630       -15.4188
  60   2.0000      -0.563924       -15.3451
  61   2.0000      -0.542020       -14.7491
  62   2.0000      -0.534849       -14.5540
  63   2.0000      -0.528242       -14.3742
  64   2.0000      -0.515938       -14.0394
  65   2.0000      -0.512989       -13.9591
  66   2.0000      -0.502899       -13.6846
  67   2.0000      -0.496931       -13.5222
  68   2.0000      -0.488853       -13.3024
  69   2.0000      -0.464470       -12.6389
  70   2.0000      -0.454800       -12.3757
  71   2.0000      -0.446346       -12.1457
  72   2.0000      -0.355774        -9.6811
  73   2.0000      -0.353370        -9.6157
  74   2.0000      -0.330148        -8.9838
  75   2.0000      -0.326161        -8.8753
  76   2.0000      -0.319973        -8.7069
  77   0.0000       0.072131         1.9628
  78   0.0000       0.100454         2.7335
  79   0.0000       0.123205         3.3526
  80   0.0000       0.129989         3.5372
  81   0.0000       0.132005         3.5920

MULLIKEN ATOMIC CHARGES
-----------------------
   0 C :   -0.260981
   1 C :    0.022849
   2 O :   -0.375835
   3 C :    0.472238
   4 O :   -0.415043
   5 C :   -0.283521
   6 C :    0.184869
   7 C :   -0.265672
   8 N :   -0.127198
   9 C :    0.212583
  10 S :   -0.439989
  11 N :   -0.217939
  12 C :    0.076991
  13 C :    0.001271
  14 C :   -0.172630
  15 C :   -0.134341
  16 C :   -0.274269
  17 C :    0.309519
  18 O :   -0.355670
  19 C :   -0.227638
  20 H :    0.085812
  21 H :    0.090652
  22 H :    0.105750
  23 H :    0.099759
  24 H :    0.118947
  25 H :    0.132456
  26 H :    0.131128
  27 H :    0.094675
  28 H :    0.199635
  29 H :    0.201139
  30 H :    0.151726
  31 H :    0.154667
  32 H :    0.163258
  33 H :    0.133340
  34 H :    0.241515
  35 H :    0.165946
Sum of atomic charges:   -0.0000000

LOEWDIN ATOMIC CHARGES
----------------------
   0 C :    0.106902
   1 C :   -0.018241
   2 O :    0.300812
   3 C :   -0.422516
   4 O :    0.108408
   5 C :   -0.100816
   6 C :   -0.054401
   7 C :    0.131784
   8 N :    0.407712
   9 C :   -0.455975
  10 S :   -0.034826
  11 N :    0.394242
  12 C :   -0.054691
  13 C :   -0.039200
  14 C :    0.016479
  15 C :    0.039819
  16 C :   -0.001188
  17 C :   -0.190190
  18 O :    0.396198
  19 C :    0.032650
  20 H :   -0.028203
  21 H :   -0.029210
  22 H :   -0.022987
  23 H :   -0.028719
  24 H :   -0.030076
  25 H :   -0.004428
  26 H :   -0.004143
  27 H :   -0.023443
  28 H :   -0.056834
  29 H :   -0.064574
  30 H :   -0.012321
  31 H :   -0.028005
  32 H :   -0.020008
  33 H :   -0.034455
  34 H :   -0.152897
  35 H :   -0.022660

  Mayer bond orders larger than 0.100000
B(  0-C ,  1-C ) :   0.9847 B(  0-C , 20-H ) :   0.9768 B(  0-C , 21-H ) :   0.9794
B(  0-C , 22-H ) :   0.9783 B(  1-C ,  2-O ) :   0.8761 B(  1-C , 23-H ) :   0.9723
B(  1-C , 24-H ) :   0.9688 B(  2-O ,  3-C ) :   1.1056 B(  3-C ,  4-O ) :   2.0066
B(  3-C ,  5-C ) :   1.0757 B(  5-C ,  6-C ) :   1.6243 B(  5-C , 12-C ) :   0.9500
B(  6-C ,  7-C ) :   0.9667 B(  6-C ,  8-N ) :   1.1586 B(  7-C , 25-H ) :   0.9615
B(  7-C , 26-H ) :   0.9577 B(  7-C , 27-H ) :   0.9899 B(  8-N ,  9-C ) :   1.1854
B(  8-N , 28-H ) :   0.9462 B(  9-C , 10-S ) :   1.6061 B(  9-C , 11-N ) :   1.3107
B( 11-N , 12-C ) :   0.9636 B( 11-N , 29-H ) :   0.9484 B( 12-C , 13-C ) :   0.9643
B( 12-C , 30-H ) :   1.0016 B( 13-C , 14-C ) :   1.3525 B( 13-C , 19-C ) :   1.3781
B( 14-C , 15-C ) :   1.3955 B( 14-C , 31-H ) :   0.9725 B( 15-C , 16-C ) :   1.3565
B( 15-C , 32-H ) :   0.9706 B( 16-C , 17-C ) :   1.3321 B( 16-C , 33-H ) :   0.9843
B( 17-C , 18-O ) :   1.1073 B( 17-C , 19-C ) :   1.3663 B( 18-O , 34-H ) :   0.9789
B( 19-C , 35-H ) :   0.9587

MP2 TOTAL ENERGY:    -1274.331975942 Eh
FINAL SINGLE POINT ENERGY     -1274.331975942100

DIPOLE MOMENT
-------------
                                X             Y             Z
Electronic contribution:      9.36750      10.80887       7.83314
Nuclear contribution   :    -10.44317     -12.34911      -7.72621
                        -----------------------------------------
Total Dipole Moment    :     -1.07567      -1.54024       0.10693
                        -----------------------------------------
Magnitude (a.u.)       :      1.88171
Magnitude (Debye)      :      4.78293

Rotational constants in cm-1:     0.012068     0.008366     0.005964
Rotational constants in MHz :   361.775174   250.802082   178.802027

                             ****ORCA TERMINATED NORMALLY****
TOTAL RUN TIME: 0 days 1 hours 42 minutes 48 seconds 145 msec
