                         Program Version 4.2.0 -  RELEASE  -
|  1> ! ri-mp2 cc-pvtz cc-pvtz/c TightSCF NoKeepInts
|  2>
|  3> %scf
|  4>   MaxCore 4096
|  5> end
|  6> *xyz  0  1
|  7>     C       14.4402189   15.1845383   15.0136268
|  8>     C       15.7141396   14.9512611   15.8530948
|  9>     O       16.7610231   15.9180037   15.5922489
| 10>     C       16.5017875   17.2458139   15.3904484
| 11>     O       15.9181913   17.6429152   14.3974283
| 12>     C       16.9704651   18.1176237   16.5268867
| 13>     C       16.9570982   19.4713989   16.4115388
| 14>     C       16.2575623   20.2963155   15.3506868
| 15>     N       17.6383952   20.2798845   17.3242760
| 16>     C       18.5186923   19.8155273   18.2631384
| 17>     S       19.3702384   20.8358473   19.2477092
| 18>     N       18.6763535   18.4548336   18.3304798
| 19>     C       17.8829269   17.4635981   17.5802400
| 20>     C       17.1871798   16.4665942   18.4965898
| 21>     C       17.7120325   15.1729120   18.6726270
| 22>     C       17.0665238   14.2498037   19.5124643
| 23>     C       15.8906659   14.6257000   20.1845010
| 24>     C       15.3714770   15.9170809   20.0176338
| 25>     O       14.2370344   16.2828763   20.6653518
| 26>     C       16.0149008   16.8329976   19.1794713
| 27>     H       13.9355697   16.1143346   15.3043970
| 28>     H       13.7315377   14.3607489   15.1604997
| 29>     H       14.6828089   15.2368887   13.9445266
| 30>     H       15.4355810   14.9913904   16.9137873
| 31>     H       16.1023966   13.9441603   15.6545793
| 32>     H       15.2079931   19.9909245   15.2522047
| 33>     H       16.7338474   20.1513384   14.3724692
| 34>     H       16.2640332   21.3710569   15.5671271
| 35>     H       17.5513986   21.2820012   17.2671642
| 36>     H       19.3111147   18.1408362   19.0536086
| 37>     H       18.6815162   16.9696829   17.0083006
| 38>     H       18.6194939   14.8805569   18.1504615
| 39>     H       17.4784043   13.2502268   19.6422459
| 40>     H       15.3895007   13.9166838   20.8355437
| 41>     H       13.9724151   15.5433943   21.2332089
| 42>     H       15.6024825   17.8302493   19.0674341
| 43> *
| 44>
| 45>                          ****END OF INPUT****

CARTESIAN COORDINATES (ANGSTROEM)
---------------------------------
  C     14.440219   15.184538   15.013627
  C     15.714140   14.951261   15.853095
  O     16.761023   15.918004   15.592249
  C     16.501787   17.245814   15.390448
  O     15.918191   17.642915   14.397428
  C     16.970465   18.117624   16.526887
  C     16.957098   19.471399   16.411539
  C     16.257562   20.296315   15.350687
  N     17.638395   20.279885   17.324276
  C     18.518692   19.815527   18.263138
  S     19.370238   20.835847   19.247709
  N     18.676354   18.454834   18.330480
  C     17.882927   17.463598   17.580240
  C     17.187180   16.466594   18.496590
  C     17.712032   15.172912   18.672627
  C     17.066524   14.249804   19.512464
  C     15.890666   14.625700   20.184501
  C     15.371477   15.917081   20.017634
  O     14.237034   16.282876   20.665352
  C     16.014901   16.832998   19.179471
  H     13.935570   16.114335   15.304397
  H     13.731538   14.360749   15.160500
  H     14.682809   15.236889   13.944527
  H     15.435581   14.991390   16.913787
  H     16.102397   13.944160   15.654579
  H     15.207993   19.990924   15.252205
  H     16.733847   20.151338   14.372469
  H     16.264033   21.371057   15.567127
  H     17.551399   21.282001   17.267164
  H     19.311115   18.140836   19.053609
  H     18.681516   16.969683   17.008301
  H     18.619494   14.880557   18.150461
  H     17.478404   13.250227   19.642246
  H     15.389501   13.916684   20.835544
  H     13.972415   15.543394   21.233209
  H     15.602482   17.830249   19.067434

 Total Charge           Charge          ....    0
 Multiplicity           Mult            ....    1
 Number of Electrons    NEL             ....  154
 Basis Dimension        Dim             ....  828

ORBITAL ENERGIES
----------------

  NO   OCC          E(Eh)            E(eV)
   0   2.0000     -91.889913     -2500.4517
   1   2.0000     -20.601674      -560.6000
   2   2.0000     -20.583450      -560.1041
   3   2.0000     -20.544044      -559.0319
   4   2.0000     -15.630297      -425.3220
   5   2.0000     -15.608015      -424.7157
   6   2.0000     -11.393553      -310.0343
   7   2.0000     -11.384400      -309.7853
   8   2.0000     -11.338362      -308.5325
   9   2.0000     -11.319547      -308.0205
  10   2.0000     -11.309075      -307.7356
  11   2.0000     -11.297954      -307.4330
  12   2.0000     -11.265219      -306.5422
  13   2.0000     -11.260621      -306.4171
  14   2.0000     -11.258170      -306.3504
  15   2.0000     -11.252447      -306.1947
  16   2.0000     -11.249011      -306.1011
  17   2.0000     -11.243835      -305.9603
  18   2.0000     -11.243262      -305.9447
  19   2.0000     -11.220794      -305.3333
  20   2.0000      -8.894977      -242.0446
  21   2.0000      -6.576548      -178.9570
  22   2.0000      -6.574551      -178.9026
  23   2.0000      -6.573959      -178.8865
  24   2.0000      -1.441778       -39.2328
  25   2.0000      -1.421372       -38.6775
  26   2.0000      -1.351172       -36.7673
  27   2.0000      -1.341604       -36.5069
  28   2.0000      -1.239652       -33.7327
  29   2.0000      -1.162261       -31.6267
  30   2.0000      -1.121706       -30.5232
  31   2.0000      -1.046190       -28.4683
  32   2.0000      -1.031142       -28.0588
  33   2.0000      -1.020268       -27.7629
  34   2.0000      -0.997749       -27.1501
  35   2.0000      -0.985718       -26.8228
  36   2.0000      -0.924026       -25.1440
  37   2.0000      -0.890676       -24.2365
  38   2.0000      -0.848761       -23.0960
  39   2.0000      -0.842122       -22.9153
  40   2.0000      -0.838788       -22.8246
  41   2.0000      -0.822750       -22.3882
  42   2.0000      -0.747431       -20.3386
  43   2.0000      -0.735802       -20.0222
  44   2.0000      -0.716550       -19.4983
  45   2.0000      -0.699707       -19.0400
  46   2.0000      -0.688755       -18.7420
  47   2.0000      -0.677103       -18.4249
  48   2.0000      -0.667301       -18.1582
  49   2.0000      -0.664597       -18.0846
  50   2.0000      -0.649454       -17.6725
  51   2.0000      -0.645183       -17.5563
  52   2.0000      -0.637141       -17.3375
  53   2.0000      -0.611852       -16.6493
  54   2.0000      -0.611084       -16.6284
  55   2.0000      -0.603176       -16.4133
  56   2.0000      -0.602110       -16.3842
  57   2.0000      -0.580943       -15.8083
  58   2.0000      -0.571145       -15.5417
  59   2.0000      -0.567624       -15.4458
  60   2.0000      -0.555812       -15.1244
  61   2.0000      -0.541459       -14.7338
  62   2.0000      -0.535214       -14.5639
  63   2.0000      -0.527940       -14.3660
  64   2.0000      -0.523437       -14.2434
  65   2.0000      -0.514600       -14.0030
  66   2.0000      -0.502244       -13.6668
  67   2.0000      -0.493257       -13.4222
  68   2.0000      -0.484007       -13.1705
  69   2.0000      -0.463470       -12.6117
  70   2.0000      -0.452707       -12.3188
  71   2.0000      -0.441426       -12.0118
  72   2.0000      -0.355897        -9.6845
  73   2.0000      -0.352881        -9.6024
  74   2.0000      -0.329959        -8.9786
  75   2.0000      -0.326339        -8.8801
  76   2.0000      -0.319432        -8.6922
  77   0.0000       0.072466         1.9719
  78   0.0000       0.099880         2.7179
  79   0.0000       0.123231         3.3533
  80   0.0000       0.129719         3.5298
  81   0.0000       0.132118         3.5951

MULLIKEN ATOMIC CHARGES
-----------------------
   0 C :   -0.282674
   1 C :    0.033499
   2 O :   -0.384741
   3 C :    0.471566
   4 O :   -0.410012
   5 C :   -0.277591
   6 C :    0.185585
   7 C :   -0.265512
   8 N :   -0.127525
   9 C :    0.212681
  10 S :   -0.441094
  11 N :   -0.217649
  12 C :    0.077339
  13 C :   -0.009290
  14 C :   -0.161953
  15 C :   -0.132897
  16 C :   -0.274754
  17 C :    0.309408
  18 O :   -0.356466
  19 C :   -0.229419
  20 H :    0.096521
  21 H :    0.097400
  22 H :    0.114531
  23 H :    0.100442
  24 H :    0.104175
  25 H :    0.130663
  26 H :    0.132183
  27 H :    0.094366
  28 H :    0.199569
  29 H :    0.200922
  30 H :    0.151620
  31 H :    0.155034
  32 H :    0.163243
  33 H :    0.133444
  34 H :    0.241641
  35 H :    0.165746
Sum of atomic charges:    0.0000000

LOEWDIN ATOMIC CHARGES
----------------------
   0 C :    0.104297
   1 C :   -0.016473
   2 O :    0.286333
   3 C :   -0.416535
   4 O :    0.116702
   5 C :   -0.101133
   6 C :   -0.054464
   7 C :    0.131037
   8 N :    0.407614
   9 C :   -0.456352
  10 S :   -0.035643
  11 N :    0.394405
  12 C :   -0.054752
  13 C :   -0.039645
  14 C :    0.017803
  15 C :    0.041112
  16 C :   -0.001004
  17 C :   -0.191131
  18 O :    0.396330
  19 C :    0.031182
  20 H :   -0.028968
  21 H :   -0.027599
  22 H :   -0.022821
  23 H :   -0.031866
  24 H :   -0.024047
  25 H :   -0.005092
  26 H :   -0.004150
  27 H :   -0.023603
  28 H :   -0.056903
  29 H :   -0.064650
  30 H :   -0.012204
  31 H :   -0.027789
  32 H :   -0.019881
  33 H :   -0.034381
  34 H :   -0.152812
  35 H :   -0.022919

  Mayer bond orders larger than 0.100000
B(  0-C ,  1-C ) :   0.9816 B(  0-C , 20-H ) :   0.9742 B(  0-C , 21-H ) :   0.9742
B(  0-C , 22-H ) :   0.9741 B(  1-C ,  2-O ) :   0.8970 B(  1-C , 23-H ) :   0.9674
B(  1-C , 24-H ) :   0.9798 B(  2-O ,  3-C ) :   1.0893 B(  3-C ,  4-O ) :   2.0122
B(  3-C ,  5-C ) :   1.0700 B(  5-C ,  6-C ) :   1.6275 B(  5-C , 12-C ) :   0.9536
B(  6-C ,  7-C ) :   0.9663 B(  6-C ,  8-N ) :   1.1573 B(  7-C , 25-H ) :   0.9628
B(  7-C , 26-H ) :   0.9568 B(  7-C , 27-H ) :   0.9897 B(  8-N ,  9-C ) :   1.1861
B(  8-N , 28-H ) :   0.9464 B(  9-C , 10-S ) :   1.6050 B(  9-C , 11-N ) :   1.3111
B( 11-N , 12-C ) :   0.9614 B( 11-N , 29-H ) :   0.9485 B( 12-C , 13-C ) :   0.9647
B( 12-C , 30-H ) :   1.0006 B( 13-C , 14-C ) :   1.3533 B( 13-C , 19-C ) :   1.3781
B( 14-C , 15-C ) :   1.3948 B( 14-C , 31-H ) :   0.9719 B( 15-C , 16-C ) :   1.3583
B( 15-C , 32-H ) :   0.9702 B( 16-C , 17-C ) :   1.3320 B( 16-C , 33-H ) :   0.9842
B( 17-C , 18-O ) :   1.1073 B( 17-C , 19-C ) :   1.3652 B( 18-O , 34-H ) :   0.9788
B( 19-C , 35-H ) :   0.9593

MP2 TOTAL ENERGY:    -1274.327685215 Eh
FINAL SINGLE POINT ENERGY     -1274.327685214951

DIPOLE MOMENT
-------------
                                X             Y             Z
Electronic contribution:      9.68384       9.42328       7.82447
Nuclear contribution   :    -10.71333     -11.10284      -7.74638
                        -----------------------------------------
Total Dipole Moment    :     -1.02949      -1.67956       0.07809
                        -----------------------------------------
Magnitude (a.u.)       :      1.97151
Magnitude (Debye)      :      5.01119

Rotational constants in cm-1:     0.012054     0.008660     0.006065
Rotational constants in MHz :   361.380191   259.612908   181.833315

                             ****ORCA TERMINATED NORMALLY****
TOTAL RUN TIME: 0 days 1 hours 46 minutes 18 seconds 940 msec
