                         Program Version 4.2.0 -  RELEASE  -
|  1> ! ri-mp2 cc-pvtz cc-pvtz/c TightSCF NoKeepInts
|  2>
|  3> %scf
|  4>   MaxCore 4096
|  5> end
|  6> *xyz  0  1
|  7>     C       14.4429229   15.3979723   16.2481397
|  8>     C       15.0383178   16.3243716   15.1738117
|  9>     O       16.4080681   15.9242532   14.9652540
| 10>     C       17.5101962   16.5611726   15.4797928
| 11>     O       18.6338943   16.1425521   15.2744214
| 12>     C       17.2582804   17.6801991   16.4320932
| 13>     C       16.9695771   18.9106448   15.9450645
| 14>     C       16.5993849   19.2601919   14.5171696
| 15>     N       17.0731821   20.0443654   16.7525207
| 16>     C       17.7039950   20.0625261   17.9689139
| 17>     S       17.9019877   21.4621336   18.8268979
| 18>     N       18.1880424   18.8606037   18.4253209
| 19>     C       17.9347077   17.5487065   17.7958227
| 20>     C       17.2700577   16.5152573   18.6916313
| 21>     C       17.6993384   15.1764010   18.6589959
| 22>     C       17.0745897   14.2069384   19.4609787
| 23>     C       16.0102338   14.5795647   20.2998348
| 24>     C       15.5771103   15.9123259   20.3297868
| 25>     O       14.5422126   16.2721737   21.1297545
| 26>     C       16.1997619   16.8755436   19.5292634
| 27>     H       14.9580705   15.5291560   17.2069549
| 28>     H       14.5390234   14.3466904   15.9487438
| 29>     H       13.3788825   15.6157963   16.4000877
| 30>     H       14.4794051   16.1778588   14.2404043
| 31>     H       14.9240788   17.3717233   15.4697943
| 32>     H       16.7717576   18.4326125   13.8183263
| 33>     H       17.2026962   20.1018587   14.1527906
| 34>     H       15.5433302   19.5467948   14.4423750
| 35>     H       16.7622013   20.9396295   16.4092499
| 36>     H       18.6499302   18.9002691   19.3253991
| 37>     H       18.9689273   17.2407321   17.5796461
| 38>     H       18.5148957   14.8853643   17.9997058
| 39>     H       17.4137905   13.1728719   19.4267629
| 40>     H       15.5239621   13.8332459   20.9194362
| 41>     H       14.2753822   15.4870143   21.6313976
| 42>     H       15.8448054   17.9004848   19.5614570
| 43> *
| 44>
| 45>                          ****END OF INPUT****

CARTESIAN COORDINATES (ANGSTROEM)
---------------------------------
  C     14.442923   15.397972   16.248140
  C     15.038318   16.324372   15.173812
  O     16.408068   15.924253   14.965254
  C     17.510196   16.561173   15.479793
  O     18.633894   16.142552   15.274421
  C     17.258280   17.680199   16.432093
  C     16.969577   18.910645   15.945064
  C     16.599385   19.260192   14.517170
  N     17.073182   20.044365   16.752521
  C     17.703995   20.062526   17.968914
  S     17.901988   21.462134   18.826898
  N     18.188042   18.860604   18.425321
  C     17.934708   17.548706   17.795823
  C     17.270058   16.515257   18.691631
  C     17.699338   15.176401   18.658996
  C     17.074590   14.206938   19.460979
  C     16.010234   14.579565   20.299835
  C     15.577110   15.912326   20.329787
  O     14.542213   16.272174   21.129755
  C     16.199762   16.875544   19.529263
  H     14.958070   15.529156   17.206955
  H     14.539023   14.346690   15.948744
  H     13.378882   15.615796   16.400088
  H     14.479405   16.177859   14.240404
  H     14.924079   17.371723   15.469794
  H     16.771758   18.432613   13.818326
  H     17.202696   20.101859   14.152791
  H     15.543330   19.546795   14.442375
  H     16.762201   20.939629   16.409250
  H     18.649930   18.900269   19.325399
  H     18.968927   17.240732   17.579646
  H     18.514896   14.885364   17.999706
  H     17.413791   13.172872   19.426763
  H     15.523962   13.833246   20.919436
  H     14.275382   15.487014   21.631398
  H     15.844805   17.900485   19.561457

 Total Charge           Charge          ....    0
 Multiplicity           Mult            ....    1
 Number of Electrons    NEL             ....  154
 Basis Dimension        Dim             ....  828

ORBITAL ENERGIES
----------------

  NO   OCC          E(Eh)            E(eV)
   0   2.0000     -91.889681     -2500.4453
   1   2.0000     -20.604642      -560.6808
   2   2.0000     -20.600679      -560.5730
   3   2.0000     -20.551176      -559.2259
   4   2.0000     -15.626906      -425.2297
   5   2.0000     -15.610177      -424.7745
   6   2.0000     -11.400779      -310.2310
   7   2.0000     -11.385836      -309.8244
   8   2.0000     -11.331549      -308.3471
   9   2.0000     -11.318511      -307.9923
  10   2.0000     -11.312176      -307.8200
  11   2.0000     -11.306145      -307.6558
  12   2.0000     -11.268857      -306.6412
  13   2.0000     -11.266420      -306.5749
  14   2.0000     -11.264011      -306.5093
  15   2.0000     -11.259157      -306.3772
  16   2.0000     -11.247466      -306.0591
  17   2.0000     -11.243211      -305.9433
  18   2.0000     -11.241366      -305.8931
  19   2.0000     -11.228273      -305.5368
  20   2.0000      -8.894788      -242.0395
  21   2.0000      -6.576371      -178.9521
  22   2.0000      -6.574356      -178.8973
  23   2.0000      -6.573776      -178.8815
  24   2.0000      -1.448901       -39.4266
  25   2.0000      -1.420405       -38.6512
  26   2.0000      -1.363002       -37.0892
  27   2.0000      -1.340593       -36.4794
  28   2.0000      -1.239444       -33.7270
  29   2.0000      -1.162903       -31.6442
  30   2.0000      -1.127519       -30.6814
  31   2.0000      -1.049910       -28.5695
  32   2.0000      -1.038637       -28.2628
  33   2.0000      -1.020746       -27.7759
  34   2.0000      -1.007026       -27.4026
  35   2.0000      -0.990427       -26.9509
  36   2.0000      -0.927461       -25.2375
  37   2.0000      -0.889276       -24.1984
  38   2.0000      -0.854618       -23.2553
  39   2.0000      -0.842555       -22.9271
  40   2.0000      -0.838193       -22.8084
  41   2.0000      -0.835395       -22.7322
  42   2.0000      -0.754661       -20.5354
  43   2.0000      -0.740775       -20.1575
  44   2.0000      -0.732772       -19.9397
  45   2.0000      -0.698368       -19.0036
  46   2.0000      -0.691239       -18.8096
  47   2.0000      -0.683182       -18.5903
  48   2.0000      -0.675222       -18.3737
  49   2.0000      -0.664265       -18.0756
  50   2.0000      -0.653346       -17.7785
  51   2.0000      -0.640494       -17.4287
  52   2.0000      -0.636056       -17.3080
  53   2.0000      -0.619636       -16.8612
  54   2.0000      -0.613315       -16.6892
  55   2.0000      -0.608279       -16.5521
  56   2.0000      -0.603769       -16.4294
  57   2.0000      -0.586787       -15.9673
  58   2.0000      -0.578789       -15.7497
  59   2.0000      -0.569449       -15.4955
  60   2.0000      -0.562540       -15.3075
  61   2.0000      -0.557090       -15.1592
  62   2.0000      -0.541080       -14.7235
  63   2.0000      -0.536215       -14.5912
  64   2.0000      -0.521138       -14.1809
  65   2.0000      -0.512637       -13.9496
  66   2.0000      -0.507094       -13.7987
  67   2.0000      -0.502573       -13.6757
  68   2.0000      -0.487510       -13.2658
  69   2.0000      -0.469273       -12.7696
  70   2.0000      -0.453234       -12.3331
  71   2.0000      -0.451719       -12.2919
  72   2.0000      -0.356641        -9.7047
  73   2.0000      -0.352936        -9.6039
  74   2.0000      -0.329305        -8.9609
  75   2.0000      -0.326360        -8.8807
  76   2.0000      -0.319786        -8.7018
  77   0.0000       0.089199         2.4272
  78   0.0000       0.103718         2.8223
  79   0.0000       0.114564         3.1174
  80   0.0000       0.127364         3.4657
  81   0.0000       0.128677         3.5015

MULLIKEN ATOMIC CHARGES
-----------------------
   0 C :   -0.273470
   1 C :    0.025035
   2 O :   -0.314624
   3 C :    0.416859
   4 O :   -0.383610
   5 C :   -0.196087
   6 C :    0.129510
   7 C :   -0.326290
   8 N :   -0.138778
   9 C :    0.211141
  10 S :   -0.443273
  11 N :   -0.227163
  12 C :    0.054435
  13 C :   -0.001205
  14 C :   -0.206535
  15 C :   -0.135039
  16 C :   -0.268782
  17 C :    0.309595
  18 O :   -0.357024
  19 C :   -0.233313
  20 H :    0.111098
  21 H :    0.105625
  22 H :    0.091042
  23 H :    0.115132
  24 H :    0.090315
  25 H :    0.127714
  26 H :    0.135882
  27 H :    0.123779
  28 H :    0.197049
  29 H :    0.203958
  30 H :    0.169533
  31 H :    0.174722
  32 H :    0.164356
  33 H :    0.132927
  34 H :    0.241368
  35 H :    0.174118
Sum of atomic charges:   -0.0000000

LOEWDIN ATOMIC CHARGES
----------------------
   0 C :    0.107755
   1 C :   -0.022108
   2 O :    0.310671
   3 C :   -0.417322
   4 O :    0.119817
   5 C :   -0.082934
   6 C :   -0.097978
   7 C :    0.124955
   8 N :    0.402198
   9 C :   -0.455918
  10 S :   -0.038575
  11 N :    0.396391
  12 C :   -0.049635
  13 C :   -0.045460
  14 C :    0.018756
  15 C :    0.045993
  16 C :    0.000234
  17 C :   -0.190921
  18 O :    0.396326
  19 C :    0.027143
  20 H :   -0.025785
  21 H :   -0.023785
  22 H :   -0.026996
  23 H :   -0.025396
  24 H :   -0.039095
  25 H :   -0.007535
  26 H :   -0.009181
  27 H :   -0.016995
  28 H :   -0.057256
  29 H :   -0.063744
  30 H :   -0.003584
  31 H :   -0.021587
  32 H :   -0.018091
  33 H :   -0.034412
  34 H :   -0.152888
  35 H :   -0.023056

  Mayer bond orders larger than 0.100000
B(  0-C ,  1-C ) :   0.9783 B(  0-C , 20-H ) :   0.9682 B(  0-C , 21-H ) :   0.9790
B(  0-C , 22-H ) :   0.9760 B(  1-C ,  2-O ) :   0.9002 B(  1-C , 23-H ) :   0.9813
B(  1-C , 24-H ) :   0.9602 B(  2-O ,  3-C ) :   1.1800 B(  3-C ,  4-O ) :   2.1012
B(  3-C ,  5-C ) :   0.9115 B(  5-C ,  6-C ) :   1.7279 B(  5-C , 12-C ) :   0.9395
B(  6-C ,  7-C ) :   0.9380 B(  6-C ,  8-N ) :   1.1040 B(  7-C , 25-H ) :   0.9771
B(  7-C , 26-H ) :   0.9736 B(  7-C , 27-H ) :   0.9662 B(  8-N ,  9-C ) :   1.1996
B(  8-N , 28-H ) :   0.9513 B(  9-C , 10-S ) :   1.6094 B(  9-C , 11-N ) :   1.2894
B( 11-N , 12-C ) :   0.9796 B( 11-N , 29-H ) :   0.9466 B( 12-C , 13-C ) :   0.9690
B( 12-C , 30-H ) :   0.9892 B( 13-C , 14-C ) :   1.3885 B( 13-C , 19-C ) :   1.3540
B( 14-C , 15-C ) :   1.3954 B( 14-C , 31-H ) :   0.9598 B( 15-C , 16-C ) :   1.3605
B( 15-C , 32-H ) :   0.9699 B( 16-C , 17-C ) :   1.3319 B( 16-C , 33-H ) :   0.9845
B( 17-C , 18-O ) :   1.1104 B( 17-C , 19-C ) :   1.3642 B( 18-O , 34-H ) :   0.9791
B( 19-C , 35-H ) :   0.9569

MP2 TOTAL ENERGY:    -1274.329891686 Eh
FINAL SINGLE POINT ENERGY     -1274.329891685779

DIPOLE MOMENT
-------------
                                X             Y             Z
Electronic contribution:      9.29883       8.05109       6.79397
Nuclear contribution   :    -10.98951      -9.22928      -7.23199
                        -----------------------------------------
Total Dipole Moment    :     -1.69068      -1.17819      -0.43803
                        -----------------------------------------
Magnitude (a.u.)       :      2.10675
Magnitude (Debye)      :      5.35493

Rotational constants in cm-1:     0.011698     0.009094     0.006385
Rotational constants in MHz :   350.697675   272.621017   191.424510

                             ****ORCA TERMINATED NORMALLY****
TOTAL RUN TIME: 0 days 1 hours 44 minutes 49 seconds 362 msec
