                         Program Version 4.2.0 -  RELEASE  -
|  1> ! ri-mp2 cc-pvtz cc-pvtz/c TightSCF NoKeepInts
|  2>
|  3> %scf
|  4>   MaxCore 4096
|  5> end
|  6> *xyz  0  1
|  7>     C       14.9296631   14.5088484   16.2483572
|  8>     C       15.8007454   14.9720568   15.0675960
|  9>     O       16.7094825   15.9761463   15.5561836
| 10>     C       16.4397300   17.2969455   15.3303986
| 11>     O       15.8080218   17.6703312   14.3567012
| 12>     C       16.9151266   18.1878317   16.4472640
| 13>     C       16.9201844   19.5385707   16.3039094
| 14>     C       16.2472396   20.3481113   15.2145019
| 15>     N       17.6028068   20.3564615   17.2071868
| 16>     C       18.4621093   19.8991253   18.1688935
| 17>     S       19.3154834   20.9282357   19.1428823
| 18>     N       18.5982050   18.5378724   18.2679608
| 19>     C       17.8042519   17.5418716   17.5244386
| 20>     C       17.0838644   16.5686172   18.4485452
| 21>     C       17.6462792   15.3104477   18.7324884
| 22>     C       16.9912631   14.4136157   19.5933892
| 23>     C       15.7640832   14.7782361   20.1734481
| 24>     C       15.2046444   16.0331885   19.8956191
| 25>     O       14.0207367   16.3881485   20.4551938
| 26>     C       15.8609971   16.9255418   19.0422624
| 27>     H       15.5513441   14.0851772   17.0458888
| 28>     H       14.2187331   13.7397662   15.9235137
| 29>     H       14.3596267   15.3494240   16.6636483
| 30>     H       16.3749198   14.1148821   14.6934105
| 31>     H       15.1726114   15.3416998   14.2457434
| 32>     H       15.1871671   20.0764017   15.1302225
| 33>     H       16.7146107   20.1508154   14.2412881
| 34>     H       16.2928276   21.4291949   15.3910455
| 35>     H       17.5297829   21.3582491   17.1294430
| 36>     H       19.2135448   18.2299477   19.0101039
| 37>     H       18.6034608   17.0260088   16.9734073
| 38>     H       18.5927281   15.0259261   18.2805640
| 39>     H       17.4332452   13.4418912   19.8068994
| 40>     H       15.2535074   14.0885886   20.8375380
| 41>     H       13.7462488   15.6655009   21.0395181
| 42>     H       15.4177234   17.8963226   18.8485451
| 43> *
| 44>
| 45>                          ****END OF INPUT****

CARTESIAN COORDINATES (ANGSTROEM)
---------------------------------
  C     14.929663   14.508848   16.248357
  C     15.800745   14.972057   15.067596
  O     16.709483   15.976146   15.556184
  C     16.439730   17.296945   15.330399
  O     15.808022   17.670331   14.356701
  C     16.915127   18.187832   16.447264
  C     16.920184   19.538571   16.303909
  C     16.247240   20.348111   15.214502
  N     17.602807   20.356462   17.207187
  C     18.462109   19.899125   18.168893
  S     19.315483   20.928236   19.142882
  N     18.598205   18.537872   18.267961
  C     17.804252   17.541872   17.524439
  C     17.083864   16.568617   18.448545
  C     17.646279   15.310448   18.732488
  C     16.991263   14.413616   19.593389
  C     15.764083   14.778236   20.173448
  C     15.204644   16.033189   19.895619
  O     14.020737   16.388148   20.455194
  C     15.860997   16.925542   19.042262
  H     15.551344   14.085177   17.045889
  H     14.218733   13.739766   15.923514
  H     14.359627   15.349424   16.663648
  H     16.374920   14.114882   14.693410
  H     15.172611   15.341700   14.245743
  H     15.187167   20.076402   15.130223
  H     16.714611   20.150815   14.241288
  H     16.292828   21.429195   15.391046
  H     17.529783   21.358249   17.129443
  H     19.213545   18.229948   19.010104
  H     18.603461   17.026009   16.973407
  H     18.592728   15.025926   18.280564
  H     17.433245   13.441891   19.806899
  H     15.253507   14.088589   20.837538
  H     13.746249   15.665501   21.039518
  H     15.417723   17.896323   18.848545

 Total Charge           Charge          ....    0
 Multiplicity           Mult            ....    1
 Number of Electrons    NEL             ....  154
 Basis Dimension        Dim             ....  828

ORBITAL ENERGIES
----------------

  NO   OCC          E(Eh)            E(eV)
   0   2.0000     -91.889272     -2500.4342
   1   2.0000     -20.599094      -560.5298
   2   2.0000     -20.596097      -560.4483
   3   2.0000     -20.541225      -558.9552
   4   2.0000     -15.629787      -425.3081
   5   2.0000     -15.607387      -424.6986
   6   2.0000     -11.394155      -310.0507
   7   2.0000     -11.383916      -309.7721
   8   2.0000     -11.338231      -308.5290
   9   2.0000     -11.316236      -307.9304
  10   2.0000     -11.308312      -307.7148
  11   2.0000     -11.293047      -307.2994
  12   2.0000     -11.263108      -306.4847
  13   2.0000     -11.259146      -306.3769
  14   2.0000     -11.257612      -306.3352
  15   2.0000     -11.252003      -306.1826
  16   2.0000     -11.245711      -306.0114
  17   2.0000     -11.240586      -305.8719
  18   2.0000     -11.240409      -305.8671
  19   2.0000     -11.221333      -305.3480
  20   2.0000      -8.894336      -242.0272
  21   2.0000      -6.575908      -178.9395
  22   2.0000      -6.573910      -178.8852
  23   2.0000      -6.573319      -178.8691
  24   2.0000      -1.449153       -39.4335
  25   2.0000      -1.418739       -38.6058
  26   2.0000      -1.353084       -36.8193
  27   2.0000      -1.340945       -36.4890
  28   2.0000      -1.238904       -33.7123
  29   2.0000      -1.159553       -31.5530
  30   2.0000      -1.121692       -30.5228
  31   2.0000      -1.044198       -28.4141
  32   2.0000      -1.034865       -28.1601
  33   2.0000      -1.017353       -27.6836
  34   2.0000      -0.996877       -27.1264
  35   2.0000      -0.985142       -26.8071
  36   2.0000      -0.922830       -25.1115
  37   2.0000      -0.889575       -24.2066
  38   2.0000      -0.847253       -23.0549
  39   2.0000      -0.839756       -22.8509
  40   2.0000      -0.835854       -22.7448
  41   2.0000      -0.814469       -22.1628
  42   2.0000      -0.760142       -20.6845
  43   2.0000      -0.735123       -20.0037
  44   2.0000      -0.721890       -19.6436
  45   2.0000      -0.697744       -18.9866
  46   2.0000      -0.688753       -18.7419
  47   2.0000      -0.677757       -18.4427
  48   2.0000      -0.670361       -18.2415
  49   2.0000      -0.665748       -18.1159
  50   2.0000      -0.647031       -17.6066
  51   2.0000      -0.641819       -17.4648
  52   2.0000      -0.635966       -17.3055
  53   2.0000      -0.609406       -16.5828
  54   2.0000      -0.603164       -16.4129
  55   2.0000      -0.600922       -16.3519
  56   2.0000      -0.592132       -16.1127
  57   2.0000      -0.579079       -15.7575
  58   2.0000      -0.569857       -15.5066
  59   2.0000      -0.566538       -15.4163
  60   2.0000      -0.560789       -15.2598
  61   2.0000      -0.549028       -14.9398
  62   2.0000      -0.538275       -14.6472
  63   2.0000      -0.526434       -14.3250
  64   2.0000      -0.525120       -14.2892
  65   2.0000      -0.513170       -13.9641
  66   2.0000      -0.502098       -13.6628
  67   2.0000      -0.497171       -13.5287
  68   2.0000      -0.481022       -13.0893
  69   2.0000      -0.463204       -12.6044
  70   2.0000      -0.451190       -12.2775
  71   2.0000      -0.447365       -12.1734
  72   2.0000      -0.353885        -9.6297
  73   2.0000      -0.351575        -9.5668
  74   2.0000      -0.328740        -8.9455
  75   2.0000      -0.323616        -8.8060
  76   2.0000      -0.318959        -8.6793
  77   0.0000       0.076211         2.0738
  78   0.0000       0.102060         2.7772
  79   0.0000       0.123574         3.3626
  80   0.0000       0.131767         3.5855
  81   0.0000       0.133807         3.6411

MULLIKEN ATOMIC CHARGES
-----------------------
   0 C :   -0.298802
   1 C :    0.019520
   2 O :   -0.356410
   3 C :    0.450195
   4 O :   -0.431609
   5 C :   -0.259220
   6 C :    0.182746
   7 C :   -0.266272
   8 N :   -0.126983
   9 C :    0.214748
  10 S :   -0.442368
  11 N :   -0.220909
  12 C :    0.075162
  13 C :    0.057690
  14 C :   -0.188235
  15 C :   -0.141451
  16 C :   -0.271478
  17 C :    0.319594
  18 O :   -0.358268
  19 C :   -0.254030
  20 H :    0.102844
  21 H :    0.108015
  22 H :    0.102622
  23 H :    0.101232
  24 H :    0.119923
  25 H :    0.132312
  26 H :    0.130446
  27 H :    0.094526
  28 H :    0.199446
  29 H :    0.201328
  30 H :    0.150366
  31 H :    0.150458
  32 H :    0.163757
  33 H :    0.131916
  34 H :    0.241358
  35 H :    0.165828
Sum of atomic charges:   -0.0000000

LOEWDIN ATOMIC CHARGES
----------------------
   0 C :    0.103225
   1 C :   -0.014854
   2 O :    0.305651
   3 C :   -0.416498
   4 O :    0.097919
   5 C :   -0.097283
   6 C :   -0.055250
   7 C :    0.131224
   8 N :    0.407596
   9 C :   -0.455371
  10 S :   -0.036394
  11 N :    0.394238
  12 C :   -0.054009
  13 C :   -0.036592
  14 C :    0.014484
  15 C :    0.040899
  16 C :   -0.000663
  17 C :   -0.188866
  18 O :    0.395918
  19 C :    0.033985
  20 H :   -0.026832
  21 H :   -0.027579
  22 H :   -0.027548
  23 H :   -0.028018
  24 H :   -0.028653
  25 H :   -0.004515
  26 H :   -0.004536
  27 H :   -0.023642
  28 H :   -0.057029
  29 H :   -0.064978
  30 H :   -0.013193
  31 H :   -0.029383
  32 H :   -0.020797
  33 H :   -0.035142
  34 H :   -0.153336
  35 H :   -0.024179

  Mayer bond orders larger than 0.100000
B(  0-C ,  1-C ) :   0.9666 B(  0-C , 20-H ) :   0.9725 B(  0-C , 21-H ) :   0.9784
B(  0-C , 22-H ) :   0.9753 B(  1-C ,  2-O ) :   0.8890 B(  1-C , 23-H ) :   0.9859
B(  1-C , 24-H ) :   0.9747 B(  2-O ,  3-C ) :   1.1538 B(  3-C ,  4-O ) :   1.9772
B(  3-C ,  5-C ) :   1.0631 B(  5-C ,  6-C ) :   1.6285 B(  5-C , 12-C ) :   0.9545
B(  6-C ,  7-C ) :   0.9655 B(  6-C ,  8-N ) :   1.1596 B(  7-C , 25-H ) :   0.9615
B(  7-C , 26-H ) :   0.9581 B(  7-C , 27-H ) :   0.9903 B(  8-N ,  9-C ) :   1.1864
B(  8-N , 28-H ) :   0.9466 B(  9-C , 10-S ) :   1.6017 B(  9-C , 11-N ) :   1.3128
B( 11-N , 12-C ) :   0.9577 B( 11-N , 29-H ) :   0.9481 B( 12-C , 13-C ) :   0.9663
B( 12-C , 30-H ) :   1.0011 B( 13-C , 14-C ) :   1.3498 B( 13-C , 19-C ) :   1.3687
B( 14-C , 15-C ) :   1.3926 B( 14-C , 31-H ) :   0.9736 B( 15-C , 16-C ) :   1.3559
B( 15-C , 32-H ) :   0.9709 B( 16-C , 17-C ) :   1.3342 B( 16-C , 33-H ) :   0.9848
B( 17-C , 18-O ) :   1.1040 B( 17-C , 19-C ) :   1.3624 B( 18-O , 34-H ) :   0.9793
B( 19-C , 35-H ) :   0.9599

MP2 TOTAL ENERGY:    -1274.342000394 Eh
FINAL SINGLE POINT ENERGY     -1274.342000394259

DIPOLE MOMENT
-------------
                                X             Y             Z
Electronic contribution:      8.23391      10.95660       6.10587
Nuclear contribution   :     -9.12534     -12.68856      -6.30991
                        -----------------------------------------
Total Dipole Moment    :     -0.89142      -1.73196      -0.20404
                        -----------------------------------------
Magnitude (a.u.)       :      1.95856
Magnitude (Debye)      :      4.97827

Rotational constants in cm-1:     0.012548     0.008447     0.006100
Rotational constants in MHz :   376.167397   253.224472   182.876028

                             ****ORCA TERMINATED NORMALLY****
TOTAL RUN TIME: 0 days 1 hours 41 minutes 48 seconds 764 msec
