                         Program Version 4.2.0 -  RELEASE  -
|  1> ! ri-mp2 cc-pvtz cc-pvtz/c TightSCF NoKeepInts
|  2>
|  3> %scf
|  4>   MaxCore 4096
|  5> end
|  6> *xyz  0  1
|  7>     C       14.7922231   14.4796747   15.7628723
|  8>     C       15.9910962   14.9330255   14.9101214
|  9>     O       16.6721134   15.9737808   15.6319510
| 10>     C       16.3079728   17.2808305   15.4602107
| 11>     O       15.5871806   17.6416540   14.5450130
| 12>     C       16.8614464   18.1793693   16.5335310
| 13>     C       16.8629469   19.5285824   16.3814857
| 14>     C       16.1348244   20.3314439   15.3233040
| 15>     N       17.5982189   20.3487026   17.2404068
| 16>     C       18.5005786   19.8925629   18.1628334
| 17>     S       19.4059092   20.9235833   19.0865185
| 18>     N       18.6315455   18.5309704   18.2679409
| 19>     C       17.8005297   17.5340955   17.5667024
| 20>     C       17.1020471   16.5757639   18.5229379
| 21>     C       17.5116431   15.2329200   18.6174985
| 22>     C       16.8618455   14.3487637   19.4951317
| 23>     C       15.7962042   14.8124082   20.2856155
| 24>     C       15.3896685   16.1510497   20.1961232
| 25>     O       14.3616978   16.6013160   20.9587176
| 26>     C       16.0386390   17.0286473   19.3220235
| 27>     H       15.1226251   14.1652798   16.7610377
| 28>     H       14.2783402   13.6356855   15.2873592
| 29>     H       14.0700250   15.2975166   15.8800030
| 30>     H       16.6710225   14.0817708   14.7782014
| 31>     H       15.6660199   15.2657481   13.9147819
| 32>     H       15.0666353   20.0790322   15.3150193
| 33>     H       16.5323247   20.1069778   14.3253268
| 34>     H       16.2127146   21.4144144   15.4751759
| 35>     H       17.5269001   21.3503499   17.1592520
| 36>     H       19.2802574   18.2241841   18.9816851
| 37>     H       18.5705454   17.0082083   16.9846606
| 38>     H       18.3303270   14.8720771   18.0007097
| 39>     H       17.1832762   13.3107402   19.5597667
| 40>     H       15.2910072   14.1335546   20.9647156
| 41>     H       14.0626667   15.8628839   21.5101496
| 42>     H       15.7139815   18.0624322   19.2692165
| 43> *
| 44>
| 45>                          ****END OF INPUT****

CARTESIAN COORDINATES (ANGSTROEM)
---------------------------------
  C     14.792223   14.479675   15.762872
  C     15.991096   14.933025   14.910121
  O     16.672113   15.973781   15.631951
  C     16.307973   17.280831   15.460211
  O     15.587181   17.641654   14.545013
  C     16.861446   18.179369   16.533531
  C     16.862947   19.528582   16.381486
  C     16.134824   20.331444   15.323304
  N     17.598219   20.348703   17.240407
  C     18.500579   19.892563   18.162833
  S     19.405909   20.923583   19.086519
  N     18.631546   18.530970   18.267941
  C     17.800530   17.534095   17.566702
  C     17.102047   16.575764   18.522938
  C     17.511643   15.232920   18.617498
  C     16.861846   14.348764   19.495132
  C     15.796204   14.812408   20.285615
  C     15.389668   16.151050   20.196123
  O     14.361698   16.601316   20.958718
  C     16.038639   17.028647   19.322024
  H     15.122625   14.165280   16.761038
  H     14.278340   13.635685   15.287359
  H     14.070025   15.297517   15.880003
  H     16.671022   14.081771   14.778201
  H     15.666020   15.265748   13.914782
  H     15.066635   20.079032   15.315019
  H     16.532325   20.106978   14.325327
  H     16.212715   21.414414   15.475176
  H     17.526900   21.350350   17.159252
  H     19.280257   18.224184   18.981685
  H     18.570545   17.008208   16.984661
  H     18.330327   14.872077   18.000710
  H     17.183276   13.310740   19.559767
  H     15.291007   14.133555   20.964716
  H     14.062667   15.862884   21.510150
  H     15.713981   18.062432   19.269216

 Total Charge           Charge          ....    0
 Multiplicity           Mult            ....    1
 Number of Electrons    NEL             ....  154
 Basis Dimension        Dim             ....  828

ORBITAL ENERGIES
----------------

  NO   OCC          E(Eh)            E(eV)
   0   2.0000     -91.888848     -2500.4227
   1   2.0000     -20.600263      -560.5617
   2   2.0000     -20.596933      -560.4710
   3   2.0000     -20.541049      -558.9503
   4   2.0000     -15.629206      -425.2923
   5   2.0000     -15.607083      -424.6903
   6   2.0000     -11.395223      -310.0798
   7   2.0000     -11.383582      -309.7630
   8   2.0000     -11.337301      -308.5036
   9   2.0000     -11.314242      -307.8762
  10   2.0000     -11.307546      -307.6940
  11   2.0000     -11.295241      -307.3591
  12   2.0000     -11.261078      -306.4295
  13   2.0000     -11.259203      -306.3785
  14   2.0000     -11.255520      -306.2783
  15   2.0000     -11.251642      -306.1727
  16   2.0000     -11.244202      -305.9703
  17   2.0000     -11.239427      -305.8404
  18   2.0000     -11.238984      -305.8283
  19   2.0000     -11.223431      -305.4051
  20   2.0000      -8.893919      -242.0158
  21   2.0000      -6.575492      -178.9282
  22   2.0000      -6.573493      -178.8738
  23   2.0000      -6.572903      -178.8578
  24   2.0000      -1.450993       -39.4835
  25   2.0000      -1.416613       -38.5480
  26   2.0000      -1.354262       -36.8513
  27   2.0000      -1.340306       -36.4716
  28   2.0000      -1.238238       -33.6942
  29   2.0000      -1.158050       -31.5122
  30   2.0000      -1.121302       -30.5122
  31   2.0000      -1.043163       -28.3859
  32   2.0000      -1.036394       -28.2017
  33   2.0000      -1.015486       -27.6328
  34   2.0000      -0.995989       -27.1022
  35   2.0000      -0.984630       -26.7931
  36   2.0000      -0.921959       -25.0878
  37   2.0000      -0.892579       -24.2883
  38   2.0000      -0.846481       -23.0339
  39   2.0000      -0.838311       -22.8116
  40   2.0000      -0.834567       -22.7097
  41   2.0000      -0.814964       -22.1763
  42   2.0000      -0.759072       -20.6554
  43   2.0000      -0.733913       -19.9708
  44   2.0000      -0.722289       -19.6545
  45   2.0000      -0.696008       -18.9393
  46   2.0000      -0.689185       -18.7537
  47   2.0000      -0.679490       -18.4899
  48   2.0000      -0.670803       -18.2535
  49   2.0000      -0.660200       -17.9649
  50   2.0000      -0.646715       -17.5980
  51   2.0000      -0.640199       -17.4207
  52   2.0000      -0.633865       -17.2483
  53   2.0000      -0.607636       -16.5346
  54   2.0000      -0.605321       -16.4716
  55   2.0000      -0.600030       -16.3277
  56   2.0000      -0.599295       -16.3076
  57   2.0000      -0.577676       -15.7194
  58   2.0000      -0.569533       -15.4978
  59   2.0000      -0.566860       -15.4250
  60   2.0000      -0.559740       -15.2313
  61   2.0000      -0.546136       -14.8611
  62   2.0000      -0.535187       -14.5632
  63   2.0000      -0.530986       -14.4489
  64   2.0000      -0.524397       -14.2696
  65   2.0000      -0.513215       -13.9653
  66   2.0000      -0.500439       -13.6176
  67   2.0000      -0.497753       -13.5445
  68   2.0000      -0.482005       -13.1160
  69   2.0000      -0.463388       -12.6094
  70   2.0000      -0.453916       -12.3517
  71   2.0000      -0.447508       -12.1773
  72   2.0000      -0.353274        -9.6131
  73   2.0000      -0.350261        -9.5311
  74   2.0000      -0.328065        -8.9271
  75   2.0000      -0.321487        -8.7481
  76   2.0000      -0.318116        -8.6564
  77   0.0000       0.077583         2.1111
  78   0.0000       0.104333         2.8391
  79   0.0000       0.124688         3.3929
  80   0.0000       0.132712         3.6113
  81   0.0000       0.137887         3.7521

MULLIKEN ATOMIC CHARGES
-----------------------
   0 C :   -0.288068
   1 C :    0.010749
   2 O :   -0.349103
   3 C :    0.439837
   4 O :   -0.437844
   5 C :   -0.227928
   6 C :    0.175021
   7 C :   -0.268070
   8 N :   -0.126463
   9 C :    0.210666
  10 S :   -0.442110
  11 N :   -0.216259
  12 C :    0.064348
  13 C :    0.048023
  14 C :   -0.186694
  15 C :   -0.138001
  16 C :   -0.274436
  17 C :    0.315713
  18 O :   -0.356583
  19 C :   -0.246123
  20 H :    0.104991
  21 H :    0.097258
  22 H :    0.102967
  23 H :    0.106165
  24 H :    0.122855
  25 H :    0.133829
  26 H :    0.128934
  27 H :    0.094592
  28 H :    0.199709
  29 H :    0.200516
  30 H :    0.152655
  31 H :    0.151853
  32 H :    0.162200
  33 H :    0.130854
  34 H :    0.240576
  35 H :    0.163371
Sum of atomic charges:   -0.0000000

LOEWDIN ATOMIC CHARGES
----------------------
   0 C :    0.104865
   1 C :   -0.017740
   2 O :    0.310571
   3 C :   -0.414551
   4 O :    0.094025
   5 C :   -0.094794
   6 C :   -0.056833
   7 C :    0.131230
   8 N :    0.407116
   9 C :   -0.456235
  10 S :   -0.036672
  11 N :    0.394572
  12 C :   -0.054378
  13 C :   -0.039523
  14 C :    0.016472
  15 C :    0.038912
  16 C :   -0.000959
  17 C :   -0.189457
  18 O :    0.395305
  19 C :    0.033780
  20 H :   -0.026082
  21 H :   -0.027689
  22 H :   -0.025723
  23 H :   -0.027316
  24 H :   -0.027991
  25 H :   -0.004249
  26 H :   -0.005020
  27 H :   -0.023660
  28 H :   -0.057155
  29 H :   -0.064466
  30 H :   -0.013748
  31 H :   -0.029260
  32 H :   -0.021469
  33 H :   -0.035295
  34 H :   -0.153916
  35 H :   -0.022668

  Mayer bond orders larger than 0.100000
B(  0-C ,  1-C ) :   0.9643 B(  0-C , 20-H ) :   0.9718 B(  0-C , 21-H ) :   0.9771
B(  0-C , 22-H ) :   0.9779 B(  1-C ,  2-O ) :   0.8925 B(  1-C , 23-H ) :   0.9848
B(  1-C , 24-H ) :   0.9765 B(  2-O ,  3-C ) :   1.1649 B(  3-C ,  4-O ) :   1.9608
B(  3-C ,  5-C ) :   1.0658 B(  5-C ,  6-C ) :   1.6407 B(  5-C , 12-C ) :   0.9546
B(  6-C ,  7-C ) :   0.9648 B(  6-C ,  8-N ) :   1.1541 B(  7-C , 25-H ) :   0.9611
B(  7-C , 26-H ) :   0.9591 B(  7-C , 27-H ) :   0.9905 B(  8-N ,  9-C ) :   1.1877
B(  8-N , 28-H ) :   0.9463 B(  9-C , 10-S ) :   1.6055 B(  9-C , 11-N ) :   1.3096
B( 11-N , 12-C ) :   0.9676 B( 11-N , 29-H ) :   0.9484 B( 12-C , 13-C ) :   0.9628
B( 12-C , 30-H ) :   1.0003 B( 13-C , 14-C ) :   1.3513 B( 13-C , 19-C ) :   1.3805
B( 14-C , 15-C ) :   1.3936 B( 14-C , 31-H ) :   0.9721 B( 15-C , 16-C ) :   1.3557
B( 15-C , 32-H ) :   0.9710 B( 16-C , 17-C ) :   1.3341 B( 16-C , 33-H ) :   0.9850
B( 17-C , 18-O ) :   1.1052 B( 17-C , 19-C ) :   1.3642 B( 18-O , 34-H ) :   0.9798
B( 19-C , 35-H ) :   0.9590

MP2 TOTAL ENERGY:    -1274.345126331 Eh
FINAL SINGLE POINT ENERGY     -1274.345126330893

DIPOLE MOMENT
-------------
                                X             Y             Z
Electronic contribution:      8.52729      11.14932       7.62389
Nuclear contribution   :     -9.36521     -12.94089      -8.04457
                        -----------------------------------------
Total Dipole Moment    :     -0.83792      -1.79157      -0.42068
                        -----------------------------------------
Magnitude (a.u.)       :      2.02208
Magnitude (Debye)      :      5.13973

Rotational constants in cm-1:     0.011942     0.008522     0.005987
Rotational constants in MHz :   358.019551   255.493967   179.485732

                             ****ORCA TERMINATED NORMALLY****
TOTAL RUN TIME: 0 days 1 hours 39 minutes 24 seconds 165 msec
