                         Program Version 4.2.0 -  RELEASE  -
|  1> ! ri-mp2 cc-pvtz cc-pvtz/c TightSCF NoKeepInts
|  2>
|  3> %scf
|  4>   MaxCore 4096
|  5> end
|  6> *xyz  0  1
|  7>     C       15.1896751   15.3037282   13.1873532
|  8>     C       14.6438109   15.5568665   14.6035063
|  9>     O       15.3847200   16.6530504   15.1703416
| 10>     C       16.3939373   16.4092689   16.0581067
| 11>     O       16.8302148   15.2875345   16.2594045
| 12>     C       16.8730546   17.6123386   16.8227784
| 13>     C       16.8097406   18.8777771   16.3280483
| 14>     C       16.0735365   19.3653451   15.0952490
| 15>     N       17.5094171   19.9194944   16.9429113
| 16>     C       18.4615533   19.7494033   17.9110912
| 17>     S       19.3304109   21.0210741   18.5140438
| 18>     N       18.6730317   18.4634412   18.3381443
| 19>     C       17.8623010   17.2925698   17.9517350
| 20>     C       17.2234320   16.5885385   19.1417295
| 21>     C       17.4474034   15.2188623   19.3701193
| 22>     C       16.8600648   14.5723581   20.4706171
| 23>     C       16.0431111   15.3023138   21.3510351
| 24>     C       15.8169395   16.6670422   21.1247013
| 25>     O       15.0256342   17.3733190   21.9711035
| 26>     C       16.4025800   17.3075555   20.0280238
| 27>     H       15.1151028   16.2098371   12.5735515
| 28>     H       14.6223095   14.5053570   12.6938340
| 29>     H       16.2427329   14.9977571   13.2303044
| 30>     H       13.5851153   15.8365806   14.5292914
| 31>     H       14.7105714   14.6488141   15.2187053
| 32>     H       14.9929251   19.2075431   15.2013619
| 33>     H       16.4095341   18.8251338   14.2012906
| 34>     H       16.2274082   20.4337542   14.9008379
| 35>     H       17.3807549   20.8666000   16.6247701
| 36>     H       19.3645922   18.3673463   19.0709841
| 37>     H       18.6387736   16.6591605   17.4985614
| 38>     H       18.0668864   14.6506383   18.6802294
| 39>     H       17.0349669   13.5104038   20.6332308
| 40>     H       15.5863316   14.8066020   22.2010389
| 41>     H       14.7354585   16.7674796   22.6692949
| 42>     H       16.2189676   18.3651110   19.8706702
| 43> *
| 44>
| 45>                          ****END OF INPUT****

CARTESIAN COORDINATES (ANGSTROEM)
---------------------------------
  C     15.189675   15.303728   13.187353
  C     14.643811   15.556866   14.603506
  O     15.384720   16.653050   15.170342
  C     16.393937   16.409269   16.058107
  O     16.830215   15.287534   16.259404
  C     16.873055   17.612339   16.822778
  C     16.809741   18.877777   16.328048
  C     16.073536   19.365345   15.095249
  N     17.509417   19.919494   16.942911
  C     18.461553   19.749403   17.911091
  S     19.330411   21.021074   18.514044
  N     18.673032   18.463441   18.338144
  C     17.862301   17.292570   17.951735
  C     17.223432   16.588538   19.141730
  C     17.447403   15.218862   19.370119
  C     16.860065   14.572358   20.470617
  C     16.043111   15.302314   21.351035
  C     15.816940   16.667042   21.124701
  O     15.025634   17.373319   21.971103
  C     16.402580   17.307555   20.028024
  H     15.115103   16.209837   12.573552
  H     14.622310   14.505357   12.693834
  H     16.242733   14.997757   13.230304
  H     13.585115   15.836581   14.529291
  H     14.710571   14.648814   15.218705
  H     14.992925   19.207543   15.201362
  H     16.409534   18.825134   14.201291
  H     16.227408   20.433754   14.900838
  H     17.380755   20.866600   16.624770
  H     19.364592   18.367346   19.070984
  H     18.638774   16.659160   17.498561
  H     18.066886   14.650638   18.680229
  H     17.034967   13.510404   20.633231
  H     15.586332   14.806602   22.201039
  H     14.735459   16.767480   22.669295
  H     16.218968   18.365111   19.870670

 Total Charge           Charge          ....    0
 Multiplicity           Mult            ....    1
 Number of Electrons    NEL             ....  154
 Basis Dimension        Dim             ....  828

ORBITAL ENERGIES
----------------

  NO   OCC          E(Eh)            E(eV)
   0   2.0000     -91.887751     -2500.3928
   1   2.0000     -20.604226      -560.6695
   2   2.0000     -20.591024      -560.3103
   3   2.0000     -20.545294      -559.0659
   4   2.0000     -15.628295      -425.2675
   5   2.0000     -15.605412      -424.6448
   6   2.0000     -11.396864      -310.1244
   7   2.0000     -11.382246      -309.7267
   8   2.0000     -11.338144      -308.5266
   9   2.0000     -11.307004      -307.6792
  10   2.0000     -11.303932      -307.5956
  11   2.0000     -11.299867      -307.4850
  12   2.0000     -11.261300      -306.4355
  13   2.0000     -11.258979      -306.3724
  14   2.0000     -11.254328      -306.2458
  15   2.0000     -11.247105      -306.0493
  16   2.0000     -11.237317      -305.7830
  17   2.0000     -11.233438      -305.6774
  18   2.0000     -11.230225      -305.5900
  19   2.0000     -11.230001      -305.5839
  20   2.0000      -8.892837      -241.9864
  21   2.0000      -6.574415      -178.8989
  22   2.0000      -6.572411      -178.8444
  23   2.0000      -6.571824      -178.8284
  24   2.0000      -1.454479       -39.5784
  25   2.0000      -1.410767       -38.3889
  26   2.0000      -1.357607       -36.9424
  27   2.0000      -1.339688       -36.4548
  28   2.0000      -1.236819       -33.6555
  29   2.0000      -1.151751       -31.3407
  30   2.0000      -1.120476       -30.4897
  31   2.0000      -1.043435       -28.3933
  32   2.0000      -1.035699       -28.1828
  33   2.0000      -1.009242       -27.4629
  34   2.0000      -0.998254       -27.1639
  35   2.0000      -0.983271       -26.7562
  36   2.0000      -0.920416       -25.0458
  37   2.0000      -0.891833       -24.2680
  38   2.0000      -0.847299       -23.0562
  39   2.0000      -0.834454       -22.7066
  40   2.0000      -0.827336       -22.5130
  41   2.0000      -0.817777       -22.2528
  42   2.0000      -0.758999       -20.6534
  43   2.0000      -0.735679       -20.0189
  44   2.0000      -0.725650       -19.7459
  45   2.0000      -0.689890       -18.7729
  46   2.0000      -0.685362       -18.6496
  47   2.0000      -0.680252       -18.5106
  48   2.0000      -0.671646       -18.2764
  49   2.0000      -0.655869       -17.8471
  50   2.0000      -0.648115       -17.6361
  51   2.0000      -0.639227       -17.3943
  52   2.0000      -0.628794       -17.1103
  53   2.0000      -0.613651       -16.6983
  54   2.0000      -0.602525       -16.3955
  55   2.0000      -0.597625       -16.2622
  56   2.0000      -0.594253       -16.1705
  57   2.0000      -0.583884       -15.8883
  58   2.0000      -0.572364       -15.5748
  59   2.0000      -0.565192       -15.3797
  60   2.0000      -0.561077       -15.2677
  61   2.0000      -0.546868       -14.8810
  62   2.0000      -0.534687       -14.5496
  63   2.0000      -0.532885       -14.5005
  64   2.0000      -0.515122       -14.0172
  65   2.0000      -0.508676       -13.8418
  66   2.0000      -0.500102       -13.6085
  67   2.0000      -0.493616       -13.4320
  68   2.0000      -0.480570       -13.0770
  69   2.0000      -0.464982       -12.6528
  70   2.0000      -0.456442       -12.4204
  71   2.0000      -0.453882       -12.3508
  72   2.0000      -0.352971        -9.6048
  73   2.0000      -0.343902        -9.3581
  74   2.0000      -0.326831        -8.8935
  75   2.0000      -0.316913        -8.6236
  76   2.0000      -0.313633        -8.5344
  77   0.0000       0.077843         2.1182
  78   0.0000       0.112453         3.0600
  79   0.0000       0.121506         3.3063
  80   0.0000       0.136248         3.7075
  81   0.0000       0.140178         3.8144

MULLIKEN ATOMIC CHARGES
-----------------------
   0 C :   -0.282259
   1 C :    0.026041
   2 O :   -0.343235
   3 C :    0.424716
   4 O :   -0.429452
   5 C :   -0.175812
   6 C :    0.164322
   7 C :   -0.282194
   8 N :   -0.129153
   9 C :    0.207400
  10 S :   -0.442917
  11 N :   -0.210778
  12 C :    0.041367
  13 C :    0.030922
  14 C :   -0.165984
  15 C :   -0.134299
  16 C :   -0.276774
  17 C :    0.314464
  18 O :   -0.359112
  19 C :   -0.250350
  20 H :    0.090583
  21 H :    0.096907
  22 H :    0.106682
  23 H :    0.105485
  24 H :    0.113267
  25 H :    0.130750
  26 H :    0.124478
  27 H :    0.102245
  28 H :    0.198819
  29 H :    0.200023
  30 H :    0.155040
  31 H :    0.158395
  32 H :    0.159578
  33 H :    0.127959
  34 H :    0.239814
  35 H :    0.163064
Sum of atomic charges:    0.0000000

LOEWDIN ATOMIC CHARGES
----------------------
   0 C :    0.103618
   1 C :   -0.014712
   2 O :    0.308253
   3 C :   -0.414543
   4 O :    0.101257
   5 C :   -0.090521
   6 C :   -0.064012
   7 C :    0.124696
   8 N :    0.405385
   9 C :   -0.458809
  10 S :   -0.037983
  11 N :    0.396571
  12 C :   -0.048272
  13 C :   -0.040449
  14 C :    0.024992
  15 C :    0.040892
  16 C :   -0.001060
  17 C :   -0.192350
  18 O :    0.393076
  19 C :    0.029938
  20 H :   -0.030248
  21 H :   -0.025943
  22 H :   -0.024460
  23 H :   -0.027719
  24 H :   -0.026269
  25 H :   -0.009008
  26 H :   -0.010191
  27 H :   -0.021305
  28 H :   -0.058831
  29 H :   -0.063031
  30 H :   -0.008546
  31 H :   -0.024156
  32 H :   -0.021183
  33 H :   -0.036226
  34 H :   -0.154956
  35 H :   -0.023894

  Mayer bond orders larger than 0.100000
B(  0-C ,  1-C ) :   0.9663 B(  0-C , 20-H ) :   0.9787 B(  0-C , 21-H ) :   0.9762
B(  0-C , 22-H ) :   0.9772 B(  1-C ,  2-O ) :   0.8921 B(  1-C , 23-H ) :   0.9840
B(  1-C , 24-H ) :   0.9733 B(  2-O ,  3-C ) :   1.1545 B(  3-C ,  4-O ) :   1.9655
B(  3-C ,  5-C ) :   1.0578 B(  5-C ,  6-C ) :   1.6549 B(  5-C , 12-C ) :   0.9489
B(  6-C ,  7-C ) :   0.9533 B(  6-C ,  8-N ) :   1.1348 B(  7-C , 25-H ) :   0.9634
B(  7-C , 26-H ) :   0.9657 B(  7-C , 27-H ) :   0.9913 B(  8-N ,  9-C ) :   1.1856
B(  8-N , 28-H ) :   0.9468 B(  9-C , 10-S ) :   1.6074 B(  9-C , 11-N ) :   1.3068
B( 11-N , 12-C ) :   0.9763 B( 11-N , 29-H ) :   0.9484 B( 12-C , 13-C ) :   0.9751
B( 12-C , 30-H ) :   0.9975 B( 13-C , 14-C ) :   1.3753 B( 13-C , 19-C ) :   1.3670
B( 14-C , 15-C ) :   1.3971 B( 14-C , 31-H ) :   0.9641 B( 15-C , 16-C ) :   1.3587
B( 15-C , 32-H ) :   0.9713 B( 16-C , 17-C ) :   1.3334 B( 16-C , 33-H ) :   0.9861
B( 17-C , 18-O ) :   1.1031 B( 17-C , 19-C ) :   1.3675 B( 18-O , 34-H ) :   0.9808
B( 19-C , 35-H ) :   0.9601

MP2 TOTAL ENERGY:    -1274.341349221 Eh
FINAL SINGLE POINT ENERGY     -1274.341349221281

DIPOLE MOMENT
-------------
                                X             Y             Z
Electronic contribution:      8.77275       8.96776      13.42588
Nuclear contribution   :    -10.37052     -10.13589     -14.41835
                        -----------------------------------------
Total Dipole Moment    :     -1.59777      -1.16813      -0.99247
                        -----------------------------------------
Magnitude (a.u.)       :      2.21414
Magnitude (Debye)      :      5.62788

Rotational constants in cm-1:     0.010113     0.008632     0.005399
Rotational constants in MHz :   303.189102   258.783521   161.848253

                             ****ORCA TERMINATED NORMALLY****
TOTAL RUN TIME: 0 days 1 hours 31 minutes 41 seconds 232 msec
