                         Program Version 4.2.0 -  RELEASE  -
|  1> ! ri-mp2 cc-pvtz cc-pvtz/c TightSCF NoKeepInts
|  2>
|  3> %scf
|  4>   MaxCore 4096
|  5> end
|  6> *xyz  0  1
|  7>     C       14.8331168   14.8141433   15.5399161
|  8>     C       14.8816942   15.9600188   14.5023329
|  9>     O       15.9957192   16.8738859   14.6623745
| 10>     C       16.9809294   16.7155643   15.5953195
| 11>     O       17.6372728   15.6920700   15.6879815
| 12>     C       17.1156482   17.8552324   16.5629723
| 13>     C       16.8847649   19.1480253   16.2143300
| 14>     C       16.2657054   19.6685293   14.9321943
| 15>     N       17.2739116   20.1928828   17.0564071
| 16>     C       18.0821326   20.0452799   18.1514836
| 17>     S       18.5873605   21.3428607   19.0439351
| 18>     N       18.4678160   18.7646561   18.4575922
| 19>     C       17.9685542   17.5426077   17.7975575
| 20>     C       17.2951141   16.5689423   18.7557496
| 21>     C       17.7128355   15.2277751   18.8255809
| 22>     C       17.0835419   14.3277745   19.7017827
| 23>     C       16.0277961   14.7731274   20.5156181
| 24>     C       15.6077164   16.1085749   20.4460147
| 25>     O       14.5843721   16.5396718   21.2258138
| 26>     C       16.2353137   17.0016937   19.5717342
| 27>     H       15.6642592   14.1122652   15.3966075
| 28>     H       13.9019033   14.2454559   15.4306919
| 29>     H       14.8708659   15.2013965   16.5663792
| 30>     H       14.9236746   15.5206269   13.4972170
| 31>     H       13.9477517   16.5328787   14.5673187
| 32>     H       15.2144404   19.3644438   14.8573700
| 33>     H       16.7957155   19.2752004   14.0554550
| 34>     H       16.2959547   20.7625019   14.8587471
| 35>     H       17.0181823   21.1410421   16.8316860
| 36>     H       19.0475429   18.6809612   19.2831133
| 37>     H       18.9106114   17.1228147   17.4153353
| 38>     H       18.5183406   14.8789561   18.1833350
| 39>     H       17.4117491   13.2906791   19.7424495
| 40>     H       15.5381397   14.0809760   21.1924897
| 41>     H       14.3095547   15.7947545   21.7812160
| 42>     H       15.8969984   18.0317308   19.5318986
| 43> *
| 44>
| 45>                          ****END OF INPUT****

CARTESIAN COORDINATES (ANGSTROEM)
---------------------------------
  C     14.833117   14.814143   15.539916
  C     14.881694   15.960019   14.502333
  O     15.995719   16.873886   14.662375
  C     16.980929   16.715564   15.595320
  O     17.637273   15.692070   15.687981
  C     17.115648   17.855232   16.562972
  C     16.884765   19.148025   16.214330
  C     16.265705   19.668529   14.932194
  N     17.273912   20.192883   17.056407
  C     18.082133   20.045280   18.151484
  S     18.587360   21.342861   19.043935
  N     18.467816   18.764656   18.457592
  C     17.968554   17.542608   17.797557
  C     17.295114   16.568942   18.755750
  C     17.712835   15.227775   18.825581
  C     17.083542   14.327774   19.701783
  C     16.027796   14.773127   20.515618
  C     15.607716   16.108575   20.446015
  O     14.584372   16.539672   21.225814
  C     16.235314   17.001694   19.571734
  H     15.664259   14.112265   15.396607
  H     13.901903   14.245456   15.430692
  H     14.870866   15.201396   16.566379
  H     14.923675   15.520627   13.497217
  H     13.947752   16.532879   14.567319
  H     15.214440   19.364444   14.857370
  H     16.795716   19.275200   14.055455
  H     16.295955   20.762502   14.858747
  H     17.018182   21.141042   16.831686
  H     19.047543   18.680961   19.283113
  H     18.910611   17.122815   17.415335
  H     18.518341   14.878956   18.183335
  H     17.411749   13.290679   19.742449
  H     15.538140   14.080976   21.192490
  H     14.309555   15.794754   21.781216
  H     15.896998   18.031731   19.531899

 Total Charge           Charge          ....    0
 Multiplicity           Mult            ....    1
 Number of Electrons    NEL             ....  154
 Basis Dimension        Dim             ....  828

ORBITAL ENERGIES
----------------

  NO   OCC          E(Eh)            E(eV)
   0   2.0000     -91.888252     -2500.4064
   1   2.0000     -20.593923      -560.3891
   2   2.0000     -20.589700      -560.2742
   3   2.0000     -20.548350      -559.1490
   4   2.0000     -15.628587      -425.2755
   5   2.0000     -15.606062      -424.6625
   6   2.0000     -11.395726      -310.0935
   7   2.0000     -11.382948      -309.7458
   8   2.0000     -11.337365      -308.5054
   9   2.0000     -11.310159      -307.7651
  10   2.0000     -11.306900      -307.6764
  11   2.0000     -11.304377      -307.6077
  12   2.0000     -11.259264      -306.3801
  13   2.0000     -11.258845      -306.3688
  14   2.0000     -11.257015      -306.3190
  15   2.0000     -11.250104      -306.1309
  16   2.0000     -11.240304      -305.8642
  17   2.0000     -11.236345      -305.7565
  18   2.0000     -11.232828      -305.6608
  19   2.0000     -11.228004      -305.5295
  20   2.0000      -8.893336      -242.0000
  21   2.0000      -6.574914      -178.9125
  22   2.0000      -6.572911      -178.8580
  23   2.0000      -6.572323      -178.8420
  24   2.0000      -1.445969       -39.3468
  25   2.0000      -1.413693       -38.4686
  26   2.0000      -1.355160       -36.8758
  27   2.0000      -1.339779       -36.4572
  28   2.0000      -1.237105       -33.6634
  29   2.0000      -1.154356       -31.4116
  30   2.0000      -1.120860       -30.5002
  31   2.0000      -1.043077       -28.3836
  32   2.0000      -1.033127       -28.1128
  33   2.0000      -1.011946       -27.5364
  34   2.0000      -0.999478       -27.1972
  35   2.0000      -0.984470       -26.7888
  36   2.0000      -0.921958       -25.0878
  37   2.0000      -0.897234       -24.4150
  38   2.0000      -0.848376       -23.0855
  39   2.0000      -0.836797       -22.7704
  40   2.0000      -0.830199       -22.5909
  41   2.0000      -0.819223       -22.2922
  42   2.0000      -0.743196       -20.2234
  43   2.0000      -0.729056       -19.8386
  44   2.0000      -0.725853       -19.7515
  45   2.0000      -0.691097       -18.8057
  46   2.0000      -0.685310       -18.6482
  47   2.0000      -0.676666       -18.4130
  48   2.0000      -0.673921       -18.3383
  49   2.0000      -0.663917       -18.0661
  50   2.0000      -0.649256       -17.6672
  51   2.0000      -0.644879       -17.5481
  52   2.0000      -0.632729       -17.2174
  53   2.0000      -0.621583       -16.9141
  54   2.0000      -0.604297       -16.4438
  55   2.0000      -0.599793       -16.3212
  56   2.0000      -0.597301       -16.2534
  57   2.0000      -0.576284       -15.6815
  58   2.0000      -0.574014       -15.6197
  59   2.0000      -0.564097       -15.3499
  60   2.0000      -0.552579       -15.0364
  61   2.0000      -0.546731       -14.8773
  62   2.0000      -0.538395       -14.6505
  63   2.0000      -0.526519       -14.3273
  64   2.0000      -0.517043       -14.0695
  65   2.0000      -0.510391       -13.8885
  66   2.0000      -0.499552       -13.5935
  67   2.0000      -0.494636       -13.4597
  68   2.0000      -0.479946       -13.0600
  69   2.0000      -0.463570       -12.6144
  70   2.0000      -0.456665       -12.4265
  71   2.0000      -0.448357       -12.2004
  72   2.0000      -0.352826        -9.6009
  73   2.0000      -0.346549        -9.4301
  74   2.0000      -0.327385        -8.9086
  75   2.0000      -0.317486        -8.6392
  76   2.0000      -0.316728        -8.6186
  77   0.0000       0.074862         2.0371
  78   0.0000       0.108768         2.9597
  79   0.0000       0.121637         3.3099
  80   0.0000       0.133956         3.6451
  81   0.0000       0.138912         3.7800

MULLIKEN ATOMIC CHARGES
-----------------------
   0 C :   -0.314394
   1 C :    0.059800
   2 O :   -0.377150
   3 C :    0.442122
   4 O :   -0.404051
   5 C :   -0.182618
   6 C :    0.148762
   7 C :   -0.280418
   8 N :   -0.127201
   9 C :    0.208133
  10 S :   -0.442121
  11 N :   -0.212695
  12 C :    0.048023
  13 C :    0.026608
  14 C :   -0.178003
  15 C :   -0.133010
  16 C :   -0.277999
  17 C :    0.314165
  18 O :   -0.358401
  19 C :   -0.252309
  20 H :    0.123199
  21 H :    0.103690
  22 H :    0.108100
  23 H :    0.098745
  24 H :    0.088433
  25 H :    0.125093
  26 H :    0.128540
  27 H :    0.102017
  28 H :    0.198603
  29 H :    0.199713
  30 H :    0.157222
  31 H :    0.163214
  32 H :    0.160970
  33 H :    0.129558
  34 H :    0.240201
  35 H :    0.165460
Sum of atomic charges:   -0.0000000

LOEWDIN ATOMIC CHARGES
----------------------
   0 C :    0.106318
   1 C :   -0.009874
   2 O :    0.288134
   3 C :   -0.418692
   4 O :    0.118836
   5 C :   -0.095552
   6 C :   -0.065664
   7 C :    0.125717
   8 N :    0.405413
   9 C :   -0.458054
  10 S :   -0.037659
  11 N :    0.396203
  12 C :   -0.048420
  13 C :   -0.041734
  14 C :    0.024308
  15 C :    0.040785
  16 C :   -0.001441
  17 C :   -0.193257
  18 O :    0.393424
  19 C :    0.028558
  20 H :   -0.023100
  21 H :   -0.025011
  22 H :   -0.024931
  23 H :   -0.026995
  24 H :   -0.030472
  25 H :   -0.010068
  26 H :   -0.007664
  27 H :   -0.021054
  28 H :   -0.058640
  29 H :   -0.063526
  30 H :   -0.007794
  31 H :   -0.023462
  32 H :   -0.020653
  33 H :   -0.035861
  34 H :   -0.154540
  35 H :   -0.023578

  Mayer bond orders larger than 0.100000
B(  0-C ,  1-C ) :   0.9693 B(  0-C , 20-H ) :   0.9713 B(  0-C , 21-H ) :   0.9736
B(  0-C , 22-H ) :   0.9703 B(  1-C ,  2-O ) :   0.9053 B(  1-C , 23-H ) :   0.9811
B(  1-C , 24-H ) :   0.9781 B(  2-O ,  3-C ) :   1.0824 B(  3-C ,  4-O ) :   2.0155
B(  3-C ,  5-C ) :   1.0230 B(  5-C ,  6-C ) :   1.6665 B(  5-C , 12-C ) :   0.9446
B(  6-C ,  7-C ) :   0.9545 B(  6-C ,  8-N ) :   1.1407 B(  7-C , 25-H ) :   0.9654
B(  7-C , 26-H ) :   0.9650 B(  7-C , 27-H ) :   0.9900 B(  8-N ,  9-C ) :   1.1851
B(  8-N , 28-H ) :   0.9471 B(  9-C , 10-S ) :   1.6091 B(  9-C , 11-N ) :   1.3042
B( 11-N , 12-C ) :   0.9782 B( 11-N , 29-H ) :   0.9486 B( 12-C , 13-C ) :   0.9683
B( 12-C , 30-H ) :   0.9966 B( 13-C , 14-C ) :   1.3808 B( 13-C , 19-C ) :   1.3629
B( 14-C , 15-C ) :   1.3964 B( 14-C , 31-H ) :   0.9619 B( 15-C , 16-C ) :   1.3590
B( 15-C , 32-H ) :   0.9709 B( 16-C , 17-C ) :   1.3327 B( 16-C , 33-H ) :   0.9854
B( 17-C , 18-O ) :   1.1051 B( 17-C , 19-C ) :   1.3665 B( 18-O , 34-H ) :   0.9804
B( 19-C , 35-H ) :   0.9595

MP2 TOTAL ENERGY:    -1274.327041262 Eh
FINAL SINGLE POINT ENERGY     -1274.327041262206

DIPOLE MOMENT
-------------
                                X             Y             Z
Electronic contribution:      9.19542      10.13645       8.64605
Nuclear contribution   :    -10.72872     -11.42794      -9.55146
                        -----------------------------------------
Total Dipole Moment    :     -1.53330      -1.29148      -0.90541
                        -----------------------------------------
Magnitude (a.u.)       :      2.19970
Magnitude (Debye)      :      5.59120

Rotational constants in cm-1:     0.010854     0.009197     0.005956
Rotational constants in MHz :   325.389848   275.705086   178.543958

                             ****ORCA TERMINATED NORMALLY****
TOTAL RUN TIME: 0 days 2 hours 1 minutes 11 seconds 844 msec
