                         Program Version 4.2.0 -  RELEASE  -
|  1> ! ri-mp2 cc-pvtz cc-pvtz/c TightSCF NoKeepInts
|  2>
|  3> %scf
|  4>   MaxCore 4096
|  5> end
|  6> *xyz  0  1
|  7>     C       14.4241854   14.5976366   15.9911555
|  8>     C       15.1245555   15.9658004   15.9972108
|  9>     O       16.4147237   15.7848888   15.3833049
| 10>     C       17.3478858   16.7846338   15.3224978
| 11>     O       18.2280059   16.7872462   14.4828024
| 12>     C       17.2271124   17.8581038   16.3507943
| 13>     C       17.1182451   19.1344693   15.9199780
| 14>     C       16.7272676   19.5516442   14.5190269
| 15>     N       17.4073831   20.2105728   16.7605225
| 16>     C       18.0529638   20.0864441   17.9629056
| 17>     S       18.4757028   21.4036869   18.8687350
| 18>     N       18.3536114   18.8082964   18.3683344
| 19>     C       17.8974147   17.5727885   17.6998033
| 20>     C       17.1582263   16.5981021   18.6034117
| 21>     C       17.4549208   15.2238369   18.5544772
| 22>     C       16.7551817   14.3137435   19.3639854
| 23>     C       15.7515096   14.7819289   20.2291814
| 24>     C       15.4549144   16.1508401   20.2806599
| 25>     O       14.4803893   16.6045208   21.1079590
| 26>     C       16.1516402   17.0549917   19.4722980
| 27>     H       15.0003333   13.8696152   16.5761104
| 28>     H       14.3241932   14.2175388   14.9667359
| 29>     H       13.4224506   14.6746754   16.4307584
| 30>     H       14.5316394   16.6911438   15.4248318
| 31>     H       15.2004545   16.3190801   17.0293946
| 32>     H       17.5783098   19.4308092   13.8350485
| 33>     H       16.4015122   20.5974587   14.4673585
| 34>     H       15.9071810   18.9328247   14.1349738
| 35>     H       17.2366801   21.1542400   16.4507595
| 36>     H       18.8280233   18.7473269   19.2607723
| 37>     H       18.8745658   17.1418907   17.4348661
| 38>     H       18.2229480   14.8578921   17.8767409
| 39>     H       16.9901627   13.2515384   19.3169175
| 40>     H       15.2077182   14.0818237   20.8551467
| 41>     H       14.1519020   15.8474991   21.6164781
| 42>     H       15.9030865   18.1104675   19.5220631
| 43> *
| 44>
| 45>                          ****END OF INPUT****

CARTESIAN COORDINATES (ANGSTROEM)
---------------------------------
  C     14.424185   14.597637   15.991155
  C     15.124555   15.965800   15.997211
  O     16.414724   15.784889   15.383305
  C     17.347886   16.784634   15.322498
  O     18.228006   16.787246   14.482802
  C     17.227112   17.858104   16.350794
  C     17.118245   19.134469   15.919978
  C     16.727268   19.551644   14.519027
  N     17.407383   20.210573   16.760523
  C     18.052964   20.086444   17.962906
  S     18.475703   21.403687   18.868735
  N     18.353611   18.808296   18.368334
  C     17.897415   17.572788   17.699803
  C     17.158226   16.598102   18.603412
  C     17.454921   15.223837   18.554477
  C     16.755182   14.313743   19.363985
  C     15.751510   14.781929   20.229181
  C     15.454914   16.150840   20.280660
  O     14.480389   16.604521   21.107959
  C     16.151640   17.054992   19.472298
  H     15.000333   13.869615   16.576110
  H     14.324193   14.217539   14.966736
  H     13.422451   14.674675   16.430758
  H     14.531639   16.691144   15.424832
  H     15.200454   16.319080   17.029395
  H     17.578310   19.430809   13.835048
  H     16.401512   20.597459   14.467358
  H     15.907181   18.932825   14.134974
  H     17.236680   21.154240   16.450760
  H     18.828023   18.747327   19.260772
  H     18.874566   17.141891   17.434866
  H     18.222948   14.857892   17.876741
  H     16.990163   13.251538   19.316917
  H     15.207718   14.081824   20.855147
  H     14.151902   15.847499   21.616478
  H     15.903087   18.110467   19.522063

 Total Charge           Charge          ....    0
 Multiplicity           Mult            ....    1
 Number of Electrons    NEL             ....  154
 Basis Dimension        Dim             ....  828

ORBITAL ENERGIES
----------------

  NO   OCC          E(Eh)            E(eV)
   0   2.0000     -91.889965     -2500.4531
   1   2.0000     -20.604602      -560.6797
   2   2.0000     -20.600199      -560.5599
   3   2.0000     -20.553122      -559.2789
   4   2.0000     -15.626298      -425.2132
   5   2.0000     -15.611173      -424.8016
   6   2.0000     -11.396398      -310.1118
   7   2.0000     -11.385601      -309.8180
   8   2.0000     -11.327366      -308.2333
   9   2.0000     -11.323227      -308.1207
  10   2.0000     -11.317005      -307.9514
  11   2.0000     -11.299794      -307.4830
  12   2.0000     -11.270853      -306.6955
  13   2.0000     -11.264416      -306.5204
  14   2.0000     -11.258704      -306.3649
  15   2.0000     -11.256103      -306.2941
  16   2.0000     -11.252496      -306.1960
  17   2.0000     -11.247587      -306.0624
  18   2.0000     -11.247535      -306.0610
  19   2.0000     -11.230789      -305.6053
  20   2.0000      -8.895045      -242.0465
  21   2.0000      -6.576621      -178.9589
  22   2.0000      -6.574617      -178.9044
  23   2.0000      -6.574030      -178.8884
  24   2.0000      -1.448628       -39.4192
  25   2.0000      -1.424345       -38.7584
  26   2.0000      -1.362721       -37.0815
  27   2.0000      -1.339404       -36.4470
  28   2.0000      -1.239479       -33.7279
  29   2.0000      -1.166772       -31.7495
  30   2.0000      -1.126142       -30.6439
  31   2.0000      -1.051707       -28.6184
  32   2.0000      -1.037902       -28.2427
  33   2.0000      -1.024913       -27.8893
  34   2.0000      -1.003643       -27.3105
  35   2.0000      -0.989671       -26.9303
  36   2.0000      -0.927412       -25.2362
  37   2.0000      -0.878427       -23.9032
  38   2.0000      -0.853367       -23.2213
  39   2.0000      -0.844686       -22.9851
  40   2.0000      -0.842662       -22.9300
  41   2.0000      -0.838857       -22.8264
  42   2.0000      -0.760774       -20.7017
  43   2.0000      -0.739632       -20.1264
  44   2.0000      -0.730365       -19.8743
  45   2.0000      -0.703058       -19.1312
  46   2.0000      -0.692978       -18.8569
  47   2.0000      -0.681267       -18.5382
  48   2.0000      -0.676461       -18.4074
  49   2.0000      -0.662329       -18.0229
  50   2.0000      -0.655682       -17.8420
  51   2.0000      -0.650513       -17.7014
  52   2.0000      -0.637450       -17.3459
  53   2.0000      -0.614867       -16.7314
  54   2.0000      -0.608926       -16.5697
  55   2.0000      -0.604945       -16.4614
  56   2.0000      -0.595986       -16.2176
  57   2.0000      -0.582312       -15.8455
  58   2.0000      -0.577728       -15.7208
  59   2.0000      -0.566074       -15.4037
  60   2.0000      -0.561230       -15.2718
  61   2.0000      -0.553734       -15.0679
  62   2.0000      -0.551911       -15.0183
  63   2.0000      -0.530785       -14.4434
  64   2.0000      -0.522524       -14.2186
  65   2.0000      -0.517904       -14.0929
  66   2.0000      -0.510651       -13.8955
  67   2.0000      -0.504575       -13.7302
  68   2.0000      -0.488192       -13.2844
  69   2.0000      -0.466463       -12.6931
  70   2.0000      -0.455342       -12.3905
  71   2.0000      -0.453414       -12.3380
  72   2.0000      -0.357913        -9.7393
  73   2.0000      -0.351734        -9.5712
  74   2.0000      -0.331457        -9.0194
  75   2.0000      -0.328905        -8.9500
  76   2.0000      -0.319531        -8.6949
  77   0.0000       0.086499         2.3538
  78   0.0000       0.097444         2.6516
  79   0.0000       0.120045         3.2666
  80   0.0000       0.125208         3.4071
  81   0.0000       0.128957         3.5091

MULLIKEN ATOMIC CHARGES
-----------------------
   0 C :   -0.263220
   1 C :    0.021856
   2 O :   -0.305865
   3 C :    0.402876
   4 O :   -0.376490
   5 C :   -0.202680
   6 C :    0.136327
   7 C :   -0.292567
   8 N :   -0.134769
   9 C :    0.215020
  10 S :   -0.440872
  11 N :   -0.226712
  12 C :    0.035630
  13 C :    0.009118
  14 C :   -0.187606
  15 C :   -0.152281
  16 C :   -0.266312
  17 C :    0.309143
  18 O :   -0.353396
  19 C :   -0.235251
  20 H :    0.098612
  21 H :    0.105786
  22 H :    0.088950
  23 H :    0.097847
  24 H :    0.109506
  25 H :    0.145981
  26 H :    0.099478
  27 H :    0.114436
  28 H :    0.197120
  29 H :    0.202980
  30 H :    0.164329
  31 H :    0.159380
  32 H :    0.169047
  33 H :    0.135464
  34 H :    0.241684
  35 H :    0.177448
Sum of atomic charges:   -0.0000000

LOEWDIN ATOMIC CHARGES
----------------------
   0 C :    0.111638
   1 C :   -0.024006
   2 O :    0.308532
   3 C :   -0.418448
   4 O :    0.126689
   5 C :   -0.093647
   6 C :   -0.086971
   7 C :    0.129530
   8 N :    0.404187
   9 C :   -0.454094
  10 S :   -0.036518
  11 N :    0.395658
  12 C :   -0.053733
  13 C :   -0.045299
  14 C :    0.019055
  15 C :    0.046037
  16 C :    0.001554
  17 C :   -0.191062
  18 O :    0.397378
  19 C :    0.029691
  20 H :   -0.026634
  21 H :   -0.025360
  22 H :   -0.024996
  23 H :   -0.036103
  24 H :   -0.036884
  25 H :   -0.003070
  26 H :   -0.019693
  27 H :   -0.011910
  28 H :   -0.058695
  29 H :   -0.064324
  30 H :   -0.008049
  31 H :   -0.025078
  32 H :   -0.018205
  33 H :   -0.033585
  34 H :   -0.152197
  35 H :   -0.021387

  Mayer bond orders larger than 0.100000
B(  0-C ,  1-C ) :   0.9826 B(  0-C , 20-H ) :   0.9761 B(  0-C , 21-H ) :   0.9782
B(  0-C , 22-H ) :   0.9772 B(  1-C ,  2-O ) :   0.8965 B(  1-C , 23-H ) :   0.9797
B(  1-C , 24-H ) :   0.9568 B(  2-O ,  3-C ) :   1.1928 B(  3-C ,  4-O ) :   2.1305
B(  3-C ,  5-C ) :   0.9107 B(  5-C ,  6-C ) :   1.7183 B(  5-C , 12-C ) :   0.9501
B(  6-C ,  7-C ) :   0.9360 B(  6-C ,  8-N ) :   1.1181 B(  7-C , 25-H ) :   0.9586
B(  7-C , 26-H ) :   0.9867 B(  7-C , 27-H ) :   0.9780 B(  8-N ,  9-C ) :   1.2008
B(  8-N , 28-H ) :   0.9493 B(  9-C , 10-S ) :   1.6117 B(  9-C , 11-N ) :   1.2849
B( 11-N , 12-C ) :   0.9765 B( 11-N , 29-H ) :   0.9457 B( 12-C , 13-C ) :   0.9634
B( 12-C , 30-H ) :   1.0004 B( 13-C , 14-C ) :   1.3788 B( 13-C , 19-C ) :   1.3489
B( 14-C , 15-C ) :   1.3936 B( 14-C , 31-H ) :   0.9696 B( 15-C , 16-C ) :   1.3590
B( 15-C , 32-H ) :   0.9686 B( 16-C , 17-C ) :   1.3322 B( 16-C , 33-H ) :   0.9830
B( 17-C , 18-O ) :   1.1124 B( 17-C , 19-C ) :   1.3614 B( 18-O , 34-H ) :   0.9786
B( 19-C , 35-H ) :   0.9564

MP2 TOTAL ENERGY:    -1274.326182437 Eh
FINAL SINGLE POINT ENERGY     -1274.326182437336

DIPOLE MOMENT
-------------
                                X             Y             Z
Electronic contribution:      9.78858      10.19068       6.34461
Nuclear contribution   :    -11.51339     -11.67865      -6.19396
                        -----------------------------------------
Total Dipole Moment    :     -1.72481      -1.48796       0.15065
                        -----------------------------------------
Magnitude (a.u.)       :      2.28291
Magnitude (Debye)      :      5.80271

Rotational constants in cm-1:     0.012268     0.008825     0.006039
Rotational constants in MHz :   367.798045   264.564620   181.041951

                             ****ORCA TERMINATED NORMALLY****
TOTAL RUN TIME: 0 days 1 hours 43 minutes 50 seconds 907 msec
