                         Program Version 4.2.0 -  RELEASE  -
|  1> ! ri-mp2 cc-pvtz cc-pvtz/c TightSCF NoKeepInts
|  2>
|  3> %scf
|  4>   MaxCore 4096
|  5> end
|  6> *xyz  0  1
|  7>     C       15.3470631   14.7052167   13.9848167
|  8>     C       14.9689655   15.1910604   15.3949538
|  9>     O       15.9992361   16.0885291   15.8434736
| 10>     C       15.7941512   17.4388911   15.7890862
| 11>     O       14.9552393   17.9379426   15.0580266
| 12>     C       16.6570335   18.1956768   16.7633278
| 13>     C       16.7907838   19.5439012   16.6708000
| 14>     C       15.9607614   20.4914530   15.8294045
| 15>     N       17.7838154   20.2194914   17.3838627
| 16>     C       18.8026296   19.6068532   18.0618115
| 17>     S       20.0027336   20.4685356   18.8054461
| 18>     N       18.7893576   18.2351595   18.0745240
| 19>     C       17.7102220   17.3846364   17.5375608
| 20>     C       17.1266100   16.4469449   18.5865666
| 21>     C       17.3547601   15.0602684   18.5154087
| 22>     C       16.8160489   14.1978811   19.4851203
| 23>     C       16.0463594   14.7273262   20.5352951
| 24>     C       15.8215303   16.1090413   20.6102331
| 25>     O       15.0799464   16.6228323   21.6236925
| 26>     C       16.3586849   16.9646585   19.6433309
| 27>     H       15.3763178   15.5483069   13.2828121
| 28>     H       14.6106385   13.9803671   13.6174215
| 29>     H       16.3324929   14.2233572   13.9906745
| 30>     H       13.9801256   15.6702929   15.3928224
| 31>     H       14.9252164   14.3262900   16.0695571
| 32>     H       14.8913540   20.3537536   16.0347259
| 33>     H       16.1168890   20.2977880   14.7605048
| 34>     H       16.1943142   21.5468576   16.0125469
| 35>     H       17.8176116   21.2261867   17.3637005
| 36>     H       19.5362138   17.8118033   18.6106297
| 37>     H       18.2680334   16.8182534   16.7782895
| 38>     H       17.9452418   14.6500305   17.7004490
| 39>     H       16.9956206   13.1260935   19.4213300
| 40>     H       15.6287241   14.0655872   21.2869400
| 41>     H       14.8222768   15.8867398   22.1986578
| 42>     H       16.1799975   18.0319926   19.7201967
| 43> *
| 44>
| 45>                          ****END OF INPUT****

CARTESIAN COORDINATES (ANGSTROEM)
---------------------------------
  C     15.347063   14.705217   13.984817
  C     14.968965   15.191060   15.394954
  O     15.999236   16.088529   15.843474
  C     15.794151   17.438891   15.789086
  O     14.955239   17.937943   15.058027
  C     16.657034   18.195677   16.763328
  C     16.790784   19.543901   16.670800
  C     15.960761   20.491453   15.829405
  N     17.783815   20.219491   17.383863
  C     18.802630   19.606853   18.061812
  S     20.002734   20.468536   18.805446
  N     18.789358   18.235160   18.074524
  C     17.710222   17.384636   17.537561
  C     17.126610   16.446945   18.586567
  C     17.354760   15.060268   18.515409
  C     16.816049   14.197881   19.485120
  C     16.046359   14.727326   20.535295
  C     15.821530   16.109041   20.610233
  O     15.079946   16.622832   21.623693
  C     16.358685   16.964658   19.643331
  H     15.376318   15.548307   13.282812
  H     14.610639   13.980367   13.617422
  H     16.332493   14.223357   13.990674
  H     13.980126   15.670293   15.392822
  H     14.925216   14.326290   16.069557
  H     14.891354   20.353754   16.034726
  H     16.116889   20.297788   14.760505
  H     16.194314   21.546858   16.012547
  H     17.817612   21.226187   17.363701
  H     19.536214   17.811803   18.610630
  H     18.268033   16.818253   16.778289
  H     17.945242   14.650030   17.700449
  H     16.995621   13.126093   19.421330
  H     15.628724   14.065587   21.286940
  H     14.822277   15.886740   22.198658
  H     16.179997   18.031993   19.720197

 Total Charge           Charge          ....    0
 Multiplicity           Mult            ....    1
 Number of Electrons    NEL             ....  154
 Basis Dimension        Dim             ....  828

ORBITAL ENERGIES
----------------

  NO   OCC          E(Eh)            E(eV)
   0   2.0000     -91.889054     -2500.4283
   1   2.0000     -20.599163      -560.5317
   2   2.0000     -20.596371      -560.4558
   3   2.0000     -20.542084      -558.9785
   4   2.0000     -15.629474      -425.2996
   5   2.0000     -15.607142      -424.6919
   6   2.0000     -11.395337      -310.0829
   7   2.0000     -11.383690      -309.7659
   8   2.0000     -11.337683      -308.5140
   9   2.0000     -11.313541      -307.8571
  10   2.0000     -11.307655      -307.6969
  11   2.0000     -11.296131      -307.3833
  12   2.0000     -11.260701      -306.4192
  13   2.0000     -11.259195      -306.3783
  14   2.0000     -11.255041      -306.2652
  15   2.0000     -11.251907      -306.1800
  16   2.0000     -11.243435      -305.9494
  17   2.0000     -11.238815      -305.8237
  18   2.0000     -11.238620      -305.8184
  19   2.0000     -11.224865      -305.4441
  20   2.0000      -8.894121      -242.0213
  21   2.0000      -6.575693      -178.9337
  22   2.0000      -6.573696      -178.8794
  23   2.0000      -6.573104      -178.8633
  24   2.0000      -1.451402       -39.4946
  25   2.0000      -1.416033       -38.5322
  26   2.0000      -1.354547       -36.8591
  27   2.0000      -1.340583       -36.4791
  28   2.0000      -1.238414       -33.6989
  29   2.0000      -1.157481       -31.4967
  30   2.0000      -1.121274       -30.5114
  31   2.0000      -1.042911       -28.3791
  32   2.0000      -1.037443       -28.2303
  33   2.0000      -1.014854       -27.6156
  34   2.0000      -0.996123       -27.1059
  35   2.0000      -0.984539       -26.7907
  36   2.0000      -0.921892       -25.0860
  37   2.0000      -0.890185       -24.2232
  38   2.0000      -0.846736       -23.0409
  39   2.0000      -0.837944       -22.8016
  40   2.0000      -0.834062       -22.6960
  41   2.0000      -0.818790       -22.2804
  42   2.0000      -0.761051       -20.7093
  43   2.0000      -0.733442       -19.9580
  44   2.0000      -0.722561       -19.6619
  45   2.0000      -0.695241       -18.9185
  46   2.0000      -0.688409       -18.7326
  47   2.0000      -0.679967       -18.5028
  48   2.0000      -0.671967       -18.2852
  49   2.0000      -0.652493       -17.7552
  50   2.0000      -0.647461       -17.6183
  51   2.0000      -0.641573       -17.4581
  52   2.0000      -0.628535       -17.1033
  53   2.0000      -0.613994       -16.7076
  54   2.0000      -0.606441       -16.5021
  55   2.0000      -0.600149       -16.3309
  56   2.0000      -0.598938       -16.2979
  57   2.0000      -0.578564       -15.7435
  58   2.0000      -0.571301       -15.5459
  59   2.0000      -0.569002       -15.4833
  60   2.0000      -0.563637       -15.3374
  61   2.0000      -0.541169       -14.7260
  62   2.0000      -0.534494       -14.5443
  63   2.0000      -0.527106       -14.3433
  64   2.0000      -0.523903       -14.2561
  65   2.0000      -0.513234       -13.9658
  66   2.0000      -0.500480       -13.6188
  67   2.0000      -0.496564       -13.5122
  68   2.0000      -0.485858       -13.2209
  69   2.0000      -0.463477       -12.6119
  70   2.0000      -0.453796       -12.3484
  71   2.0000      -0.448730       -12.2106
  72   2.0000      -0.353213        -9.6114
  73   2.0000      -0.349667        -9.5149
  74   2.0000      -0.328173        -8.9300
  75   2.0000      -0.321015        -8.7353
  76   2.0000      -0.318226        -8.6594
  77   0.0000       0.076530         2.0825
  78   0.0000       0.105078         2.8593
  79   0.0000       0.124480         3.3873
  80   0.0000       0.132705         3.6111
  81   0.0000       0.136177         3.7056

MULLIKEN ATOMIC CHARGES
-----------------------
   0 C :   -0.275360
   1 C :    0.030402
   2 O :   -0.350012
   3 C :    0.435952
   4 O :   -0.436740
   5 C :   -0.220034
   6 C :    0.174010
   7 C :   -0.268523
   8 N :   -0.126173
   9 C :    0.209707
  10 S :   -0.441461
  11 N :   -0.215025
  12 C :    0.059076
  13 C :    0.043897
  14 C :   -0.180693
  15 C :   -0.134569
  16 C :   -0.276343
  17 C :    0.316601
  18 O :   -0.356868
  19 C :   -0.248181
  20 H :    0.107020
  21 H :    0.091419
  22 H :    0.090831
  23 H :    0.105024
  24 H :    0.108373
  25 H :    0.133679
  26 H :    0.128955
  27 H :    0.094755
  28 H :    0.199930
  29 H :    0.200477
  30 H :    0.153477
  31 H :    0.152375
  32 H :    0.161002
  33 H :    0.129970
  34 H :    0.240518
  35 H :    0.162534
Sum of atomic charges:   -0.0000000

LOEWDIN ATOMIC CHARGES
----------------------
   0 C :    0.104409
   1 C :   -0.015629
   2 O :    0.310499
   3 C :   -0.415039
   4 O :    0.095065
   5 C :   -0.095300
   6 C :   -0.055958
   7 C :    0.131244
   8 N :    0.407255
   9 C :   -0.456659
  10 S :   -0.036175
  11 N :    0.394707
  12 C :   -0.054684
  13 C :   -0.039516
  14 C :    0.017205
  15 C :    0.038467
  16 C :   -0.000776
  17 C :   -0.189662
  18 O :    0.395000
  19 C :    0.033166
  20 H :   -0.024336
  21 H :   -0.027529
  22 H :   -0.029749
  23 H :   -0.027609
  24 H :   -0.027663
  25 H :   -0.004225
  26 H :   -0.005053
  27 H :   -0.023598
  28 H :   -0.057119
  29 H :   -0.064280
  30 H :   -0.013651
  31 H :   -0.029147
  32 H :   -0.021439
  33 H :   -0.035476
  34 H :   -0.153996
  35 H :   -0.022748

  Mayer bond orders larger than 0.100000
B(  0-C ,  1-C ) :   0.9710 B(  0-C , 20-H ) :   0.9773 B(  0-C , 21-H ) :   0.9762
B(  0-C , 22-H ) :   0.9784 B(  1-C ,  2-O ) :   0.8897 B(  1-C , 23-H ) :   0.9739
B(  1-C , 24-H ) :   0.9804 B(  2-O ,  3-C ) :   1.1580 B(  3-C ,  4-O ) :   1.9539
B(  3-C ,  5-C ) :   1.0767 B(  5-C ,  6-C ) :   1.6372 B(  5-C , 12-C ) :   0.9559
B(  6-C ,  7-C ) :   0.9654 B(  6-C ,  8-N ) :   1.1525 B(  7-C , 25-H ) :   0.9611
B(  7-C , 26-H ) :   0.9588 B(  7-C , 27-H ) :   0.9907 B(  8-N ,  9-C ) :   1.1874
B(  8-N , 28-H ) :   0.9463 B(  9-C , 10-S ) :   1.6067 B(  9-C , 11-N ) :   1.3091
B( 11-N , 12-C ) :   0.9681 B( 11-N , 29-H ) :   0.9484 B( 12-C , 13-C ) :   0.9632
B( 12-C , 30-H ) :   1.0011 B( 13-C , 14-C ) :   1.3537 B( 13-C , 19-C ) :   1.3802
B( 14-C , 15-C ) :   1.3936 B( 14-C , 31-H ) :   0.9715 B( 15-C , 16-C ) :   1.3596
B( 15-C , 32-H ) :   0.9706 B( 16-C , 17-C ) :   1.3339 B( 16-C , 33-H ) :   0.9851
B( 17-C , 18-O ) :   1.1043 B( 17-C , 19-C ) :   1.3647 B( 18-O , 34-H ) :   0.9799
B( 19-C , 35-H ) :   0.9597

MP2 TOTAL ENERGY:    -1274.341926208 Eh
FINAL SINGLE POINT ENERGY     -1274.341926207589

DIPOLE MOMENT
-------------
                                X             Y             Z
Electronic contribution:      8.71377       9.83028      10.60076
Nuclear contribution   :     -9.85590     -11.45738     -10.90284
                        -----------------------------------------
Total Dipole Moment    :     -1.14213      -1.62710      -0.30207
                        -----------------------------------------
Magnitude (a.u.)       :      2.01076
Magnitude (Debye)      :      5.11095

Rotational constants in cm-1:     0.010635     0.008720     0.005808
Rotational constants in MHz :   318.842898   261.426540   174.115906

                             ****ORCA TERMINATED NORMALLY****
TOTAL RUN TIME: 0 days 1 hours 47 minutes 49 seconds 933 msec
