                         Program Version 4.2.0 -  RELEASE  -
|  1> ! ri-mp2 cc-pvtz cc-pvtz/c TightSCF NoKeepInts
|  2>
|  3> %scf
|  4>   MaxCore 4096
|  5> end
|  6> *xyz  0  1
|  7>     C       13.6773740   15.9873701   14.3559419
|  8>     C       15.0607803   15.4964920   14.8144969
|  9>     O       15.9322650   16.6362669   14.8525738
| 10>     C       16.9897642   16.5821901   15.7080287
| 11>     O       17.6886894   15.5869993   15.7969304
| 12>     C       17.0858782   17.7352564   16.6652106
| 13>     C       16.7081786   18.9968748   16.3291642
| 14>     C       15.9423070   19.4418821   15.0987158
| 15>     N       17.0628736   20.0844925   17.1312962
| 16>     C       17.9713388   20.0290008   18.1537287
| 17>     S       18.4260617   21.3806391   18.9913814
| 18>     N       18.5019567   18.7948590   18.4319705
| 19>     C       18.0629503   17.5218941   17.8278265
| 20>     C       17.5733540   16.5068893   18.8522986
| 21>     C       18.1413128   15.2218131   18.9170203
| 22>     C       17.6881340   14.2869623   19.8628819
| 23>     C       16.6589406   14.6408113   20.7522324
| 24>     C       16.0896996   15.9201402   20.6882998
| 25>     O       15.0925856   16.2628496   21.5424499
| 26>     C       16.5423950   16.8481560   19.7450068
| 27>     H       13.2789549   16.7326171   15.0554729
| 28>     H       12.9700616   15.1504745   14.3067632
| 29>     H       13.7396781   16.4430239   13.3598360
| 30>     H       14.9685122   15.0482704   15.8138411
| 31>     H       15.4554282   14.7363903   14.1270607
| 32>     H       16.4411444   19.0996403   14.1831732
| 33>     H       15.8517278   20.5324317   15.0245368
| 34>     H       14.9258457   19.0292526   15.1040319
| 35>     H       16.6996789   21.0010478   16.9240232
| 36>     H       19.1541356   18.7774876   19.2059258
| 37>     H       19.0050424   17.1867140   17.3698321
| 38>     H       18.9268186   14.9427202   18.2185408
| 39>     H       18.1311602   13.2933273   19.8994179
| 40>     H       16.3051617   13.9214178   21.4831860
| 41>     H       14.9446662   15.5086869   22.1325547
| 42>     H       16.0921440   17.8346587   19.7123482
| 43> *
| 44>
| 45>                          ****END OF INPUT****

CARTESIAN COORDINATES (ANGSTROEM)
---------------------------------
  C     13.677374   15.987370   14.355942
  C     15.060780   15.496492   14.814497
  O     15.932265   16.636267   14.852574
  C     16.989764   16.582190   15.708029
  O     17.688689   15.586999   15.796930
  C     17.085878   17.735256   16.665211
  C     16.708179   18.996875   16.329164
  C     15.942307   19.441882   15.098716
  N     17.062874   20.084492   17.131296
  C     17.971339   20.029001   18.153729
  S     18.426062   21.380639   18.991381
  N     18.501957   18.794859   18.431970
  C     18.062950   17.521894   17.827827
  C     17.573354   16.506889   18.852299
  C     18.141313   15.221813   18.917020
  C     17.688134   14.286962   19.862882
  C     16.658941   14.640811   20.752232
  C     16.089700   15.920140   20.688300
  O     15.092586   16.262850   21.542450
  C     16.542395   16.848156   19.745007
  H     13.278955   16.732617   15.055473
  H     12.970062   15.150474   14.306763
  H     13.739678   16.443024   13.359836
  H     14.968512   15.048270   15.813841
  H     15.455428   14.736390   14.127061
  H     16.441144   19.099640   14.183173
  H     15.851728   20.532432   15.024537
  H     14.925846   19.029253   15.104032
  H     16.699679   21.001048   16.924023
  H     19.154136   18.777488   19.205926
  H     19.005042   17.186714   17.369832
  H     18.926819   14.942720   18.218541
  H     18.131160   13.293327   19.899418
  H     16.305162   13.921418   21.483186
  H     14.944666   15.508687   22.132555
  H     16.092144   17.834659   19.712348

 Total Charge           Charge          ....    0
 Multiplicity           Mult            ....    1
 Number of Electrons    NEL             ....  154
 Basis Dimension        Dim             ....  828

ORBITAL ENERGIES
----------------

  NO   OCC          E(Eh)            E(eV)
   0   2.0000     -91.888791     -2500.4211
   1   2.0000     -20.594536      -560.4058
   2   2.0000     -20.592916      -560.3617
   3   2.0000     -20.548354      -559.1492
   4   2.0000     -15.629601      -425.3031
   5   2.0000     -15.606365      -424.6708
   6   2.0000     -11.393705      -310.0385
   7   2.0000     -11.383410      -309.7583
   8   2.0000     -11.339001      -308.5499
   9   2.0000     -11.308931      -307.7317
  10   2.0000     -11.304769      -307.6184
  11   2.0000     -11.301664      -307.5339
  12   2.0000     -11.260482      -306.4133
  13   2.0000     -11.259886      -306.3971
  14   2.0000     -11.256109      -306.2943
  15   2.0000     -11.248886      -306.0977
  16   2.0000     -11.239124      -305.8321
  17   2.0000     -11.235879      -305.7438
  18   2.0000     -11.235313      -305.7284
  19   2.0000     -11.231900      -305.6355
  20   2.0000      -8.893868      -242.0145
  21   2.0000      -6.575443      -178.9269
  22   2.0000      -6.573442      -178.8725
  23   2.0000      -6.572852      -178.8564
  24   2.0000      -1.454739       -39.5855
  25   2.0000      -1.412666       -38.4406
  26   2.0000      -1.357481       -36.9389
  27   2.0000      -1.340661       -36.4812
  28   2.0000      -1.237725       -33.6802
  29   2.0000      -1.153465       -31.3874
  30   2.0000      -1.121574       -30.5196
  31   2.0000      -1.044878       -28.4326
  32   2.0000      -1.037460       -28.2307
  33   2.0000      -1.011009       -27.5109
  34   2.0000      -0.999762       -27.2049
  35   2.0000      -0.985040       -26.8043
  36   2.0000      -0.921452       -25.0740
  37   2.0000      -0.886650       -24.1270
  38   2.0000      -0.847895       -23.0724
  39   2.0000      -0.836225       -22.7549
  40   2.0000      -0.829124       -22.5616
  41   2.0000      -0.822759       -22.3884
  42   2.0000      -0.761604       -20.7243
  43   2.0000      -0.736406       -20.0386
  44   2.0000      -0.727057       -19.7842
  45   2.0000      -0.690999       -18.8030
  46   2.0000      -0.684190       -18.6177
  47   2.0000      -0.682669       -18.5764
  48   2.0000      -0.676053       -18.3963
  49   2.0000      -0.657791       -17.8994
  50   2.0000      -0.651431       -17.7263
  51   2.0000      -0.641691       -17.4613
  52   2.0000      -0.633948       -17.2506
  53   2.0000      -0.606001       -16.4901
  54   2.0000      -0.603957       -16.4345
  55   2.0000      -0.599658       -16.3175
  56   2.0000      -0.596268       -16.2253
  57   2.0000      -0.575802       -15.6684
  58   2.0000      -0.573995       -15.6192
  59   2.0000      -0.566156       -15.4059
  60   2.0000      -0.560013       -15.2387
  61   2.0000      -0.554276       -15.0826
  62   2.0000      -0.545051       -14.8316
  63   2.0000      -0.517168       -14.0728
  64   2.0000      -0.516489       -14.0544
  65   2.0000      -0.512652       -13.9500
  66   2.0000      -0.506893       -13.7933
  67   2.0000      -0.495113       -13.4727
  68   2.0000      -0.480878       -13.0854
  69   2.0000      -0.463099       -12.6016
  70   2.0000      -0.460702       -12.5363
  71   2.0000      -0.453312       -12.3352
  72   2.0000      -0.353812        -9.6277
  73   2.0000      -0.345610        -9.4045
  74   2.0000      -0.327825        -8.9206
  75   2.0000      -0.317944        -8.6517
  76   2.0000      -0.315576        -8.5872
  77   0.0000       0.074102         2.0164
  78   0.0000       0.109907         2.9907
  79   0.0000       0.120446         3.2775
  80   0.0000       0.134977         3.6729
  81   0.0000       0.138149         3.7592

MULLIKEN ATOMIC CHARGES
-----------------------
   0 C :   -0.282913
   1 C :    0.050167
   2 O :   -0.353271
   3 C :    0.424536
   4 O :   -0.403820
   5 C :   -0.182720
   6 C :    0.153074
   7 C :   -0.283437
   8 N :   -0.127959
   9 C :    0.207091
  10 S :   -0.441177
  11 N :   -0.210620
  12 C :    0.043039
  13 C :    0.032353
  14 C :   -0.169766
  15 C :   -0.134189
  16 C :   -0.277640
  17 C :    0.313691
  18 O :   -0.359040
  19 C :   -0.253285
  20 H :    0.093821
  21 H :    0.104860
  22 H :    0.098811
  23 H :    0.087007
  24 H :    0.104259
  25 H :    0.128189
  26 H :    0.104713
  27 H :    0.125965
  28 H :    0.198905
  29 H :    0.199926
  30 H :    0.155929
  31 H :    0.160100
  32 H :    0.160645
  33 H :    0.128708
  34 H :    0.240148
  35 H :    0.163901
Sum of atomic charges:   -0.0000000

LOEWDIN ATOMIC CHARGES
----------------------
   0 C :    0.106882
   1 C :   -0.018012
   2 O :    0.301505
   3 C :   -0.420815
   4 O :    0.114375
   5 C :   -0.095066
   6 C :   -0.064487
   7 C :    0.125894
   8 N :    0.405724
   9 C :   -0.458370
  10 S :   -0.036757
  11 N :    0.396273
  12 C :   -0.048344
  13 C :   -0.041019
  14 C :    0.024949
  15 C :    0.041173
  16 C :   -0.001291
  17 C :   -0.192965
  18 O :    0.392999
  19 C :    0.028775
  20 H :   -0.028806
  21 H :   -0.022744
  22 H :   -0.026907
  23 H :   -0.027239
  24 H :   -0.027782
  25 H :   -0.008143
  26 H :   -0.020825
  27 H :   -0.010459
  28 H :   -0.058488
  29 H :   -0.063198
  30 H :   -0.007769
  31 H :   -0.023610
  32 H :   -0.020766
  33 H :   -0.036043
  34 H :   -0.154694
  35 H :   -0.023952

  Mayer bond orders larger than 0.100000
B(  0-C ,  1-C ) :   0.9711 B(  0-C , 20-H ) :   0.9776 B(  0-C , 21-H ) :   0.9784
B(  0-C , 22-H ) :   0.9765 B(  1-C ,  2-O ) :   0.9077 B(  1-C , 23-H ) :   0.9717
B(  1-C , 24-H ) :   0.9820 B(  2-O ,  3-C ) :   1.0996 B(  3-C ,  4-O ) :   2.0218
B(  3-C ,  5-C ) :   1.0311 B(  5-C ,  6-C ) :   1.6568 B(  5-C , 12-C ) :   0.9494
B(  6-C ,  7-C ) :   0.9544 B(  6-C ,  8-N ) :   1.1364 B(  7-C , 25-H ) :   0.9650
B(  7-C , 26-H ) :   0.9910 B(  7-C , 27-H ) :   0.9640 B(  8-N ,  9-C ) :   1.1846
B(  8-N , 28-H ) :   0.9469 B(  9-C , 10-S ) :   1.6098 B(  9-C , 11-N ) :   1.3057
B( 11-N , 12-C ) :   0.9771 B( 11-N , 29-H ) :   0.9485 B( 12-C , 13-C ) :   0.9720
B( 12-C , 30-H ) :   0.9963 B( 13-C , 14-C ) :   1.3776 B( 13-C , 19-C ) :   1.3637
B( 14-C , 15-C ) :   1.3974 B( 14-C , 31-H ) :   0.9632 B( 15-C , 16-C ) :   1.3588
B( 15-C , 32-H ) :   0.9710 B( 16-C , 17-C ) :   1.3332 B( 16-C , 33-H ) :   0.9858
B( 17-C , 18-O ) :   1.1039 B( 17-C , 19-C ) :   1.3675 B( 18-O , 34-H ) :   0.9805
B( 19-C , 35-H ) :   0.9603

MP2 TOTAL ENERGY:    -1274.333032141 Eh
FINAL SINGLE POINT ENERGY     -1274.333032140907

DIPOLE MOMENT
-------------
                                X             Y             Z
Electronic contribution:     11.27506       8.21356      10.66324
Nuclear contribution   :    -12.70392      -9.53531     -11.52911
                        -----------------------------------------
Total Dipole Moment    :     -1.42886      -1.32176      -0.86588
                        -----------------------------------------
Magnitude (a.u.)       :      2.13036
Magnitude (Debye)      :      5.41494

Rotational constants in cm-1:     0.009563     0.009395     0.005787
Rotational constants in MHz :   286.679109   281.661549   173.479536

                             ****ORCA TERMINATED NORMALLY****
TOTAL RUN TIME: 0 days 1 hours 38 minutes 54 seconds 763 msec
