                         Program Version 4.2.0 -  RELEASE  -
|  1> ! ri-mp2 cc-pvtz cc-pvtz/c TightSCF NoKeepInts
|  2>
|  3> %scf
|  4>   MaxCore 4096
|  5> end
|  6> *xyz  0  1
|  7>     C       14.5925784   15.9859848   16.5061708
|  8>     C       15.3862342   15.4197885   15.3126943
|  9>     O       16.8230858   15.5482873   15.4250099
| 10>     C       17.4604954   16.7512487   15.2964533
| 11>     O       18.1796073   16.9728728   14.3398813
| 12>     C       17.1709156   17.7773986   16.3410231
| 13>     C       16.9415705   19.0500395   15.9413661
| 14>     C       16.5390021   19.4801814   14.5470730
| 15>     N       17.0748923   20.1233522   16.8233856
| 16>     C       17.6855570   20.0345151   18.0460246
| 17>     S       17.9304049   21.3621633   19.0010812
| 18>     N       18.1094664   18.7852220   18.4280773
| 19>     C       17.8069199   17.5266986   17.7158629
| 20>     C       17.1526818   16.4642422   18.5871100
| 21>     C       17.5781759   15.1251486   18.5134788
| 22>     C       16.9898238   14.1428151   19.3274939
| 23>     C       15.9723852   14.5033902   20.2275062
| 24>     C       15.5506616   15.8376479   20.3080619
| 25>     O       14.5655775   16.1876528   21.1725293
| 26>     C       16.1359111   16.8134232   19.4946037
| 27>     H       14.8767776   15.4752170   17.4316045
| 28>     H       13.5213752   15.8052198   16.3557910
| 29>     H       14.7218184   17.0656832   16.6293153
| 30>     H       15.1441094   14.3530270   15.2205496
| 31>     H       15.0491079   15.9073978   14.3882327
| 32>     H       17.4282549   19.5955448   13.9130617
| 33>     H       15.9935478   20.4314278   14.5434127
| 34>     H       15.8939579   18.7316902   14.0711664
| 35>     H       16.8123972   21.0514606   16.5317024
| 36>     H       18.5521786   18.7482244   19.3379026
| 37>     H       18.8346329   17.2092898   17.4858397
| 38>     H       18.3624738   14.8430621   17.8150432
| 39>     H       17.3232311   13.1086032   19.2588758
| 40>     H       15.5157385   13.7476777   20.8582573
| 41>     H       14.3185194   15.3941453   21.6710503
| 42>     H       15.7929330   17.8402568   19.5713076
| 43> *
| 44>
| 45>                          ****END OF INPUT****

CARTESIAN COORDINATES (ANGSTROEM)
---------------------------------
  C     14.592578   15.985985   16.506171
  C     15.386234   15.419788   15.312694
  O     16.823086   15.548287   15.425010
  C     17.460495   16.751249   15.296453
  O     18.179607   16.972873   14.339881
  C     17.170916   17.777399   16.341023
  C     16.941571   19.050040   15.941366
  C     16.539002   19.480181   14.547073
  N     17.074892   20.123352   16.823386
  C     17.685557   20.034515   18.046025
  S     17.930405   21.362163   19.001081
  N     18.109466   18.785222   18.428077
  C     17.806920   17.526699   17.715863
  C     17.152682   16.464242   18.587110
  C     17.578176   15.125149   18.513479
  C     16.989824   14.142815   19.327494
  C     15.972385   14.503390   20.227506
  C     15.550662   15.837648   20.308062
  O     14.565577   16.187653   21.172529
  C     16.135911   16.813423   19.494604
  H     14.876778   15.475217   17.431604
  H     13.521375   15.805220   16.355791
  H     14.721818   17.065683   16.629315
  H     15.144109   14.353027   15.220550
  H     15.049108   15.907398   14.388233
  H     17.428255   19.595545   13.913062
  H     15.993548   20.431428   14.543413
  H     15.893958   18.731690   14.071166
  H     16.812397   21.051461   16.531702
  H     18.552179   18.748224   19.337903
  H     18.834633   17.209290   17.485840
  H     18.362474   14.843062   17.815043
  H     17.323231   13.108603   19.258876
  H     15.515738   13.747678   20.858257
  H     14.318519   15.394145   21.671050
  H     15.792933   17.840257   19.571308

 Total Charge           Charge          ....    0
 Multiplicity           Mult            ....    1
 Number of Electrons    NEL             ....  154
 Basis Dimension        Dim             ....  828

ORBITAL ENERGIES
----------------

  NO   OCC          E(Eh)            E(eV)
   0   2.0000     -91.890044     -2500.4552
   1   2.0000     -20.600443      -560.5665
   2   2.0000     -20.587460      -560.2133
   3   2.0000     -20.558567      -559.4270
   4   2.0000     -15.627144      -425.2362
   5   2.0000     -15.610184      -424.7747
   6   2.0000     -11.396140      -310.1047
   7   2.0000     -11.385239      -309.8081
   8   2.0000     -11.329089      -308.2802
   9   2.0000     -11.318064      -307.9802
  10   2.0000     -11.315348      -307.9063
  11   2.0000     -11.307063      -307.6808
  12   2.0000     -11.266221      -306.5695
  13   2.0000     -11.259594      -306.3891
  14   2.0000     -11.257952      -306.3445
  15   2.0000     -11.256696      -306.3103
  16   2.0000     -11.248385      -306.0841
  17   2.0000     -11.243022      -305.9382
  18   2.0000     -11.242924      -305.9355
  19   2.0000     -11.225748      -305.4681
  20   2.0000      -8.895109      -242.0482
  21   2.0000      -6.576682      -178.9606
  22   2.0000      -6.574682      -178.9062
  23   2.0000      -6.574092      -178.8901
  24   2.0000      -1.447217       -39.3808
  25   2.0000      -1.420250       -38.6470
  26   2.0000      -1.359139       -36.9841
  27   2.0000      -1.340022       -36.4639
  28   2.0000      -1.239402       -33.7259
  29   2.0000      -1.162173       -31.6243
  30   2.0000      -1.124657       -30.6035
  31   2.0000      -1.047873       -28.5141
  32   2.0000      -1.035261       -28.1709
  33   2.0000      -1.020169       -27.7602
  34   2.0000      -1.003366       -27.3030
  35   2.0000      -0.989339       -26.9213
  36   2.0000      -0.925647       -25.1881
  37   2.0000      -0.894123       -24.3303
  38   2.0000      -0.849594       -23.1186
  39   2.0000      -0.842387       -22.9225
  40   2.0000      -0.838243       -22.8097
  41   2.0000      -0.826408       -22.4877
  42   2.0000      -0.753195       -20.4955
  43   2.0000      -0.737053       -20.0562
  44   2.0000      -0.728536       -19.8245
  45   2.0000      -0.698664       -19.0116
  46   2.0000      -0.691153       -18.8072
  47   2.0000      -0.676129       -18.3984
  48   2.0000      -0.675061       -18.3693
  49   2.0000      -0.667220       -18.1560
  50   2.0000      -0.650608       -17.7039
  51   2.0000      -0.647965       -17.6320
  52   2.0000      -0.635497       -17.2928
  53   2.0000      -0.611579       -16.6419
  54   2.0000      -0.606530       -16.5045
  55   2.0000      -0.603172       -16.4131
  56   2.0000      -0.596073       -16.2200
  57   2.0000      -0.586627       -15.9629
  58   2.0000      -0.579629       -15.7725
  59   2.0000      -0.576368       -15.6838
  60   2.0000      -0.565409       -15.3856
  61   2.0000      -0.557148       -15.1608
  62   2.0000      -0.540011       -14.6944
  63   2.0000      -0.527286       -14.3482
  64   2.0000      -0.520877       -14.1738
  65   2.0000      -0.514283       -13.9944
  66   2.0000      -0.502926       -13.6853
  67   2.0000      -0.497599       -13.5404
  68   2.0000      -0.484396       -13.1811
  69   2.0000      -0.463247       -12.6056
  70   2.0000      -0.455288       -12.3890
  71   2.0000      -0.454645       -12.3715
  72   2.0000      -0.356175        -9.6920
  73   2.0000      -0.348281        -9.4772
  74   2.0000      -0.329249        -8.9593
  75   2.0000      -0.326002        -8.8710
  76   2.0000      -0.319492        -8.6938
  77   0.0000       0.081278         2.2117
  78   0.0000       0.102026         2.7763
  79   0.0000       0.119495         3.2516
  80   0.0000       0.127006         3.4560
  81   0.0000       0.129030         3.5111

MULLIKEN ATOMIC CHARGES
-----------------------
   0 C :   -0.322063
   1 C :    0.034914
   2 O :   -0.354234
   3 C :    0.421748
   4 O :   -0.359704
   5 C :   -0.211555
   6 C :    0.150946
   7 C :   -0.284473
   8 N :   -0.133807
   9 C :    0.212964
  10 S :   -0.440078
  11 N :   -0.231726
  12 C :    0.039394
  13 C :    0.016592
  14 C :   -0.196637
  15 C :   -0.136445
  16 C :   -0.273890
  17 C :    0.308686
  18 O :   -0.356876
  19 C :   -0.224475
  20 H :    0.117621
  21 H :    0.118499
  22 H :    0.105265
  23 H :    0.119452
  24 H :    0.091289
  25 H :    0.145746
  26 H :    0.099769
  27 H :    0.112256
  28 H :    0.198117
  29 H :    0.204832
  30 H :    0.161325
  31 H :    0.154471
  32 H :    0.163778
  33 H :    0.133094
  34 H :    0.241124
  35 H :    0.174081
Sum of atomic charges:   -0.0000000

LOEWDIN ATOMIC CHARGES
----------------------
   0 C :    0.104200
   1 C :   -0.017739
   2 O :    0.287811
   3 C :   -0.420743
   4 O :    0.138833
   5 C :   -0.090446
   6 C :   -0.080965
   7 C :    0.128142
   8 N :    0.405553
   9 C :   -0.455650
  10 S :   -0.035753
  11 N :    0.396467
  12 C :   -0.052969
  13 C :   -0.042466
  14 C :    0.020473
  15 C :    0.041890
  16 C :   -0.000822
  17 C :   -0.192884
  18 O :    0.396665
  19 C :    0.031838
  20 H :   -0.024541
  21 H :   -0.024551
  22 H :   -0.037424
  23 H :   -0.017903
  24 H :   -0.034154
  25 H :   -0.003677
  26 H :   -0.020474
  27 H :   -0.011877
  28 H :   -0.057973
  29 H :   -0.063996
  30 H :   -0.009354
  31 H :   -0.026256
  32 H :   -0.019018
  33 H :   -0.034357
  34 H :   -0.153149
  35 H :   -0.022729

  Mayer bond orders larger than 0.100000
B(  0-C ,  1-C ) :   0.9621 B(  0-C , 20-H ) :   0.9705 B(  0-C , 21-H ) :   0.9760
B(  0-C , 22-H ) :   0.9686 B(  1-C ,  2-O ) :   0.8996 B(  1-C , 23-H ) :   0.9836
B(  1-C , 24-H ) :   0.9838 B(  2-O ,  3-C ) :   1.1271 B(  3-C ,  4-O ) :   2.1314
B(  3-C ,  5-C ) :   0.9350 B(  5-C ,  6-C ) :   1.6827 B(  5-C , 12-C ) :   0.9581
B(  6-C ,  7-C ) :   0.9466 B(  6-C ,  8-N ) :   1.1231 B(  7-C , 25-H ) :   0.9577
B(  7-C , 26-H ) :   0.9844 B(  7-C , 27-H ) :   0.9768 B(  8-N ,  9-C ) :   1.1987
B(  8-N , 28-H ) :   0.9492 B(  9-C , 10-S ) :   1.6110 B(  9-C , 11-N ) :   1.2886
B( 11-N , 12-C ) :   0.9693 B( 11-N , 29-H ) :   0.9452 B( 12-C , 13-C ) :   0.9533
B( 12-C , 30-H ) :   1.0030 B( 13-C , 14-C ) :   1.3763 B( 13-C , 19-C ) :   1.3507
B( 14-C , 15-C ) :   1.4025 B( 14-C , 31-H ) :   0.9695 B( 15-C , 16-C ) :   1.3544
B( 15-C , 32-H ) :   0.9700 B( 16-C , 17-C ) :   1.3328 B( 16-C , 33-H ) :   0.9845
B( 17-C , 18-O ) :   1.1087 B( 17-C , 19-C ) :   1.3671 B( 18-O , 34-H ) :   0.9792
B( 19-C , 35-H ) :   0.9573

MP2 TOTAL ENERGY:    -1274.313511090 Eh
FINAL SINGLE POINT ENERGY     -1274.313511089765

DIPOLE MOMENT
-------------
                                X             Y             Z
Electronic contribution:      8.92764       7.78860       6.31106
Nuclear contribution   :    -10.42266      -9.45602      -6.51344
                        -----------------------------------------
Total Dipole Moment    :     -1.49502      -1.66742      -0.20238
                        -----------------------------------------
Magnitude (a.u.)       :      2.24863
Magnitude (Debye)      :      5.71556

Rotational constants in cm-1:     0.012062     0.009245     0.006223
Rotational constants in MHz :   361.595096   277.170337   186.551992

                             ****ORCA TERMINATED NORMALLY****
TOTAL RUN TIME: 0 days 1 hours 46 minutes 28 seconds 521 msec
