                         Program Version 4.2.0 -  RELEASE  -
|  1> ! ri-mp2 cc-pvtz cc-pvtz/c TightSCF NoKeepInts
|  2>
|  3> %scf
|  4>   MaxCore 4096
|  5> end
|  6> *xyz  0  1
|  7>     C       14.3854658   16.3649373   15.6596413
|  8>     C       15.4598024   15.3123927   16.0103768
|  9>     O       16.7295839   15.6024151   15.3792644
| 10>     C       17.2894247   16.8461258   15.2450687
| 11>     O       17.8997685   17.1398880   14.2337450
| 12>     C       17.1194400   17.8025374   16.3856102
| 13>     C       16.8905779   19.1050120   16.0905777
| 14>     C       16.3839835   19.6424018   14.7687554
| 15>     N       17.1201792   20.1151988   17.0256133
| 16>     C       17.8230390   19.9359135   18.1865362
| 17>     S       18.1749110   21.1931622   19.2015168
| 18>     N       18.2443820   18.6566901   18.4525806
| 19>     C       17.8580130   17.4542436   17.6878963
| 20>     C       17.2379182   16.3716077   18.5537336
| 21>     C       17.8046771   15.0848285   18.6052766
| 22>     C       17.2266200   14.0842476   19.4044861
| 23>     C       16.0776338   14.3749063   20.1603495
| 24>     C       15.5165049   15.6586900   20.1160614
| 25>     O       14.4049884   15.9407211   20.8404911
| 26>     C       16.0920243   16.6524090   19.3179016
| 27>     H       14.5271770   17.2957846   16.2196704
| 28>     H       13.3902301   15.9815390   15.9160532
| 29>     H       14.3926277   16.5882671   14.5852023
| 30>     H       15.5538415   15.2363587   17.0958261
| 31>     H       15.1209637   14.3302091   15.6563104
| 32>     H       15.7096578   18.9290920   14.2794902
| 33>     H       17.2234477   19.8177332   14.0828845
| 34>     H       15.8345769   20.5844861   14.8824432
| 35>     H       16.8590074   21.0653238   16.8145349
| 36>     H       18.7521075   18.5524062   19.3223303
| 37>     H       18.8557869   17.1301894   17.3575501
| 38>     H       18.6900383   14.8566290   18.0165795
| 39>     H       17.6691463   13.0897163   19.4363373
| 40>     H       15.6286114   13.6045318   20.7790319
| 41>     H       14.1942571   15.1574405   21.3712698
| 42>     H       15.6465852   17.6419644   19.2970033
| 43> *
| 44>
| 45>                          ****END OF INPUT****

CARTESIAN COORDINATES (ANGSTROEM)
---------------------------------
  C     14.385466   16.364937   15.659641
  C     15.459802   15.312393   16.010377
  O     16.729584   15.602415   15.379264
  C     17.289425   16.846126   15.245069
  O     17.899769   17.139888   14.233745
  C     17.119440   17.802537   16.385610
  C     16.890578   19.105012   16.090578
  C     16.383983   19.642402   14.768755
  N     17.120179   20.115199   17.025613
  C     17.823039   19.935914   18.186536
  S     18.174911   21.193162   19.201517
  N     18.244382   18.656690   18.452581
  C     17.858013   17.454244   17.687896
  C     17.237918   16.371608   18.553734
  C     17.804677   15.084829   18.605277
  C     17.226620   14.084248   19.404486
  C     16.077634   14.374906   20.160349
  C     15.516505   15.658690   20.116061
  O     14.404988   15.940721   20.840491
  C     16.092024   16.652409   19.317902
  H     14.527177   17.295785   16.219670
  H     13.390230   15.981539   15.916053
  H     14.392628   16.588267   14.585202
  H     15.553841   15.236359   17.095826
  H     15.120964   14.330209   15.656310
  H     15.709658   18.929092   14.279490
  H     17.223448   19.817733   14.082885
  H     15.834577   20.584486   14.882443
  H     16.859007   21.065324   16.814535
  H     18.752108   18.552406   19.322330
  H     18.855787   17.130189   17.357550
  H     18.690038   14.856629   18.016579
  H     17.669146   13.089716   19.436337
  H     15.628611   13.604532   20.779032
  H     14.194257   15.157440   21.371270
  H     15.646585   17.641964   19.297003

 Total Charge           Charge          ....    0
 Multiplicity           Mult            ....    1
 Number of Electrons    NEL             ....  154
 Basis Dimension        Dim             ....  828

ORBITAL ENERGIES
----------------

  NO   OCC          E(Eh)            E(eV)
   0   2.0000     -91.890258     -2500.4610
   1   2.0000     -20.605310      -560.6990
   2   2.0000     -20.591733      -560.3295
   3   2.0000     -20.549971      -559.1931
   4   2.0000     -15.627377      -425.2425
   5   2.0000     -15.610614      -424.7864
   6   2.0000     -11.395448      -310.0859
   7   2.0000     -11.385288      -309.8095
   8   2.0000     -11.329959      -308.3039
   9   2.0000     -11.323876      -308.1383
  10   2.0000     -11.316370      -307.9341
  11   2.0000     -11.299890      -307.4856
  12   2.0000     -11.269880      -306.6690
  13   2.0000     -11.264819      -306.5313
  14   2.0000     -11.256534      -306.3059
  15   2.0000     -11.255553      -306.2792
  16   2.0000     -11.253837      -306.2325
  17   2.0000     -11.248280      -306.0813
  18   2.0000     -11.248116      -306.0768
  19   2.0000     -11.233029      -305.6663
  20   2.0000      -8.895328      -242.0542
  21   2.0000      -6.576901      -178.9666
  22   2.0000      -6.574901      -178.9122
  23   2.0000      -6.574311      -178.8961
  24   2.0000      -1.442661       -39.2568
  25   2.0000      -1.425087       -38.7786
  26   2.0000      -1.355906       -36.8961
  27   2.0000      -1.340693       -36.4821
  28   2.0000      -1.240345       -33.7515
  29   2.0000      -1.166966       -31.7548
  30   2.0000      -1.124561       -30.6009
  31   2.0000      -1.051097       -28.6018
  32   2.0000      -1.034350       -28.1461
  33   2.0000      -1.024918       -27.8894
  34   2.0000      -1.003475       -27.3059
  35   2.0000      -0.989435       -26.9239
  36   2.0000      -0.927144       -25.2289
  37   2.0000      -0.897592       -24.4247
  38   2.0000      -0.850768       -23.1506
  39   2.0000      -0.844712       -22.9858
  40   2.0000      -0.843823       -22.9616
  41   2.0000      -0.828813       -22.5531
  42   2.0000      -0.751366       -20.4457
  43   2.0000      -0.739959       -20.1353
  44   2.0000      -0.718394       -19.5485
  45   2.0000      -0.703686       -19.1483
  46   2.0000      -0.691408       -18.8142
  47   2.0000      -0.679375       -18.4867
  48   2.0000      -0.676111       -18.3979
  49   2.0000      -0.663851       -18.0643
  50   2.0000      -0.651394       -17.7253
  51   2.0000      -0.649407       -17.6713
  52   2.0000      -0.637740       -17.3538
  53   2.0000      -0.621784       -16.9196
  54   2.0000      -0.614006       -16.7080
  55   2.0000      -0.607962       -16.5435
  56   2.0000      -0.603491       -16.4218
  57   2.0000      -0.584045       -15.8927
  58   2.0000      -0.577389       -15.7116
  59   2.0000      -0.566958       -15.4277
  60   2.0000      -0.558522       -15.1981
  61   2.0000      -0.549806       -14.9610
  62   2.0000      -0.540846       -14.7172
  63   2.0000      -0.536073       -14.5873
  64   2.0000      -0.530302       -14.4302
  65   2.0000      -0.517657       -14.0862
  66   2.0000      -0.505384       -13.7522
  67   2.0000      -0.500518       -13.6198
  68   2.0000      -0.484414       -13.1816
  69   2.0000      -0.467204       -12.7133
  70   2.0000      -0.451671       -12.2906
  71   2.0000      -0.447844       -12.1864
  72   2.0000      -0.358682        -9.7602
  73   2.0000      -0.352299        -9.5865
  74   2.0000      -0.332792        -9.0557
  75   2.0000      -0.328844        -8.9483
  76   2.0000      -0.319644        -8.6980
  77   0.0000       0.081152         2.2083
  78   0.0000       0.095751         2.6055
  79   0.0000       0.120633         3.2826
  80   0.0000       0.126239         3.4351
  81   0.0000       0.129017         3.5107

MULLIKEN ATOMIC CHARGES
-----------------------
   0 C :   -0.333060
   1 C :    0.038098
   2 O :   -0.332378
   3 C :    0.418329
   4 O :   -0.370654
   5 C :   -0.245963
   6 C :    0.161004
   7 C :   -0.283865
   8 N :   -0.131001
   9 C :    0.209574
  10 S :   -0.440258
  11 N :   -0.210181
  12 C :    0.033126
  13 C :   -0.004228
  14 C :   -0.175498
  15 C :   -0.132281
  16 C :   -0.270460
  17 C :    0.303508
  18 O :   -0.355332
  19 C :   -0.229206
  20 H :    0.109423
  21 H :    0.115361
  22 H :    0.111423
  23 H :    0.098978
  24 H :    0.123617
  25 H :    0.117576
  26 H :    0.147565
  27 H :    0.098354
  28 H :    0.198340
  29 H :    0.199858
  30 H :    0.159424
  31 H :    0.156732
  32 H :    0.165026
  33 H :    0.135438
  34 H :    0.242004
  35 H :    0.171605
Sum of atomic charges:   -0.0000000

LOEWDIN ATOMIC CHARGES
----------------------
   0 C :    0.102057
   1 C :   -0.013528
   2 O :    0.295692
   3 C :   -0.422156
   4 O :    0.127796
   5 C :   -0.094518
   6 C :   -0.076395
   7 C :    0.129080
   8 N :    0.406080
   9 C :   -0.456223
  10 S :   -0.035562
  11 N :    0.395810
  12 C :   -0.055418
  13 C :   -0.046722
  14 C :    0.019699
  15 C :    0.044608
  16 C :    0.001977
  17 C :   -0.192146
  18 O :    0.397309
  19 C :    0.032219
  20 H :   -0.035753
  21 H :   -0.022546
  22 H :   -0.027461
  23 H :   -0.036750
  24 H :   -0.021284
  25 H :   -0.010422
  26 H :   -0.003362
  27 H :   -0.021053
  28 H :   -0.057208
  29 H :   -0.063786
  30 H :   -0.009748
  31 H :   -0.025775
  32 H :   -0.018101
  33 H :   -0.033122
  34 H :   -0.152091
  35 H :   -0.021195

  Mayer bond orders larger than 0.100000
B(  0-C ,  1-C ) :   0.9581 B(  0-C , 20-H ) :   0.9701 B(  0-C , 21-H ) :   0.9774
B(  0-C , 22-H ) :   0.9757 B(  1-C ,  2-O ) :   0.9026 B(  1-C , 23-H ) :   0.9638
B(  1-C , 24-H ) :   0.9843 B(  2-O ,  3-C ) :   1.1702 B(  3-C ,  4-O ) :   2.1153
B(  3-C ,  5-C ) :   0.9379 B(  5-C ,  6-C ) :   1.6831 B(  5-C , 12-C ) :   0.9624
B(  6-C ,  7-C ) :   0.9453 B(  6-C ,  8-N ) :   1.1312 B(  7-C , 25-H ) :   0.9748
B(  7-C , 26-H ) :   0.9569 B(  7-C , 27-H ) :   0.9839 B(  8-N ,  9-C ) :   1.1968
B(  8-N , 28-H ) :   0.9491 B(  9-C , 10-S ) :   1.6130 B(  9-C , 11-N ) :   1.2895
B( 11-N , 12-C ) :   0.9792 B( 11-N , 29-H ) :   0.9475 B( 12-C , 13-C ) :   0.9529
B( 12-C , 30-H ) :   1.0062 B( 13-C , 14-C ) :   1.3715 B( 13-C , 19-C ) :   1.3608
B( 14-C , 15-C ) :   1.3941 B( 14-C , 31-H ) :   0.9690 B( 15-C , 16-C ) :   1.3629
B( 15-C , 32-H ) :   0.9697 B( 16-C , 17-C ) :   1.3288 B( 16-C , 33-H ) :   0.9833
B( 17-C , 18-O ) :   1.1113 B( 17-C , 19-C ) :   1.3642 B( 18-O , 34-H ) :   0.9784
B( 19-C , 35-H ) :   0.9588

MP2 TOTAL ENERGY:    -1274.320897133 Eh
FINAL SINGLE POINT ENERGY     -1274.320897133300

DIPOLE MOMENT
-------------
                                X             Y             Z
Electronic contribution:      9.27324       6.72647       6.89223
Nuclear contribution   :    -10.73764      -8.42576      -6.61164
                        -----------------------------------------
Total Dipole Moment    :     -1.46440      -1.69929       0.28059
                        -----------------------------------------
Magnitude (a.u.)       :      2.26070
Magnitude (Debye)      :      5.74625

Rotational constants in cm-1:     0.012066     0.009096     0.006366
Rotational constants in MHz :   361.744237   272.684381   190.851342

                             ****ORCA TERMINATED NORMALLY****
TOTAL RUN TIME: 0 days 1 hours 47 minutes 3 seconds 178 msec
