                         Program Version 4.2.0 -  RELEASE  -
|  1> ! ri-mp2 cc-pvtz cc-pvtz/c TightSCF NoKeepInts
|  2>
|  3> %scf
|  4>   MaxCore 4096
|  5> end
|  6> *xyz  0  1
|  7>     C       14.7304579   15.5240762   16.2120810
|  8>     C       14.9918516   16.2846289   14.8943558
|  9>     O       16.3989918   16.3018946   14.5595388
| 10>     C       17.3863883   16.5006403   15.4873178
| 11>     O       18.3380864   15.7449549   15.5598087
| 12>     C       17.2007898   17.6534719   16.4278666
| 13>     C       16.8918191   18.8922105   15.9648425
| 14>     C       16.5155512   19.2902735   14.5499769
| 15>     N       17.0112533   20.0126446   16.7901304
| 16>     C       17.6806348   20.0222882   17.9844893
| 17>     S       17.8980520   21.4136496   18.8511597
| 18>     N       18.1869740   18.8195940   18.4088742
| 19>     C       17.9109172   17.5127945   17.7799695
| 20>     C       17.2606067   16.4970746   18.7093391
| 21>     C       17.7067244   15.1633457   18.7271247
| 22>     C       17.0974283   14.2166900   19.5672916
| 23>     C       16.0325653   14.6069074   20.3971851
| 24>     C       15.5847997   15.9348723   20.3809536
| 25>     O       14.5510865   16.3125376   21.1742992
| 26>     C       16.1925636   16.8751763   19.5427469
| 27>     H       15.2855818   14.5772410   16.2369394
| 28>     H       13.6630875   15.2917117   16.3097623
| 29>     H       15.0146725   16.1204115   17.0847356
| 30>     H       14.4431614   15.7961512   14.0785531
| 31>     H       14.5996971   17.3029565   14.9924926
| 32>     H       16.9683404   18.6291761   13.8010437
| 33>     H       16.8698869   20.3005632   14.3083071
| 34>     H       15.4295009   19.2814479   14.4060723
| 35>     H       16.6776254   20.9091922   16.4730023
| 36>     H       18.6744692   18.8509844   19.2956578
| 37>     H       18.9382182   17.1984588   17.5423441
| 38>     H       18.5236854   14.8572066   18.0767860
| 39>     H       17.4497027   13.1865215   19.5693093
| 40>     H       15.5582867   13.8782307   21.0462801
| 41>     H       14.2960426   15.5429934   21.7053253
| 42>     H       15.8274993   17.8970277   19.5420377
| 43> *
| 44>
| 45>                          ****END OF INPUT****

CARTESIAN COORDINATES (ANGSTROEM)
---------------------------------
  C     14.730458   15.524076   16.212081
  C     14.991852   16.284629   14.894356
  O     16.398992   16.301895   14.559539
  C     17.386388   16.500640   15.487318
  O     18.338086   15.744955   15.559809
  C     17.200790   17.653472   16.427867
  C     16.891819   18.892211   15.964842
  C     16.515551   19.290274   14.549977
  N     17.011253   20.012645   16.790130
  C     17.680635   20.022288   17.984489
  S     17.898052   21.413650   18.851160
  N     18.186974   18.819594   18.408874
  C     17.910917   17.512794   17.779969
  C     17.260607   16.497075   18.709339
  C     17.706724   15.163346   18.727125
  C     17.097428   14.216690   19.567292
  C     16.032565   14.606907   20.397185
  C     15.584800   15.934872   20.380954
  O     14.551087   16.312538   21.174299
  C     16.192564   16.875176   19.542747
  H     15.285582   14.577241   16.236939
  H     13.663087   15.291712   16.309762
  H     15.014672   16.120411   17.084736
  H     14.443161   15.796151   14.078553
  H     14.599697   17.302957   14.992493
  H     16.968340   18.629176   13.801044
  H     16.869887   20.300563   14.308307
  H     15.429501   19.281448   14.406072
  H     16.677625   20.909192   16.473002
  H     18.674469   18.850984   19.295658
  H     18.938218   17.198459   17.542344
  H     18.523685   14.857207   18.076786
  H     17.449703   13.186521   19.569309
  H     15.558287   13.878231   21.046280
  H     14.296043   15.542993   21.705325
  H     15.827499   17.897028   19.542038

 Total Charge           Charge          ....    0
 Multiplicity           Mult            ....    1
 Number of Electrons    NEL             ....  154
 Basis Dimension        Dim             ....  828

ORBITAL ENERGIES
----------------

  NO   OCC          E(Eh)            E(eV)
   0   2.0000     -91.890274     -2500.4615
   1   2.0000     -20.597860      -560.4963
   2   2.0000     -20.595013      -560.4188
   3   2.0000     -20.552116      -559.2515
   4   2.0000     -15.629321      -425.2954
   5   2.0000     -15.608867      -424.7389
   6   2.0000     -11.398217      -310.1613
   7   2.0000     -11.385509      -309.8154
   8   2.0000     -11.338350      -308.5322
   9   2.0000     -11.314857      -307.8929
  10   2.0000     -11.309360      -307.7433
  11   2.0000     -11.308618      -307.7231
  12   2.0000     -11.264798      -306.5307
  13   2.0000     -11.264682      -306.5276
  14   2.0000     -11.262186      -306.4597
  15   2.0000     -11.254892      -306.2612
  16   2.0000     -11.244240      -305.9713
  17   2.0000     -11.240060      -305.8576
  18   2.0000     -11.236325      -305.7559
  19   2.0000     -11.230319      -305.5925
  20   2.0000      -8.895369      -242.0553
  21   2.0000      -6.576947      -178.9678
  22   2.0000      -6.574939      -178.9132
  23   2.0000      -6.574352      -178.8972
  24   2.0000      -1.447515       -39.3889
  25   2.0000      -1.417631       -38.5757
  26   2.0000      -1.360103       -37.0103
  27   2.0000      -1.342159       -36.5220
  28   2.0000      -1.239775       -33.7360
  29   2.0000      -1.158872       -31.5345
  30   2.0000      -1.124610       -30.6022
  31   2.0000      -1.046536       -28.4777
  32   2.0000      -1.035766       -28.1846
  33   2.0000      -1.017091       -27.6764
  34   2.0000      -1.005282       -27.3551
  35   2.0000      -0.989258       -26.9191
  36   2.0000      -0.925913       -25.1954
  37   2.0000      -0.897484       -24.4218
  38   2.0000      -0.853279       -23.2189
  39   2.0000      -0.840945       -22.8833
  40   2.0000      -0.834433       -22.7061
  41   2.0000      -0.828722       -22.5507
  42   2.0000      -0.744929       -20.2706
  43   2.0000      -0.734900       -19.9976
  44   2.0000      -0.731115       -19.8946
  45   2.0000      -0.695026       -18.9126
  46   2.0000      -0.686547       -18.6819
  47   2.0000      -0.682709       -18.5775
  48   2.0000      -0.675946       -18.3934
  49   2.0000      -0.662073       -18.0159
  50   2.0000      -0.656753       -17.8712
  51   2.0000      -0.648046       -17.6342
  52   2.0000      -0.637940       -17.3592
  53   2.0000      -0.623517       -16.9667
  54   2.0000      -0.609742       -16.5919
  55   2.0000      -0.604747       -16.4560
  56   2.0000      -0.601329       -16.3630
  57   2.0000      -0.584047       -15.8927
  58   2.0000      -0.575040       -15.6476
  59   2.0000      -0.564477       -15.3602
  60   2.0000      -0.562041       -15.2939
  61   2.0000      -0.548479       -14.9249
  62   2.0000      -0.542337       -14.7578
  63   2.0000      -0.536518       -14.5994
  64   2.0000      -0.520911       -14.1747
  65   2.0000      -0.511885       -13.9291
  66   2.0000      -0.500287       -13.6135
  67   2.0000      -0.496618       -13.5137
  68   2.0000      -0.485211       -13.2033
  69   2.0000      -0.470025       -12.7900
  70   2.0000      -0.457926       -12.4608
  71   2.0000      -0.449424       -12.2295
  72   2.0000      -0.357642        -9.7319
  73   2.0000      -0.349265        -9.5040
  74   2.0000      -0.329636        -8.9698
  75   2.0000      -0.322523        -8.7763
  76   2.0000      -0.320225        -8.7138
  77   0.0000       0.078360         2.1323
  78   0.0000       0.104833         2.8527
  79   0.0000       0.118197         3.2163
  80   0.0000       0.130799         3.5592
  81   0.0000       0.131910         3.5894

MULLIKEN ATOMIC CHARGES
-----------------------
   0 C :   -0.323252
   1 C :    0.040341
   2 O :   -0.351635
   3 C :    0.462902
   4 O :   -0.381494
   5 C :   -0.247730
   6 C :    0.154992
   7 C :   -0.322947
   8 N :   -0.136291
   9 C :    0.205193
  10 S :   -0.441304
  11 N :   -0.223078
  12 C :    0.071722
  13 C :    0.000606
  14 C :   -0.202362
  15 C :   -0.136002
  16 C :   -0.271912
  17 C :    0.316276
  18 O :   -0.357331
  19 C :   -0.243780
  20 H :    0.117909
  21 H :    0.109107
  22 H :    0.117320
  23 H :    0.123298
  24 H :    0.076704
  25 H :    0.142787
  26 H :    0.120890
  27 H :    0.123401
  28 H :    0.198213
  29 H :    0.203191
  30 H :    0.164481
  31 H :    0.178531
  32 H :    0.164311
  33 H :    0.131760
  34 H :    0.240846
  35 H :    0.174333
Sum of atomic charges:   -0.0000000

LOEWDIN ATOMIC CHARGES
----------------------
   0 C :    0.108104
   1 C :   -0.018446
   2 O :    0.293806
   3 C :   -0.418856
   4 O :    0.124919
   5 C :   -0.089588
   6 C :   -0.078651
   7 C :    0.126980
   8 N :    0.403927
   9 C :   -0.459112
  10 S :   -0.036912
  11 N :    0.396351
  12 C :   -0.047895
  13 C :   -0.043785
  14 C :    0.022693
  15 C :    0.043821
  16 C :   -0.000472
  17 C :   -0.192509
  18 O :    0.394983
  19 C :    0.026608
  20 H :   -0.020907
  21 H :   -0.023883
  22 H :   -0.031325
  23 H :   -0.020723
  24 H :   -0.040065
  25 H :   -0.007458
  26 H :   -0.014082
  27 H :   -0.018520
  28 H :   -0.057323
  29 H :   -0.063147
  30 H :   -0.004984
  31 H :   -0.021864
  32 H :   -0.019049
  33 H :   -0.035064
  34 H :   -0.153533
  35 H :   -0.024038

  Mayer bond orders larger than 0.100000
B(  0-C ,  1-C ) :   0.9608 B(  0-C , 20-H ) :   0.9717 B(  0-C , 21-H ) :   0.9771
B(  0-C , 22-H ) :   0.9674 B(  1-C ,  2-O ) :   0.9024 B(  1-C , 23-H ) :   0.9809
B(  1-C , 24-H ) :   0.9734 B(  2-O ,  3-C ) :   1.1300 B(  3-C ,  4-O ) :   2.0749
B(  3-C ,  5-C ) :   0.9508 B(  5-C ,  6-C ) :   1.7003 B(  5-C , 12-C ) :   0.9374
B(  6-C ,  7-C ) :   0.9361 B(  6-C ,  8-N ) :   1.1189 B(  7-C , 25-H ) :   0.9681
B(  7-C , 26-H ) :   0.9835 B(  7-C , 27-H ) :   0.9665 B(  8-N ,  9-C ) :   1.1928
B(  8-N , 28-H ) :   0.9499 B(  9-C , 10-S ) :   1.6108 B(  9-C , 11-N ) :   1.2955
B( 11-N , 12-C ) :   0.9787 B( 11-N , 29-H ) :   0.9477 B( 12-C , 13-C ) :   0.9727
B( 12-C , 30-H ) :   0.9912 B( 13-C , 14-C ) :   1.3896 B( 13-C , 19-C ) :   1.3455
B( 14-C , 15-C ) :   1.3970 B( 14-C , 31-H ) :   0.9567 B( 15-C , 16-C ) :   1.3594
B( 15-C , 32-H ) :   0.9701 B( 16-C , 17-C ) :   1.3323 B( 16-C , 33-H ) :   0.9845
B( 17-C , 18-O ) :   1.1083 B( 17-C , 19-C ) :   1.3617 B( 18-O , 34-H ) :   0.9798
B( 19-C , 35-H ) :   0.9586

MP2 TOTAL ENERGY:    -1274.327922285 Eh
FINAL SINGLE POINT ENERGY     -1274.327922285440

DIPOLE MOMENT
-------------
                                X             Y             Z
Electronic contribution:      8.63574       7.85078       6.78463
Nuclear contribution   :    -10.21847      -8.96687      -7.34143
                        -----------------------------------------
Total Dipole Moment    :     -1.58273      -1.11608      -0.55681
                        -----------------------------------------
Magnitude (a.u.)       :      2.01512
Magnitude (Debye)      :      5.12202

Rotational constants in cm-1:     0.011434     0.009350     0.006354
Rotational constants in MHz :   342.769601   280.293872   190.481623

                             ****ORCA TERMINATED NORMALLY****
TOTAL RUN TIME: 0 days 2 hours 9 minutes 0 seconds 134 msec
