                         Program Version 4.2.0 -  RELEASE  -
|  1> ! ri-mp2 cc-pvtz cc-pvtz/c TightSCF NoKeepInts
|  2>
|  3> %scf
|  4>   MaxCore 4096
|  5> end
|  6> *xyz  0  1
|  7>     C       14.6049536   15.7471130   16.2496918
|  8>     C       15.6994383   14.9956496   15.4636492
|  9>     O       17.0042297   15.6051909   15.5777630
| 10>     C       17.1619891   16.9021632   15.1941739
| 11>     O       17.1833260   17.1906531   14.0113435
| 12>     C       17.1084222   17.8931073   16.3267218
| 13>     C       16.9525679   19.2144817   16.0535371
| 14>     C       16.4245805   19.8272365   14.7726265
| 15>     N       17.2668928   20.1916234   16.9999503
| 16>     C       17.9795099   19.9536946   18.1431736
| 17>     S       18.4366102   21.1733155   19.1622133
| 18>     N       18.3177912   18.6471135   18.3876844
| 19>     C       17.8299513   17.4807485   17.6252199
| 20>     C       17.1233499   16.4659923   18.5143760
| 21>     C       17.5434707   15.1234411   18.5509853
| 22>     C       16.9046044   14.1975629   19.3927296
| 23>     C       15.8456177   14.6201968   20.2144223
| 24>     C       15.4353123   15.9602798   20.1923694
| 25>     O       14.4139703   16.3713764   20.9849150
| 26>     C       16.0705749   16.8788462   19.3505114
| 27>     H       14.7828316   15.6839015   17.3263163
| 28>     H       13.6275587   15.2890768   16.0556863
| 29>     H       14.5381401   16.8014514   15.9568279
| 30>     H       15.7526482   13.9601992   15.8239012
| 31>     H       15.4142534   14.9617004   14.4033425
| 32>     H       17.2103079   19.8531053   14.0063980
| 33>     H       16.0547929   20.8500707   14.9110891
| 34>     H       15.5934547   19.2354503   14.3689461
| 35>     H       17.0562557   21.1586081   16.8108605
| 36>     H       18.8277521   18.4987350   19.2496257
| 37>     H       18.7975709   17.0777562   17.2935633
| 38>     H       18.3622900   14.7949257   17.9157661
| 39>     H       17.2326601   13.1595594   19.4082941
| 40>     H       15.3503762   13.9088159   20.8672256
| 41>     H       14.1372953   15.6137838   21.5221551
| 42>     H       15.7416495   17.9130740   19.3499445
| 43> *
| 44>
| 45>                          ****END OF INPUT****

CARTESIAN COORDINATES (ANGSTROEM)
---------------------------------
  C     14.604954   15.747113   16.249692
  C     15.699438   14.995650   15.463649
  O     17.004230   15.605191   15.577763
  C     17.161989   16.902163   15.194174
  O     17.183326   17.190653   14.011344
  C     17.108422   17.893107   16.326722
  C     16.952568   19.214482   16.053537
  C     16.424581   19.827237   14.772626
  N     17.266893   20.191623   16.999950
  C     17.979510   19.953695   18.143174
  S     18.436610   21.173316   19.162213
  N     18.317791   18.647113   18.387684
  C     17.829951   17.480748   17.625220
  C     17.123350   16.465992   18.514376
  C     17.543471   15.123441   18.550985
  C     16.904604   14.197563   19.392730
  C     15.845618   14.620197   20.214422
  C     15.435312   15.960280   20.192369
  O     14.413970   16.371376   20.984915
  C     16.070575   16.878846   19.350511
  H     14.782832   15.683901   17.326316
  H     13.627559   15.289077   16.055686
  H     14.538140   16.801451   15.956828
  H     15.752648   13.960199   15.823901
  H     15.414253   14.961700   14.403342
  H     17.210308   19.853105   14.006398
  H     16.054793   20.850071   14.911089
  H     15.593455   19.235450   14.368946
  H     17.056256   21.158608   16.810861
  H     18.827752   18.498735   19.249626
  H     18.797571   17.077756   17.293563
  H     18.362290   14.794926   17.915766
  H     17.232660   13.159559   19.408294
  H     15.350376   13.908816   20.867226
  H     14.137295   15.613784   21.522155
  H     15.741649   17.913074   19.349944

 Total Charge           Charge          ....    0
 Multiplicity           Mult            ....    1
 Number of Electrons    NEL             ....  154
 Basis Dimension        Dim             ....  828

ORBITAL ENERGIES
----------------

  NO   OCC          E(Eh)            E(eV)
   0   2.0000     -91.891174     -2500.4860
   1   2.0000     -20.599386      -560.5378
   2   2.0000     -20.581248      -560.0442
   3   2.0000     -20.550970      -559.2203
   4   2.0000     -15.630517      -425.3280
   5   2.0000     -15.609333      -424.7515
   6   2.0000     -11.393303      -310.0275
   7   2.0000     -11.385359      -309.8114
   8   2.0000     -11.337704      -308.5146
   9   2.0000     -11.316717      -307.9435
  10   2.0000     -11.312659      -307.8331
  11   2.0000     -11.301235      -307.5222
  12   2.0000     -11.264102      -306.5118
  13   2.0000     -11.259139      -306.3767
  14   2.0000     -11.258161      -306.3501
  15   2.0000     -11.254345      -306.2463
  16   2.0000     -11.247331      -306.0554
  17   2.0000     -11.242078      -305.9125
  18   2.0000     -11.241275      -305.8906
  19   2.0000     -11.225746      -305.4681
  20   2.0000      -8.896217      -242.0784
  21   2.0000      -6.577782      -178.9906
  22   2.0000      -6.575792      -178.9364
  23   2.0000      -6.575192      -178.9201
  24   2.0000      -1.447719       -39.3944
  25   2.0000      -1.419219       -38.6189
  26   2.0000      -1.353642       -36.8345
  27   2.0000      -1.342610       -36.5343
  28   2.0000      -1.240820       -33.7644
  29   2.0000      -1.160365       -31.5751
  30   2.0000      -1.122593       -30.5473
  31   2.0000      -1.045558       -28.4511
  32   2.0000      -1.032755       -28.1027
  33   2.0000      -1.018289       -27.7091
  34   2.0000      -1.001244       -27.2452
  35   2.0000      -0.988022       -26.8854
  36   2.0000      -0.924643       -25.1608
  37   2.0000      -0.895181       -24.3591
  38   2.0000      -0.848852       -23.0984
  39   2.0000      -0.841583       -22.9006
  40   2.0000      -0.837328       -22.7848
  41   2.0000      -0.818850       -22.2820
  42   2.0000      -0.751637       -20.4531
  43   2.0000      -0.736229       -20.0338
  44   2.0000      -0.724503       -19.7147
  45   2.0000      -0.697583       -18.9822
  46   2.0000      -0.690315       -18.7844
  47   2.0000      -0.674828       -18.3630
  48   2.0000      -0.671587       -18.2748
  49   2.0000      -0.667489       -18.1633
  50   2.0000      -0.648867       -17.6566
  51   2.0000      -0.646462       -17.5911
  52   2.0000      -0.636964       -17.3327
  53   2.0000      -0.613170       -16.6852
  54   2.0000      -0.608906       -16.5692
  55   2.0000      -0.601927       -16.3793
  56   2.0000      -0.600761       -16.3475
  57   2.0000      -0.579112       -15.7584
  58   2.0000      -0.573248       -15.5989
  59   2.0000      -0.566075       -15.4037
  60   2.0000      -0.559142       -15.2150
  61   2.0000      -0.549723       -14.9587
  62   2.0000      -0.542281       -14.7562
  63   2.0000      -0.526100       -14.3159
  64   2.0000      -0.524166       -14.2633
  65   2.0000      -0.514656       -14.0045
  66   2.0000      -0.501976       -13.6595
  67   2.0000      -0.501735       -13.6529
  68   2.0000      -0.477871       -13.0035
  69   2.0000      -0.464594       -12.6423
  70   2.0000      -0.453983       -12.3535
  71   2.0000      -0.448418       -12.2021
  72   2.0000      -0.356031        -9.6881
  73   2.0000      -0.350184        -9.5290
  74   2.0000      -0.330105        -8.9826
  75   2.0000      -0.324551        -8.8315
  76   2.0000      -0.320760        -8.7283
  77   0.0000       0.071705         1.9512
  78   0.0000       0.102171         2.7802
  79   0.0000       0.120817         3.2876
  80   0.0000       0.129209         3.5160
  81   0.0000       0.131250         3.5715

MULLIKEN ATOMIC CHARGES
-----------------------
   0 C :   -0.324969
   1 C :    0.035987
   2 O :   -0.379629
   3 C :    0.458790
   4 O :   -0.388995
   5 C :   -0.235533
   6 C :    0.163776
   7 C :   -0.271089
   8 N :   -0.126531
   9 C :    0.206271
  10 S :   -0.436671
  11 N :   -0.212971
  12 C :    0.034844
  13 C :    0.007866
  14 C :   -0.174924
  15 C :   -0.143490
  16 C :   -0.268434
  17 C :    0.302128
  18 O :   -0.359049
  19 C :   -0.223765
  20 H :    0.120046
  21 H :    0.116390
  22 H :    0.098227
  23 H :    0.113385
  24 H :    0.114369
  25 H :    0.138416
  26 H :    0.094770
  27 H :    0.122130
  28 H :    0.199705
  29 H :    0.200229
  30 H :    0.151963
  31 H :    0.159574
  32 H :    0.164362
  33 H :    0.133262
  34 H :    0.240693
  35 H :    0.168868
Sum of atomic charges:   -0.0000000

LOEWDIN ATOMIC CHARGES
----------------------
   0 C :    0.107292
   1 C :   -0.017607
   2 O :    0.288819
   3 C :   -0.425058
   4 O :    0.123603
   5 C :   -0.100225
   6 C :   -0.059110
   7 C :    0.129633
   8 N :    0.407904
   9 C :   -0.459009
  10 S :   -0.032957
  11 N :    0.395961
  12 C :   -0.052367
  13 C :   -0.043044
  14 C :    0.021638
  15 C :    0.039097
  16 C :   -0.001295
  17 C :   -0.193893
  18 O :    0.396070
  19 C :    0.032161
  20 H :   -0.028002
  21 H :   -0.023702
  22 H :   -0.032170
  23 H :   -0.021663
  24 H :   -0.028551
  25 H :   -0.004215
  26 H :   -0.022684
  27 H :   -0.007869
  28 H :   -0.056656
  29 H :   -0.063343
  30 H :   -0.011700
  31 H :   -0.026546
  32 H :   -0.020146
  33 H :   -0.034674
  34 H :   -0.153404
  35 H :   -0.022291

  Mayer bond orders larger than 0.100000
B(  0-C ,  1-C ) :   0.9580 B(  0-C , 20-H ) :   0.9687 B(  0-C , 21-H ) :   0.9778
B(  0-C , 22-H ) :   0.9720 B(  1-C ,  2-O ) :   0.8899 B(  1-C , 23-H ) :   0.9820
B(  1-C , 24-H ) :   0.9851 B(  2-O ,  3-C ) :   1.1051 B(  3-C ,  4-O ) :   2.0593
B(  3-C ,  5-C ) :   1.0290 B(  5-C ,  6-C ) :   1.6366 B(  5-C , 12-C ) :   0.9682
B(  6-C ,  7-C ) :   0.9634 B(  6-C ,  8-N ) :   1.1452 B(  7-C , 25-H ) :   0.9554
B(  7-C , 26-H ) :   0.9867 B(  7-C , 27-H ) :   0.9692 B(  8-N ,  9-C ) :   1.1869
B(  8-N , 28-H ) :   0.9477 B(  9-C , 10-S ) :   1.6160 B(  9-C , 11-N ) :   1.2982
B( 11-N , 12-C ) :   0.9779 B( 11-N , 29-H ) :   0.9479 B( 12-C , 13-C ) :   0.9534
B( 12-C , 30-H ) :   1.0035 B( 13-C , 14-C ) :   1.3713 B( 13-C , 19-C ) :   1.3631
B( 14-C , 15-C ) :   1.3945 B( 14-C , 31-H ) :   0.9663 B( 15-C , 16-C ) :   1.3562
B( 15-C , 32-H ) :   0.9698 B( 16-C , 17-C ) :   1.3344 B( 16-C , 33-H ) :   0.9841
B( 17-C , 18-O ) :   1.1070 B( 17-C , 19-C ) :   1.3648 B( 18-O , 34-H ) :   0.9796
B( 19-C , 35-H ) :   0.9602

MP2 TOTAL ENERGY:    -1274.320739852 Eh
FINAL SINGLE POINT ENERGY     -1274.320739852365

DIPOLE MOMENT
-------------
                                X             Y             Z
Electronic contribution:      9.10173       8.50849       6.29997
Nuclear contribution   :    -10.30465     -10.16010      -6.34732
                        -----------------------------------------
Total Dipole Moment    :     -1.20292      -1.65161      -0.04735
                        -----------------------------------------
Magnitude (a.u.)       :      2.04379
Magnitude (Debye)      :      5.19489

Rotational constants in cm-1:     0.012007     0.009274     0.006187
Rotational constants in MHz :   359.957516   278.039316   185.487534

                             ****ORCA TERMINATED NORMALLY****
TOTAL RUN TIME: 0 days 2 hours 4 minutes 43 seconds 643 msec
