                         Program Version 4.2.0 -  RELEASE  -
|  1> ! ri-mp2 cc-pvtz cc-pvtz/c TightSCF NoKeepInts
|  2>
|  3> %scf
|  4>   MaxCore 4096
|  5> end
|  6> *xyz  0  1
|  7>     C       14.9419127   14.5172952   14.6458970
|  8>     C       14.7746698   15.9936625   14.2250541
|  9>     O       15.6578599   16.9489777   14.8725437
| 10>     C       16.6583501   16.6895261   15.7738045
| 11>     O       17.2300205   15.6174716   15.8717031
| 12>     C       16.9745176   17.8384778   16.6924950
| 13>     C       16.8152742   19.1415277   16.3356462
| 14>     C       16.1109861   19.6995565   15.1140311
| 15>     N       17.3698872   20.1654547   17.1082791
| 16>     C       18.2740848   19.9738230   18.1174281
| 17>     S       18.9726076   21.2426076   18.9161537
| 18>     N       18.5868071   18.6724190   18.4157761
| 19>     C       17.9223590   17.4840739   17.8467434
| 20>     C       17.2847403   16.5915151   18.9036349
| 21>     C       17.6224566   15.2288953   18.9905135
| 22>     C       17.0341117   14.4074156   19.9667141
| 23>     C       16.1010924   14.9537672   20.8646734
| 24>     C       15.7613049   16.3110004   20.7790168
| 25>     O       14.8576472   16.8400681   21.6420823
| 26>     C       16.3481827   17.1259068   19.8056522
| 27>     H       15.9096754   14.1186366   14.3165414
| 28>     H       14.1589939   13.9019214   14.1868039
| 29>     H       14.8624317   14.4038505   15.7345921
| 30>     H       14.9197380   16.0616778   13.1391823
| 31>     H       13.7383558   16.2934102   14.4273380
| 32>     H       15.0429229   19.4497462   15.1344080
| 33>     H       16.5404285   19.2850793   14.1933477
| 34>     H       16.1876492   20.7911342   15.0389349
| 35>     H       17.1670477   21.1269739   16.8868096
| 36>     H       19.2398788   18.5565078   19.1803230
| 37>     H       18.7840247   16.9812754   17.3838228
| 38>     H       18.3325245   14.8027566   18.2855783
| 39>     H       17.2984107   13.3528480   20.0198012
| 40>     H       15.6432773   14.3226311   21.6189614
| 41>     H       14.5876635   16.1334554   22.2474988
| 42>     H       16.0751052   18.1746538   19.7562142
| 43> *
| 44>
| 45>                          ****END OF INPUT****

CARTESIAN COORDINATES (ANGSTROEM)
---------------------------------
  C     14.941913   14.517295   14.645897
  C     14.774670   15.993662   14.225054
  O     15.657860   16.948978   14.872544
  C     16.658350   16.689526   15.773805
  O     17.230020   15.617472   15.871703
  C     16.974518   17.838478   16.692495
  C     16.815274   19.141528   16.335646
  C     16.110986   19.699556   15.114031
  N     17.369887   20.165455   17.108279
  C     18.274085   19.973823   18.117428
  S     18.972608   21.242608   18.916154
  N     18.586807   18.672419   18.415776
  C     17.922359   17.484074   17.846743
  C     17.284740   16.591515   18.903635
  C     17.622457   15.228895   18.990513
  C     17.034112   14.407416   19.966714
  C     16.101092   14.953767   20.864673
  C     15.761305   16.311000   20.779017
  O     14.857647   16.840068   21.642082
  C     16.348183   17.125907   19.805652
  H     15.909675   14.118637   14.316541
  H     14.158994   13.901921   14.186804
  H     14.862432   14.403850   15.734592
  H     14.919738   16.061678   13.139182
  H     13.738356   16.293410   14.427338
  H     15.042923   19.449746   15.134408
  H     16.540429   19.285079   14.193348
  H     16.187649   20.791134   15.038935
  H     17.167048   21.126974   16.886810
  H     19.239879   18.556508   19.180323
  H     18.784025   16.981275   17.383823
  H     18.332525   14.802757   18.285578
  H     17.298411   13.352848   20.019801
  H     15.643277   14.322631   21.618961
  H     14.587663   16.133455   22.247499
  H     16.075105   18.174654   19.756214

 Total Charge           Charge          ....    0
 Multiplicity           Mult            ....    1
 Number of Electrons    NEL             ....  154
 Basis Dimension        Dim             ....  828

ORBITAL ENERGIES
----------------

  NO   OCC          E(Eh)            E(eV)
   0   2.0000     -91.886873     -2500.3689
   1   2.0000     -20.599096      -560.5299
   2   2.0000     -20.591554      -560.3247
   3   2.0000     -20.544123      -559.0340
   4   2.0000     -15.626929      -425.2304
   5   2.0000     -15.604646      -424.6240
   6   2.0000     -11.398692      -310.1742
   7   2.0000     -11.381314      -309.7013
   8   2.0000     -11.336144      -308.4722
   9   2.0000     -11.307546      -307.6940
  10   2.0000     -11.307469      -307.6919
  11   2.0000     -11.303060      -307.5719
  12   2.0000     -11.259737      -306.3930
  13   2.0000     -11.257611      -306.3352
  14   2.0000     -11.254634      -306.2542
  15   2.0000     -11.247709      -306.0657
  16   2.0000     -11.237848      -305.7974
  17   2.0000     -11.233809      -305.6875
  18   2.0000     -11.230619      -305.6007
  19   2.0000     -11.225726      -305.4675
  20   2.0000      -8.891970      -241.9628
  21   2.0000      -6.573552      -178.8754
  22   2.0000      -6.571546      -178.8209
  23   2.0000      -6.570961      -178.8049
  24   2.0000      -1.444937       -39.3187
  25   2.0000      -1.411301       -38.4035
  26   2.0000      -1.356399       -36.9095
  27   2.0000      -1.338547       -36.4237
  28   2.0000      -1.235861       -33.6295
  29   2.0000      -1.151829       -31.3429
  30   2.0000      -1.119030       -30.4503
  31   2.0000      -1.042143       -28.3582
  32   2.0000      -1.034222       -28.1426
  33   2.0000      -1.009488       -27.4696
  34   2.0000      -0.997458       -27.1422
  35   2.0000      -0.982200       -26.7270
  36   2.0000      -0.920317       -25.0431
  37   2.0000      -0.897280       -24.4162
  38   2.0000      -0.847103       -23.0508
  39   2.0000      -0.834797       -22.7160
  40   2.0000      -0.827789       -22.5253
  41   2.0000      -0.817572       -22.2473
  42   2.0000      -0.742604       -20.2073
  43   2.0000      -0.727296       -19.7907
  44   2.0000      -0.724166       -19.7056
  45   2.0000      -0.688968       -18.7478
  46   2.0000      -0.683419       -18.5968
  47   2.0000      -0.677161       -18.4265
  48   2.0000      -0.673614       -18.3300
  49   2.0000      -0.664171       -18.0730
  50   2.0000      -0.647119       -17.6090
  51   2.0000      -0.642593       -17.4858
  52   2.0000      -0.631789       -17.1919
  53   2.0000      -0.609939       -16.5973
  54   2.0000      -0.602444       -16.3933
  55   2.0000      -0.597657       -16.2631
  56   2.0000      -0.594885       -16.1876
  57   2.0000      -0.575266       -15.6538
  58   2.0000      -0.573216       -15.5980
  59   2.0000      -0.568757       -15.4767
  60   2.0000      -0.557695       -15.1757
  61   2.0000      -0.543893       -14.8001
  62   2.0000      -0.537988       -14.6394
  63   2.0000      -0.526166       -14.3177
  64   2.0000      -0.514929       -14.0119
  65   2.0000      -0.510089       -13.8802
  66   2.0000      -0.498571       -13.5668
  67   2.0000      -0.493254       -13.4221
  68   2.0000      -0.479294       -13.0422
  69   2.0000      -0.463076       -12.6009
  70   2.0000      -0.452750       -12.3200
  71   2.0000      -0.446764       -12.1571
  72   2.0000      -0.351610        -9.5678
  73   2.0000      -0.344158        -9.3650
  74   2.0000      -0.326059        -8.8725
  75   2.0000      -0.316058        -8.6004
  76   2.0000      -0.314190        -8.5496
  77   0.0000       0.078646         2.1401
  78   0.0000       0.111788         3.0419
  79   0.0000       0.121700         3.3116
  80   0.0000       0.135927         3.6988
  81   0.0000       0.139053         3.7838

MULLIKEN ATOMIC CHARGES
-----------------------
   0 C :   -0.293948
   1 C :    0.051058
   2 O :   -0.360022
   3 C :    0.420103
   4 O :   -0.418041
   5 C :   -0.162764
   6 C :    0.159920
   7 C :   -0.282246
   8 N :   -0.129271
   9 C :    0.207396
  10 S :   -0.444475
  11 N :   -0.211255
  12 C :    0.043640
  13 C :    0.030815
  14 C :   -0.172162
  15 C :   -0.134587
  16 C :   -0.277541
  17 C :    0.314411
  18 O :   -0.358925
  19 C :   -0.251368
  20 H :    0.118659
  21 H :    0.097396
  22 H :    0.107374
  23 H :    0.091177
  24 H :    0.091799
  25 H :    0.128121
  26 H :    0.125293
  27 H :    0.102345
  28 H :    0.198515
  29 H :    0.199836
  30 H :    0.156404
  31 H :    0.160331
  32 H :    0.160110
  33 H :    0.128245
  34 H :    0.239823
  35 H :    0.163831
Sum of atomic charges:   -0.0000000

LOEWDIN ATOMIC CHARGES
----------------------
   0 C :    0.103592
   1 C :   -0.008098
   2 O :    0.291868
   3 C :   -0.413374
   4 O :    0.114510
   5 C :   -0.091084
   6 C :   -0.064996
   7 C :    0.124296
   8 N :    0.405028
   9 C :   -0.458936
  10 S :   -0.039254
  11 N :    0.396521
  12 C :   -0.048337
  13 C :   -0.040567
  14 C :    0.024150
  15 C :    0.040229
  16 C :   -0.001501
  17 C :   -0.192559
  18 O :    0.393110
  19 C :    0.029807
  20 H :   -0.024216
  21 H :   -0.027117
  22 H :   -0.024551
  23 H :   -0.028715
  24 H :   -0.028000
  25 H :   -0.009777
  26 H :   -0.009374
  27 H :   -0.021591
  28 H :   -0.059078
  29 H :   -0.063256
  30 H :   -0.008682
  31 H :   -0.023960
  32 H :   -0.021163
  33 H :   -0.036258
  34 H :   -0.154953
  35 H :   -0.023715

  Mayer bond orders larger than 0.100000
B(  0-C ,  1-C ) :   0.9797 B(  0-C , 20-H ) :   0.9720 B(  0-C , 21-H ) :   0.9724
B(  0-C , 22-H ) :   0.9739 B(  1-C ,  2-O ) :   0.9034 B(  1-C , 23-H ) :   0.9779
B(  1-C , 24-H ) :   0.9783 B(  2-O ,  3-C ) :   1.1314 B(  3-C ,  4-O ) :   1.9890
B(  3-C ,  5-C ) :   1.0308 B(  5-C ,  6-C ) :   1.6653 B(  5-C , 12-C ) :   0.9491
B(  6-C ,  7-C ) :   0.9528 B(  6-C ,  8-N ) :   1.1325 B(  7-C , 25-H ) :   0.9641
B(  7-C , 26-H ) :   0.9654 B(  7-C , 27-H ) :   0.9919 B(  8-N ,  9-C ) :   1.1873
B(  8-N , 28-H ) :   0.9470 B(  9-C , 10-S ) :   1.6061 B(  9-C , 11-N ) :   1.3065
B( 11-N , 12-C ) :   0.9759 B( 11-N , 29-H ) :   0.9487 B( 12-C , 13-C ) :   0.9723
B( 12-C , 30-H ) :   0.9972 B( 13-C , 14-C ) :   1.3753 B( 13-C , 19-C ) :   1.3667
B( 14-C , 15-C ) :   1.3967 B( 14-C , 31-H ) :   0.9634 B( 15-C , 16-C ) :   1.3587
B( 15-C , 32-H ) :   0.9712 B( 16-C , 17-C ) :   1.3333 B( 16-C , 33-H ) :   0.9860
B( 17-C , 18-O ) :   1.1036 B( 17-C , 19-C ) :   1.3669 B( 18-O , 34-H ) :   0.9807
B( 19-C , 35-H ) :   0.9600

MP2 TOTAL ENERGY:    -1274.329354503 Eh
FINAL SINGLE POINT ENERGY     -1274.329354503306

DIPOLE MOMENT
-------------
                                X             Y             Z
Electronic contribution:      9.15883      10.51874      10.90346
Nuclear contribution   :    -10.73365     -11.78864     -12.03965
                        -----------------------------------------
Total Dipole Moment    :     -1.57482      -1.26989      -1.13620
                        -----------------------------------------
Magnitude (a.u.)       :      2.32026
Magnitude (Debye)      :      5.89764

Rotational constants in cm-1:     0.010028     0.009157     0.005602
Rotational constants in MHz :   300.629573   274.505597   167.955570

                             ****ORCA TERMINATED NORMALLY****
TOTAL RUN TIME: 0 days 1 hours 49 minutes 44 seconds 834 msec
