                         Program Version 4.2.0 -  RELEASE  -
|  1> ! ri-mp2 cc-pvtz cc-pvtz/c TightSCF NoKeepInts
|  2>
|  3> %scf
|  4>   MaxCore 4096
|  5> end
|  6> *xyz  0  1
|  7>     C       14.7845487   15.0338189   16.4087122
|  8>     C       15.7845663   14.9739627   15.2411982
|  9>     O       16.9378954   15.7860338   15.5384508
| 10>     C       16.8858078   17.1011667   15.1817430
| 11>     O       16.6135319   17.4258270   14.0390977
| 12>     C       17.0128996   18.0481819   16.3463681
| 13>     C       16.8942881   19.3878204   16.1493327
| 14>     C       16.2979972   20.0917083   14.9473200
| 15>     N       17.3331642   20.3016457   17.1098130
| 16>     C       18.1135007   19.9757755   18.1848706
| 17>     S       18.7060461   21.1225804   19.2188734
| 18>     N       18.4020699   18.6448217   18.3447181
| 19>     C       17.8114300   17.5420782   17.5625681
| 20>     C       17.1109903   16.5272035   18.4541266
| 21>     C       17.6671273   15.2514701   18.6625349
| 22>     C       17.0454635   14.3352991   19.5280466
| 23>     C       15.8611865   14.6998590   20.1920105
| 24>     C       15.3093070   15.9727659   19.9900914
| 25>     O       14.1669406   16.3276278   20.6300367
| 26>     C       15.9315720   16.8832526   19.1301265
| 27>     H       15.2150041   14.5832409   17.3090804
| 28>     H       13.8732578   14.4774653   16.1587244
| 29>     H       14.5000319   16.0691016   16.6330542
| 30>     H       16.1034111   13.9322945   15.1076559
| 31>     H       15.3027715   15.2960690   14.3075898
| 32>     H       15.3576586   19.6143134   14.6437847
| 33>     H       16.9831695   20.0407095   14.0912764
| 34>     H       16.0766979   21.1488339   15.1359240
| 35>     H       17.1549205   21.2851805   16.9835342
| 36>     H       18.9583679   18.4308305   19.1628970
| 37>     H       18.7300604   17.1103342   17.1404726
| 38>     H       18.5833590   14.9694619   18.1504169
| 39>     H       17.4816242   13.3497880   19.6823552
| 40>     H       15.3776572   13.9957861   20.8612609
| 41>     H       13.9181882   15.5936645   21.2118673
| 42>     H       15.5004873   17.8700270   18.9980672
| 43> *
| 44>
| 45>                          ****END OF INPUT****

CARTESIAN COORDINATES (ANGSTROEM)
---------------------------------
  C     14.784549   15.033819   16.408712
  C     15.784566   14.973963   15.241198
  O     16.937895   15.786034   15.538451
  C     16.885808   17.101167   15.181743
  O     16.613532   17.425827   14.039098
  C     17.012900   18.048182   16.346368
  C     16.894288   19.387820   16.149333
  C     16.297997   20.091708   14.947320
  N     17.333164   20.301646   17.109813
  C     18.113501   19.975776   18.184871
  S     18.706046   21.122580   19.218873
  N     18.402070   18.644822   18.344718
  C     17.811430   17.542078   17.562568
  C     17.110990   16.527203   18.454127
  C     17.667127   15.251470   18.662535
  C     17.045464   14.335299   19.528047
  C     15.861186   14.699859   20.192010
  C     15.309307   15.972766   19.990091
  O     14.166941   16.327628   20.630037
  C     15.931572   16.883253   19.130126
  H     15.215004   14.583241   17.309080
  H     13.873258   14.477465   16.158724
  H     14.500032   16.069102   16.633054
  H     16.103411   13.932294   15.107656
  H     15.302772   15.296069   14.307590
  H     15.357659   19.614313   14.643785
  H     16.983169   20.040709   14.091276
  H     16.076698   21.148834   15.135924
  H     17.154920   21.285180   16.983534
  H     18.958368   18.430830   19.162897
  H     18.730060   17.110334   17.140473
  H     18.583359   14.969462   18.150417
  H     17.481624   13.349788   19.682355
  H     15.377657   13.995786   20.861261
  H     13.918188   15.593664   21.211867
  H     15.500487   17.870027   18.998067

 Total Charge           Charge          ....    0
 Multiplicity           Mult            ....    1
 Number of Electrons    NEL             ....  154
 Basis Dimension        Dim             ....  828

ORBITAL ENERGIES
----------------

  NO   OCC          E(Eh)            E(eV)
   0   2.0000     -91.890600     -2500.4703
   1   2.0000     -20.599334      -560.5364
   2   2.0000     -20.587052      -560.2022
   3   2.0000     -20.545604      -559.0743
   4   2.0000     -15.630929      -425.3392
   5   2.0000     -15.608443      -424.7273
   6   2.0000     -11.393194      -310.0246
   7   2.0000     -11.384784      -309.7957
   8   2.0000     -11.339481      -308.5630
   9   2.0000     -11.316537      -307.9386
  10   2.0000     -11.310471      -307.7736
  11   2.0000     -11.295191      -307.3578
  12   2.0000     -11.263180      -306.4867
  13   2.0000     -11.259784      -306.3943
  14   2.0000     -11.257926      -306.3437
  15   2.0000     -11.253244      -306.2163
  16   2.0000     -11.246726      -306.0390
  17   2.0000     -11.241225      -305.8893
  18   2.0000     -11.241180      -305.8881
  19   2.0000     -11.221054      -305.3404
  20   2.0000      -8.895644      -242.0628
  21   2.0000      -6.577210      -178.9750
  22   2.0000      -6.575219      -178.9208
  23   2.0000      -6.574621      -178.9045
  24   2.0000      -1.448829       -39.4246
  25   2.0000      -1.419049       -38.6143
  26   2.0000      -1.352619       -36.8066
  27   2.0000      -1.342577       -36.5334
  28   2.0000      -1.240446       -33.7543
  29   2.0000      -1.160036       -31.5662
  30   2.0000      -1.122365       -30.5411
  31   2.0000      -1.044946       -28.4344
  32   2.0000      -1.032690       -28.1009
  33   2.0000      -1.017729       -27.6938
  34   2.0000      -0.999102       -27.1870
  35   2.0000      -0.986696       -26.8494
  36   2.0000      -0.923973       -25.1426
  37   2.0000      -0.889506       -24.2047
  38   2.0000      -0.848181       -23.0802
  39   2.0000      -0.840786       -22.8790
  40   2.0000      -0.836887       -22.7728
  41   2.0000      -0.816625       -22.2215
  42   2.0000      -0.757768       -20.6199
  43   2.0000      -0.735753       -20.0209
  44   2.0000      -0.722904       -19.6712
  45   2.0000      -0.698039       -18.9946
  46   2.0000      -0.689437       -18.7605
  47   2.0000      -0.675726       -18.3875
  48   2.0000      -0.670937       -18.2571
  49   2.0000      -0.668690       -18.1960
  50   2.0000      -0.647232       -17.6121
  51   2.0000      -0.644361       -17.5340
  52   2.0000      -0.636838       -17.3292
  53   2.0000      -0.609682       -16.5903
  54   2.0000      -0.604457       -16.4481
  55   2.0000      -0.601353       -16.3637
  56   2.0000      -0.592464       -16.1218
  57   2.0000      -0.579066       -15.7572
  58   2.0000      -0.571548       -15.5526
  59   2.0000      -0.566610       -15.4182
  60   2.0000      -0.563817       -15.3422
  61   2.0000      -0.547250       -14.8914
  62   2.0000      -0.541592       -14.7375
  63   2.0000      -0.526005       -14.3133
  64   2.0000      -0.520373       -14.1601
  65   2.0000      -0.514359       -13.9964
  66   2.0000      -0.503893       -13.7116
  67   2.0000      -0.500477       -13.6187
  68   2.0000      -0.477641       -12.9973
  69   2.0000      -0.463604       -12.6153
  70   2.0000      -0.450971       -12.2716
  71   2.0000      -0.447864       -12.1870
  72   2.0000      -0.354706        -9.6520
  73   2.0000      -0.351947        -9.5770
  74   2.0000      -0.329677        -8.9710
  75   2.0000      -0.324483        -8.8296
  76   2.0000      -0.320190        -8.7128
  77   0.0000       0.071490         1.9454
  78   0.0000       0.101583         2.7642
  79   0.0000       0.122066         3.3216
  80   0.0000       0.130715         3.5569
  81   0.0000       0.134013         3.6467

MULLIKEN ATOMIC CHARGES
-----------------------
   0 C :   -0.313720
   1 C :    0.034358
   2 O :   -0.373605
   3 C :    0.460503
   4 O :   -0.411528
   5 C :   -0.241787
   6 C :    0.167817
   7 C :   -0.266143
   8 N :   -0.126154
   9 C :    0.208760
  10 S :   -0.438505
  11 N :   -0.211742
  12 C :    0.045702
  13 C :    0.040025
  14 C :   -0.178182
  15 C :   -0.132031
  16 C :   -0.280410
  17 C :    0.321549
  18 O :   -0.359310
  19 C :   -0.251562
  20 H :    0.108012
  21 H :    0.115060
  22 H :    0.099714
  23 H :    0.105763
  24 H :    0.112519
  25 H :    0.127395
  26 H :    0.134425
  27 H :    0.094084
  28 H :    0.200176
  29 H :    0.200876
  30 H :    0.152724
  31 H :    0.152774
  32 H :    0.162907
  33 H :    0.132114
  34 H :    0.241276
  35 H :    0.166145
Sum of atomic charges:   -0.0000000

LOEWDIN ATOMIC CHARGES
----------------------
   0 C :    0.103545
   1 C :   -0.017556
   2 O :    0.295252
   3 C :   -0.420703
   4 O :    0.110745
   5 C :   -0.102206
   6 C :   -0.054047
   7 C :    0.130510
   8 N :    0.408000
   9 C :   -0.457926
  10 S :   -0.033746
  11 N :    0.395603
  12 C :   -0.053794
  13 C :   -0.039956
  14 C :    0.017706
  15 C :    0.039269
  16 C :   -0.001244
  17 C :   -0.190554
  18 O :    0.396133
  19 C :    0.036173
  20 H :   -0.025792
  21 H :   -0.026623
  22 H :   -0.030140
  23 H :   -0.024808
  24 H :   -0.028192
  25 H :   -0.005586
  26 H :   -0.004214
  27 H :   -0.023326
  28 H :   -0.056643
  29 H :   -0.063633
  30 H :   -0.012170
  31 H :   -0.027843
  32 H :   -0.020557
  33 H :   -0.034991
  34 H :   -0.153328
  35 H :   -0.023355

  Mayer bond orders larger than 0.100000
B(  0-C ,  1-C ) :   0.9617 B(  0-C , 20-H ) :   0.9733 B(  0-C , 21-H ) :   0.9780
B(  0-C , 22-H ) :   0.9732 B(  1-C ,  2-O ) :   0.8896 B(  1-C , 23-H ) :   0.9865
B(  1-C , 24-H ) :   0.9784 B(  2-O ,  3-C ) :   1.1145 B(  3-C ,  4-O ) :   2.0171
B(  3-C ,  5-C ) :   1.0618 B(  5-C ,  6-C ) :   1.6277 B(  5-C , 12-C ) :   0.9621
B(  6-C ,  7-C ) :   0.9669 B(  6-C ,  8-N ) :   1.1536 B(  7-C , 25-H ) :   0.9651
B(  7-C , 26-H ) :   0.9555 B(  7-C , 27-H ) :   0.9889 B(  8-N ,  9-C ) :   1.1850
B(  8-N , 28-H ) :   0.9469 B(  9-C , 10-S ) :   1.6109 B(  9-C , 11-N ) :   1.3073
B( 11-N , 12-C ) :   0.9680 B( 11-N , 29-H ) :   0.9484 B( 12-C , 13-C ) :   0.9597
B( 12-C , 30-H ) :   1.0046 B( 13-C , 14-C ) :   1.3569 B( 13-C , 19-C ) :   1.3640
B( 14-C , 15-C ) :   1.3914 B( 14-C , 31-H ) :   0.9717 B( 15-C , 16-C ) :   1.3550
B( 15-C , 32-H ) :   0.9710 B( 16-C , 17-C ) :   1.3352 B( 16-C , 33-H ) :   0.9850
B( 17-C , 18-O ) :   1.1053 B( 17-C , 19-C ) :   1.3565 B( 18-O , 34-H ) :   0.9793
B( 19-C , 35-H ) :   0.9609

MP2 TOTAL ENERGY:    -1274.330546517 Eh
FINAL SINGLE POINT ENERGY     -1274.330546516766

DIPOLE MOMENT
-------------
                                X             Y             Z
Electronic contribution:      8.47602      10.00593       5.81022
Nuclear contribution   :     -9.47896     -11.68139      -5.88085
                        -----------------------------------------
Total Dipole Moment    :     -1.00294      -1.67546      -0.07063
                        -----------------------------------------
Magnitude (a.u.)       :      1.95399
Magnitude (Debye)      :      4.96664

Rotational constants in cm-1:     0.012234     0.008931     0.006156
Rotational constants in MHz :   366.758307   267.748567   184.543942

                             ****ORCA TERMINATED NORMALLY****
TOTAL RUN TIME: 0 days 1 hours 44 minutes 49 seconds 436 msec
