                         Program Version 4.2.0 -  RELEASE  -
|  1> ! ri-mp2 cc-pvtz cc-pvtz/c TightSCF NoKeepInts
|  2>
|  3> %scf
|  4>   MaxCore 4096
|  5> end
|  6> *xyz  0  1
|  7>     C       14.7569383   14.8143894   15.4303683
|  8>     C       14.9396564   15.9121392   14.3561328
|  9>     O       15.9376540   16.9084780   14.6891576
| 10>     C       16.9176068   16.7249017   15.6238171
| 11>     O       17.5543928   15.6887300   15.7129905
| 12>     C       17.0846676   17.8620728   16.5906526
| 13>     C       16.8598731   19.1588776   16.2514742
| 14>     C       16.2145950   19.6928112   14.9877943
| 15>     N       17.2795859   20.1967445   17.0876114
| 16>     C       18.1117617   20.0376442   18.1627825
| 17>     S       18.6523354   21.3273003   19.0460207
| 18>     N       18.4906684   18.7522280   18.4562009
| 19>     C       17.9621971   17.5376084   17.8054390
| 20>     C       17.3028524   16.5696935   18.7792249
| 21>     C       17.7157311   15.2268097   18.8453226
| 22>     C       17.1016238   14.3332975   19.7388114
| 23>     C       16.0662605   14.7869797   20.5739720
| 24>     C       15.6511518   16.1241989   20.5083024
| 25>     O       14.6478485   16.5634668   21.3093419
| 26>     C       16.2637313   17.0108862   19.6169909
| 27>     H       15.6091969   14.1239195   15.4487726
| 28>     H       13.8616996   14.2196732   15.2127348
| 29>     H       14.6356808   15.2522027   16.4294584
| 30>     H       15.2230988   15.4257351   13.4136127
| 31>     H       13.9797810   16.4169021   14.1875431
| 32>     H       15.1631552   19.3853648   14.9295337
| 33>     H       16.7293668   19.3124489   14.0964618
| 34>     H       16.2382842   20.7877233   14.9273954
| 35>     H       17.0283343   21.1481528   16.8718838
| 36>     H       19.0880248   18.6598440   19.2680926
| 37>     H       18.8906858   17.1089554   17.4006351
| 38>     H       18.5054041   14.8717228   18.1871418
| 39>     H       17.4256103   13.2947893   19.7764141
| 40>     H       15.5883332   14.0999100   21.2642422
| 41>     H       14.3791569   15.8208417   21.8707198
| 42>     H       15.9300553   18.0425567   19.5809501
| 43> *
| 44>
| 45>                          ****END OF INPUT****

CARTESIAN COORDINATES (ANGSTROEM)
---------------------------------
  C     14.756938   14.814389   15.430368
  C     14.939656   15.912139   14.356133
  O     15.937654   16.908478   14.689158
  C     16.917607   16.724902   15.623817
  O     17.554393   15.688730   15.712991
  C     17.084668   17.862073   16.590653
  C     16.859873   19.158878   16.251474
  C     16.214595   19.692811   14.987794
  N     17.279586   20.196745   17.087611
  C     18.111762   20.037644   18.162782
  S     18.652335   21.327300   19.046021
  N     18.490668   18.752228   18.456201
  C     17.962197   17.537608   17.805439
  C     17.302852   16.569693   18.779225
  C     17.715731   15.226810   18.845323
  C     17.101624   14.333298   19.738811
  C     16.066260   14.786980   20.573972
  C     15.651152   16.124199   20.508302
  O     14.647848   16.563467   21.309342
  C     16.263731   17.010886   19.616991
  H     15.609197   14.123919   15.448773
  H     13.861700   14.219673   15.212735
  H     14.635681   15.252203   16.429458
  H     15.223099   15.425735   13.413613
  H     13.979781   16.416902   14.187543
  H     15.163155   19.385365   14.929534
  H     16.729367   19.312449   14.096462
  H     16.238284   20.787723   14.927395
  H     17.028334   21.148153   16.871884
  H     19.088025   18.659844   19.268093
  H     18.890686   17.108955   17.400635
  H     18.505404   14.871723   18.187142
  H     17.425610   13.294789   19.776414
  H     15.588333   14.099910   21.264242
  H     14.379157   15.820842   21.870720
  H     15.930055   18.042557   19.580950

 Total Charge           Charge          ....    0
 Multiplicity           Mult            ....    1
 Number of Electrons    NEL             ....  154
 Basis Dimension        Dim             ....  828

ORBITAL ENERGIES
----------------

  NO   OCC          E(Eh)            E(eV)
   0   2.0000     -91.887899     -2500.3968
   1   2.0000     -20.593150      -560.3681
   2   2.0000     -20.593109      -560.3670
   3   2.0000     -20.546983      -559.1118
   4   2.0000     -15.628193      -425.2648
   5   2.0000     -15.605713      -424.6530
   6   2.0000     -11.396149      -310.1050
   7   2.0000     -11.382534      -309.7345
   8   2.0000     -11.337146      -308.4994
   9   2.0000     -11.309290      -307.7414
  10   2.0000     -11.306137      -307.6556
  11   2.0000     -11.304112      -307.6005
  12   2.0000     -11.259629      -306.3901
  13   2.0000     -11.258375      -306.3560
  14   2.0000     -11.256235      -306.2977
  15   2.0000     -11.249285      -306.1086
  16   2.0000     -11.239475      -305.8417
  17   2.0000     -11.235529      -305.7343
  18   2.0000     -11.232100      -305.6410
  19   2.0000     -11.227525      -305.5165
  20   2.0000      -8.892985      -241.9904
  21   2.0000      -6.574563      -178.9030
  22   2.0000      -6.572560      -178.8484
  23   2.0000      -6.571973      -178.8325
  24   2.0000      -1.446965       -39.3739
  25   2.0000      -1.412915       -38.4474
  26   2.0000      -1.355307       -36.8798
  27   2.0000      -1.339481       -36.4491
  28   2.0000      -1.236800       -33.6550
  29   2.0000      -1.153556       -31.3898
  30   2.0000      -1.120472       -30.4896
  31   2.0000      -1.042634       -28.3715
  32   2.0000      -1.033207       -28.1150
  33   2.0000      -1.011139       -27.5145
  34   2.0000      -0.998908       -27.1817
  35   2.0000      -0.983887       -26.7729
  36   2.0000      -0.921474       -25.0746
  37   2.0000      -0.897573       -24.4242
  38   2.0000      -0.847878       -23.0719
  39   2.0000      -0.836082       -22.7510
  40   2.0000      -0.829401       -22.5692
  41   2.0000      -0.817789       -22.2532
  42   2.0000      -0.743648       -20.2357
  43   2.0000      -0.730157       -19.8686
  44   2.0000      -0.726140       -19.7593
  45   2.0000      -0.690584       -18.7917
  46   2.0000      -0.685284       -18.6475
  47   2.0000      -0.677105       -18.4250
  48   2.0000      -0.671476       -18.2718
  49   2.0000      -0.662409       -18.0251
  50   2.0000      -0.650106       -17.6903
  51   2.0000      -0.644452       -17.5364
  52   2.0000      -0.631950       -17.1962
  53   2.0000      -0.620434       -16.8829
  54   2.0000      -0.603643       -16.4259
  55   2.0000      -0.599132       -16.3032
  56   2.0000      -0.596491       -16.2313
  57   2.0000      -0.576222       -15.6798
  58   2.0000      -0.573834       -15.6148
  59   2.0000      -0.563916       -15.3449
  60   2.0000      -0.553960       -15.0740
  61   2.0000      -0.546013       -14.8578
  62   2.0000      -0.538145       -14.6437
  63   2.0000      -0.525741       -14.3062
  64   2.0000      -0.516367       -14.0511
  65   2.0000      -0.510061       -13.8795
  66   2.0000      -0.500318       -13.6144
  67   2.0000      -0.494481       -13.4555
  68   2.0000      -0.479383       -13.0447
  69   2.0000      -0.463371       -12.6090
  70   2.0000      -0.456794       -12.4300
  71   2.0000      -0.448381       -12.2011
  72   2.0000      -0.352522        -9.5926
  73   2.0000      -0.345759        -9.4086
  74   2.0000      -0.327035        -8.8991
  75   2.0000      -0.317071        -8.6279
  76   2.0000      -0.315877        -8.5954
  77   0.0000       0.075953         2.0668
  78   0.0000       0.109678         2.9845
  79   0.0000       0.121760         3.3133
  80   0.0000       0.134602         3.6627
  81   0.0000       0.139852         3.8056

MULLIKEN ATOMIC CHARGES
-----------------------
   0 C :   -0.315758
   1 C :    0.058856
   2 O :   -0.369317
   3 C :    0.439729
   4 O :   -0.412167
   5 C :   -0.176917
   6 C :    0.150007
   7 C :   -0.279874
   8 N :   -0.127570
   9 C :    0.208281
  10 S :   -0.442635
  11 N :   -0.212031
  12 C :    0.044564
  13 C :    0.032893
  14 C :   -0.177234
  15 C :   -0.132953
  16 C :   -0.278162
  17 C :    0.315107
  18 O :   -0.358575
  19 C :   -0.255235
  20 H :    0.126042
  21 H :    0.101594
  22 H :    0.103948
  23 H :    0.096336
  24 H :    0.094209
  25 H :    0.126111
  26 H :    0.127511
  27 H :    0.101535
  28 H :    0.198637
  29 H :    0.199754
  30 H :    0.156786
  31 H :    0.161969
  32 H :    0.160593
  33 H :    0.129005
  34 H :    0.240089
  35 H :    0.164869
Sum of atomic charges:   -0.0000000

LOEWDIN ATOMIC CHARGES
----------------------
   0 C :    0.105829
   1 C :   -0.009686
   2 O :    0.290811
   3 C :   -0.417203
   4 O :    0.114703
   5 C :   -0.094021
   6 C :   -0.065270
   7 C :    0.125425
   8 N :    0.405364
   9 C :   -0.458234
  10 S :   -0.037999
  11 N :    0.396309
  12 C :   -0.048333
  13 C :   -0.041150
  14 C :    0.024443
  15 C :    0.040672
  16 C :   -0.001414
  17 C :   -0.193085
  18 O :    0.393282
  19 C :    0.028914
  20 H :   -0.023603
  21 H :   -0.025604
  22 H :   -0.025712
  23 H :   -0.028344
  24 H :   -0.027703
  25 H :   -0.009870
  26 H :   -0.008207
  27 H :   -0.021281
  28 H :   -0.058737
  29 H :   -0.063432
  30 H :   -0.008005
  31 H :   -0.023679
  32 H :   -0.020857
  33 H :   -0.036003
  34 H :   -0.154685
  35 H :   -0.023636

  Mayer bond orders larger than 0.100000
B(  0-C ,  1-C ) :   0.9640 B(  0-C , 20-H ) :   0.9718 B(  0-C , 21-H ) :   0.9745
B(  0-C , 22-H ) :   0.9719 B(  1-C ,  2-O ) :   0.9054 B(  1-C , 23-H ) :   0.9823
B(  1-C , 24-H ) :   0.9804 B(  2-O ,  3-C ) :   1.0996 B(  3-C ,  4-O ) :   2.0019
B(  3-C ,  5-C ) :   1.0268 B(  5-C ,  6-C ) :   1.6637 B(  5-C , 12-C ) :   0.9453
B(  6-C ,  7-C ) :   0.9553 B(  6-C ,  8-N ) :   1.1398 B(  7-C , 25-H ) :   0.9647
B(  7-C , 26-H ) :   0.9650 B(  7-C , 27-H ) :   0.9904 B(  8-N ,  9-C ) :   1.1853
B(  8-N , 28-H ) :   0.9471 B(  9-C , 10-S ) :   1.6084 B(  9-C , 11-N ) :   1.3049
B( 11-N , 12-C ) :   0.9775 B( 11-N , 29-H ) :   0.9485 B( 12-C , 13-C ) :   0.9699
B( 12-C , 30-H ) :   0.9968 B( 13-C , 14-C ) :   1.3790 B( 13-C , 19-C ) :   1.3635
B( 14-C , 15-C ) :   1.3963 B( 14-C , 31-H ) :   0.9625 B( 15-C , 16-C ) :   1.3590
B( 15-C , 32-H ) :   0.9710 B( 16-C , 17-C ) :   1.3330 B( 16-C , 33-H ) :   0.9856
B( 17-C , 18-O ) :   1.1045 B( 17-C , 19-C ) :   1.3663 B( 18-O , 34-H ) :   0.9805
B( 19-C , 35-H ) :   0.9597

MP2 TOTAL ENERGY:    -1274.329854604 Eh
FINAL SINGLE POINT ENERGY     -1274.329854603587

DIPOLE MOMENT
-------------
                                X             Y             Z
Electronic contribution:      9.24980      10.21621       9.07678
Nuclear contribution   :    -10.77031     -11.52027     -10.07224
                        -----------------------------------------
Total Dipole Moment    :     -1.52052      -1.30406      -0.99546
                        -----------------------------------------
Magnitude (a.u.)       :      2.23685
Magnitude (Debye)      :      5.68561

Rotational constants in cm-1:     0.010640     0.009216     0.005875
Rotational constants in MHz :   318.982339   276.289923   176.133938

                             ****ORCA TERMINATED NORMALLY****
TOTAL RUN TIME: 0 days 1 hours 40 minutes 34 seconds 842 msec
