                         Program Version 4.2.0 -  RELEASE  -
|  1> ! ri-mp2 cc-pvtz cc-pvtz/c TightSCF NoKeepInts
|  2>
|  3> %scf
|  4>   MaxCore 4096
|  5> end
|  6> *xyz  0  1
|  7>     C       13.6710983   16.1602775   14.6292215
|  8>     C       15.0107642   15.6352053   15.1722202
|  9>     O       16.0322813   16.5747348   14.8072119
| 10>     C       17.1268451   16.6051110   15.6135644
| 11>     O       17.9148639   15.6767687   15.6514397
| 12>     C       17.1395658   17.7314146   16.6029015
| 13>     C       16.7262803   18.9822386   16.2738275
| 14>     C       16.0147193   19.4160251   15.0078784
| 15>     N       17.0003796   20.0664829   17.1109470
| 16>     C       17.8667393   20.0249879   18.1704398
| 17>     S       18.2281973   21.3748255   19.0549329
| 18>     N       18.4369719   18.8074542   18.4460262
| 19>     C       18.0771184   17.5310156   17.7978523
| 20>     C       17.5847235   16.4700266   18.7726762
| 21>     C       18.1752549   15.1939393   18.8006322
| 22>     C       17.7154773   14.2132432   19.6954453
| 23>     C       16.6560553   14.5114518   20.5695659
| 24>     C       16.0634882   15.7813979   20.5412388
| 25>     O       15.0359851   16.0700089   21.3790795
| 26>     C       16.5225483   16.7550862   19.6483745
| 27>     H       13.4126621   17.1206003   15.0911342
| 28>     H       12.8647375   15.4492510   14.8468684
| 29>     H       13.7220398   16.2980085   13.5418444
| 30>     H       14.9419960   15.5412887   16.2652984
| 31>     H       15.2399589   14.6462183   14.7530819
| 32>     H       16.5373268   19.0443980   14.1172675
| 33>     H       15.9544346   20.5067012   14.9080626
| 34>     H       14.9903990   19.0263228   14.9841626
| 35>     H       16.6095521   20.9721123   16.9054069
| 36>     H       19.0590025   18.8004067   19.2446455
| 37>     H       19.0499262   17.2441420   17.3720512
| 38>     H       18.9846547   14.9579710   18.1133105
| 39>     H       18.1772391   13.2274442   19.7045159
| 40>     H       16.2972474   13.7564475   21.2611859
| 41>     H       14.8935383   15.2938610   21.9415476
| 42>     H       16.0529279   17.7331310   19.6421408
| 43> *
| 44>
| 45>                          ****END OF INPUT****

CARTESIAN COORDINATES (ANGSTROEM)
---------------------------------
  C     13.671098   16.160277   14.629221
  C     15.010764   15.635205   15.172220
  O     16.032281   16.574735   14.807212
  C     17.126845   16.605111   15.613564
  O     17.914864   15.676769   15.651440
  C     17.139566   17.731415   16.602902
  C     16.726280   18.982239   16.273827
  C     16.014719   19.416025   15.007878
  N     17.000380   20.066483   17.110947
  C     17.866739   20.024988   18.170440
  S     18.228197   21.374826   19.054933
  N     18.436972   18.807454   18.446026
  C     18.077118   17.531016   17.797852
  C     17.584723   16.470027   18.772676
  C     18.175255   15.193939   18.800632
  C     17.715477   14.213243   19.695445
  C     16.656055   14.511452   20.569566
  C     16.063488   15.781398   20.541239
  O     15.035985   16.070009   21.379079
  C     16.522548   16.755086   19.648374
  H     13.412662   17.120600   15.091134
  H     12.864738   15.449251   14.846868
  H     13.722040   16.298009   13.541844
  H     14.941996   15.541289   16.265298
  H     15.239959   14.646218   14.753082
  H     16.537327   19.044398   14.117268
  H     15.954435   20.506701   14.908063
  H     14.990399   19.026323   14.984163
  H     16.609552   20.972112   16.905407
  H     19.059002   18.800407   19.244645
  H     19.049926   17.244142   17.372051
  H     18.984655   14.957971   18.113310
  H     18.177239   13.227444   19.704516
  H     16.297247   13.756448   21.261186
  H     14.893538   15.293861   21.941548
  H     16.052928   17.733131   19.642141

 Total Charge           Charge          ....    0
 Multiplicity           Mult            ....    1
 Number of Electrons    NEL             ....  154
 Basis Dimension        Dim             ....  828

ORBITAL ENERGIES
----------------

  NO   OCC          E(Eh)            E(eV)
   0   2.0000     -91.889670     -2500.4450
   1   2.0000     -20.594792      -560.4128
   2   2.0000     -20.587981      -560.2274
   3   2.0000     -20.552297      -559.2564
   4   2.0000     -15.630410      -425.3251
   5   2.0000     -15.607360      -424.6978
   6   2.0000     -11.393210      -310.0250
   7   2.0000     -11.384510      -309.7883
   8   2.0000     -11.339295      -308.5579
   9   2.0000     -11.311040      -307.7890
  10   2.0000     -11.305639      -307.6421
  11   2.0000     -11.303743      -307.5905
  12   2.0000     -11.261112      -306.4304
  13   2.0000     -11.259995      -306.4000
  14   2.0000     -11.258123      -306.3491
  15   2.0000     -11.250900      -306.1525
  16   2.0000     -11.241031      -305.8840
  17   2.0000     -11.237279      -305.7819
  18   2.0000     -11.236880      -305.7711
  19   2.0000     -11.233717      -305.6850
  20   2.0000      -8.894745      -242.0383
  21   2.0000      -6.576318      -178.9507
  22   2.0000      -6.574318      -178.8963
  23   2.0000      -6.573726      -178.8802
  24   2.0000      -1.453736       -39.5582
  25   2.0000      -1.414548       -38.4918
  26   2.0000      -1.359056       -36.9818
  27   2.0000      -1.341405       -36.5015
  28   2.0000      -1.238510       -33.7016
  29   2.0000      -1.155438       -31.4411
  30   2.0000      -1.122778       -30.5523
  31   2.0000      -1.045232       -28.4422
  32   2.0000      -1.038304       -28.2537
  33   2.0000      -1.012988       -27.5648
  34   2.0000      -1.001166       -27.2431
  35   2.0000      -0.986575       -26.8461
  36   2.0000      -0.922741       -25.1091
  37   2.0000      -0.884257       -24.0619
  38   2.0000      -0.849375       -23.1127
  39   2.0000      -0.838776       -22.8243
  40   2.0000      -0.831133       -22.6163
  41   2.0000      -0.828552       -22.5460
  42   2.0000      -0.760770       -20.7016
  43   2.0000      -0.736796       -20.0492
  44   2.0000      -0.728552       -19.8249
  45   2.0000      -0.692475       -18.8432
  46   2.0000      -0.686816       -18.6892
  47   2.0000      -0.682769       -18.5791
  48   2.0000      -0.675448       -18.3799
  49   2.0000      -0.654913       -17.8211
  50   2.0000      -0.653668       -17.7872
  51   2.0000      -0.641292       -17.4504
  52   2.0000      -0.633333       -17.2339
  53   2.0000      -0.616788       -16.7837
  54   2.0000      -0.605596       -16.4791
  55   2.0000      -0.601492       -16.3674
  56   2.0000      -0.598169       -16.2770
  57   2.0000      -0.577181       -15.7059
  58   2.0000      -0.574868       -15.6430
  59   2.0000      -0.567441       -15.4409
  60   2.0000      -0.559752       -15.2316
  61   2.0000      -0.550494       -14.9797
  62   2.0000      -0.548636       -14.9291
  63   2.0000      -0.519662       -14.1407
  64   2.0000      -0.518841       -14.1184
  65   2.0000      -0.511700       -13.9241
  66   2.0000      -0.506401       -13.7799
  67   2.0000      -0.496510       -13.5107
  68   2.0000      -0.481992       -13.1157
  69   2.0000      -0.464173       -12.6308
  70   2.0000      -0.461106       -12.5473
  71   2.0000      -0.452963       -12.3258
  72   2.0000      -0.354899        -9.6573
  73   2.0000      -0.347446        -9.4545
  74   2.0000      -0.328715        -8.9448
  75   2.0000      -0.318978        -8.6798
  76   2.0000      -0.317778        -8.6472
  77   0.0000       0.072609         1.9758
  78   0.0000       0.107477         2.9246
  79   0.0000       0.120105         3.2682
  80   0.0000       0.133643         3.6366
  81   0.0000       0.138033         3.7561

MULLIKEN ATOMIC CHARGES
-----------------------
   0 C :   -0.285361
   1 C :    0.046133
   2 O :   -0.366543
   3 C :    0.449601
   4 O :   -0.390519
   5 C :   -0.208675
   6 C :    0.148532
   7 C :   -0.285569
   8 N :   -0.127950
   9 C :    0.206354
  10 S :   -0.440069
  11 N :   -0.211806
  12 C :    0.048727
  13 C :    0.032513
  14 C :   -0.179574
  15 C :   -0.132199
  16 C :   -0.278019
  17 C :    0.314361
  18 O :   -0.358495
  19 C :   -0.256683
  20 H :    0.091097
  21 H :    0.106156
  22 H :    0.103179
  23 H :    0.087765
  24 H :    0.109787
  25 H :    0.129745
  26 H :    0.106860
  27 H :    0.123090
  28 H :    0.198880
  29 H :    0.199932
  30 H :    0.157451
  31 H :    0.163857
  32 H :    0.161544
  33 H :    0.129615
  34 H :    0.240502
  35 H :    0.165778
Sum of atomic charges:   -0.0000000

LOEWDIN ATOMIC CHARGES
----------------------
   0 C :    0.108439
   1 C :   -0.019072
   2 O :    0.296323
   3 C :   -0.424020
   4 O :    0.124195
   5 C :   -0.097280
   6 C :   -0.066691
   7 C :    0.126890
   8 N :    0.405706
   9 C :   -0.457929
  10 S :   -0.036021
  11 N :    0.396048
  12 C :   -0.048622
  13 C :   -0.041997
  14 C :    0.024178
  15 C :    0.041907
  16 C :   -0.001061
  17 C :   -0.193332
  18 O :    0.393264
  19 C :    0.027801
  20 H :   -0.030947
  21 H :   -0.022497
  22 H :   -0.024918
  23 H :   -0.029054
  24 H :   -0.026449
  25 H :   -0.006969
  26 H :   -0.019919
  27 H :   -0.012166
  28 H :   -0.058205
  29 H :   -0.063370
  30 H :   -0.007140
  31 H :   -0.023000
  32 H :   -0.020257
  33 H :   -0.035720
  34 H :   -0.154284
  35 H :   -0.023835

  Mayer bond orders larger than 0.100000
B(  0-C ,  1-C ) :   0.9734 B(  0-C , 20-H ) :   0.9781 B(  0-C , 21-H ) :   0.9775
B(  0-C , 22-H ) :   0.9756 B(  1-C ,  2-O ) :   0.9024 B(  1-C , 23-H ) :   0.9681
B(  1-C , 24-H ) :   0.9822 B(  2-O ,  3-C ) :   1.0741 B(  3-C ,  4-O ) :   2.0485
B(  3-C ,  5-C ) :   1.0155 B(  5-C ,  6-C ) :   1.6677 B(  5-C , 12-C ) :   0.9483
B(  6-C ,  7-C ) :   0.9511 B(  6-C ,  8-N ) :   1.1366 B(  7-C , 25-H ) :   0.9658
B(  7-C , 26-H ) :   0.9900 B(  7-C , 27-H ) :   0.9653 B(  8-N ,  9-C ) :   1.1849
B(  8-N , 28-H ) :   0.9473 B(  9-C , 10-S ) :   1.6117 B(  9-C , 11-N ) :   1.3030
B( 11-N , 12-C ) :   0.9799 B( 11-N , 29-H ) :   0.9485 B( 12-C , 13-C ) :   0.9712
B( 12-C , 30-H ) :   0.9947 B( 13-C , 14-C ) :   1.3811 B( 13-C , 19-C ) :   1.3607
B( 14-C , 15-C ) :   1.3965 B( 14-C , 31-H ) :   0.9618 B( 15-C , 16-C ) :   1.3598
B( 15-C , 32-H ) :   0.9707 B( 16-C , 17-C ) :   1.3326 B( 16-C , 33-H ) :   0.9855
B( 17-C , 18-O ) :   1.1051 B( 17-C , 19-C ) :   1.3663 B( 18-O , 34-H ) :   0.9801
B( 19-C , 35-H ) :   0.9597

MP2 TOTAL ENERGY:    -1274.327072935 Eh
FINAL SINGLE POINT ENERGY     -1274.327072934600

DIPOLE MOMENT
-------------
                                X             Y             Z
Electronic contribution:     11.25836       7.65033       9.69903
Nuclear contribution   :    -12.68727      -8.92551     -10.36731
                        -----------------------------------------
Total Dipole Moment    :     -1.42891      -1.27518      -0.66828
                        -----------------------------------------
Magnitude (a.u.)       :      2.02842
Magnitude (Debye)      :      5.15582

Rotational constants in cm-1:     0.009961     0.009340     0.006019
Rotational constants in MHz :   298.619316   280.019133   180.446110

                             ****ORCA TERMINATED NORMALLY****
TOTAL RUN TIME: 0 days 1 hours 47 minutes 8 seconds 389 msec
