                         Program Version 4.2.0 -  RELEASE  -
|  1> ! ri-mp2 cc-pvtz cc-pvtz/c TightSCF NoKeepInts
|  2>
|  3> %scf
|  4>   MaxCore 4096
|  5> end
|  6> *xyz  0  1
|  7>     C       14.6611266   14.3855769   15.8210138
|  8>     C       15.0649580   15.8573776   16.0041727
|  9>     O       16.3552124   16.0269616   15.3903463
| 10>     C       16.7952848   17.2946657   15.1544072
| 11>     O       16.9656416   17.6878457   14.0153274
| 12>     C       16.9913106   18.1403292   16.3809894
| 13>     C       16.9287195   19.4902902   16.2626875
| 14>     C       16.2859747   20.2681130   15.1333561
| 15>     N       17.4695363   20.3307260   17.2371685
| 16>     C       18.3097110   19.9101411   18.2321977
| 17>     S       19.0213321   20.9684295   19.2848803
| 18>     N       18.5507945   18.5606920   18.2960892
| 19>     C       17.8552655   17.5295497   17.5010636
| 20>     C       17.2063566   16.4617230   18.3684451
| 21>     C       17.5535005   15.1066231   18.2170457
| 22>     C       16.9517602   14.1225746   19.0191291
| 23>     C       16.0006023   14.4974799   19.9835263
| 24>     C       15.6606188   15.8478866   20.1429064
| 25>     O       14.7410259   16.2126307   21.0709241
| 26>     C       16.2597365   16.8254526   19.3420433
| 27>     H       13.6646314   14.2039406   16.2412655
| 28>     H       15.3740372   13.7250018   16.3297447
| 29>     H       14.6409091   14.1195047   14.7566625
| 30>     H       14.3254557   16.4917814   15.4969988
| 31>     H       15.0678866   16.1206544   17.0657730
| 32>     H       15.4013362   19.7467994   14.7469996
| 33>     H       16.9888802   20.3796564   14.2972380
| 34>     H       15.9630910   21.2697233   15.4412729
| 35>     H       17.3338939   21.3271716   17.1722764
| 36>     H       19.1636486   18.2778661   19.0508485
| 37>     H       18.7221549   17.1006092   16.9777911
| 38>     H       18.2825959   14.8138017   17.4654192
| 39>     H       17.2225138   13.0756980   18.8910622
| 40>     H       15.5332497   13.7402768   20.6047659
| 41>     H       14.4866624   15.4156074   21.5604275
| 42>     H       15.9875850   17.8668382   19.4817347
| 43> *
| 44>
| 45>                          ****END OF INPUT****

CARTESIAN COORDINATES (ANGSTROEM)
---------------------------------
  C     14.661127   14.385577   15.821014
  C     15.064958   15.857378   16.004173
  O     16.355212   16.026962   15.390346
  C     16.795285   17.294666   15.154407
  O     16.965642   17.687846   14.015327
  C     16.991311   18.140329   16.380989
  C     16.928719   19.490290   16.262687
  C     16.285975   20.268113   15.133356
  N     17.469536   20.330726   17.237168
  C     18.309711   19.910141   18.232198
  S     19.021332   20.968429   19.284880
  N     18.550794   18.560692   18.296089
  C     17.855266   17.529550   17.501064
  C     17.206357   16.461723   18.368445
  C     17.553500   15.106623   18.217046
  C     16.951760   14.122575   19.019129
  C     16.000602   14.497480   19.983526
  C     15.660619   15.847887   20.142906
  O     14.741026   16.212631   21.070924
  C     16.259736   16.825453   19.342043
  H     13.664631   14.203941   16.241266
  H     15.374037   13.725002   16.329745
  H     14.640909   14.119505   14.756662
  H     14.325456   16.491781   15.496999
  H     15.067887   16.120654   17.065773
  H     15.401336   19.746799   14.747000
  H     16.988880   20.379656   14.297238
  H     15.963091   21.269723   15.441273
  H     17.333894   21.327172   17.172276
  H     19.163649   18.277866   19.050849
  H     18.722155   17.100609   16.977791
  H     18.282596   14.813802   17.465419
  H     17.222514   13.075698   18.891062
  H     15.533250   13.740277   20.604766
  H     14.486662   15.415607   21.560427
  H     15.987585   17.866838   19.481735

 Total Charge           Charge          ....    0
 Multiplicity           Mult            ....    1
 Number of Electrons    NEL             ....  154
 Basis Dimension        Dim             ....  828

ORBITAL ENERGIES
----------------

  NO   OCC          E(Eh)            E(eV)
   0   2.0000     -91.891422     -2500.4927
   1   2.0000     -20.603129      -560.6396
   2   2.0000     -20.587678      -560.2192
   3   2.0000     -20.551644      -559.2387
   4   2.0000     -15.629862      -425.3102
   5   2.0000     -15.610762      -424.7904
   6   2.0000     -11.392474      -310.0050
   7   2.0000     -11.386094      -309.8314
   8   2.0000     -11.335453      -308.4534
   9   2.0000     -11.321283      -308.0678
  10   2.0000     -11.315378      -307.9071
  11   2.0000     -11.297134      -307.4106
  12   2.0000     -11.267966      -306.6170
  13   2.0000     -11.262273      -306.4620
  14   2.0000     -11.257973      -306.3450
  15   2.0000     -11.254918      -306.2619
  16   2.0000     -11.251319      -306.1640
  17   2.0000     -11.246059      -306.0208
  18   2.0000     -11.245572      -306.0076
  19   2.0000     -11.227947      -305.5280
  20   2.0000      -8.896474      -242.0854
  21   2.0000      -6.578040      -178.9976
  22   2.0000      -6.576047      -178.9433
  23   2.0000      -6.575450      -178.9271
  24   2.0000      -1.448392       -39.4127
  25   2.0000      -1.422927       -38.7198
  26   2.0000      -1.358149       -36.9571
  27   2.0000      -1.342401       -36.5286
  28   2.0000      -1.241369       -33.7794
  29   2.0000      -1.164542       -31.6888
  30   2.0000      -1.123798       -30.5801
  31   2.0000      -1.049087       -28.5471
  32   2.0000      -1.035216       -28.1697
  33   2.0000      -1.022711       -27.8294
  34   2.0000      -1.001387       -27.2491
  35   2.0000      -0.988613       -26.9015
  36   2.0000      -0.926506       -25.2115
  37   2.0000      -0.875454       -23.8223
  38   2.0000      -0.851492       -23.1703
  39   2.0000      -0.843814       -22.9613
  40   2.0000      -0.841478       -22.8978
  41   2.0000      -0.836337       -22.7579
  42   2.0000      -0.762341       -20.7444
  43   2.0000      -0.739033       -20.1101
  44   2.0000      -0.726827       -19.7780
  45   2.0000      -0.701556       -19.0903
  46   2.0000      -0.691052       -18.8045
  47   2.0000      -0.681264       -18.5381
  48   2.0000      -0.674891       -18.3647
  49   2.0000      -0.658578       -17.9208
  50   2.0000      -0.649097       -17.6628
  51   2.0000      -0.648456       -17.6454
  52   2.0000      -0.639904       -17.4127
  53   2.0000      -0.614811       -16.7298
  54   2.0000      -0.609651       -16.5894
  55   2.0000      -0.604323       -16.4445
  56   2.0000      -0.601074       -16.3560
  57   2.0000      -0.582220       -15.8430
  58   2.0000      -0.574923       -15.6444
  59   2.0000      -0.566406       -15.4127
  60   2.0000      -0.555588       -15.1183
  61   2.0000      -0.547868       -14.9083
  62   2.0000      -0.542163       -14.7530
  63   2.0000      -0.528973       -14.3941
  64   2.0000      -0.518487       -14.1088
  65   2.0000      -0.517142       -14.0721
  66   2.0000      -0.506565       -13.7843
  67   2.0000      -0.501479       -13.6459
  68   2.0000      -0.484135       -13.1740
  69   2.0000      -0.468229       -12.7412
  70   2.0000      -0.458572       -12.4784
  71   2.0000      -0.450766       -12.2660
  72   2.0000      -0.357419        -9.7259
  73   2.0000      -0.352956        -9.6044
  74   2.0000      -0.330921        -9.0048
  75   2.0000      -0.328487        -8.9386
  76   2.0000      -0.321370        -8.7449
  77   0.0000       0.075879         2.0648
  78   0.0000       0.097263         2.6467
  79   0.0000       0.121504         3.3063
  80   0.0000       0.127093         3.4584
  81   0.0000       0.128005         3.4832

MULLIKEN ATOMIC CHARGES
-----------------------
   0 C :   -0.263588
   1 C :    0.010790
   2 O :   -0.340516
   3 C :    0.413441
   4 O :   -0.368530
   5 C :   -0.233335
   6 C :    0.155722
   7 C :   -0.271708
   8 N :   -0.129904
   9 C :    0.208370
  10 S :   -0.437349
  11 N :   -0.209693
  12 C :    0.038135
  13 C :   -0.014352
  14 C :   -0.146957
  15 C :   -0.157064
  16 C :   -0.263971
  17 C :    0.302071
  18 O :   -0.355494
  19 C :   -0.228779
  20 H :    0.088698
  21 H :    0.095228
  22 H :    0.107972
  23 H :    0.101790
  24 H :    0.116236
  25 H :    0.119966
  26 H :    0.139831
  27 H :    0.095921
  28 H :    0.199555
  29 H :    0.200148
  30 H :    0.153826
  31 H :    0.155742
  32 H :    0.169670
  33 H :    0.135144
  34 H :    0.241452
  35 H :    0.171535
Sum of atomic charges:    0.0000000

LOEWDIN ATOMIC CHARGES
----------------------
   0 C :    0.111565
   1 C :   -0.023577
   2 O :    0.300989
   3 C :   -0.427932
   4 O :    0.129077
   5 C :   -0.102445
   6 C :   -0.064780
   7 C :    0.129461
   8 N :    0.406901
   9 C :   -0.457217
  10 S :   -0.033200
  11 N :    0.395495
  12 C :   -0.053388
  13 C :   -0.044998
  14 C :    0.021621
  15 C :    0.044166
  16 C :    0.001317
  17 C :   -0.192521
  18 O :    0.396663
  19 C :    0.031430
  20 H :   -0.025629
  21 H :   -0.029054
  22 H :   -0.024096
  23 H :   -0.033396
  24 H :   -0.037587
  25 H :   -0.008047
  26 H :   -0.004137
  27 H :   -0.021999
  28 H :   -0.056434
  29 H :   -0.063383
  30 H :   -0.011300
  31 H :   -0.026465
  32 H :   -0.019323
  33 H :   -0.033729
  34 H :   -0.152519
  35 H :   -0.021528

  Mayer bond orders larger than 0.100000
B(  0-C ,  1-C ) :   0.9829 B(  0-C , 20-H ) :   0.9764 B(  0-C , 21-H ) :   0.9768
B(  0-C , 22-H ) :   0.9781 B(  1-C ,  2-O ) :   0.8840 B(  1-C , 23-H ) :   0.9811
B(  1-C , 24-H ) :   0.9593 B(  2-O ,  3-C ) :   1.1464 B(  3-C ,  4-O ) :   2.1145
B(  3-C ,  5-C ) :   0.9753 B(  5-C ,  6-C ) :   1.6589 B(  5-C , 12-C ) :   0.9580
B(  6-C ,  7-C ) :   0.9584 B(  6-C ,  8-N ) :   1.1432 B(  7-C , 25-H ) :   0.9728
B(  7-C , 26-H ) :   0.9544 B(  7-C , 27-H ) :   0.9854 B(  8-N ,  9-C ) :   1.1906
B(  8-N , 28-H ) :   0.9483 B(  9-C , 10-S ) :   1.6155 B(  9-C , 11-N ) :   1.2947
B( 11-N , 12-C ) :   0.9797 B( 11-N , 29-H ) :   0.9475 B( 12-C , 13-C ) :   0.9625
B( 12-C , 30-H ) :   1.0059 B( 13-C , 14-C ) :   1.3694 B( 13-C , 19-C ) :   1.3600
B( 14-C , 15-C ) :   1.3892 B( 14-C , 31-H ) :   0.9690 B( 15-C , 16-C ) :   1.3585
B( 15-C , 32-H ) :   0.9683 B( 16-C , 17-C ) :   1.3318 B( 16-C , 33-H ) :   0.9830
B( 17-C , 18-O ) :   1.1096 B( 17-C , 19-C ) :   1.3656 B( 18-O , 34-H ) :   0.9789
B( 19-C , 35-H ) :   0.9587

MP2 TOTAL ENERGY:    -1274.324587779 Eh
FINAL SINGLE POINT ENERGY     -1274.324587779063

DIPOLE MOMENT
-------------
                                X             Y             Z
Electronic contribution:      9.91476      10.22361       6.25945
Nuclear contribution   :    -11.34745     -11.72509      -6.00619
                        -----------------------------------------
Total Dipole Moment    :     -1.43269      -1.50148       0.25326
                        -----------------------------------------
Magnitude (a.u.)       :      2.09074
Magnitude (Debye)      :      5.31424

Rotational constants in cm-1:     0.012402     0.008770     0.005960
Rotational constants in MHz :   371.811574   262.905299   178.675862

                             ****ORCA TERMINATED NORMALLY****
TOTAL RUN TIME: 0 days 1 hours 43 minutes 55 seconds 610 msec
