                         Program Version 4.2.0 -  RELEASE  -
|  1> ! ri-mp2 cc-pvtz cc-pvtz/c TightSCF NoKeepInts
|  2>
|  3> %scf
|  4>   MaxCore 4096
|  5> end
|  6> *xyz  0  1
|  7>     C       14.5645109   16.1737538   16.3891153
|  8>     C       15.1015276   16.1227191   14.9414048
|  9>     O       16.5195419   15.8360391   14.8795071
| 10>     C       17.5606793   16.4826723   15.5048998
| 11>     O       18.6991988   16.0664617   15.3975979
| 12>     C       17.2355178   17.5996218   16.4369765
| 13>     C       16.8735384   18.8057376   15.9372703
| 14>     C       16.5277270   19.1354532   14.4994593
| 15>     N       16.8873060   19.9471824   16.7407281
| 16>     C       17.4966286   20.0152032   17.9659298
| 17>     S       17.5865915   21.4301376   18.8168913
| 18>     N       18.0548023   18.8519906   18.4364799
| 19>     C       17.8968941   17.5221516   17.8139191
| 20>     C       17.2845170   16.4571940   18.7111643
| 21>     C       17.7873232   15.1439985   18.6876876
| 22>     C       17.2130693   14.1450494   19.4912065
| 23>     C       16.1249918   14.4617489   20.3225120
| 24>     C       15.6187482   15.7686084   20.3437597
| 25>     O       14.5612949   16.0743837   21.1367595
| 26>     C       16.1921824   16.7614183   19.5428213
| 27>     H       15.0360871   15.4001245   17.0089137
| 28>     H       13.4834958   15.9884775   16.3931596
| 29>     H       14.7214792   17.1507296   16.8585072
| 30>     H       14.5757245   15.3201692   14.4077576
| 31>     H       14.8629035   17.0575087   14.4231118
| 32>     H       16.8162886   18.3401600   13.8015754
| 33>     H       17.0565488   20.0385594   14.1679409
| 34>     H       15.4524660   19.3174396   14.3841604
| 35>     H       16.5209717   20.8173419   16.3878650
| 36>     H       18.4999129   18.9275756   19.3426517
| 37>     H       18.9522792   17.2791105   17.6188470
| 38>     H       18.6214842   14.8956852   18.0341371
| 39>     H       17.6094290   13.1313433   19.4636584
| 40>     H       15.6773009   13.6924118   20.9429815
| 41>     H       14.3333991   15.2767569   21.6378631
| 42>     H       15.7806384   17.7650812   19.5687795
| 43> *
| 44>
| 45>                          ****END OF INPUT****

CARTESIAN COORDINATES (ANGSTROEM)
---------------------------------
  C     14.564511   16.173754   16.389115
  C     15.101528   16.122719   14.941405
  O     16.519542   15.836039   14.879507
  C     17.560679   16.482672   15.504900
  O     18.699199   16.066462   15.397598
  C     17.235518   17.599622   16.436977
  C     16.873538   18.805738   15.937270
  C     16.527727   19.135453   14.499459
  N     16.887306   19.947182   16.740728
  C     17.496629   20.015203   17.965930
  S     17.586592   21.430138   18.816891
  N     18.054802   18.851991   18.436480
  C     17.896894   17.522152   17.813919
  C     17.284517   16.457194   18.711164
  C     17.787323   15.143999   18.687688
  C     17.213069   14.145049   19.491207
  C     16.124992   14.461749   20.322512
  C     15.618748   15.768608   20.343760
  O     14.561295   16.074384   21.136760
  C     16.192182   16.761418   19.542821
  H     15.036087   15.400125   17.008914
  H     13.483496   15.988478   16.393160
  H     14.721479   17.150730   16.858507
  H     14.575724   15.320169   14.407758
  H     14.862903   17.057509   14.423112
  H     16.816289   18.340160   13.801575
  H     17.056549   20.038559   14.167941
  H     15.452466   19.317440   14.384160
  H     16.520972   20.817342   16.387865
  H     18.499913   18.927576   19.342652
  H     18.952279   17.279111   17.618847
  H     18.621484   14.895685   18.034137
  H     17.609429   13.131343   19.463658
  H     15.677301   13.692412   20.942981
  H     14.333399   15.276757   21.637863
  H     15.780638   17.765081   19.568780

 Total Charge           Charge          ....    0
 Multiplicity           Mult            ....    1
 Number of Electrons    NEL             ....  154
 Basis Dimension        Dim             ....  828

ORBITAL ENERGIES
----------------

  NO   OCC          E(Eh)            E(eV)
   0   2.0000     -91.889476     -2500.4398
   1   2.0000     -20.601695      -560.6006
   2   2.0000     -20.599519      -560.5414
   3   2.0000     -20.549992      -559.1937
   4   2.0000     -15.626830      -425.2277
   5   2.0000     -15.609692      -424.7613
   6   2.0000     -11.401377      -310.2472
   7   2.0000     -11.385492      -309.8150
   8   2.0000     -11.330860      -308.3284
   9   2.0000     -11.316901      -307.9485
  10   2.0000     -11.311249      -307.7947
  11   2.0000     -11.311191      -307.7932
  12   2.0000     -11.268872      -306.6416
  13   2.0000     -11.264713      -306.5284
  14   2.0000     -11.264337      -306.5182
  15   2.0000     -11.257624      -306.3355
  16   2.0000     -11.246135      -306.0229
  17   2.0000     -11.241562      -305.8985
  18   2.0000     -11.239563      -305.8441
  19   2.0000     -11.231523      -305.6253
  20   2.0000      -8.894589      -242.0341
  21   2.0000      -6.576174      -178.9468
  22   2.0000      -6.574157      -178.8919
  23   2.0000      -6.573578      -178.8761
  24   2.0000      -1.445333       -39.3295
  25   2.0000      -1.419250       -38.6198
  26   2.0000      -1.359805       -37.0022
  27   2.0000      -1.340595       -36.4794
  28   2.0000      -1.239247       -33.7216
  29   2.0000      -1.161434       -31.6042
  30   2.0000      -1.126682       -30.6586
  31   2.0000      -1.048768       -28.5384
  32   2.0000      -1.038695       -28.2643
  33   2.0000      -1.019446       -27.7405
  34   2.0000      -1.007219       -27.4078
  35   2.0000      -0.990458       -26.9517
  36   2.0000      -0.927280       -25.2326
  37   2.0000      -0.898895       -24.4602
  38   2.0000      -0.853801       -23.2331
  39   2.0000      -0.841689       -22.9035
  40   2.0000      -0.836787       -22.7701
  41   2.0000      -0.830152       -22.5896
  42   2.0000      -0.747299       -20.3350
  43   2.0000      -0.739367       -20.1192
  44   2.0000      -0.732354       -19.9284
  45   2.0000      -0.696906       -18.9638
  46   2.0000      -0.689051       -18.7500
  47   2.0000      -0.679492       -18.4899
  48   2.0000      -0.674436       -18.3523
  49   2.0000      -0.663900       -18.0656
  50   2.0000      -0.652850       -17.7650
  51   2.0000      -0.650719       -17.7070
  52   2.0000      -0.638798       -17.3826
  53   2.0000      -0.615850       -16.7581
  54   2.0000      -0.611256       -16.6331
  55   2.0000      -0.607645       -16.5349
  56   2.0000      -0.603217       -16.4144
  57   2.0000      -0.589535       -16.0421
  58   2.0000      -0.578300       -15.7363
  59   2.0000      -0.573315       -15.6007
  60   2.0000      -0.563965       -15.3463
  61   2.0000      -0.557531       -15.1712
  62   2.0000      -0.541144       -14.7253
  63   2.0000      -0.531456       -14.4617
  64   2.0000      -0.521165       -14.1816
  65   2.0000      -0.512912       -13.9570
  66   2.0000      -0.504803       -13.7364
  67   2.0000      -0.501674       -13.6512
  68   2.0000      -0.486457       -13.2372
  69   2.0000      -0.464462       -12.6386
  70   2.0000      -0.454430       -12.3657
  71   2.0000      -0.452704       -12.3187
  72   2.0000      -0.356111        -9.6903
  73   2.0000      -0.350080        -9.5262
  74   2.0000      -0.329092        -8.9550
  75   2.0000      -0.325042        -8.8448
  76   2.0000      -0.319494        -8.6939
  77   0.0000       0.087859         2.3908
  78   0.0000       0.105595         2.8734
  79   0.0000       0.113247         3.0816
  80   0.0000       0.127365         3.4658
  81   0.0000       0.129833         3.5329

MULLIKEN ATOMIC CHARGES
-----------------------
   0 C :   -0.325407
   1 C :    0.029130
   2 O :   -0.323189
   3 C :    0.425591
   4 O :   -0.382778
   5 C :   -0.226533
   6 C :    0.163536
   7 C :   -0.342415
   8 N :   -0.142135
   9 C :    0.209024
  10 S :   -0.443796
  11 N :   -0.228244
  12 C :    0.074138
  13 C :    0.014577
  14 C :   -0.223168
  15 C :   -0.130563
  16 C :   -0.277847
  17 C :    0.315850
  18 O :   -0.356332
  19 C :   -0.250447
  20 H :    0.125862
  21 H :    0.114254
  22 H :    0.109713
  23 H :    0.132098
  24 H :    0.085071
  25 H :    0.130989
  26 H :    0.136002
  27 H :    0.123160
  28 H :    0.197665
  29 H :    0.204077
  30 H :    0.170394
  31 H :    0.176907
  32 H :    0.164673
  33 H :    0.132403
  34 H :    0.241311
  35 H :    0.176430
Sum of atomic charges:   -0.0000000

LOEWDIN ATOMIC CHARGES
----------------------
   0 C :    0.101889
   1 C :   -0.015967
   2 O :    0.298367
   3 C :   -0.415576
   4 O :    0.120260
   5 C :   -0.077586
   6 C :   -0.094810
   7 C :    0.123089
   8 N :    0.402223
   9 C :   -0.456966
  10 S :   -0.039083
  11 N :    0.396740
  12 C :   -0.048082
  13 C :   -0.043363
  14 C :    0.018779
  15 C :    0.044532
  16 C :   -0.000540
  17 C :   -0.191349
  18 O :    0.395795
  19 C :    0.029795
  20 H :   -0.019751
  21 H :   -0.025104
  22 H :   -0.035318
  23 H :   -0.018002
  24 H :   -0.038462
  25 H :   -0.008109
  26 H :   -0.009288
  27 H :   -0.018491
  28 H :   -0.057452
  29 H :   -0.063580
  30 H :   -0.002939
  31 H :   -0.021334
  32 H :   -0.018332
  33 H :   -0.034710
  34 H :   -0.153216
  35 H :   -0.024059

  Mayer bond orders larger than 0.100000
B(  0-C ,  1-C ) :   0.9496 B(  0-C , 20-H ) :   0.9686 B(  0-C , 21-H ) :   0.9773
B(  0-C , 22-H ) :   0.9733 B(  1-C ,  2-O ) :   0.9070 B(  1-C , 23-H ) :   0.9827
B(  1-C , 24-H ) :   0.9736 B(  2-O ,  3-C ) :   1.1810 B(  3-C ,  4-O ) :   2.0920
B(  3-C ,  5-C ) :   0.9172 B(  5-C ,  6-C ) :   1.7235 B(  5-C , 12-C ) :   0.9343
B(  6-C ,  7-C ) :   0.9377 B(  6-C ,  8-N ) :   1.0981 B(  7-C , 25-H ) :   0.9777
B(  7-C , 26-H ) :   0.9731 B(  7-C , 27-H ) :   0.9664 B(  8-N ,  9-C ) :   1.2004
B(  8-N , 28-H ) :   0.9514 B(  9-C , 10-S ) :   1.6081 B(  9-C , 11-N ) :   1.2895
B( 11-N , 12-C ) :   0.9798 B( 11-N , 29-H ) :   0.9470 B( 12-C , 13-C ) :   0.9669
B( 12-C , 30-H ) :   0.9884 B( 13-C , 14-C ) :   1.3871 B( 13-C , 19-C ) :   1.3481
B( 14-C , 15-C ) :   1.3968 B( 14-C , 31-H ) :   0.9593 B( 15-C , 16-C ) :   1.3604
B( 15-C , 32-H ) :   0.9698 B( 16-C , 17-C ) :   1.3304 B( 16-C , 33-H ) :   0.9847
B( 17-C , 18-O ) :   1.1099 B( 17-C , 19-C ) :   1.3672 B( 18-O , 34-H ) :   0.9794
B( 19-C , 35-H ) :   0.9560

MP2 TOTAL ENERGY:    -1274.324459679 Eh
FINAL SINGLE POINT ENERGY     -1274.324459678643

DIPOLE MOMENT
-------------
                                X             Y             Z
Electronic contribution:      8.64168       6.50605       6.80773
Nuclear contribution   :    -10.28648      -7.73783      -7.36609
                        -----------------------------------------
Total Dipole Moment    :     -1.64480      -1.23177      -0.55836
                        -----------------------------------------
Magnitude (a.u.)       :      2.12941
Magnitude (Debye)      :      5.41253

Rotational constants in cm-1:     0.011668     0.009249     0.006516
Rotational constants in MHz :   349.784934   277.270536   195.357477

                             ****ORCA TERMINATED NORMALLY****
TOTAL RUN TIME: 0 days 2 hours 5 minutes 9 seconds 502 msec
