                         Program Version 4.2.0 -  RELEASE  -
|  1> ! ri-mp2 cc-pvtz cc-pvtz/c TightSCF NoKeepInts
|  2>
|  3> %scf
|  4>   MaxCore 4096
|  5> end
|  6> *xyz  0  1
|  7>     C       15.3664968   14.2663733   14.4409479
|  8>     C       14.9063295   15.2846124   15.4973688
|  9>     O       16.0132937   16.1668083   15.7529487
| 10>     C       15.8341282   17.5200547   15.6989631
| 11>     O       15.0028783   18.0352069   14.9709266
| 12>     C       16.6975679   18.2572654   16.6874422
| 13>     C       16.8556198   19.6033326   16.6038225
| 14>     C       16.0546888   20.5684437   15.7542951
| 15>     N       17.8495482   20.2581420   17.3348007
| 16>     C       18.8468672   19.6245894   18.0254804
| 17>     S       20.0497294   20.4617069   18.7923233
| 18>     N       18.8096408   18.2532388   18.0313504
| 19>     C       17.7249390   17.4240466   17.4727182
| 20>     C       17.1081870   16.4906215   18.5066075
| 21>     C       17.3096869   15.1002000   18.4279407
| 22>     C       16.7371666   14.2411800   19.3810601
| 23>     C       15.9605140   14.7777557   20.4224345
| 24>     C       15.7624200   16.1631191   20.5051498
| 25>     O       15.0138030   16.6837298   21.5098772
| 26>     C       16.3326690   17.0153175   19.5543053
| 27>     H       14.5639076   13.5525134   14.2194338
| 28>     H       16.2386888   13.7048632   14.7977853
| 29>     H       15.6388942   14.7764760   13.5083803
| 30>     H       14.0263016   15.8244916   15.1220876
| 31>     H       14.6221919   14.7672366   16.4230667
| 32>     H       14.9805410   20.4535127   15.9485631
| 33>     H       16.2175295   20.3715527   14.6869695
| 34>     H       16.3090228   21.6186061   15.9398840
| 35>     H       17.9011598   21.2641882   17.3201137
| 36>     H       19.5409790   17.8144836   18.5764055
| 37>     H       18.2842404   16.8520597   16.7187054
| 38>     H       17.9051058   14.6845443   17.6192736
| 39>     H       16.8963538   13.1665071   19.3114256
| 40>     H       15.5170420   14.1186658   21.1615415
| 41>     H       14.7352621   15.9491684   22.0770575
| 42>     H       16.1736055   18.0853856   19.6365438
| 43> *
| 44>
| 45>                          ****END OF INPUT****

CARTESIAN COORDINATES (ANGSTROEM)
---------------------------------
  C     15.366497   14.266373   14.440948
  C     14.906329   15.284612   15.497369
  O     16.013294   16.166808   15.752949
  C     15.834128   17.520055   15.698963
  O     15.002878   18.035207   14.970927
  C     16.697568   18.257265   16.687442
  C     16.855620   19.603333   16.603822
  C     16.054689   20.568444   15.754295
  N     17.849548   20.258142   17.334801
  C     18.846867   19.624589   18.025480
  S     20.049729   20.461707   18.792323
  N     18.809641   18.253239   18.031350
  C     17.724939   17.424047   17.472718
  C     17.108187   16.490621   18.506607
  C     17.309687   15.100200   18.427941
  C     16.737167   14.241180   19.381060
  C     15.960514   14.777756   20.422435
  C     15.762420   16.163119   20.505150
  O     15.013803   16.683730   21.509877
  C     16.332669   17.015317   19.554305
  H     14.563908   13.552513   14.219434
  H     16.238689   13.704863   14.797785
  H     15.638894   14.776476   13.508380
  H     14.026302   15.824492   15.122088
  H     14.622192   14.767237   16.423067
  H     14.980541   20.453513   15.948563
  H     16.217530   20.371553   14.686969
  H     16.309023   21.618606   15.939884
  H     17.901160   21.264188   17.320114
  H     19.540979   17.814484   18.576405
  H     18.284240   16.852060   16.718705
  H     17.905106   14.684544   17.619274
  H     16.896354   13.166507   19.311426
  H     15.517042   14.118666   21.161541
  H     14.735262   15.949168   22.077057
  H     16.173606   18.085386   19.636544

 Total Charge           Charge          ....    0
 Multiplicity           Mult            ....    1
 Number of Electrons    NEL             ....  154
 Basis Dimension        Dim             ....  828

ORBITAL ENERGIES
----------------

  NO   OCC          E(Eh)            E(eV)
   0   2.0000     -91.889290     -2500.4347
   1   2.0000     -20.597223      -560.4789
   2   2.0000     -20.596788      -560.4671
   3   2.0000     -20.542006      -558.9764
   4   2.0000     -15.629675      -425.3051
   5   2.0000     -15.607398      -424.6989
   6   2.0000     -11.394603      -310.0629
   7   2.0000     -11.383934      -309.7726
   8   2.0000     -11.337733      -308.5154
   9   2.0000     -11.314548      -307.8845
  10   2.0000     -11.307930      -307.7044
  11   2.0000     -11.294864      -307.3489
  12   2.0000     -11.261577      -306.4431
  13   2.0000     -11.258756      -306.3663
  14   2.0000     -11.256029      -306.2921
  15   2.0000     -11.251931      -306.1806
  16   2.0000     -11.244428      -305.9764
  17   2.0000     -11.239759      -305.8494
  18   2.0000     -11.239502      -305.8424
  19   2.0000     -11.227517      -305.5163
  20   2.0000      -8.894355      -242.0277
  21   2.0000      -6.575926      -178.9400
  22   2.0000      -6.573930      -178.8857
  23   2.0000      -6.573337      -178.8696
  24   2.0000      -1.450295       -39.4645
  25   2.0000      -1.416893       -38.5556
  26   2.0000      -1.354187       -36.8493
  27   2.0000      -1.340745       -36.4835
  28   2.0000      -1.238628       -33.7048
  29   2.0000      -1.158322       -31.5195
  30   2.0000      -1.121428       -30.5156
  31   2.0000      -1.043546       -28.3963
  32   2.0000      -1.038637       -28.2628
  33   2.0000      -1.015839       -27.6424
  34   2.0000      -0.996523       -27.1168
  35   2.0000      -0.984941       -26.8016
  36   2.0000      -0.922271       -25.0963
  37   2.0000      -0.887301       -24.1447
  38   2.0000      -0.846845       -23.0438
  39   2.0000      -0.838595       -22.8193
  40   2.0000      -0.834965       -22.7206
  41   2.0000      -0.819807       -22.3081
  42   2.0000      -0.763660       -20.7803
  43   2.0000      -0.734302       -19.9814
  44   2.0000      -0.722605       -19.6631
  45   2.0000      -0.695890       -18.9361
  46   2.0000      -0.688176       -18.7262
  47   2.0000      -0.679383       -18.4870
  48   2.0000      -0.673288       -18.3211
  49   2.0000      -0.654049       -17.7976
  50   2.0000      -0.648045       -17.6342
  51   2.0000      -0.640172       -17.4200
  52   2.0000      -0.627899       -17.0860
  53   2.0000      -0.616642       -16.7797
  54   2.0000      -0.607408       -16.5284
  55   2.0000      -0.600690       -16.3456
  56   2.0000      -0.599584       -16.3155
  57   2.0000      -0.578292       -15.7361
  58   2.0000      -0.570333       -15.5196
  59   2.0000      -0.566538       -15.4163
  60   2.0000      -0.563234       -15.3264
  61   2.0000      -0.541895       -14.7457
  62   2.0000      -0.534452       -14.5432
  63   2.0000      -0.527745       -14.3607
  64   2.0000      -0.524716       -14.2783
  65   2.0000      -0.513638       -13.9768
  66   2.0000      -0.501062       -13.6346
  67   2.0000      -0.496299       -13.5050
  68   2.0000      -0.486477       -13.2377
  69   2.0000      -0.464094       -12.6286
  70   2.0000      -0.455194       -12.3865
  71   2.0000      -0.447843       -12.1864
  72   2.0000      -0.353331        -9.6146
  73   2.0000      -0.350531        -9.5384
  74   2.0000      -0.328442        -8.9374
  75   2.0000      -0.322022        -8.7627
  76   2.0000      -0.318486        -8.6665
  77   0.0000       0.075477         2.0538
  78   0.0000       0.104140         2.8338
  79   0.0000       0.124218         3.3801
  80   0.0000       0.131933         3.5901
  81   0.0000       0.135130         3.6771

MULLIKEN ATOMIC CHARGES
-----------------------
   0 C :   -0.263835
   1 C :    0.014694
   2 O :   -0.357754
   3 C :    0.451123
   4 O :   -0.431473
   5 C :   -0.237561
   6 C :    0.173366
   7 C :   -0.267540
   8 N :   -0.126087
   9 C :    0.209680
  10 S :   -0.441038
  11 N :   -0.215317
  12 C :    0.063258
  13 C :    0.042349
  14 C :   -0.187889
  15 C :   -0.133487
  16 C :   -0.277370
  17 C :    0.316516
  18 O :   -0.356444
  19 C :   -0.248138
  20 H :    0.088920
  21 H :    0.089941
  22 H :    0.100443
  23 H :    0.120714
  24 H :    0.110446
  25 H :    0.133723
  26 H :    0.129299
  27 H :    0.094580
  28 H :    0.199952
  29 H :    0.200491
  30 H :    0.153058
  31 H :    0.155057
  32 H :    0.161801
  33 H :    0.130743
  34 H :    0.240611
  35 H :    0.163165
Sum of atomic charges:   -0.0000000

LOEWDIN ATOMIC CHARGES
----------------------
   0 C :    0.105342
   1 C :   -0.014179
   2 O :    0.309185
   3 C :   -0.415803
   4 O :    0.097372
   5 C :   -0.096722
   6 C :   -0.055737
   7 C :    0.131425
   8 N :    0.407320
   9 C :   -0.456582
  10 S :   -0.035879
  11 N :    0.394633
  12 C :   -0.054682
  13 C :   -0.039602
  14 C :    0.017177
  15 C :    0.038256
  16 C :   -0.001152
  17 C :   -0.189722
  18 O :    0.395211
  19 C :    0.033118
  20 H :   -0.026568
  21 H :   -0.030339
  22 H :   -0.024673
  23 H :   -0.027913
  24 H :   -0.030015
  25 H :   -0.004182
  26 H :   -0.004847
  27 H :   -0.023615
  28 H :   -0.057086
  29 H :   -0.064312
  30 H :   -0.013347
  31 H :   -0.029146
  32 H :   -0.021255
  33 H :   -0.035329
  34 H :   -0.153850
  35 H :   -0.022503

  Mayer bond orders larger than 0.100000
B(  0-C ,  1-C ) :   0.9762 B(  0-C , 20-H ) :   0.9759 B(  0-C , 21-H ) :   0.9798
B(  0-C , 22-H ) :   0.9787 B(  1-C ,  2-O ) :   0.8796 B(  1-C , 23-H ) :   0.9734
B(  1-C , 24-H ) :   0.9745 B(  2-O ,  3-C ) :   1.1479 B(  3-C ,  4-O ) :   1.9767
B(  3-C ,  5-C ) :   1.0687 B(  5-C ,  6-C ) :   1.6358 B(  5-C , 12-C ) :   0.9556
B(  6-C ,  7-C ) :   0.9651 B(  6-C ,  8-N ) :   1.1532 B(  7-C , 25-H ) :   0.9608
B(  7-C , 26-H ) :   0.9589 B(  7-C , 27-H ) :   0.9906 B(  8-N ,  9-C ) :   1.1871
B(  8-N , 28-H ) :   0.9463 B(  9-C , 10-S ) :   1.6072 B(  9-C , 11-N ) :   1.3088
B( 11-N , 12-C ) :   0.9696 B( 11-N , 29-H ) :   0.9485 B( 12-C , 13-C ) :   0.9608
B( 12-C , 30-H ) :   1.0013 B( 13-C , 14-C ) :   1.3520 B( 13-C , 19-C ) :   1.3807
B( 14-C , 15-C ) :   1.3918 B( 14-C , 31-H ) :   0.9712 B( 15-C , 16-C ) :   1.3586
B( 15-C , 32-H ) :   0.9705 B( 16-C , 17-C ) :   1.3338 B( 16-C , 33-H ) :   0.9849
B( 17-C , 18-O ) :   1.1052 B( 17-C , 19-C ) :   1.3644 B( 18-O , 34-H ) :   0.9798
B( 19-C , 35-H ) :   0.9595

MP2 TOTAL ENERGY:    -1274.339933174 Eh
FINAL SINGLE POINT ENERGY     -1274.339933174471

DIPOLE MOMENT
-------------
                                X             Y             Z
Electronic contribution:      8.83857      10.73403       9.35589
Nuclear contribution   :    -10.01889     -12.34213      -9.58212
                        -----------------------------------------
Total Dipole Moment    :     -1.18032      -1.60809      -0.22623
                        -----------------------------------------
Magnitude (a.u.)       :      2.00756
Magnitude (Debye)      :      5.10281

Rotational constants in cm-1:     0.011144     0.008490     0.005865
Rotational constants in MHz :   334.078735   254.515116   175.842633

                             ****ORCA TERMINATED NORMALLY****
TOTAL RUN TIME: 0 days 1 hours 40 minutes 38 seconds 930 msec
