                         Program Version 4.2.0 -  RELEASE  -
|  1> ! ri-mp2 cc-pvtz cc-pvtz/c TightSCF NoKeepInts
|  2>
|  3> %scf
|  4>   MaxCore 4096
|  5> end
|  6> *xyz  0  1
|  7>     C       14.5874960   15.7564621   16.1277933
|  8>     C       15.0997078   15.8168829   14.6701582
|  9>     O       16.2678992   16.6546691   14.5351392
| 10>     C       17.2349638   16.6277752   15.4945576
| 11>     O       17.9632545   15.6605131   15.6306144
| 12>     C       17.1872392   17.7631570   16.4752122
| 13>     C       16.8493667   19.0259178   16.1073720
| 14>     C       16.2693165   19.4793060   14.7825631
| 15>     N       17.0710351   20.1022524   16.9698616
| 16>     C       17.8166580   20.0338474   18.1161488
| 17>     S       18.1252002   21.3725865   19.0368348
| 18>     N       18.3119333   18.7983878   18.4501449
| 19>     C       17.9842335   17.5336558   17.7633263
| 20>     C       17.3482816   16.4947980   18.6768109
| 21>     C       17.8920059   15.2020297   18.7805535
| 22>     C       17.2927872   14.2394525   19.6100908
| 23>     C       16.1397675   14.5726534   20.3414500
| 24>     C       15.5943206   15.8595983   20.2374539
| 25>     O       14.4759511   16.1815343   20.9349671
| 26>     C       16.1930040   16.8155206   19.4108109
| 27>     H       15.3024311   15.2418579   16.7831823
| 28>     H       13.6430179   15.2008892   16.1733985
| 29>     H       14.4055309   16.7625933   16.5253851
| 30>     H       15.3494793   14.7976376   14.3460125
| 31>     H       14.3055328   16.1914693   14.0116963
| 32>     H       15.2549028   19.0846469   14.6470779
| 33>     H       16.8843200   19.1254510   13.9453069
| 34>     H       16.2111678   20.5711932   14.6957628
| 35>     H       16.7351944   21.0201461   16.7254037
| 36>     H       18.8428178   18.7719404   19.3116326
| 37>     H       18.9870834   17.2126462   17.4454010
| 38>     H       18.7728064   14.9382514   18.1994415
| 39>     H       17.7190714   13.2400447   19.6773698
| 40>     H       15.6725215   13.8312257   20.9810070
| 41>     H       14.2400079   15.4125467   21.4754046
| 42>     H       15.7566928   17.8064602   19.3426541
| 43> *
| 44>
| 45>                          ****END OF INPUT****

CARTESIAN COORDINATES (ANGSTROEM)
---------------------------------
  C     14.587496   15.756462   16.127793
  C     15.099708   15.816883   14.670158
  O     16.267899   16.654669   14.535139
  C     17.234964   16.627775   15.494558
  O     17.963254   15.660513   15.630614
  C     17.187239   17.763157   16.475212
  C     16.849367   19.025918   16.107372
  C     16.269316   19.479306   14.782563
  N     17.071035   20.102252   16.969862
  C     17.816658   20.033847   18.116149
  S     18.125200   21.372587   19.036835
  N     18.311933   18.798388   18.450145
  C     17.984233   17.533656   17.763326
  C     17.348282   16.494798   18.676811
  C     17.892006   15.202030   18.780553
  C     17.292787   14.239453   19.610091
  C     16.139768   14.572653   20.341450
  C     15.594321   15.859598   20.237454
  O     14.475951   16.181534   20.934967
  C     16.193004   16.815521   19.410811
  H     15.302431   15.241858   16.783182
  H     13.643018   15.200889   16.173399
  H     14.405531   16.762593   16.525385
  H     15.349479   14.797638   14.346013
  H     14.305533   16.191469   14.011696
  H     15.254903   19.084647   14.647078
  H     16.884320   19.125451   13.945307
  H     16.211168   20.571193   14.695763
  H     16.735194   21.020146   16.725404
  H     18.842818   18.771940   19.311633
  H     18.987083   17.212646   17.445401
  H     18.772806   14.938251   18.199441
  H     17.719071   13.240045   19.677370
  H     15.672522   13.831226   20.981007
  H     14.240008   15.412547   21.475405
  H     15.756693   17.806460   19.342654

 Total Charge           Charge          ....    0
 Multiplicity           Mult            ....    1
 Number of Electrons    NEL             ....  154
 Basis Dimension        Dim             ....  828

ORBITAL ENERGIES
----------------

  NO   OCC          E(Eh)            E(eV)
   0   2.0000     -91.889636     -2500.4441
   1   2.0000     -20.595469      -560.4312
   2   2.0000     -20.584844      -560.1421
   3   2.0000     -20.550998      -559.2211
   4   2.0000     -15.630251      -425.3208
   5   2.0000     -15.607367      -424.6980
   6   2.0000     -11.393812      -310.0414
   7   2.0000     -11.384423      -309.7859
   8   2.0000     -11.338787      -308.5441
   9   2.0000     -11.311693      -307.8068
  10   2.0000     -11.305784      -307.6460
  11   2.0000     -11.305557      -307.6398
  12   2.0000     -11.260924      -306.4253
  13   2.0000     -11.259734      -306.3929
  14   2.0000     -11.258329      -306.3547
  15   2.0000     -11.251797      -306.1770
  16   2.0000     -11.241971      -305.9096
  17   2.0000     -11.237639      -305.7917
  18   2.0000     -11.234488      -305.7060
  19   2.0000     -11.230475      -305.5968
  20   2.0000      -8.894710      -242.0374
  21   2.0000      -6.576284      -178.9498
  22   2.0000      -6.574283      -178.8953
  23   2.0000      -6.573692      -178.8793
  24   2.0000      -1.448503       -39.4158
  25   2.0000      -1.415257       -38.5111
  26   2.0000      -1.355719       -36.8910
  27   2.0000      -1.341330       -36.4994
  28   2.0000      -1.238535       -33.7023
  29   2.0000      -1.156119       -31.4596
  30   2.0000      -1.122404       -30.5422
  31   2.0000      -1.044373       -28.4188
  32   2.0000      -1.032334       -28.0912
  33   2.0000      -1.013610       -27.5817
  34   2.0000      -1.002045       -27.2670
  35   2.0000      -0.987155       -26.8619
  36   2.0000      -0.923590       -25.1322
  37   2.0000      -0.897099       -24.4113
  38   2.0000      -0.849516       -23.1165
  39   2.0000      -0.838203       -22.8087
  40   2.0000      -0.831867       -22.6363
  41   2.0000      -0.818648       -22.2766
  42   2.0000      -0.747458       -20.3394
  43   2.0000      -0.733949       -19.9718
  44   2.0000      -0.728313       -19.8184
  45   2.0000      -0.693177       -18.8623
  46   2.0000      -0.686852       -18.6902
  47   2.0000      -0.677617       -18.4389
  48   2.0000      -0.671108       -18.2618
  49   2.0000      -0.663209       -18.0468
  50   2.0000      -0.652508       -17.7556
  51   2.0000      -0.647269       -17.6131
  52   2.0000      -0.635542       -17.2940
  53   2.0000      -0.618048       -16.8179
  54   2.0000      -0.605275       -16.4704
  55   2.0000      -0.601674       -16.3724
  56   2.0000      -0.599099       -16.3023
  57   2.0000      -0.580452       -15.7949
  58   2.0000      -0.575604       -15.6630
  59   2.0000      -0.563558       -15.3352
  60   2.0000      -0.554996       -15.1022
  61   2.0000      -0.547867       -14.9082
  62   2.0000      -0.540949       -14.7200
  63   2.0000      -0.533235       -14.5100
  64   2.0000      -0.519818       -14.1450
  65   2.0000      -0.511403       -13.9160
  66   2.0000      -0.498473       -13.5641
  67   2.0000      -0.493034       -13.4161
  68   2.0000      -0.481800       -13.1104
  69   2.0000      -0.464998       -12.6532
  70   2.0000      -0.456454       -12.4208
  71   2.0000      -0.450205       -12.2507
  72   2.0000      -0.354384        -9.6433
  73   2.0000      -0.347747        -9.4627
  74   2.0000      -0.328702        -8.9444
  75   2.0000      -0.319177        -8.6853
  76   2.0000      -0.318511        -8.6671
  77   0.0000       0.072775         1.9803
  78   0.0000       0.106554         2.8995
  79   0.0000       0.117951         3.2096
  80   0.0000       0.132616         3.6087
  81   0.0000       0.138314         3.7637

MULLIKEN ATOMIC CHARGES
-----------------------
   0 C :   -0.338084
   1 C :    0.044716
   2 O :   -0.382263
   3 C :    0.458447
   4 O :   -0.396951
   5 C :   -0.229728
   6 C :    0.170904
   7 C :   -0.282758
   8 N :   -0.127707
   9 C :    0.206604
  10 S :   -0.440150
  11 N :   -0.211561
  12 C :    0.056115
  13 C :    0.012320
  14 C :   -0.169577
  15 C :   -0.134510
  16 C :   -0.278387
  17 C :    0.314640
  18 O :   -0.359116
  19 C :   -0.249909
  20 H :    0.127584
  21 H :    0.115656
  22 H :    0.102272
  23 H :    0.109857
  24 H :    0.106711
  25 H :    0.120245
  26 H :    0.131994
  27 H :    0.104584
  28 H :    0.198276
  29 H :    0.199165
  30 H :    0.156631
  31 H :    0.163865
  32 H :    0.161868
  33 H :    0.130577
  34 H :    0.240629
  35 H :    0.167040
Sum of atomic charges:   -0.0000000

LOEWDIN ATOMIC CHARGES
----------------------
   0 C :    0.104481
   1 C :   -0.016871
   2 O :    0.288158
   3 C :   -0.422891
   4 O :    0.121875
   5 C :   -0.094961
   6 C :   -0.067528
   7 C :    0.126392
   8 N :    0.405803
   9 C :   -0.457998
  10 S :   -0.036147
  11 N :    0.396265
  12 C :   -0.048317
  13 C :   -0.042793
  14 C :    0.023816
  15 C :    0.041336
  16 C :   -0.001159
  17 C :   -0.193647
  18 O :    0.393725
  19 C :    0.030876
  20 H :   -0.020854
  21 H :   -0.023039
  22 H :   -0.030970
  23 H :   -0.026414
  24 H :   -0.025356
  25 H :   -0.011188
  26 H :   -0.006529
  27 H :   -0.020398
  28 H :   -0.058443
  29 H :   -0.063416
  30 H :   -0.006982
  31 H :   -0.022913
  32 H :   -0.020073
  33 H :   -0.035499
  34 H :   -0.154188
  35 H :   -0.024155

  Mayer bond orders larger than 0.100000
B(  0-C ,  1-C ) :   0.9568 B(  0-C , 20-H ) :   0.9667 B(  0-C , 21-H ) :   0.9758
B(  0-C , 22-H ) :   0.9710 B(  1-C ,  2-O ) :   0.9024 B(  1-C , 23-H ) :   0.9860
B(  1-C , 24-H ) :   0.9818 B(  2-O ,  3-C ) :   1.0739 B(  3-C ,  4-O ) :   2.0411
B(  3-C ,  5-C ) :   1.0118 B(  5-C ,  6-C ) :   1.6657 B(  5-C , 12-C ) :   0.9502
B(  6-C ,  7-C ) :   0.9538 B(  6-C ,  8-N ) :   1.1393 B(  7-C , 25-H ) :   0.9657
B(  7-C , 26-H ) :   0.9645 B(  7-C , 27-H ) :   0.9901 B(  8-N ,  9-C ) :   1.1845
B(  8-N , 28-H ) :   0.9469 B(  9-C , 10-S ) :   1.6121 B(  9-C , 11-N ) :   1.3027
B( 11-N , 12-C ) :   0.9803 B( 11-N , 29-H ) :   0.9489 B( 12-C , 13-C ) :   0.9638
B( 12-C , 30-H ) :   0.9962 B( 13-C , 14-C ) :   1.3831 B( 13-C , 19-C ) :   1.3619
B( 14-C , 15-C ) :   1.3962 B( 14-C , 31-H ) :   0.9615 B( 15-C , 16-C ) :   1.3597
B( 15-C , 32-H ) :   0.9709 B( 16-C , 17-C ) :   1.3316 B( 16-C , 33-H ) :   0.9851
B( 17-C , 18-O ) :   1.1057 B( 17-C , 19-C ) :   1.3658 B( 18-O , 34-H ) :   0.9802
B( 19-C , 35-H ) :   0.9601

MP2 TOTAL ENERGY:    -1274.327151658 Eh
FINAL SINGLE POINT ENERGY     -1274.327151657593

DIPOLE MOMENT
-------------
                                X             Y             Z
Electronic contribution:      9.14280       8.34010       7.06028
Nuclear contribution   :    -10.57252      -9.57472      -7.79755
                        -----------------------------------------
Total Dipole Moment    :     -1.42972      -1.23463      -0.73728
                        -----------------------------------------
Magnitude (a.u.)       :      2.02780
Magnitude (Debye)      :      5.15426

Rotational constants in cm-1:     0.011325     0.009326     0.006348
Rotational constants in MHz :   339.527364   279.578128   190.294313

                             ****ORCA TERMINATED NORMALLY****
TOTAL RUN TIME: 0 days 1 hours 48 minutes 20 seconds 511 msec
