                         Program Version 4.2.0 -  RELEASE  -
|  1> ! ri-mp2 cc-pvtz cc-pvtz/c TightSCF NoKeepInts
|  2>
|  3> %scf
|  4>   MaxCore 4096
|  5> end
|  6> *xyz  0  1
|  7>     C       15.5661183   13.9594014   15.0023657
|  8>     C       14.9766761   15.3782098   15.0685026
|  9>     O       15.9418983   16.2119478   15.7291531
| 10>     C       15.8094119   17.5701641   15.6630723
| 11>     O       15.0285129   18.1074872   14.8956526
| 12>     C       16.6831730   18.2863941   16.6582421
| 13>     C       16.8830311   19.6266821   16.5693519
| 14>     C       16.1175667   20.6124077   15.7107788
| 15>     N       17.8903272   20.2548914   17.3053564
| 16>     C       18.8628544   19.5951396   18.0066520
| 17>     S       20.0852941   20.3995138   18.7776200
| 18>     N       18.7839930   18.2256659   18.0189012
| 19>     C       17.6783979   17.4269410   17.4568838
| 20>     C       17.0286889   16.5172225   18.4915040
| 21>     C       17.2020889   15.1222655   18.4288146
| 22>     C       16.6027305   14.2850335   19.3848315
| 23>     C       15.8275735   14.8482156   20.4131931
| 24>     C       15.6576207   16.2381812   20.4800398
| 25>     O       14.9109596   16.7843994   21.4726321
| 26>     C       16.2551228   17.0687484   19.5267930
| 27>     H       15.7501903   13.5714427   16.0119582
| 28>     H       16.5144620   13.9593983   14.4508496
| 29>     H       14.8725761   13.2786561   14.4939489
| 30>     H       14.7905964   15.7360662   14.0464107
| 31>     H       14.0270302   15.3796761   15.6197789
| 32>     H       15.0378822   20.5183570   15.8845533
| 33>     H       16.2964316   20.4183194   14.6455433
| 34>     H       16.3890524   21.6561626   15.9079007
| 35>     H       17.9724720   21.2588154   17.2861979
| 36>     H       19.4966865   17.7677730   18.5728178
| 37>     H       18.2261648   16.8345653   16.7102956
| 38>     H       17.7962805   14.6862654   17.6302033
| 39>     H       16.7392603   13.2066454   19.3270026
| 40>     H       15.3628540   14.2060127   21.1540235
| 41>     H       14.6047528   16.0602934   22.0389161
| 42>     H       16.1182680   18.1426392   19.5972590
| 43> *
| 44>
| 45>                          ****END OF INPUT****

CARTESIAN COORDINATES (ANGSTROEM)
---------------------------------
  C     15.566118   13.959401   15.002366
  C     14.976676   15.378210   15.068503
  O     15.941898   16.211948   15.729153
  C     15.809412   17.570164   15.663072
  O     15.028513   18.107487   14.895653
  C     16.683173   18.286394   16.658242
  C     16.883031   19.626682   16.569352
  C     16.117567   20.612408   15.710779
  N     17.890327   20.254891   17.305356
  C     18.862854   19.595140   18.006652
  S     20.085294   20.399514   18.777620
  N     18.783993   18.225666   18.018901
  C     17.678398   17.426941   17.456884
  C     17.028689   16.517222   18.491504
  C     17.202089   15.122265   18.428815
  C     16.602730   14.285034   19.384831
  C     15.827573   14.848216   20.413193
  C     15.657621   16.238181   20.480040
  O     14.910960   16.784399   21.472632
  C     16.255123   17.068748   19.526793
  H     15.750190   13.571443   16.011958
  H     16.514462   13.959398   14.450850
  H     14.872576   13.278656   14.493949
  H     14.790596   15.736066   14.046411
  H     14.027030   15.379676   15.619779
  H     15.037882   20.518357   15.884553
  H     16.296432   20.418319   14.645543
  H     16.389052   21.656163   15.907901
  H     17.972472   21.258815   17.286198
  H     19.496686   17.767773   18.572818
  H     18.226165   16.834565   16.710296
  H     17.796281   14.686265   17.630203
  H     16.739260   13.206645   19.327003
  H     15.362854   14.206013   21.154023
  H     14.604753   16.060293   22.038916
  H     16.118268   18.142639   19.597259

 Total Charge           Charge          ....    0
 Multiplicity           Mult            ....    1
 Number of Electrons    NEL             ....  154
 Basis Dimension        Dim             ....  828

ORBITAL ENERGIES
----------------

  NO   OCC          E(Eh)            E(eV)
   0   2.0000     -91.888864     -2500.4231
   1   2.0000     -20.601364      -560.5916
   2   2.0000     -20.596218      -560.4516
   3   2.0000     -20.541129      -558.9525
   4   2.0000     -15.629161      -425.2911
   5   2.0000     -15.607041      -424.6892
   6   2.0000     -11.394207      -310.0521
   7   2.0000     -11.383509      -309.7610
   8   2.0000     -11.337315      -308.5040
   9   2.0000     -11.313378      -307.8527
  10   2.0000     -11.307642      -307.6966
  11   2.0000     -11.295739      -307.3727
  12   2.0000     -11.260509      -306.4140
  13   2.0000     -11.259164      -306.3774
  14   2.0000     -11.254911      -306.2617
  15   2.0000     -11.251489      -306.1686
  16   2.0000     -11.243405      -305.9486
  17   2.0000     -11.238764      -305.8223
  18   2.0000     -11.238474      -305.8144
  19   2.0000     -11.231045      -305.6123
  20   2.0000      -8.893933      -242.0162
  21   2.0000      -6.575506      -178.9286
  22   2.0000      -6.573508      -178.8742
  23   2.0000      -6.572917      -178.8582
  24   2.0000      -1.452381       -39.5213
  25   2.0000      -1.415887       -38.5283
  26   2.0000      -1.354400       -36.8551
  27   2.0000      -1.340352       -36.4728
  28   2.0000      -1.238258       -33.6947
  29   2.0000      -1.157389       -31.4941
  30   2.0000      -1.121130       -30.5075
  31   2.0000      -1.043380       -28.3918
  32   2.0000      -1.040361       -28.3097
  33   2.0000      -1.014881       -27.6163
  34   2.0000      -0.996390       -27.1132
  35   2.0000      -0.984745       -26.7963
  36   2.0000      -0.921736       -25.0817
  37   2.0000      -0.888104       -24.1665
  38   2.0000      -0.846173       -23.0255
  39   2.0000      -0.837628       -22.7930
  40   2.0000      -0.833938       -22.6926
  41   2.0000      -0.817313       -22.2402
  42   2.0000      -0.765772       -20.8377
  43   2.0000      -0.733231       -19.9522
  44   2.0000      -0.720230       -19.5985
  45   2.0000      -0.695063       -18.9136
  46   2.0000      -0.685154       -18.6440
  47   2.0000      -0.680066       -18.5055
  48   2.0000      -0.678504       -18.4630
  49   2.0000      -0.664382       -18.0788
  50   2.0000      -0.646643       -17.5960
  51   2.0000      -0.641515       -17.4565
  52   2.0000      -0.634319       -17.2607
  53   2.0000      -0.606650       -16.5078
  54   2.0000      -0.600876       -16.3507
  55   2.0000      -0.598907       -16.2971
  56   2.0000      -0.594308       -16.1719
  57   2.0000      -0.577155       -15.7052
  58   2.0000      -0.569657       -15.5012
  59   2.0000      -0.568416       -15.4674
  60   2.0000      -0.561350       -15.2751
  61   2.0000      -0.549998       -14.9662
  62   2.0000      -0.541314       -14.7299
  63   2.0000      -0.523929       -14.2568
  64   2.0000      -0.520819       -14.1722
  65   2.0000      -0.513061       -13.9611
  66   2.0000      -0.504998       -13.7417
  67   2.0000      -0.497693       -13.5429
  68   2.0000      -0.484322       -13.1791
  69   2.0000      -0.464072       -12.6280
  70   2.0000      -0.459285       -12.4978
  71   2.0000      -0.446895       -12.1606
  72   2.0000      -0.353014        -9.6060
  73   2.0000      -0.349632        -9.5140
  74   2.0000      -0.328001        -8.9254
  75   2.0000      -0.320690        -8.7264
  76   2.0000      -0.318066        -8.6550
  77   0.0000       0.077372         2.1054
  78   0.0000       0.104103         2.8328
  79   0.0000       0.125029         3.4022
  80   0.0000       0.132887         3.6160
  81   0.0000       0.136676         3.7191

MULLIKEN ATOMIC CHARGES
-----------------------
   0 C :   -0.278509
   1 C :    0.040704
   2 O :   -0.337609
   3 C :    0.430176
   4 O :   -0.434298
   5 C :   -0.220884
   6 C :    0.173511
   7 C :   -0.268702
   8 N :   -0.126597
   9 C :    0.210103
  10 S :   -0.441900
  11 N :   -0.214813
  12 C :    0.055259
  13 C :    0.046219
  14 C :   -0.183825
  15 C :   -0.131804
  16 C :   -0.276582
  17 C :    0.316311
  18 O :   -0.356954
  19 C :   -0.248824
  20 H :    0.094788
  21 H :    0.096205
  22 H :    0.100019
  23 H :    0.108695
  24 H :    0.089550
  25 H :    0.133680
  26 H :    0.129068
  27 H :    0.094460
  28 H :    0.199870
  29 H :    0.200508
  30 H :    0.152391
  31 H :    0.155668
  32 H :    0.161073
  33 H :    0.129958
  34 H :    0.240505
  35 H :    0.162581
Sum of atomic charges:   -0.0000000

LOEWDIN ATOMIC CHARGES
----------------------
   0 C :    0.106205
   1 C :   -0.015828
   2 O :    0.310605
   3 C :   -0.414230
   4 O :    0.095214
   5 C :   -0.095289
   6 C :   -0.056413
   7 C :    0.131139
   8 N :    0.407154
   9 C :   -0.456609
  10 S :   -0.036498
  11 N :    0.394651
  12 C :   -0.054809
  13 C :   -0.039476
  14 C :    0.017336
  15 C :    0.038354
  16 C :   -0.000376
  17 C :   -0.189613
  18 O :    0.394986
  19 C :    0.033588
  20 H :   -0.029476
  21 H :   -0.027300
  22 H :   -0.024228
  23 H :   -0.027675
  24 H :   -0.029220
  25 H :   -0.004139
  26 H :   -0.005085
  27 H :   -0.023681
  28 H :   -0.057134
  29 H :   -0.064337
  30 H :   -0.014019
  31 H :   -0.029806
  32 H :   -0.021757
  33 H :   -0.035428
  34 H :   -0.154056
  35 H :   -0.022748

  Mayer bond orders larger than 0.100000
B(  0-C ,  1-C ) :   0.9712 B(  0-C , 20-H ) :   0.9767 B(  0-C , 21-H ) :   0.9767
B(  0-C , 22-H ) :   0.9789 B(  1-C ,  2-O ) :   0.9027 B(  1-C , 23-H ) :   0.9792
B(  1-C , 24-H ) :   0.9755 B(  2-O ,  3-C ) :   1.1757 B(  3-C ,  4-O ) :   1.9663
B(  3-C ,  5-C ) :   1.0673 B(  5-C ,  6-C ) :   1.6423 B(  5-C , 12-C ) :   0.9562
B(  6-C ,  7-C ) :   0.9655 B(  6-C ,  8-N ) :   1.1527 B(  7-C , 25-H ) :   0.9612
B(  7-C , 26-H ) :   0.9588 B(  7-C , 27-H ) :   0.9904 B(  8-N ,  9-C ) :   1.1878
B(  8-N , 28-H ) :   0.9464 B(  9-C , 10-S ) :   1.6060 B(  9-C , 11-N ) :   1.3092
B( 11-N , 12-C ) :   0.9682 B( 11-N , 29-H ) :   0.9483 B( 12-C , 13-C ) :   0.9640
B( 12-C , 30-H ) :   1.0015 B( 13-C , 14-C ) :   1.3586 B( 13-C , 19-C ) :   1.3799
B( 14-C , 15-C ) :   1.3904 B( 14-C , 31-H ) :   0.9694 B( 15-C , 16-C ) :   1.3617
B( 15-C , 32-H ) :   0.9702 B( 16-C , 17-C ) :   1.3340 B( 16-C , 33-H ) :   0.9850
B( 17-C , 18-O ) :   1.1041 B( 17-C , 19-C ) :   1.3650 B( 18-O , 34-H ) :   0.9799
B( 19-C , 35-H ) :   0.9596

MP2 TOTAL ENERGY:    -1274.344639899 Eh
FINAL SINGLE POINT ENERGY     -1274.344639899193

DIPOLE MOMENT
-------------
                                X             Y             Z
Electronic contribution:      8.20140      11.17756       8.68940
Nuclear contribution   :     -9.36175     -12.80079      -9.06961
                        -----------------------------------------
Total Dipole Moment    :     -1.16034      -1.62323      -0.38021
                        -----------------------------------------
Magnitude (a.u.)       :      2.03121
Magnitude (Debye)      :      5.16293

Rotational constants in cm-1:     0.011225     0.008421     0.005908
Rotational constants in MHz :   336.519744   252.456518   177.111860

                             ****ORCA TERMINATED NORMALLY****
TOTAL RUN TIME: 0 days 1 hours 36 minutes 51 seconds 312 msec
