                         Program Version 4.2.0 -  RELEASE  -
|  1> ! ri-mp2 cc-pvtz cc-pvtz/c TightSCF NoKeepInts
|  2>
|  3> %scf
|  4>   MaxCore 4096
|  5> end
|  6> *xyz  0  1
|  7>     C       13.7127872   16.0813538   14.5049324
|  8>     C       14.9484399   15.7713936   15.3670186
|  9>     O       16.0633804   16.4890694   14.8177325
| 10>     C       17.1596924   16.5799888   15.6179200
| 11>     O       18.0081152   15.7065701   15.6308606
| 12>     C       17.1349752   17.7145452   16.5974419
| 13>     C       16.6870634   18.9493600   16.2551234
| 14>     C       15.9729710   19.3503912   14.9803698
| 15>     N       16.9239197   20.0483702   17.0841875
| 16>     C       17.7868551   20.0418894   18.1473570
| 17>     S       18.1025856   21.4090872   19.0224912
| 18>     N       18.3927582   18.8444880   18.4351998
| 19>     C       18.0738167   17.5523984   17.7965572
| 20>     C       17.6080013   16.4838536   18.7759156
| 21>     C       18.2207567   15.2182372   18.7985023
| 22>     C       17.7840814   14.2288783   19.6953155
| 23>     C       16.7251839   14.5076141   20.5764670
| 24>     C       16.1101353   15.7668942   20.5531185
| 25>     O       15.0824329   16.0364361   21.3969773
| 26>     C       16.5461154   16.7492731   19.6581766
| 27>     H       12.8426359   15.5203771   14.8672544
| 28>     H       13.8913864   15.7973242   13.4601494
| 29>     H       13.4675433   17.1491000   14.5369407
| 30>     H       14.7560378   16.0855208   16.4023021
| 31>     H       15.1564179   14.6926879   15.3642936
| 32>     H       14.9433156   18.9760351   14.9774283
| 33>     H       16.4834876   18.9445628   14.0976376
| 34>     H       15.9291191   20.4381935   14.8457022
| 35>     H       16.5075365   20.9403187   16.8688791
| 36>     H       19.0131342   18.8631721   19.2349817
| 37>     H       19.0564008   17.2908044   17.3767012
| 38>     H       19.0298714   14.9970384   18.1057759
| 39>     H       18.2632398   13.2513402   19.7004411
| 40>     H       16.3841566   13.7457054   21.2695542
| 41>     H       14.9596166   15.2589450   21.9623307
| 42>     H       16.0590337   17.7187827   19.6559631
| 43> *
| 44>
| 45>                          ****END OF INPUT****

CARTESIAN COORDINATES (ANGSTROEM)
---------------------------------
  C     13.712787   16.081354   14.504932
  C     14.948440   15.771394   15.367019
  O     16.063380   16.489069   14.817732
  C     17.159692   16.579989   15.617920
  O     18.008115   15.706570   15.630861
  C     17.134975   17.714545   16.597442
  C     16.687063   18.949360   16.255123
  C     15.972971   19.350391   14.980370
  N     16.923920   20.048370   17.084187
  C     17.786855   20.041889   18.147357
  S     18.102586   21.409087   19.022491
  N     18.392758   18.844488   18.435200
  C     18.073817   17.552398   17.796557
  C     17.608001   16.483854   18.775916
  C     18.220757   15.218237   18.798502
  C     17.784081   14.228878   19.695315
  C     16.725184   14.507614   20.576467
  C     16.110135   15.766894   20.553119
  O     15.082433   16.036436   21.396977
  C     16.546115   16.749273   19.658177
  H     12.842636   15.520377   14.867254
  H     13.891386   15.797324   13.460149
  H     13.467543   17.149100   14.536941
  H     14.756038   16.085521   16.402302
  H     15.156418   14.692688   15.364294
  H     14.943316   18.976035   14.977428
  H     16.483488   18.944563   14.097638
  H     15.929119   20.438194   14.845702
  H     16.507537   20.940319   16.868879
  H     19.013134   18.863172   19.234982
  H     19.056401   17.290804   17.376701
  H     19.029871   14.997038   18.105776
  H     18.263240   13.251340   19.700441
  H     16.384157   13.745705   21.269554
  H     14.959617   15.258945   21.962331
  H     16.059034   17.718783   19.655963

 Total Charge           Charge          ....    0
 Multiplicity           Mult            ....    1
 Number of Electrons    NEL             ....  154
 Basis Dimension        Dim             ....  828

ORBITAL ENERGIES
----------------

  NO   OCC          E(Eh)            E(eV)
   0   2.0000     -91.889998     -2500.4540
   1   2.0000     -20.595474      -560.4313
   2   2.0000     -20.588605      -560.2444
   3   2.0000     -20.553584      -559.2915
   4   2.0000     -15.630646      -425.3315
   5   2.0000     -15.607766      -424.7089
   6   2.0000     -11.393361      -310.0291
   7   2.0000     -11.384929      -309.7997
   8   2.0000     -11.339478      -308.5629
   9   2.0000     -11.311796      -307.8096
  10   2.0000     -11.305993      -307.6517
  11   2.0000     -11.305017      -307.6251
  12   2.0000     -11.262436      -306.4665
  13   2.0000     -11.260430      -306.4119
  14   2.0000     -11.258890      -306.3700
  15   2.0000     -11.251627      -306.1723
  16   2.0000     -11.241640      -305.9006
  17   2.0000     -11.237977      -305.8009
  18   2.0000     -11.237731      -305.7942
  19   2.0000     -11.234329      -305.7016
  20   2.0000      -8.895076      -242.0473
  21   2.0000      -6.576649      -178.9597
  22   2.0000      -6.574648      -178.9053
  23   2.0000      -6.574057      -178.8892
  24   2.0000      -1.453541       -39.5529
  25   2.0000      -1.415225       -38.5102
  26   2.0000      -1.360540       -37.0222
  27   2.0000      -1.341780       -36.5117
  28   2.0000      -1.238897       -33.7121
  29   2.0000      -1.156179       -31.4612
  30   2.0000      -1.123283       -30.5661
  31   2.0000      -1.045515       -28.4499
  32   2.0000      -1.039190       -28.2778
  33   2.0000      -1.013806       -27.5871
  34   2.0000      -1.002122       -27.2691
  35   2.0000      -0.987228       -26.8638
  36   2.0000      -0.923366       -25.1261
  37   2.0000      -0.882429       -24.0121
  38   2.0000      -0.850955       -23.1557
  39   2.0000      -0.840537       -22.8722
  40   2.0000      -0.832309       -22.6483
  41   2.0000      -0.831255       -22.6196
  42   2.0000      -0.760645       -20.6982
  43   2.0000      -0.737165       -20.0593
  44   2.0000      -0.729260       -19.8442
  45   2.0000      -0.693010       -18.8578
  46   2.0000      -0.688673       -18.7398
  47   2.0000      -0.683078       -18.5875
  48   2.0000      -0.674742       -18.3607
  49   2.0000      -0.655931       -17.8488
  50   2.0000      -0.651727       -17.7344
  51   2.0000      -0.641285       -17.4503
  52   2.0000      -0.630616       -17.1599
  53   2.0000      -0.626557       -17.0495
  54   2.0000      -0.606354       -16.4997
  55   2.0000      -0.602436       -16.3931
  56   2.0000      -0.598839       -16.2952
  57   2.0000      -0.578672       -15.7465
  58   2.0000      -0.575473       -15.6594
  59   2.0000      -0.566709       -15.4209
  60   2.0000      -0.559910       -15.2359
  61   2.0000      -0.551136       -14.9972
  62   2.0000      -0.544969       -14.8294
  63   2.0000      -0.525279       -14.2936
  64   2.0000      -0.520172       -14.1546
  65   2.0000      -0.512326       -13.9411
  66   2.0000      -0.503835       -13.7100
  67   2.0000      -0.496977       -13.5234
  68   2.0000      -0.483046       -13.1444
  69   2.0000      -0.465180       -12.6582
  70   2.0000      -0.463320       -12.6076
  71   2.0000      -0.452682       -12.3181
  72   2.0000      -0.355568        -9.6755
  73   2.0000      -0.348057        -9.4711
  74   2.0000      -0.329073        -8.9545
  75   2.0000      -0.319514        -8.6944
  76   2.0000      -0.318500        -8.6668
  77   0.0000       0.073215         1.9923
  78   0.0000       0.106460         2.8969
  79   0.0000       0.119677         3.2566
  80   0.0000       0.133235         3.6255
  81   0.0000       0.138226         3.7613

MULLIKEN ATOMIC CHARGES
-----------------------
   0 C :   -0.272854
   1 C :    0.030095
   2 O :   -0.363405
   3 C :    0.471899
   4 O :   -0.385105
   5 C :   -0.241175
   6 C :    0.158964
   7 C :   -0.293248
   8 N :   -0.129023
   9 C :    0.205718
  10 S :   -0.439904
  11 N :   -0.212648
  12 C :    0.049417
  13 C :    0.031518
  14 C :   -0.183820
  15 C :   -0.131518
  16 C :   -0.277551
  17 C :    0.313856
  18 O :   -0.358416
  19 C :   -0.257198
  20 H :    0.099691
  21 H :    0.104692
  22 H :    0.090216
  23 H :    0.093233
  24 H :    0.110555
  25 H :    0.120158
  26 H :    0.133685
  27 H :    0.109998
  28 H :    0.198755
  29 H :    0.200061
  30 H :    0.158335
  31 H :    0.165740
  32 H :    0.161969
  33 H :    0.129733
  34 H :    0.240701
  35 H :    0.166878
Sum of atomic charges:    0.0000000

LOEWDIN ATOMIC CHARGES
----------------------
   0 C :    0.110681
   1 C :   -0.022604
   2 O :    0.297200
   3 C :   -0.422843
   4 O :    0.128076
   5 C :   -0.097396
   6 C :   -0.069058
   7 C :    0.127177
   8 N :    0.405499
   9 C :   -0.457981
  10 S :   -0.035892
  11 N :    0.396077
  12 C :   -0.049044
  13 C :   -0.042291
  14 C :    0.023940
  15 C :    0.042416
  16 C :   -0.000831
  17 C :   -0.193289
  18 O :    0.393312
  19 C :    0.027469
  20 H :   -0.022717
  21 H :   -0.023359
  22 H :   -0.032202
  23 H :   -0.033040
  24 H :   -0.026043
  25 H :   -0.013488
  26 H :   -0.006231
  27 H :   -0.018986
  28 H :   -0.058119
  29 H :   -0.063340
  30 H :   -0.006785
  31 H :   -0.022676
  32 H :   -0.020015
  33 H :   -0.035601
  34 H :   -0.154060
  35 H :   -0.023956

  Mayer bond orders larger than 0.100000
B(  0-C ,  1-C ) :   0.9767 B(  0-C , 20-H ) :   0.9762 B(  0-C , 21-H ) :   0.9764
B(  0-C , 22-H ) :   0.9783 B(  1-C ,  2-O ) :   0.9031 B(  1-C , 23-H ) :   0.9648
B(  1-C , 24-H ) :   0.9808 B(  2-O ,  3-C ) :   1.0838 B(  3-C ,  4-O ) :   2.0654
B(  3-C ,  5-C ) :   0.9985 B(  5-C ,  6-C ) :   1.6713 B(  5-C , 12-C ) :   0.9521
B(  6-C ,  7-C ) :   0.9492 B(  6-C ,  8-N ) :   1.1340 B(  7-C , 25-H ) :   0.9668
B(  7-C , 26-H ) :   0.9653 B(  7-C , 27-H ) :   0.9893 B(  8-N ,  9-C ) :   1.1856
B(  8-N , 28-H ) :   0.9476 B(  9-C , 10-S ) :   1.6123 B(  9-C , 11-N ) :   1.3017
B( 11-N , 12-C ) :   0.9826 B( 11-N , 29-H ) :   0.9487 B( 12-C , 13-C ) :   0.9716
B( 12-C , 30-H ) :   0.9943 B( 13-C , 14-C ) :   1.3821 B( 13-C , 19-C ) :   1.3595
B( 14-C , 15-C ) :   1.3960 B( 14-C , 31-H ) :   0.9612 B( 15-C , 16-C ) :   1.3603
B( 15-C , 32-H ) :   0.9706 B( 16-C , 17-C ) :   1.3324 B( 16-C , 33-H ) :   0.9855
B( 17-C , 18-O ) :   1.1055 B( 17-C , 19-C ) :   1.3660 B( 18-O , 34-H ) :   0.9800
B( 19-C , 35-H ) :   0.9593

MP2 TOTAL ENERGY:    -1274.327237182 Eh
FINAL SINGLE POINT ENERGY     -1274.327237181973

DIPOLE MOMENT
-------------
                                X             Y             Z
Electronic contribution:     11.18823       7.62642       9.71657
Nuclear contribution   :    -12.64214      -8.86903     -10.27990
                        -----------------------------------------
Total Dipole Moment    :     -1.45391      -1.24261      -0.56333
                        -----------------------------------------
Magnitude (a.u.)       :      1.99381
Magnitude (Debye)      :      5.06786

Rotational constants in cm-1:     0.009965     0.009355     0.006045
Rotational constants in MHz :   298.754806   280.465510   181.218824

                             ****ORCA TERMINATED NORMALLY****
TOTAL RUN TIME: 0 days 1 hours 40 minutes 15 seconds 991 msec
