                         Program Version 4.2.0 -  RELEASE  -
|  1> ! ri-mp2 cc-pvtz cc-pvtz/c TightSCF NoKeepInts
|  2>
|  3> %scf
|  4>   MaxCore 4096
|  5> end
|  6> *xyz  0  1
|  7>     C       15.0357661   15.4430756   13.1036872
|  8>     C       14.7084449   15.4909261   14.6058470
|  9>     O       15.4475864   16.5887387   15.1735363
| 10>     C       16.4442656   16.3597339   16.0793471
| 11>     O       16.8811119   15.2430863   16.3051767
| 12>     C       16.9095787   17.5760610   16.8316684
| 13>     C       16.8513432   18.8333296   16.3157689
| 14>     C       16.1331579   19.2997384   15.0642287
| 15>     N       17.5395466   19.8862948   16.9243988
| 16>     C       18.4772188   19.7338786   17.9094751
| 17>     S       19.3342831   21.0169979   18.5050132
| 18>     N       18.6847515   18.4554071   18.3602499
| 19>     C       17.8822692   17.2767100   17.9804940
| 20>     C       17.2268444   16.5905575   19.1719286
| 21>     C       17.4505326   15.2253958   19.4261600
| 22>     C       16.8479228   14.5954598   20.5280109
| 23>     C       16.0158378   15.3375894   21.3837355
| 24>     C       15.7899338   16.6978332   21.1316065
| 25>     O       14.9840782   17.4157974   21.9541115
| 26>     C       16.3908098   17.3218399   20.0336555
| 27>     H       14.7834033   16.3948488   12.6200779
| 28>     H       14.4666157   14.6450526   12.6115646
| 29>     H       16.1042170   15.2464190   12.9492546
| 30>     H       13.6332639   15.6686401   14.7365049
| 31>     H       14.9513819   14.5296796   15.0788373
| 32>     H       15.0512906   19.1418108   15.1565170
| 33>     H       16.4834010   18.7457370   14.1842846
| 34>     H       16.2884057   20.3651239   14.8549086
| 35>     H       17.4138398   20.8278959   16.5892040
| 36>     H       19.3653168   18.3725933   19.1049068
| 37>     H       18.6667873   16.6378189   17.5494104
| 38>     H       18.0818812   14.6475887   18.7552492
| 39>     H       17.0228255   13.5367726   20.7106868
| 40>     H       15.5472517   14.8546632   22.2346717
| 41>     H       14.6846806   16.8207063   22.6576322
| 42>     H       16.2071548   18.3761983   19.8561895
| 43> *
| 44>
| 45>                          ****END OF INPUT****

CARTESIAN COORDINATES (ANGSTROEM)
---------------------------------
  C     15.035766   15.443076   13.103687
  C     14.708445   15.490926   14.605847
  O     15.447586   16.588739   15.173536
  C     16.444266   16.359734   16.079347
  O     16.881112   15.243086   16.305177
  C     16.909579   17.576061   16.831668
  C     16.851343   18.833330   16.315769
  C     16.133158   19.299738   15.064229
  N     17.539547   19.886295   16.924399
  C     18.477219   19.733879   17.909475
  S     19.334283   21.016998   18.505013
  N     18.684752   18.455407   18.360250
  C     17.882269   17.276710   17.980494
  C     17.226844   16.590557   19.171929
  C     17.450533   15.225396   19.426160
  C     16.847923   14.595460   20.528011
  C     16.015838   15.337589   21.383735
  C     15.789934   16.697833   21.131607
  O     14.984078   17.415797   21.954111
  C     16.390810   17.321840   20.033655
  H     14.783403   16.394849   12.620078
  H     14.466616   14.645053   12.611565
  H     16.104217   15.246419   12.949255
  H     13.633264   15.668640   14.736505
  H     14.951382   14.529680   15.078837
  H     15.051291   19.141811   15.156517
  H     16.483401   18.745737   14.184285
  H     16.288406   20.365124   14.854909
  H     17.413840   20.827896   16.589204
  H     19.365317   18.372593   19.104907
  H     18.666787   16.637819   17.549410
  H     18.081881   14.647589   18.755249
  H     17.022825   13.536773   20.710687
  H     15.547252   14.854663   22.234672
  H     14.684681   16.820706   22.657632
  H     16.207155   18.376198   19.856189

 Total Charge           Charge          ....    0
 Multiplicity           Mult            ....    1
 Number of Electrons    NEL             ....  154
 Basis Dimension        Dim             ....  828

ORBITAL ENERGIES
----------------

  NO   OCC          E(Eh)            E(eV)
   0   2.0000     -91.887684     -2500.3910
   1   2.0000     -20.604263      -560.6705
   2   2.0000     -20.590956      -560.3084
   3   2.0000     -20.544907      -559.0554
   4   2.0000     -15.628222      -425.2655
   5   2.0000     -15.605323      -424.6424
   6   2.0000     -11.396849      -310.1240
   7   2.0000     -11.382171      -309.7246
   8   2.0000     -11.338076      -308.5247
   9   2.0000     -11.306917      -307.6768
  10   2.0000     -11.303803      -307.5921
  11   2.0000     -11.299359      -307.4712
  12   2.0000     -11.261205      -306.4330
  13   2.0000     -11.258979      -306.3724
  14   2.0000     -11.254225      -306.2430
  15   2.0000     -11.247008      -306.0467
  16   2.0000     -11.237226      -305.7805
  17   2.0000     -11.233347      -305.6749
  18   2.0000     -11.231928      -305.6363
  19   2.0000     -11.230122      -305.5872
  20   2.0000      -8.892771      -241.9846
  21   2.0000      -6.574349      -178.8971
  22   2.0000      -6.572345      -178.8426
  23   2.0000      -6.571758      -178.8266
  24   2.0000      -1.453915       -39.5630
  25   2.0000      -1.410699       -38.3871
  26   2.0000      -1.357557       -36.9410
  27   2.0000      -1.339615       -36.4528
  28   2.0000      -1.236739       -33.6534
  29   2.0000      -1.151646       -31.3379
  30   2.0000      -1.120359       -30.4865
  31   2.0000      -1.044130       -28.4122
  32   2.0000      -1.036226       -28.1971
  33   2.0000      -1.009162       -27.4607
  34   2.0000      -0.998272       -27.1644
  35   2.0000      -0.983317       -26.7574
  36   2.0000      -0.920282       -25.0421
  37   2.0000      -0.891093       -24.2479
  38   2.0000      -0.847112       -23.0511
  39   2.0000      -0.834309       -22.7027
  40   2.0000      -0.827239       -22.5103
  41   2.0000      -0.817783       -22.2530
  42   2.0000      -0.760700       -20.6997
  43   2.0000      -0.735902       -20.0249
  44   2.0000      -0.725548       -19.7432
  45   2.0000      -0.689621       -18.7655
  46   2.0000      -0.684963       -18.6388
  47   2.0000      -0.680130       -18.5073
  48   2.0000      -0.672507       -18.2999
  49   2.0000      -0.654199       -17.8017
  50   2.0000      -0.649786       -17.6816
  51   2.0000      -0.639085       -17.3904
  52   2.0000      -0.629167       -17.1205
  53   2.0000      -0.613027       -16.6813
  54   2.0000      -0.602610       -16.3979
  55   2.0000      -0.597565       -16.2606
  56   2.0000      -0.594213       -16.1694
  57   2.0000      -0.582399       -15.8479
  58   2.0000      -0.572309       -15.5733
  59   2.0000      -0.564678       -15.3657
  60   2.0000      -0.561413       -15.2768
  61   2.0000      -0.546550       -14.8724
  62   2.0000      -0.537893       -14.6368
  63   2.0000      -0.532484       -14.4896
  64   2.0000      -0.515066       -14.0156
  65   2.0000      -0.508403       -13.8343
  66   2.0000      -0.500105       -13.6085
  67   2.0000      -0.493540       -13.4299
  68   2.0000      -0.480771       -13.0825
  69   2.0000      -0.464519       -12.6402
  70   2.0000      -0.457893       -12.4599
  71   2.0000      -0.452816       -12.3217
  72   2.0000      -0.352906        -9.6031
  73   2.0000      -0.343812        -9.3556
  74   2.0000      -0.326767        -8.8918
  75   2.0000      -0.316850        -8.6219
  76   2.0000      -0.313543        -8.5319
  77   0.0000       0.077864         2.1188
  78   0.0000       0.112538         3.0623
  79   0.0000       0.121368         3.3026
  80   0.0000       0.136168         3.7053
  81   0.0000       0.139629         3.7995

MULLIKEN ATOMIC CHARGES
-----------------------
   0 C :   -0.276020
   1 C :    0.021200
   2 O :   -0.343600
   3 C :    0.429149
   4 O :   -0.427936
   5 C :   -0.178572
   6 C :    0.162135
   7 C :   -0.283458
   8 N :   -0.129049
   9 C :    0.207426
  10 S :   -0.443017
  11 N :   -0.210758
  12 C :    0.040910
  13 C :    0.031267
  14 C :   -0.165991
  15 C :   -0.134243
  16 C :   -0.276781
  17 C :    0.314402
  18 O :   -0.359152
  19 C :   -0.250297
  20 H :    0.090733
  21 H :    0.097457
  22 H :    0.101150
  23 H :    0.102937
  24 H :    0.119537
  25 H :    0.130574
  26 H :    0.124400
  27 H :    0.103095
  28 H :    0.198766
  29 H :    0.200012
  30 H :    0.155086
  31 H :    0.158347
  32 H :    0.159535
  33 H :    0.127920
  34 H :    0.239809
  35 H :    0.163029
Sum of atomic charges:   -0.0000000

LOEWDIN ATOMIC CHARGES
----------------------
   0 C :    0.103355
   1 C :   -0.012198
   2 O :    0.308302
   3 C :   -0.414602
   4 O :    0.101492
   5 C :   -0.090676
   6 C :   -0.064069
   7 C :    0.124594
   8 N :    0.405365
   9 C :   -0.458824
  10 S :   -0.038066
  11 N :    0.396580
  12 C :   -0.048317
  13 C :   -0.040429
  14 C :    0.025061
  15 C :    0.040927
  16 C :   -0.001074
  17 C :   -0.192369
  18 O :    0.393049
  19 C :    0.029902
  20 H :   -0.030041
  21 H :   -0.025291
  22 H :   -0.025361
  23 H :   -0.028909
  24 H :   -0.026899
  25 H :   -0.009192
  26 H :   -0.010136
  27 H :   -0.021293
  28 H :   -0.058858
  29 H :   -0.063034
  30 H :   -0.008539
  31 H :   -0.024141
  32 H :   -0.021188
  33 H :   -0.036239
  34 H :   -0.154968
  35 H :   -0.023916

  Mayer bond orders larger than 0.100000
B(  0-C ,  1-C ) :   0.9690 B(  0-C , 20-H ) :   0.9792 B(  0-C , 21-H ) :   0.9763
B(  0-C , 22-H ) :   0.9783 B(  1-C ,  2-O ) :   0.8873 B(  1-C , 23-H ) :   0.9826
B(  1-C , 24-H ) :   0.9726 B(  2-O ,  3-C ) :   1.1582 B(  3-C ,  4-O ) :   1.9753
B(  3-C ,  5-C ) :   1.0503 B(  5-C ,  6-C ) :   1.6554 B(  5-C , 12-C ) :   0.9490
B(  6-C ,  7-C ) :   0.9528 B(  6-C ,  8-N ) :   1.1353 B(  7-C , 25-H ) :   0.9633
B(  7-C , 26-H ) :   0.9659 B(  7-C , 27-H ) :   0.9916 B(  8-N ,  9-C ) :   1.1855
B(  8-N , 28-H ) :   0.9469 B(  9-C , 10-S ) :   1.6073 B(  9-C , 11-N ) :   1.3069
B( 11-N , 12-C ) :   0.9765 B( 11-N , 29-H ) :   0.9485 B( 12-C , 13-C ) :   0.9752
B( 12-C , 30-H ) :   0.9975 B( 13-C , 14-C ) :   1.3757 B( 13-C , 19-C ) :   1.3667
B( 14-C , 15-C ) :   1.3971 B( 14-C , 31-H ) :   0.9640 B( 15-C , 16-C ) :   1.3587
B( 15-C , 32-H ) :   0.9713 B( 16-C , 17-C ) :   1.3334 B( 16-C , 33-H ) :   0.9861
B( 17-C , 18-O ) :   1.1031 B( 17-C , 19-C ) :   1.3676 B( 18-O , 34-H ) :   0.9808
B( 19-C , 35-H ) :   0.9602

MP2 TOTAL ENERGY:    -1274.340835254 Eh
FINAL SINGLE POINT ENERGY     -1274.340835253951

DIPOLE MOMENT
-------------
                                X             Y             Z
Electronic contribution:      9.07220       8.70050      13.62795
Nuclear contribution   :    -10.66425      -9.88417     -14.63791
                        -----------------------------------------
Total Dipole Moment    :     -1.59205      -1.18367      -1.00995
                        -----------------------------------------
Magnitude (a.u.)       :      2.22614
Magnitude (Debye)      :      5.65839

Rotational constants in cm-1:     0.010142     0.008554     0.005376
Rotational constants in MHz :   304.059532   256.440160   161.164751

                             ****ORCA TERMINATED NORMALLY****
TOTAL RUN TIME: 0 days 1 hours 32 minutes 3 seconds 128 msec
