                         Program Version 4.2.0 -  RELEASE  -
|  1> ! ri-mp2 cc-pvtz cc-pvtz/c TightSCF NoKeepInts
|  2>
|  3> %scf
|  4>   MaxCore 4096
|  5> end
|  6> *xyz  0  1
|  7>     C       14.1968962   15.4709877   13.5909110
|  8>     C       14.9477738   15.3036850   14.9224938
|  9>     O       15.8844533   16.3879267   15.0254464
| 10>     C       16.8716560   16.3017953   15.9615387
| 11>     O       17.3923166   15.2388330   16.2559858
| 12>     C       17.1279057   17.5703351   16.7248135
| 13>     C       16.9771819   18.8025261   16.1704136
| 14>     C       16.3337012   19.1553310   14.8435514
| 15>     N       17.4838642   19.9379306   16.8079817
| 16>     C       18.3387996   19.9099982   17.8765030
| 17>     S       18.9878403   21.2924230   18.5114159
| 18>     N       18.6468618   18.6711852   18.3785612
| 19>     C       18.0193335   17.4020989   17.9619350
| 20>     C       17.3375990   16.6651630   19.1072921
| 21>     C       17.6847745   15.3370216   19.4135147
| 22>     C       17.0560773   14.6598190   20.4718814
| 23>     C       16.0727875   15.3170199   21.2312366
| 24>     C       15.7235650   16.6399785   20.9268373
| 25>     O       14.7715143   17.2754569   21.6555877
| 26>     C       16.3506645   17.3110761   19.8721685
| 27>     H       13.6573885   16.4258626   13.5675049
| 28>     H       13.4693135   14.6614479   13.4556300
| 29>     H       14.8976320   15.4469678   12.7469475
| 30>     H       14.2477379   15.3181930   15.7683299
| 31>     H       15.4704617   14.3370495   14.9167193
| 32>     H       16.8047204   18.6014257   14.0216886
| 33>     H       16.4166579   20.2214257   14.5995213
| 34>     H       15.2655192   18.9049377   14.8517414
| 35>     H       17.2850487   20.8530343   16.4365690
| 36>     H       19.2626420   18.6794534   19.1818998
| 37>     H       18.9059252   16.8490320   17.6189351
| 38>     H       18.4345017   14.8234114   18.8161771
| 39>     H       17.3285362   13.6299353   20.6954190
| 40>     H       15.5838878   14.7972463   22.0483997
| 41>     H       14.4815435   16.6640920   22.3490973
| 42>     H       16.0699176   18.3358947   19.6533508
| 43> *
| 44>
| 45>                          ****END OF INPUT****

CARTESIAN COORDINATES (ANGSTROEM)
---------------------------------
  C     14.196896   15.470988   13.590911
  C     14.947774   15.303685   14.922494
  O     15.884453   16.387927   15.025446
  C     16.871656   16.301795   15.961539
  O     17.392317   15.238833   16.255986
  C     17.127906   17.570335   16.724813
  C     16.977182   18.802526   16.170414
  C     16.333701   19.155331   14.843551
  N     17.483864   19.937931   16.807982
  C     18.338800   19.909998   17.876503
  S     18.987840   21.292423   18.511416
  N     18.646862   18.671185   18.378561
  C     18.019333   17.402099   17.961935
  C     17.337599   16.665163   19.107292
  C     17.684774   15.337022   19.413515
  C     17.056077   14.659819   20.471881
  C     16.072788   15.317020   21.231237
  C     15.723565   16.639979   20.926837
  O     14.771514   17.275457   21.655588
  C     16.350665   17.311076   19.872169
  H     13.657388   16.425863   13.567505
  H     13.469313   14.661448   13.455630
  H     14.897632   15.446968   12.746947
  H     14.247738   15.318193   15.768330
  H     15.470462   14.337049   14.916719
  H     16.804720   18.601426   14.021689
  H     16.416658   20.221426   14.599521
  H     15.265519   18.904938   14.851741
  H     17.285049   20.853034   16.436569
  H     19.262642   18.679453   19.181900
  H     18.905925   16.849032   17.618935
  H     18.434502   14.823411   18.816177
  H     17.328536   13.629935   20.695419
  H     15.583888   14.797246   22.048400
  H     14.481543   16.664092   22.349097
  H     16.069918   18.335895   19.653351

 Total Charge           Charge          ....    0
 Multiplicity           Mult            ....    1
 Number of Electrons    NEL             ....  154
 Basis Dimension        Dim             ....  828

ORBITAL ENERGIES
----------------

  NO   OCC          E(Eh)            E(eV)
   0   2.0000     -91.888287     -2500.4074
   1   2.0000     -20.598202      -560.5056
   2   2.0000     -20.592061      -560.3385
   3   2.0000     -20.547252      -559.1191
   4   2.0000     -15.628995      -425.2866
   5   2.0000     -15.605843      -424.6566
   6   2.0000     -11.394620      -310.0634
   7   2.0000     -11.382848      -309.7430
   8   2.0000     -11.338527      -308.5370
   9   2.0000     -11.308028      -307.7071
  10   2.0000     -11.304268      -307.6048
  11   2.0000     -11.299694      -307.4803
  12   2.0000     -11.260401      -306.4111
  13   2.0000     -11.259446      -306.3851
  14   2.0000     -11.255250      -306.2709
  15   2.0000     -11.248037      -306.0747
  16   2.0000     -11.238265      -305.8087
  17   2.0000     -11.234416      -305.7040
  18   2.0000     -11.234411      -305.7039
  19   2.0000     -11.231093      -305.6136
  20   2.0000      -8.893368      -242.0008
  21   2.0000      -6.574944      -178.9133
  22   2.0000      -6.572942      -178.8588
  23   2.0000      -6.572353      -178.8428
  24   2.0000      -1.454425       -39.5769
  25   2.0000      -1.411806       -38.4172
  26   2.0000      -1.357575       -36.9415
  27   2.0000      -1.340153       -36.4674
  28   2.0000      -1.237226       -33.6666
  29   2.0000      -1.152618       -31.3643
  30   2.0000      -1.121030       -30.5048
  31   2.0000      -1.044725       -28.4284
  32   2.0000      -1.036851       -28.2142
  33   2.0000      -1.010160       -27.4879
  34   2.0000      -0.998991       -27.1839
  35   2.0000      -0.984140       -26.7798
  36   2.0000      -0.920818       -25.0567
  37   2.0000      -0.886127       -24.1127
  38   2.0000      -0.847421       -23.0595
  39   2.0000      -0.835355       -22.7312
  40   2.0000      -0.828271       -22.5384
  41   2.0000      -0.821363       -22.3504
  42   2.0000      -0.761564       -20.7232
  43   2.0000      -0.736262       -20.0347
  44   2.0000      -0.726397       -19.7663
  45   2.0000      -0.690048       -18.7772
  46   2.0000      -0.685589       -18.6558
  47   2.0000      -0.680469       -18.5165
  48   2.0000      -0.675003       -18.3678
  49   2.0000      -0.654267       -17.8035
  50   2.0000      -0.651789       -17.7361
  51   2.0000      -0.640160       -17.4196
  52   2.0000      -0.631981       -17.1971
  53   2.0000      -0.612515       -16.6674
  54   2.0000      -0.603425       -16.4200
  55   2.0000      -0.598785       -16.2938
  56   2.0000      -0.595366       -16.2007
  57   2.0000      -0.577334       -15.7101
  58   2.0000      -0.573361       -15.6019
  59   2.0000      -0.562791       -15.3143
  60   2.0000      -0.561298       -15.2737
  61   2.0000      -0.546946       -14.8832
  62   2.0000      -0.541395       -14.7321
  63   2.0000      -0.526708       -14.3325
  64   2.0000      -0.516234       -14.0474
  65   2.0000      -0.509396       -13.8614
  66   2.0000      -0.503495       -13.7008
  67   2.0000      -0.494265       -13.4496
  68   2.0000      -0.481032       -13.0895
  69   2.0000      -0.462923       -12.5968
  70   2.0000      -0.462576       -12.5873
  71   2.0000      -0.450960       -12.2712
  72   2.0000      -0.353356        -9.6153
  73   2.0000      -0.344760        -9.3814
  74   2.0000      -0.327335        -8.9072
  75   2.0000      -0.317458        -8.6385
  76   2.0000      -0.314668        -8.5625
  77   0.0000       0.075091         2.0433
  78   0.0000       0.111050         3.0218
  79   0.0000       0.120753         3.2859
  80   0.0000       0.135314         3.6821
  81   0.0000       0.138065         3.7569

MULLIKEN ATOMIC CHARGES
-----------------------
   0 C :   -0.270107
   1 C :    0.035192
   2 O :   -0.350572
   3 C :    0.436529
   4 O :   -0.412865
   5 C :   -0.181355
   6 C :    0.152960
   7 C :   -0.283420
   8 N :   -0.128299
   9 C :    0.207648
  10 S :   -0.441885
  11 N :   -0.210530
  12 C :    0.040463
  13 C :    0.032890
  14 C :   -0.168177
  15 C :   -0.134206
  16 C :   -0.277319
  17 C :    0.313695
  18 O :   -0.359129
  19 C :   -0.252167
  20 H :    0.091044
  21 H :    0.095804
  22 H :    0.099571
  23 H :    0.088234
  24 H :    0.113244
  25 H :    0.126596
  26 H :    0.103128
  27 H :    0.127432
  28 H :    0.198866
  29 H :    0.199911
  30 H :    0.155647
  31 H :    0.159213
  32 H :    0.160116
  33 H :    0.128301
  34 H :    0.239993
  35 H :    0.163554
Sum of atomic charges:   -0.0000000

LOEWDIN ATOMIC CHARGES
----------------------
   0 C :    0.107316
   1 C :   -0.016999
   2 O :    0.302828
   3 C :   -0.416083
   4 O :    0.110429
   5 C :   -0.093449
   6 C :   -0.064364
   7 C :    0.125443
   8 N :    0.405603
   9 C :   -0.458510
  10 S :   -0.037273
  11 N :    0.396352
  12 C :   -0.048316
  13 C :   -0.040682
  14 C :    0.025024
  15 C :    0.041095
  16 C :   -0.001248
  17 C :   -0.192742
  18 O :    0.392988
  19 C :    0.029251
  20 H :   -0.030044
  21 H :   -0.023700
  22 H :   -0.025231
  23 H :   -0.031357
  24 H :   -0.026753
  25 H :   -0.008774
  26 H :   -0.021023
  27 H :   -0.010193
  28 H :   -0.058622
  29 H :   -0.063164
  30 H :   -0.008041
  31 H :   -0.023867
  32 H :   -0.020970
  33 H :   -0.036154
  34 H :   -0.154825
  35 H :   -0.023946

  Mayer bond orders larger than 0.100000
B(  0-C ,  1-C ) :   0.9744 B(  0-C , 20-H ) :   0.9791 B(  0-C , 21-H ) :   0.9770
B(  0-C , 22-H ) :   0.9773 B(  1-C ,  2-O ) :   0.9033 B(  1-C , 23-H ) :   0.9736
B(  1-C , 24-H ) :   0.9767 B(  2-O ,  3-C ) :   1.1140 B(  3-C ,  4-O ) :   2.0076
B(  3-C ,  5-C ) :   1.0373 B(  5-C ,  6-C ) :   1.6557 B(  5-C , 12-C ) :   0.9485
B(  6-C ,  7-C ) :   0.9548 B(  6-C ,  8-N ) :   1.1363 B(  7-C , 25-H ) :   0.9650
B(  7-C , 26-H ) :   0.9914 B(  7-C , 27-H ) :   0.9634 B(  8-N ,  9-C ) :   1.1847
B(  8-N , 28-H ) :   0.9469 B(  9-C , 10-S ) :   1.6088 B(  9-C , 11-N ) :   1.3061
B( 11-N , 12-C ) :   0.9765 B( 11-N , 29-H ) :   0.9485 B( 12-C , 13-C ) :   0.9727
B( 12-C , 30-H ) :   0.9968 B( 13-C , 14-C ) :   1.3774 B( 13-C , 19-C ) :   1.3648
B( 14-C , 15-C ) :   1.3975 B( 14-C , 31-H ) :   0.9636 B( 15-C , 16-C ) :   1.3588
B( 15-C , 32-H ) :   0.9711 B( 16-C , 17-C ) :   1.3333 B( 16-C , 33-H ) :   0.9860
B( 17-C , 18-O ) :   1.1036 B( 17-C , 19-C ) :   1.3677 B( 18-O , 34-H ) :   0.9806
B( 19-C , 35-H ) :   0.9602

MP2 TOTAL ENERGY:    -1274.336006520 Eh
FINAL SINGLE POINT ENERGY     -1274.336006519768

DIPOLE MOMENT
-------------
                                X             Y             Z
Electronic contribution:     10.65961       9.23928      12.04529
Nuclear contribution   :    -12.18811     -10.53070     -12.91931
                        -----------------------------------------
Total Dipole Moment    :     -1.52850      -1.29142      -0.87402
                        -----------------------------------------
Magnitude (a.u.)       :      2.18357
Magnitude (Debye)      :      5.55020

Rotational constants in cm-1:     0.009764     0.008936     0.005528
Rotational constants in MHz :   292.715556   267.897155   165.725570

                             ****ORCA TERMINATED NORMALLY****
TOTAL RUN TIME: 0 days 1 hours 48 minutes 7 seconds 132 msec
