                         Program Version 4.2.0 -  RELEASE  -
|  1> ! ri-mp2 cc-pvtz cc-pvtz/c TightSCF NoKeepInts
|  2>
|  3> %scf
|  4>   MaxCore 4096
|  5> end
|  6> *xyz  0  1
|  7>     C       14.6252331   15.1810670   16.1451729
|  8>     C       15.8889668   14.8290654   15.3320438
|  9>     O       16.9330668   15.7971663   15.5590107
| 10>     C       16.7003218   17.1076988   15.2581561
| 11>     O       16.1768058   17.4262363   14.2045127
| 12>     C       17.0147239   18.0447288   16.3950559
| 13>     C       16.9756069   19.3896421   16.2062116
| 14>     C       16.3617831   20.1361792   15.0394843
| 15>     N       17.5441809   20.2650851   17.1341813
| 16>     C       18.3569466   19.8782793   18.1645624
| 17>     S       19.0901617   20.9748537   19.1622579
| 18>     N       18.5521860   18.5288461   18.3124625
| 19>     C       17.8471287   17.4751724   17.5580665
| 20>     C       17.1008702   16.5118547   18.4707783
| 21>     C       17.5237406   15.1766673   18.6065985
| 22>     C       16.8391337   14.2950682   19.4600814
| 23>     C       15.7276902   14.7546363   20.1876039
| 24>     C       15.3100398   16.0867868   20.0599956
| 25>     O       14.2374051   16.5328793   20.7606842
| 26>     C       15.9920919   16.9612080   19.2080466
| 27>     H       14.8468796   15.2139047   17.2172973
| 28>     H       13.8504163   14.4214993   15.9865427
| 29>     H       14.2090628   16.1499850   15.8426709
| 30>     H       16.2456301   13.8343754   15.6283868
| 31>     H       15.6389353   14.7938611   14.2628876
| 32>     H       16.9337947   19.9549452   14.1204688
| 33>     H       16.3203347   21.2204693   15.1962770
| 34>     H       15.3344799   19.7945945   14.8590438
| 35>     H       17.4302361   21.2594959   17.0193236
| 36>     H       19.1344978   18.2718514   19.0995048
| 37>     H       18.7062755   16.9765039   17.0872375
| 38>     H       18.3813010   14.8203323   18.0418548
| 39>     H       17.1710202   13.2627394   19.5568109
| 40>     H       15.1965160   14.0777968   20.8487952
| 41>     H       13.9297210   15.8037073   21.3198371
| 42>     H       15.6598151   17.9908174   19.1260943
| 43> *
| 44>
| 45>                          ****END OF INPUT****

CARTESIAN COORDINATES (ANGSTROEM)
---------------------------------
  C     14.625233   15.181067   16.145173
  C     15.888967   14.829065   15.332044
  O     16.933067   15.797166   15.559011
  C     16.700322   17.107699   15.258156
  O     16.176806   17.426236   14.204513
  C     17.014724   18.044729   16.395056
  C     16.975607   19.389642   16.206212
  C     16.361783   20.136179   15.039484
  N     17.544181   20.265085   17.134181
  C     18.356947   19.878279   18.164562
  S     19.090162   20.974854   19.162258
  N     18.552186   18.528846   18.312462
  C     17.847129   17.475172   17.558066
  C     17.100870   16.511855   18.470778
  C     17.523741   15.176667   18.606598
  C     16.839134   14.295068   19.460081
  C     15.727690   14.754636   20.187604
  C     15.310040   16.086787   20.059996
  O     14.237405   16.532879   20.760684
  C     15.992092   16.961208   19.208047
  H     14.846880   15.213905   17.217297
  H     13.850416   14.421499   15.986543
  H     14.209063   16.149985   15.842671
  H     16.245630   13.834375   15.628387
  H     15.638935   14.793861   14.262888
  H     16.933795   19.954945   14.120469
  H     16.320335   21.220469   15.196277
  H     15.334480   19.794594   14.859044
  H     17.430236   21.259496   17.019324
  H     19.134498   18.271851   19.099505
  H     18.706276   16.976504   17.087238
  H     18.381301   14.820332   18.041855
  H     17.171020   13.262739   19.556811
  H     15.196516   14.077797   20.848795
  H     13.929721   15.803707   21.319837
  H     15.659815   17.990817   19.126094

 Total Charge           Charge          ....    0
 Multiplicity           Mult            ....    1
 Number of Electrons    NEL             ....  154
 Basis Dimension        Dim             ....  828

ORBITAL ENERGIES
----------------

  NO   OCC          E(Eh)            E(eV)
   0   2.0000     -91.890353     -2500.4636
   1   2.0000     -20.599237      -560.5337
   2   2.0000     -20.588699      -560.2470
   3   2.0000     -20.542813      -558.9984
   4   2.0000     -15.630828      -425.3365
   5   2.0000     -15.608250      -424.7221
   6   2.0000     -11.393217      -310.0252
   7   2.0000     -11.384716      -309.7939
   8   2.0000     -11.339332      -308.5589
   9   2.0000     -11.316793      -307.9456
  10   2.0000     -11.309354      -307.7432
  11   2.0000     -11.296982      -307.4065
  12   2.0000     -11.263287      -306.4896
  13   2.0000     -11.259553      -306.3880
  14   2.0000     -11.258286      -306.3535
  15   2.0000     -11.252731      -306.2024
  16   2.0000     -11.246926      -306.0444
  17   2.0000     -11.241688      -305.9019
  18   2.0000     -11.241329      -305.8921
  19   2.0000     -11.222637      -305.3835
  20   2.0000      -8.895405      -242.0563
  21   2.0000      -6.576972      -178.9685
  22   2.0000      -6.574979      -178.9143
  23   2.0000      -6.574383      -178.8981
  24   2.0000      -1.447865       -39.3984
  25   2.0000      -1.418990       -38.6127
  26   2.0000      -1.351526       -36.7769
  27   2.0000      -1.342122       -36.5210
  28   2.0000      -1.239955       -33.7409
  29   2.0000      -1.160318       -31.5739
  30   2.0000      -1.122227       -30.5374
  31   2.0000      -1.044933       -28.4341
  32   2.0000      -1.032228       -28.0883
  33   2.0000      -1.017973       -27.7005
  34   2.0000      -0.998208       -27.1626
  35   2.0000      -0.986499       -26.8440
  36   2.0000      -0.923662       -25.1341
  37   2.0000      -0.894649       -24.3446
  38   2.0000      -0.848043       -23.0764
  39   2.0000      -0.840751       -22.8780
  40   2.0000      -0.837057       -22.7775
  41   2.0000      -0.815608       -22.1938
  42   2.0000      -0.751362       -20.4456
  43   2.0000      -0.735842       -20.0233
  44   2.0000      -0.722957       -19.6727
  45   2.0000      -0.697871       -18.9900
  46   2.0000      -0.690134       -18.7795
  47   2.0000      -0.675723       -18.3873
  48   2.0000      -0.671639       -18.2762
  49   2.0000      -0.663801       -18.0629
  50   2.0000      -0.647778       -17.6269
  51   2.0000      -0.641729       -17.4623
  52   2.0000      -0.636512       -17.3204
  53   2.0000      -0.612627       -16.6704
  54   2.0000      -0.609434       -16.5835
  55   2.0000      -0.602036       -16.3822
  56   2.0000      -0.601115       -16.3572
  57   2.0000      -0.579366       -15.7653
  58   2.0000      -0.570340       -15.5197
  59   2.0000      -0.566597       -15.4179
  60   2.0000      -0.551756       -15.0141
  61   2.0000      -0.546025       -14.8581
  62   2.0000      -0.536544       -14.6001
  63   2.0000      -0.530195       -14.4273
  64   2.0000      -0.525888       -14.3101
  65   2.0000      -0.514499       -14.0002
  66   2.0000      -0.502092       -13.6626
  67   2.0000      -0.500062       -13.6074
  68   2.0000      -0.478430       -13.0188
  69   2.0000      -0.465148       -12.6573
  70   2.0000      -0.452778       -12.3207
  71   2.0000      -0.444820       -12.1042
  72   2.0000      -0.354185        -9.6379
  73   2.0000      -0.352807        -9.6004
  74   2.0000      -0.329518        -8.9666
  75   2.0000      -0.324613        -8.8332
  76   2.0000      -0.319778        -8.7016
  77   0.0000       0.072484         1.9724
  78   0.0000       0.102227         2.7818
  79   0.0000       0.123283         3.3547
  80   0.0000       0.130388         3.5480
  81   0.0000       0.135037         3.6745

MULLIKEN ATOMIC CHARGES
-----------------------
   0 C :   -0.319011
   1 C :    0.023847
   2 O :   -0.375263
   3 C :    0.447164
   4 O :   -0.422915
   5 C :   -0.226545
   6 C :    0.169989
   7 C :   -0.266032
   8 N :   -0.125410
   9 C :    0.208109
  10 S :   -0.438913
  11 N :   -0.213220
  12 C :    0.056958
  13 C :    0.003897
  14 C :   -0.171540
  15 C :   -0.137011
  16 C :   -0.270507
  17 C :    0.303048
  18 O :   -0.359224
  19 C :   -0.221579
  20 H :    0.111909
  21 H :    0.108798
  22 H :    0.107239
  23 H :    0.112608
  24 H :    0.122488
  25 H :    0.131788
  26 H :    0.094494
  27 H :    0.131804
  28 H :    0.200220
  29 H :    0.200190
  30 H :    0.154365
  31 H :    0.158466
  32 H :    0.162357
  33 H :    0.132279
  34 H :    0.240849
  35 H :    0.164302
Sum of atomic charges:   -0.0000000

LOEWDIN ATOMIC CHARGES
----------------------
   0 C :    0.106760
   1 C :   -0.017914
   2 O :    0.295543
   3 C :   -0.420516
   4 O :    0.103865
   5 C :   -0.099151
   6 C :   -0.053565
   7 C :    0.131484
   8 N :    0.407857
   9 C :   -0.457717
  10 S :   -0.034289
  11 N :    0.395229
  12 C :   -0.053884
  13 C :   -0.041762
  14 C :    0.018677
  15 C :    0.038932
  16 C :   -0.001216
  17 C :   -0.191867
  18 O :    0.396282
  19 C :    0.033439
  20 H :   -0.026962
  21 H :   -0.025196
  22 H :   -0.027274
  23 H :   -0.024478
  24 H :   -0.028117
  25 H :   -0.004222
  26 H :   -0.023521
  27 H :   -0.004784
  28 H :   -0.056816
  29 H :   -0.063902
  30 H :   -0.012073
  31 H :   -0.027519
  32 H :   -0.020624
  33 H :   -0.034844
  34 H :   -0.153404
  35 H :   -0.022453

  Mayer bond orders larger than 0.100000
B(  0-C ,  1-C ) :   0.9556 B(  0-C , 20-H ) :   0.9691 B(  0-C , 21-H ) :   0.9782
B(  0-C , 22-H ) :   0.9747 B(  1-C ,  2-O ) :   0.8919 B(  1-C , 23-H ) :   0.9826
B(  1-C , 24-H ) :   0.9840 B(  2-O ,  3-C ) :   1.1203 B(  3-C ,  4-O ) :   1.9935
B(  3-C ,  5-C ) :   1.0675 B(  5-C ,  6-C ) :   1.6281 B(  5-C , 12-C ) :   0.9562
B(  6-C ,  7-C ) :   0.9669 B(  6-C ,  8-N ) :   1.1544 B(  7-C , 25-H ) :   0.9570
B(  7-C , 26-H ) :   0.9900 B(  7-C , 27-H ) :   0.9623 B(  8-N ,  9-C ) :   1.1854
B(  8-N , 28-H ) :   0.9464 B(  9-C , 10-S ) :   1.6109 B(  9-C , 11-N ) :   1.3074
B( 11-N , 12-C ) :   0.9692 B( 11-N , 29-H ) :   0.9487 B( 12-C , 13-C ) :   0.9566
B( 12-C , 30-H ) :   1.0028 B( 13-C , 14-C ) :   1.3601 B( 13-C , 19-C ) :   1.3811
B( 14-C , 15-C ) :   1.3902 B( 14-C , 31-H ) :   0.9690 B( 15-C , 16-C ) :   1.3568
B( 15-C , 32-H ) :   0.9710 B( 16-C , 17-C ) :   1.3344 B( 16-C , 33-H ) :   0.9846
B( 17-C , 18-O ) :   1.1065 B( 17-C , 19-C ) :   1.3646 B( 18-O , 34-H ) :   0.9795
B( 19-C , 35-H ) :   0.9594

MP2 TOTAL ENERGY:    -1274.335943995 Eh
FINAL SINGLE POINT ENERGY     -1274.335943995019

DIPOLE MOMENT
-------------
                                X             Y             Z
Electronic contribution:      9.06837       9.72521       6.33424
Nuclear contribution   :    -10.04280     -11.43122      -6.42922
                        -----------------------------------------
Total Dipole Moment    :     -0.97443      -1.70601      -0.09498
                        -----------------------------------------
Magnitude (a.u.)       :      1.96698
Magnitude (Debye)      :      4.99967

Rotational constants in cm-1:     0.012253     0.008860     0.006169
Rotational constants in MHz :   367.342158   265.626838   184.930895

                             ****ORCA TERMINATED NORMALLY****
TOTAL RUN TIME: 0 days 2 hours 16 minutes 40 seconds 23 msec
