                         Program Version 4.2.0 -  RELEASE  -
|  1> ! ri-mp2 cc-pvtz cc-pvtz/c TightSCF NoKeepInts
|  2>
|  3> %scf
|  4>   MaxCore 4096
|  5> end
|  6> *xyz  0  1
|  7>     C       14.9112893   14.7065961   15.4111239
|  8>     C       14.7922228   16.0704347   14.6949907
|  9>     O       16.0251718   16.8297194   14.6586669
| 10>     C       17.0068707   16.6864437   15.5970081
| 11>     O       17.6696874   15.6683064   15.7003236
| 12>     C       17.1321030   17.8368622   16.5527779
| 13>     C       16.9075892   19.1254531   16.1852607
| 14>     C       16.3071311   19.6302666   14.8880773
| 15>     N       17.2882817   20.1801252   17.0188691
| 16>     C       18.0840039   20.0448806   18.1246860
| 17>     S       18.5803632   21.3526409   19.0071054
| 18>     N       18.4647182   18.7676145   18.4505970
| 19>     C       17.9708874   17.5381692   17.8002321
| 20>     C       17.2854412   16.5766152   18.7620781
| 21>     C       17.6946742   15.2336069   18.8453967
| 22>     C       17.0542335   14.3443889   19.7245077
| 23>     C       15.9957628   14.8024594   20.5276727
| 24>     C       15.5840922   16.1397478   20.4445998
| 25>     O       14.5580410   16.5831170   21.2138694
| 26>     C       16.2226741   17.0220980   19.5673150
| 27>     H       15.6747494   14.0795626   14.9330071
| 28>     H       13.9572859   14.1679701   15.3639509
| 29>     H       15.1720966   14.8307790   16.4703073
| 30>     H       14.4371918   15.9140268   13.6681658
| 31>     H       14.0299884   16.6622957   15.2181816
| 32>     H       15.2532319   19.3376169   14.8072136
| 33>     H       16.8413899   19.2158501   14.0236032
| 34>     H       16.3518513   20.7223487   14.7957410
| 35>     H       17.0372834   21.1259383   16.7792538
| 36>     H       19.0359811   18.6933592   19.2829331
| 37>     H       18.9164694   17.1124003   17.4334910
| 38>     H       18.5025841   14.8748830   18.2115761
| 39>     H       17.3761852   13.3057692   19.7757725
| 40>     H       15.4976043   14.1186397   21.2068354
| 41>     H       14.2770713   15.8452305   21.7756086
| 42>     H       15.8907973   18.0537841   19.5172010
| 43> *
| 44>
| 45>                          ****END OF INPUT****

CARTESIAN COORDINATES (ANGSTROEM)
---------------------------------
  C     14.911289   14.706596   15.411124
  C     14.792223   16.070435   14.694991
  O     16.025172   16.829719   14.658667
  C     17.006871   16.686444   15.597008
  O     17.669687   15.668306   15.700324
  C     17.132103   17.836862   16.552778
  C     16.907589   19.125453   16.185261
  C     16.307131   19.630267   14.888077
  N     17.288282   20.180125   17.018869
  C     18.084004   20.044881   18.124686
  S     18.580363   21.352641   19.007105
  N     18.464718   18.767614   18.450597
  C     17.970887   17.538169   17.800232
  C     17.285441   16.576615   18.762078
  C     17.694674   15.233607   18.845397
  C     17.054233   14.344389   19.724508
  C     15.995763   14.802459   20.527673
  C     15.584092   16.139748   20.444600
  O     14.558041   16.583117   21.213869
  C     16.222674   17.022098   19.567315
  H     15.674749   14.079563   14.933007
  H     13.957286   14.167970   15.363951
  H     15.172097   14.830779   16.470307
  H     14.437192   15.914027   13.668166
  H     14.029988   16.662296   15.218182
  H     15.253232   19.337617   14.807214
  H     16.841390   19.215850   14.023603
  H     16.351851   20.722349   14.795741
  H     17.037283   21.125938   16.779254
  H     19.035981   18.693359   19.282933
  H     18.916469   17.112400   17.433491
  H     18.502584   14.874883   18.211576
  H     17.376185   13.305769   19.775772
  H     15.497604   14.118640   21.206835
  H     14.277071   15.845230   21.775609
  H     15.890797   18.053784   19.517201

 Total Charge           Charge          ....    0
 Multiplicity           Mult            ....    1
 Number of Electrons    NEL             ....  154
 Basis Dimension        Dim             ....  828

ORBITAL ENERGIES
----------------

  NO   OCC          E(Eh)            E(eV)
   0   2.0000     -91.888800     -2500.4214
   1   2.0000     -20.594468      -560.4040
   2   2.0000     -20.587729      -560.2206
   3   2.0000     -20.550012      -559.1943
   4   2.0000     -15.629349      -425.2962
   5   2.0000     -15.606527      -424.6752
   6   2.0000     -11.395467      -310.0864
   7   2.0000     -11.383514      -309.7612
   8   2.0000     -11.338356      -308.5323
   9   2.0000     -11.310771      -307.7817
  10   2.0000     -11.307668      -307.6973
  11   2.0000     -11.304670      -307.6157
  12   2.0000     -11.259751      -306.3934
  13   2.0000     -11.259432      -306.3847
  14   2.0000     -11.257713      -306.3380
  15   2.0000     -11.250751      -306.1485
  16   2.0000     -11.240903      -305.8805
  17   2.0000     -11.236959      -305.7732
  18   2.0000     -11.233434      -305.6773
  19   2.0000     -11.226681      -305.4935
  20   2.0000      -8.893881      -242.0148
  21   2.0000      -6.575457      -178.9273
  22   2.0000      -6.573455      -178.8728
  23   2.0000      -6.572866      -178.8568
  24   2.0000      -1.446183       -39.3526
  25   2.0000      -1.414229       -38.4831
  26   2.0000      -1.356127       -36.9021
  27   2.0000      -1.340428       -36.4749
  28   2.0000      -1.237665       -33.6786
  29   2.0000      -1.154997       -31.4291
  30   2.0000      -1.121371       -30.5141
  31   2.0000      -1.043472       -28.3943
  32   2.0000      -1.033094       -28.1119
  33   2.0000      -1.012606       -27.5544
  34   2.0000      -1.000112       -27.2144
  35   2.0000      -0.984991       -26.8030
  36   2.0000      -0.922439       -25.1008
  37   2.0000      -0.894867       -24.3506
  38   2.0000      -0.849368       -23.1125
  39   2.0000      -0.837613       -22.7926
  40   2.0000      -0.830825       -22.6079
  41   2.0000      -0.822363       -22.3776
  42   2.0000      -0.743911       -20.2429
  43   2.0000      -0.728787       -19.8313
  44   2.0000      -0.725866       -19.7518
  45   2.0000      -0.691770       -18.8240
  46   2.0000      -0.684749       -18.6330
  47   2.0000      -0.679037       -18.4775
  48   2.0000      -0.675953       -18.3936
  49   2.0000      -0.665531       -18.1100
  50   2.0000      -0.648060       -17.6346
  51   2.0000      -0.644713       -17.5435
  52   2.0000      -0.634036       -17.2530
  53   2.0000      -0.618222       -16.8227
  54   2.0000      -0.604973       -16.4621
  55   2.0000      -0.600450       -16.3391
  56   2.0000      -0.597863       -16.2687
  57   2.0000      -0.576297       -15.6818
  58   2.0000      -0.573947       -15.6179
  59   2.0000      -0.565642       -15.3919
  60   2.0000      -0.553564       -15.0632
  61   2.0000      -0.548552       -14.9269
  62   2.0000      -0.538692       -14.6586
  63   2.0000      -0.527826       -14.3629
  64   2.0000      -0.517516       -14.0823
  65   2.0000      -0.510925       -13.9030
  66   2.0000      -0.498235       -13.5577
  67   2.0000      -0.493684       -13.4338
  68   2.0000      -0.480758       -13.0821
  69   2.0000      -0.464045       -12.6273
  70   2.0000      -0.456427       -12.4200
  71   2.0000      -0.448753       -12.2112
  72   2.0000      -0.353591        -9.6217
  73   2.0000      -0.347185        -9.4474
  74   2.0000      -0.327909        -8.9228
  75   2.0000      -0.318094        -8.6558
  76   2.0000      -0.317431        -8.6377
  77   0.0000       0.073401         1.9973
  78   0.0000       0.107856         2.9349
  79   0.0000       0.121274         3.3000
  80   0.0000       0.133616         3.6359
  81   0.0000       0.138304         3.7634

MULLIKEN ATOMIC CHARGES
-----------------------
   0 C :   -0.295958
   1 C :    0.047013
   2 O :   -0.381068
   3 C :    0.439646
   4 O :   -0.394215
   5 C :   -0.188023
   6 C :    0.152104
   7 C :   -0.281914
   8 N :   -0.127317
   9 C :    0.207444
  10 S :   -0.441286
  11 N :   -0.213009
  12 C :    0.050751
  13 C :    0.026839
  14 C :   -0.182845
  15 C :   -0.132836
  16 C :   -0.278263
  17 C :    0.313919
  18 O :   -0.358285
  19 C :   -0.251871
  20 H :    0.116952
  21 H :    0.100860
  22 H :    0.110884
  23 H :    0.103815
  24 H :    0.082214
  25 H :    0.123327
  26 H :    0.130120
  27 H :    0.103185
  28 H :    0.198662
  29 H :    0.199778
  30 H :    0.157565
  31 H :    0.164063
  32 H :    0.161689
  33 H :    0.129959
  34 H :    0.240334
  35 H :    0.165767
Sum of atomic charges:   -0.0000000

LOEWDIN ATOMIC CHARGES
----------------------
   0 C :    0.106676
   1 C :   -0.014668
   2 O :    0.287069
   3 C :   -0.418325
   4 O :    0.124450
   5 C :   -0.096828
   6 C :   -0.065328
   7 C :    0.125933
   8 N :    0.405588
   9 C :   -0.458112
  10 S :   -0.037023
  11 N :    0.396167
  12 C :   -0.048706
  13 C :   -0.042148
  14 C :    0.023801
  15 C :    0.040650
  16 C :   -0.001398
  17 C :   -0.192952
  18 O :    0.393425
  19 C :    0.028514
  20 H :   -0.022121
  21 H :   -0.025930
  22 H :   -0.024525
  23 H :   -0.023785
  24 H :   -0.034967
  25 H :   -0.010581
  26 H :   -0.007047
  27 H :   -0.020739
  28 H :   -0.058488
  29 H :   -0.063494
  30 H :   -0.007636
  31 H :   -0.023280
  32 H :   -0.020458
  33 H :   -0.035742
  34 H :   -0.154403
  35 H :   -0.023591

  Mayer bond orders larger than 0.100000
B(  0-C ,  1-C ) :   0.9787 B(  0-C , 20-H ) :   0.9717 B(  0-C , 21-H ) :   0.9730
B(  0-C , 22-H ) :   0.9699 B(  1-C ,  2-O ) :   0.9065 B(  1-C , 23-H ) :   0.9785
B(  1-C , 24-H ) :   0.9754 B(  2-O ,  3-C ) :   1.0706 B(  3-C ,  4-O ) :   2.0338
B(  3-C ,  5-C ) :   1.0177 B(  5-C ,  6-C ) :   1.6629 B(  5-C , 12-C ) :   0.9475
B(  6-C ,  7-C ) :   0.9535 B(  6-C ,  8-N ) :   1.1404 B(  7-C , 25-H ) :   0.9666
B(  7-C , 26-H ) :   0.9646 B(  7-C , 27-H ) :   0.9899 B(  8-N ,  9-C ) :   1.1846
B(  8-N , 28-H ) :   0.9472 B(  9-C , 10-S ) :   1.6101 B(  9-C , 11-N ) :   1.3039
B( 11-N , 12-C ) :   0.9787 B( 11-N , 29-H ) :   0.9486 B( 12-C , 13-C ) :   0.9677
B( 12-C , 30-H ) :   0.9961 B( 13-C , 14-C ) :   1.3796 B( 13-C , 19-C ) :   1.3634
B( 14-C , 15-C ) :   1.3957 B( 14-C , 31-H ) :   0.9620 B( 15-C , 16-C ) :   1.3592
B( 15-C , 32-H ) :   0.9707 B( 16-C , 17-C ) :   1.3324 B( 16-C , 33-H ) :   0.9854
B( 17-C , 18-O ) :   1.1053 B( 17-C , 19-C ) :   1.3671 B( 18-O , 34-H ) :   0.9802
B( 19-C , 35-H ) :   0.9593

MP2 TOTAL ENERGY:    -1274.325407268 Eh
FINAL SINGLE POINT ENERGY     -1274.325407267857

DIPOLE MOMENT
-------------
                                X             Y             Z
Electronic contribution:      9.19625      10.17017       8.58373
Nuclear contribution   :    -10.75010     -11.39694      -9.39986
                        -----------------------------------------
Total Dipole Moment    :     -1.55385      -1.22677      -0.81613
                        -----------------------------------------
Magnitude (a.u.)       :      2.14138
Magnitude (Debye)      :      5.44294

Rotational constants in cm-1:     0.010893     0.009180     0.005975
Rotational constants in MHz :   326.559302   275.217347   179.137769

                             ****ORCA TERMINATED NORMALLY****
TOTAL RUN TIME: 0 days 1 hours 54 minutes 47 seconds 234 msec
