                         Program Version 4.2.0 -  RELEASE  -
|  1> ! ri-mp2 cc-pvtz cc-pvtz/c TightSCF NoKeepInts
|  2>
|  3> %scf
|  4>   MaxCore 4096
|  5> end
|  6> *xyz  0  1
|  7>     C       14.0988405   16.7380132   15.5477922
|  8>     C       15.1894029   15.6896328   15.8399170
|  9>     O       16.3547898   15.9191858   15.0186227
| 10>     C       17.4238702   16.6829960   15.4121459
| 11>     O       18.5347564   16.5221639   14.9438620
| 12>     C       17.1584666   17.6921225   16.4720472
| 13>     C       16.7653386   18.9303068   16.0957023
| 14>     C       16.2919602   19.3407361   14.7169060
| 15>     N       16.8678075   20.0140109   16.9690876
| 16>     C       17.5753465   19.9858632   18.1426301
| 17>     S       17.7570783   21.3327672   19.0845669
| 18>     N       18.1510505   18.7853744   18.4828809
| 19>     C       17.9355604   17.5080676   17.7736784
| 20>     C       17.4079324   16.3688600   18.6303319
| 21>     C       17.9605457   15.0812627   18.5095735
| 22>     C       17.4567252   14.0149587   19.2728767
| 23>     C       16.3899300   14.2384094   20.1603595
| 24>     C       15.8341529   15.5198616   20.2777946
| 25>     O       14.7968181   15.7358445   21.1247799
| 26>     C       16.3360908   16.5793153   19.5150744
| 27>     H       14.3283209   17.7002424   16.0162821
| 28>     H       13.1364119   16.4002580   15.9515123
| 29>     H       13.9785037   16.8858037   14.4672756
| 30>     H       15.4377299   15.6643504   16.9082526
| 31>     H       14.7838381   14.7032819   15.5795535
| 32>     H       15.9868481   18.4838074   14.1047359
| 33>     H       17.0965824   19.8535104   14.1741936
| 34>     H       15.4323232   20.0196955   14.7719807
| 35>     H       16.4962844   20.9127236   16.7042177
| 36>     H       18.6683107   18.7924922   19.3531876
| 37>     H       18.9682296   17.2890217   17.4621756
| 38>     H       18.7795525   14.9056659   17.8149165
| 39>     H       17.8919638   13.0216826   19.1735928
| 40>     H       15.9976821   13.4171318   20.7514154
| 41>     H       14.6291790   14.9073805   21.5992345
| 42>     H       15.8887761   17.5631995   19.6148436
| 43> *
| 44>
| 45>                          ****END OF INPUT****

CARTESIAN COORDINATES (ANGSTROEM)
---------------------------------
  C     14.098840   16.738013   15.547792
  C     15.189403   15.689633   15.839917
  O     16.354790   15.919186   15.018623
  C     17.423870   16.682996   15.412146
  O     18.534756   16.522164   14.943862
  C     17.158467   17.692122   16.472047
  C     16.765339   18.930307   16.095702
  C     16.291960   19.340736   14.716906
  N     16.867808   20.014011   16.969088
  C     17.575346   19.985863   18.142630
  S     17.757078   21.332767   19.084567
  N     18.151051   18.785374   18.482881
  C     17.935560   17.508068   17.773678
  C     17.407932   16.368860   18.630332
  C     17.960546   15.081263   18.509573
  C     17.456725   14.014959   19.272877
  C     16.389930   14.238409   20.160359
  C     15.834153   15.519862   20.277795
  O     14.796818   15.735845   21.124780
  C     16.336091   16.579315   19.515074
  H     14.328321   17.700242   16.016282
  H     13.136412   16.400258   15.951512
  H     13.978504   16.885804   14.467276
  H     15.437730   15.664350   16.908253
  H     14.783838   14.703282   15.579553
  H     15.986848   18.483807   14.104736
  H     17.096582   19.853510   14.174194
  H     15.432323   20.019696   14.771981
  H     16.496284   20.912724   16.704218
  H     18.668311   18.792492   19.353188
  H     18.968230   17.289022   17.462176
  H     18.779553   14.905666   17.814916
  H     17.891964   13.021683   19.173593
  H     15.997682   13.417132   20.751415
  H     14.629179   14.907381   21.599234
  H     15.888776   17.563199   19.614844

 Total Charge           Charge          ....    0
 Multiplicity           Mult            ....    1
 Number of Electrons    NEL             ....  154
 Basis Dimension        Dim             ....  828

ORBITAL ENERGIES
----------------

  NO   OCC          E(Eh)            E(eV)
   0   2.0000     -91.889303     -2500.4351
   1   2.0000     -20.604283      -560.6710
   2   2.0000     -20.600403      -560.5655
   3   2.0000     -20.553159      -559.2799
   4   2.0000     -15.625717      -425.1974
   5   2.0000     -15.610396      -424.7805
   6   2.0000     -11.398822      -310.1777
   7   2.0000     -11.385427      -309.8132
   8   2.0000     -11.328148      -308.2546
   9   2.0000     -11.322774      -308.1083
  10   2.0000     -11.313532      -307.8569
  11   2.0000     -11.304435      -307.6093
  12   2.0000     -11.269983      -306.6718
  13   2.0000     -11.263734      -306.5018
  14   2.0000     -11.262534      -306.4691
  15   2.0000     -11.259725      -306.3927
  16   2.0000     -11.251634      -306.1725
  17   2.0000     -11.246873      -306.0430
  18   2.0000     -11.246303      -306.0275
  19   2.0000     -11.234409      -305.7038
  20   2.0000      -8.894403      -242.0290
  21   2.0000      -6.575984      -178.9416
  22   2.0000      -6.573973      -178.8869
  23   2.0000      -6.573392      -178.8711
  24   2.0000      -1.447706       -39.3941
  25   2.0000      -1.423984       -38.7486
  26   2.0000      -1.362486       -37.0751
  27   2.0000      -1.339464       -36.4487
  28   2.0000      -1.239019       -33.7154
  29   2.0000      -1.166499       -31.7420
  30   2.0000      -1.127419       -30.6786
  31   2.0000      -1.051737       -28.6192
  32   2.0000      -1.038677       -28.2638
  33   2.0000      -1.024223       -27.8705
  34   2.0000      -1.005884       -27.3715
  35   2.0000      -0.990542       -26.9540
  36   2.0000      -0.927807       -25.2469
  37   2.0000      -0.892611       -24.2892
  38   2.0000      -0.852765       -23.2049
  39   2.0000      -0.844050       -22.9678
  40   2.0000      -0.842204       -22.9175
  41   2.0000      -0.835314       -22.7301
  42   2.0000      -0.757010       -20.5993
  43   2.0000      -0.738655       -20.0998
  44   2.0000      -0.729441       -19.8491
  45   2.0000      -0.702144       -19.1063
  46   2.0000      -0.693162       -18.8619
  47   2.0000      -0.681573       -18.5466
  48   2.0000      -0.676409       -18.4060
  49   2.0000      -0.665928       -18.1208
  50   2.0000      -0.653222       -17.7751
  51   2.0000      -0.639850       -17.4112
  52   2.0000      -0.635217       -17.2851
  53   2.0000      -0.620140       -16.8749
  54   2.0000      -0.613245       -16.6873
  55   2.0000      -0.607773       -16.5384
  56   2.0000      -0.607015       -16.5177
  57   2.0000      -0.584325       -15.9003
  58   2.0000      -0.580690       -15.8014
  59   2.0000      -0.577838       -15.7238
  60   2.0000      -0.566225       -15.4078
  61   2.0000      -0.556790       -15.1510
  62   2.0000      -0.539577       -14.6826
  63   2.0000      -0.536551       -14.6003
  64   2.0000      -0.526451       -14.3255
  65   2.0000      -0.516843       -14.0640
  66   2.0000      -0.504575       -13.7302
  67   2.0000      -0.500241       -13.6122
  68   2.0000      -0.491355       -13.3704
  69   2.0000      -0.466271       -12.6879
  70   2.0000      -0.454825       -12.3764
  71   2.0000      -0.453853       -12.3500
  72   2.0000      -0.356779        -9.7085
  73   2.0000      -0.354472        -9.6457
  74   2.0000      -0.331268        -9.0143
  75   2.0000      -0.328428        -8.9370
  76   2.0000      -0.319394        -8.6912
  77   0.0000       0.090372         2.4592
  78   0.0000       0.099692         2.7128
  79   0.0000       0.119314         3.2467
  80   0.0000       0.124476         3.3872
  81   0.0000       0.126791         3.4502

MULLIKEN ATOMIC CHARGES
-----------------------
   0 C :   -0.319365
   1 C :    0.031934
   2 O :   -0.320372
   3 C :    0.422653
   4 O :   -0.379216
   5 C :   -0.198855
   6 C :    0.123437
   7 C :   -0.321304
   8 N :   -0.137408
   9 C :    0.210935
  10 S :   -0.443528
  11 N :   -0.223697
  12 C :    0.051172
  13 C :   -0.000511
  14 C :   -0.212669
  15 C :   -0.132681
  16 C :   -0.272934
  17 C :    0.310765
  18 O :   -0.353927
  19 C :   -0.233148
  20 H :    0.100611
  21 H :    0.116888
  22 H :    0.106935
  23 H :    0.107800
  24 H :    0.123895
  25 H :    0.123246
  26 H :    0.150606
  27 H :    0.110495
  28 H :    0.197134
  29 H :    0.202103
  30 H :    0.168376
  31 H :    0.172309
  32 H :    0.165822
  33 H :    0.134732
  34 H :    0.241866
  35 H :    0.175898
Sum of atomic charges:   -0.0000000

LOEWDIN ATOMIC CHARGES
----------------------
   0 C :    0.102917
   1 C :   -0.016516
   2 O :    0.300592
   3 C :   -0.416757
   4 O :    0.124463
   5 C :   -0.086014
   6 C :   -0.095621
   7 C :    0.126465
   8 N :    0.403503
   9 C :   -0.454500
  10 S :   -0.038549
  11 N :    0.395790
  12 C :   -0.052950
  13 C :   -0.046487
  14 C :    0.015813
  15 C :    0.046039
  16 C :    0.001152
  17 C :   -0.190737
  18 O :    0.397032
  19 C :    0.028203
  20 H :   -0.034072
  21 H :   -0.022969
  22 H :   -0.026922
  23 H :   -0.031204
  24 H :   -0.020706
  25 H :   -0.010082
  26 H :   -0.006645
  27 H :   -0.017234
  28 H :   -0.057470
  29 H :   -0.064387
  30 H :   -0.004240
  31 H :   -0.022623
  32 H :   -0.017590
  33 H :   -0.033708
  34 H :   -0.152243
  35 H :   -0.021745

  Mayer bond orders larger than 0.100000
B(  0-C ,  1-C ) :   0.9581 B(  0-C , 20-H ) :   0.9750 B(  0-C , 21-H ) :   0.9782
B(  0-C , 22-H ) :   0.9754 B(  1-C ,  2-O ) :   0.9013 B(  1-C , 23-H ) :   0.9630
B(  1-C , 24-H ) :   0.9853 B(  2-O ,  3-C ) :   1.1780 B(  3-C ,  4-O ) :   2.1177
B(  3-C ,  5-C ) :   0.8961 B(  5-C ,  6-C ) :   1.7373 B(  5-C , 12-C ) :   0.9443
B(  6-C ,  7-C ) :   0.9486 B(  6-C ,  8-N ) :   1.1019 B(  7-C , 25-H ) :   0.9772
B(  7-C , 26-H ) :   0.9634 B(  7-C , 27-H ) :   0.9730 B(  8-N ,  9-C ) :   1.2013
B(  8-N , 28-H ) :   0.9494 B(  9-C , 10-S ) :   1.6100 B(  9-C , 11-N ) :   1.2871
B( 11-N , 12-C ) :   0.9816 B( 11-N , 29-H ) :   0.9470 B( 12-C , 13-C ) :   0.9672
B( 12-C , 30-H ) :   0.9931 B( 13-C , 14-C ) :   1.3841 B( 13-C , 19-C ) :   1.3524
B( 14-C , 15-C ) :   1.3956 B( 14-C , 31-H ) :   0.9625 B( 15-C , 16-C ) :   1.3646
B( 15-C , 32-H ) :   0.9692 B( 16-C , 17-C ) :   1.3295 B( 16-C , 33-H ) :   0.9836
B( 17-C , 18-O ) :   1.1129 B( 17-C , 19-C ) :   1.3628 B( 18-O , 34-H ) :   0.9786
B( 19-C , 35-H ) :   0.9566

MP2 TOTAL ENERGY:    -1274.327954447 Eh
FINAL SINGLE POINT ENERGY     -1274.327954446693

DIPOLE MOMENT
-------------
                                X             Y             Z
Electronic contribution:      9.66502       5.88093       7.56868
Nuclear contribution   :    -11.20872      -7.48958      -7.60619
                        -----------------------------------------
Total Dipole Moment    :     -1.54370      -1.60865      -0.03751
                        -----------------------------------------
Magnitude (a.u.)       :      2.22984
Magnitude (Debye)      :      5.66780

Rotational constants in cm-1:     0.011594     0.009052     0.006505
Rotational constants in MHz :   347.587830   271.363063   195.029876

                             ****ORCA TERMINATED NORMALLY****
TOTAL RUN TIME: 0 days 1 hours 55 minutes 53 seconds 559 msec
