                         Program Version 4.2.0 -  RELEASE  -
|  1> ! ri-mp2 cc-pvtz cc-pvtz/c TightSCF NoKeepInts
|  2>
|  3> %scf
|  4>   MaxCore 4096
|  5> end
|  6> *xyz  0  1
|  7>     C       14.3480875   15.0172796   15.4951544
|  8>     C       14.8817919   16.4416894   15.2692216
|  9>     O       16.2229002   16.3209669   14.7548254
| 10>     C       17.2990102   16.4948825   15.5807179
| 11>     O       18.2137014   15.6919253   15.6005383
| 12>     C       17.2522930   17.6826680   16.4920115
| 13>     C       16.9679685   18.9222059   16.0201651
| 14>     C       16.4768149   19.2854951   14.6328828
| 15>     N       17.1981098   20.0535287   16.8058816
| 16>     C       17.9221639   20.0490820   17.9687273
| 17>     S       18.2497312   21.4429335   18.7958244
| 18>     N       18.3799052   18.8285019   18.4001044
| 19>     C       18.0245728   17.5258543   17.8026175
| 20>     C       17.3506535   16.5569457   18.7633474
| 21>     C       17.7812473   15.2205926   18.8431382
| 22>     C       17.1468296   14.3163271   19.7110962
| 23>     C       16.0709789   14.7518392   20.5036924
| 24>     C       15.6359547   16.0817127   20.4213044
| 25>     O       14.5910031   16.5025299   21.1774511
| 26>     C       16.2686329   16.9795020   19.5553558
| 27>     H       14.9482554   14.4959495   16.2521919
| 28>     H       14.3871054   14.4365372   14.5648899
| 29>     H       13.3078044   15.0440594   15.8414492
| 30>     H       14.2490275   16.9400712   14.5236080
| 31>     H       14.8314606   17.0154873   16.2036261
| 32>     H       16.9282274   18.6442855   13.8650127
| 33>     H       16.7371632   20.3165216   14.3619287
| 34>     H       15.3875232   19.1893983   14.5602645
| 35>     H       16.8967088   20.9603132   16.4855172
| 36>     H       18.9037850   18.8515571   19.2661699
| 37>     H       19.0226372   17.1568145   17.5226978
| 38>     H       18.6037441   14.8791169   18.2178147
| 39>     H       17.4871101   13.2833874   19.7621736
| 40>     H       15.5772722   14.0559378   21.1739356
| 41>     H       14.3206339   15.7596866   21.7381779
| 42>     H       15.9161911   18.0044141   19.5044847
| 43> *
| 44>
| 45>                          ****END OF INPUT****

CARTESIAN COORDINATES (ANGSTROEM)
---------------------------------
  C     14.348088   15.017280   15.495154
  C     14.881792   16.441689   15.269222
  O     16.222900   16.320967   14.754825
  C     17.299010   16.494882   15.580718
  O     18.213701   15.691925   15.600538
  C     17.252293   17.682668   16.492012
  C     16.967968   18.922206   16.020165
  C     16.476815   19.285495   14.632883
  N     17.198110   20.053529   16.805882
  C     17.922164   20.049082   17.968727
  S     18.249731   21.442933   18.795824
  N     18.379905   18.828502   18.400104
  C     18.024573   17.525854   17.802618
  C     17.350653   16.556946   18.763347
  C     17.781247   15.220593   18.843138
  C     17.146830   14.316327   19.711096
  C     16.070979   14.751839   20.503692
  C     15.635955   16.081713   20.421304
  O     14.591003   16.502530   21.177451
  C     16.268633   16.979502   19.555356
  H     14.948255   14.495950   16.252192
  H     14.387105   14.436537   14.564890
  H     13.307804   15.044059   15.841449
  H     14.249027   16.940071   14.523608
  H     14.831461   17.015487   16.203626
  H     16.928227   18.644285   13.865013
  H     16.737163   20.316522   14.361929
  H     15.387523   19.189398   14.560265
  H     16.896709   20.960313   16.485517
  H     18.903785   18.851557   19.266170
  H     19.022637   17.156814   17.522698
  H     18.603744   14.879117   18.217815
  H     17.487110   13.283387   19.762174
  H     15.577272   14.055938   21.173936
  H     14.320634   15.759687   21.738178
  H     15.916191   18.004414   19.504485

 Total Charge           Charge          ....    0
 Multiplicity           Mult            ....    1
 Number of Electrons    NEL             ....  154
 Basis Dimension        Dim             ....  828

ORBITAL ENERGIES
----------------

  NO   OCC          E(Eh)            E(eV)
   0   2.0000     -91.890397     -2500.4648
   1   2.0000     -20.599194      -560.5326
   2   2.0000     -20.597999      -560.5001
   3   2.0000     -20.550855      -559.2172
   4   2.0000     -15.629974      -425.3132
   5   2.0000     -15.609112      -424.7455
   6   2.0000     -11.397003      -310.1282
   7   2.0000     -11.385837      -309.8244
   8   2.0000     -11.337476      -308.5084
   9   2.0000     -11.314889      -307.8938
  10   2.0000     -11.308099      -307.7090
  11   2.0000     -11.306866      -307.6755
  12   2.0000     -11.265574      -306.5518
  13   2.0000     -11.262667      -306.4727
  14   2.0000     -11.262232      -306.4609
  15   2.0000     -11.254860      -306.2603
  16   2.0000     -11.244318      -305.9735
  17   2.0000     -11.240696      -305.8749
  18   2.0000     -11.237114      -305.7774
  19   2.0000     -11.230156      -305.5881
  20   2.0000      -8.895490      -242.0586
  21   2.0000      -6.577067      -178.9711
  22   2.0000      -6.575060      -178.9165
  23   2.0000      -6.574472      -178.9005
  24   2.0000      -1.450764       -39.4773
  25   2.0000      -1.417738       -38.5786
  26   2.0000      -1.361972       -37.0611
  27   2.0000      -1.341891       -36.5147
  28   2.0000      -1.239562       -33.7302
  29   2.0000      -1.159252       -31.5449
  30   2.0000      -1.125190       -30.6180
  31   2.0000      -1.047025       -28.4910
  32   2.0000      -1.038063       -28.2471
  33   2.0000      -1.016985       -27.6736
  34   2.0000      -1.004713       -27.3396
  35   2.0000      -0.989001       -26.9121
  36   2.0000      -0.925594       -25.1867
  37   2.0000      -0.885835       -24.1048
  38   2.0000      -0.855030       -23.2666
  39   2.0000      -0.842070       -22.9139
  40   2.0000      -0.835554       -22.7366
  41   2.0000      -0.834063       -22.6960
  42   2.0000      -0.752664       -20.4810
  43   2.0000      -0.739016       -20.1096
  44   2.0000      -0.731006       -19.8917
  45   2.0000      -0.695905       -18.9365
  46   2.0000      -0.687748       -18.7146
  47   2.0000      -0.681055       -18.5324
  48   2.0000      -0.676985       -18.4217
  49   2.0000      -0.662519       -18.0281
  50   2.0000      -0.656741       -17.8708
  51   2.0000      -0.646262       -17.5857
  52   2.0000      -0.638607       -17.3774
  53   2.0000      -0.610989       -16.6258
  54   2.0000      -0.605249       -16.4697
  55   2.0000      -0.602442       -16.3933
  56   2.0000      -0.601279       -16.3616
  57   2.0000      -0.581072       -15.8118
  58   2.0000      -0.576926       -15.6989
  59   2.0000      -0.571338       -15.5469
  60   2.0000      -0.561451       -15.2779
  61   2.0000      -0.558704       -15.2031
  62   2.0000      -0.547634       -14.9019
  63   2.0000      -0.526596       -14.3294
  64   2.0000      -0.518269       -14.1028
  65   2.0000      -0.514071       -13.9886
  66   2.0000      -0.501662       -13.6509
  67   2.0000      -0.500267       -13.6130
  68   2.0000      -0.488395       -13.2899
  69   2.0000      -0.470285       -12.7971
  70   2.0000      -0.458344       -12.4722
  71   2.0000      -0.449684       -12.2365
  72   2.0000      -0.356220        -9.6932
  73   2.0000      -0.350537        -9.5386
  74   2.0000      -0.329669        -8.9707
  75   2.0000      -0.322219        -8.7680
  76   2.0000      -0.319805        -8.7023
  77   0.0000       0.077404         2.1063
  78   0.0000       0.103856         2.8261
  79   0.0000       0.118266         3.2182
  80   0.0000       0.130921         3.5626
  81   0.0000       0.134181         3.6512

MULLIKEN ATOMIC CHARGES
-----------------------
   0 C :   -0.256826
   1 C :    0.005520
   2 O :   -0.337087
   3 C :    0.436791
   4 O :   -0.381384
   5 C :   -0.259145
   6 C :    0.180977
   7 C :   -0.311474
   8 N :   -0.133959
   9 C :    0.206009
  10 S :   -0.440751
  11 N :   -0.218119
  12 C :    0.064196
  13 C :    0.024465
  14 C :   -0.205751
  15 C :   -0.129883
  16 C :   -0.277365
  17 C :    0.314368
  18 O :   -0.357145
  19 C :   -0.255888
  20 H :    0.104204
  21 H :    0.102549
  22 H :    0.089760
  23 H :    0.104174
  24 H :    0.109770
  25 H :    0.141455
  26 H :    0.117486
  27 H :    0.120314
  28 H :    0.198320
  29 H :    0.201123
  30 H :    0.163278
  31 H :    0.173050
  32 H :    0.164182
  33 H :    0.130987
  34 H :    0.241153
  35 H :    0.170647
Sum of atomic charges:   -0.0000000

LOEWDIN ATOMIC CHARGES
----------------------
   0 C :    0.108781
   1 C :   -0.025280
   2 O :    0.305627
   3 C :   -0.419283
   4 O :    0.122824
   5 C :   -0.093146
   6 C :   -0.078654
   7 C :    0.128801
   8 N :    0.403934
   9 C :   -0.457518
  10 S :   -0.036552
  11 N :    0.396064
  12 C :   -0.049617
  13 C :   -0.043722
  14 C :    0.022163
  15 C :    0.043207
  16 C :   -0.000414
  17 C :   -0.192313
  18 O :    0.394109
  19 C :    0.026571
  20 H :   -0.023268
  21 H :   -0.023473
  22 H :   -0.026900
  23 H :   -0.030137
  24 H :   -0.035602
  25 H :   -0.005922
  26 H :   -0.015260
  27 H :   -0.015182
  28 H :   -0.057914
  29 H :   -0.063415
  30 H :   -0.005361
  31 H :   -0.021558
  32 H :   -0.019145
  33 H :   -0.035101
  34 H :   -0.153497
  35 H :   -0.023848

  Mayer bond orders larger than 0.100000
B(  0-C ,  1-C ) :   0.9874 B(  0-C , 20-H ) :   0.9748 B(  0-C , 21-H ) :   0.9780
B(  0-C , 22-H ) :   0.9763 B(  1-C ,  2-O ) :   0.8918 B(  1-C , 23-H ) :   0.9784
B(  1-C , 24-H ) :   0.9574 B(  2-O ,  3-C ) :   1.1482 B(  3-C ,  4-O ) :   2.0818
B(  3-C ,  5-C ) :   0.9489 B(  5-C ,  6-C ) :   1.6976 B(  5-C , 12-C ) :   0.9434
B(  6-C ,  7-C ) :   0.9362 B(  6-C ,  8-N ) :   1.1239 B(  7-C , 25-H ) :   0.9682
B(  7-C , 26-H ) :   0.9856 B(  7-C , 27-H ) :   0.9658 B(  8-N ,  9-C ) :   1.1906
B(  8-N , 28-H ) :   0.9488 B(  9-C , 10-S ) :   1.6117 B(  9-C , 11-N ) :   1.2960
B( 11-N , 12-C ) :   0.9852 B( 11-N , 29-H ) :   0.9483 B( 12-C , 13-C ) :   0.9679
B( 12-C , 30-H ) :   0.9920 B( 13-C , 14-C ) :   1.3834 B( 13-C , 19-C ) :   1.3564
B( 14-C , 15-C ) :   1.3938 B( 14-C , 31-H ) :   0.9596 B( 15-C , 16-C ) :   1.3609
B( 15-C , 32-H ) :   0.9699 B( 16-C , 17-C ) :   1.3312 B( 16-C , 33-H ) :   0.9852
B( 17-C , 18-O ) :   1.1075 B( 17-C , 19-C ) :   1.3661 B( 18-O , 34-H ) :   0.9796
B( 19-C , 35-H ) :   0.9575

MP2 TOTAL ENERGY:    -1274.331369945 Eh
FINAL SINGLE POINT ENERGY     -1274.331369945008

DIPOLE MOMENT
-------------
                                X             Y             Z
Electronic contribution:     10.01909       8.90698       7.81616
Nuclear contribution   :    -11.65377      -9.91497      -8.26860
                        -----------------------------------------
Total Dipole Moment    :     -1.63468      -1.00799      -0.45245
                        -----------------------------------------
Magnitude (a.u.)       :      1.97306
Magnitude (Debye)      :      5.01511

Rotational constants in cm-1:     0.011050     0.009154     0.006223
Rotational constants in MHz :   331.270795   274.426250   186.568069

                             ****ORCA TERMINATED NORMALLY****
TOTAL RUN TIME: 0 days 1 hours 39 minutes 46 seconds 468 msec
