                         Program Version 4.2.0 -  RELEASE  -
|  1> ! ri-mp2 cc-pvtz cc-pvtz/c TightSCF NoKeepInts
|  2>
|  3> %scf
|  4>   MaxCore 4096
|  5> end
|  6> *xyz  0  1
|  7>     C       13.8259590   15.4380253   14.5637034
|  8>     C       15.2943590   15.6152874   14.1414988
|  9>     O       15.8157804   16.7439027   14.8687728
| 10>     C       16.8069100   16.5787274   15.7943229
| 11>     O       17.4286401   15.5353563   15.9101260
| 12>     C       17.0246559   17.7533155   16.7085896
| 13>     C       16.7456919   19.0356053   16.3503619
| 14>     C       15.9754748   19.5237121   15.1387354
| 15>     N       17.2145468   20.1074248   17.1146944
| 16>     C       18.1413994   20.0001450   18.1157808
| 17>     S       18.7327686   21.3285403   18.9039916
| 18>     N       18.5707732   18.7325663   18.4149757
| 19>     C       18.0095747   17.4878348   17.8554049
| 20>     C       17.4640057   16.5470724   18.9218758
| 21>     C       17.9357042   15.2258604   19.0229792
| 22>     C       17.4331669   14.3610744   20.0097088
| 23>     C       16.4517426   14.8221415   20.9039155
| 24>     C       15.9787820   16.1378999   20.8042056
| 25>     O       15.0284995   16.5844261   21.6638462
| 26>     C       16.4806835   16.9961089   19.8206074
| 27>     H       13.7578731   15.2158464   15.6361983
| 28>     H       13.3648073   14.6093303   14.0127352
| 29>     H       13.2501808   16.3494169   14.3603953
| 30>     H       15.8539061   14.6905483   14.3367794
| 31>     H       15.3417432   15.8193094   13.0641276
| 32>     H       16.4438035   19.1716752   14.2111353
| 33>     H       15.9246472   20.6176117   15.0773472
| 34>     H       14.9431245   19.1525052   15.1605230
| 35>     H       16.9247761   21.0463378   16.8928086
| 36>     H       19.2371784   18.6779629   19.1748807
| 37>     H       18.9083628   17.0621573   17.3859216
| 38>     H       18.6833783   14.8642975   18.3210055
| 39>     H       17.8005787   13.3384867   20.0736402
| 40>     H       16.0597395   14.1571122   21.6661088
| 41>     H       14.8285554   15.8602463   22.2756445
| 42>     H       16.1052270   18.0121291   19.7606520
| 43> *
| 44>
| 45>                          ****END OF INPUT****

CARTESIAN COORDINATES (ANGSTROEM)
---------------------------------
  C     13.825959   15.438025   14.563703
  C     15.294359   15.615287   14.141499
  O     15.815780   16.743903   14.868773
  C     16.806910   16.578727   15.794323
  O     17.428640   15.535356   15.910126
  C     17.024656   17.753315   16.708590
  C     16.745692   19.035605   16.350362
  C     15.975475   19.523712   15.138735
  N     17.214547   20.107425   17.114694
  C     18.141399   20.000145   18.115781
  S     18.732769   21.328540   18.903992
  N     18.570773   18.732566   18.414976
  C     18.009575   17.487835   17.855405
  C     17.464006   16.547072   18.921876
  C     17.935704   15.225860   19.022979
  C     17.433167   14.361074   20.009709
  C     16.451743   14.822142   20.903916
  C     15.978782   16.137900   20.804206
  O     15.028500   16.584426   21.663846
  C     16.480684   16.996109   19.820607
  H     13.757873   15.215846   15.636198
  H     13.364807   14.609330   14.012735
  H     13.250181   16.349417   14.360395
  H     15.853906   14.690548   14.336779
  H     15.341743   15.819309   13.064128
  H     16.443804   19.171675   14.211135
  H     15.924647   20.617612   15.077347
  H     14.943124   19.152505   15.160523
  H     16.924776   21.046338   16.892809
  H     19.237178   18.677963   19.174881
  H     18.908363   17.062157   17.385922
  H     18.683378   14.864297   18.321005
  H     17.800579   13.338487   20.073640
  H     16.059739   14.157112   21.666109
  H     14.828555   15.860246   22.275644
  H     16.105227   18.012129   19.760652

 Total Charge           Charge          ....    0
 Multiplicity           Mult            ....    1
 Number of Electrons    NEL             ....  154
 Basis Dimension        Dim             ....  828

ORBITAL ENERGIES
----------------

  NO   OCC          E(Eh)            E(eV)
   0   2.0000     -91.887733     -2500.3923
   1   2.0000     -20.604409      -560.6745
   2   2.0000     -20.591229      -560.3158
   3   2.0000     -20.544415      -559.0420
   4   2.0000     -15.628317      -425.2681
   5   2.0000     -15.605367      -424.6436
   6   2.0000     -11.396652      -310.1187
   7   2.0000     -11.382206      -309.7256
   8   2.0000     -11.338225      -308.5288
   9   2.0000     -11.307163      -307.6835
  10   2.0000     -11.303856      -307.5936
  11   2.0000     -11.298896      -307.4586
  12   2.0000     -11.261286      -306.4352
  13   2.0000     -11.258955      -306.3717
  14   2.0000     -11.254397      -306.2477
  15   2.0000     -11.247211      -306.0522
  16   2.0000     -11.237456      -305.7867
  17   2.0000     -11.233591      -305.6815
  18   2.0000     -11.231717      -305.6306
  19   2.0000     -11.230318      -305.5925
  20   2.0000      -8.892818      -241.9859
  21   2.0000      -6.574397      -178.8984
  22   2.0000      -6.572393      -178.8439
  23   2.0000      -6.571806      -178.8279
  24   2.0000      -1.453650       -39.5558
  25   2.0000      -1.410977       -38.3946
  26   2.0000      -1.357326       -36.9347
  27   2.0000      -1.339696       -36.4550
  28   2.0000      -1.236823       -33.6557
  29   2.0000      -1.151816       -31.3425
  30   2.0000      -1.120348       -30.4862
  31   2.0000      -1.044079       -28.4108
  32   2.0000      -1.036080       -28.1932
  33   2.0000      -1.009365       -27.4662
  34   2.0000      -0.998540       -27.1717
  35   2.0000      -0.983412       -26.7600
  36   2.0000      -0.920404       -25.0455
  37   2.0000      -0.891265       -24.2526
  38   2.0000      -0.847142       -23.0519
  39   2.0000      -0.834311       -22.7028
  40   2.0000      -0.827456       -22.5162
  41   2.0000      -0.815878       -22.2012
  42   2.0000      -0.761105       -20.7107
  43   2.0000      -0.736345       -20.0370
  44   2.0000      -0.725649       -19.7459
  45   2.0000      -0.690813       -18.7980
  46   2.0000      -0.685266       -18.6470
  47   2.0000      -0.679247       -18.4832
  48   2.0000      -0.670016       -18.2321
  49   2.0000      -0.659298       -17.9404
  50   2.0000      -0.647819       -17.6280
  51   2.0000      -0.643946       -17.5227
  52   2.0000      -0.632333       -17.2066
  53   2.0000      -0.604407       -16.4468
  54   2.0000      -0.599205       -16.3052
  55   2.0000      -0.596861       -16.2414
  56   2.0000      -0.593994       -16.1634
  57   2.0000      -0.583386       -15.8747
  58   2.0000      -0.573090       -15.5946
  59   2.0000      -0.561631       -15.2827
  60   2.0000      -0.559631       -15.2283
  61   2.0000      -0.556295       -15.1375
  62   2.0000      -0.537912       -14.6373
  63   2.0000      -0.529627       -14.4119
  64   2.0000      -0.515275       -14.0213
  65   2.0000      -0.508444       -13.8355
  66   2.0000      -0.499126       -13.5819
  67   2.0000      -0.493740       -13.4354
  68   2.0000      -0.481217       -13.0946
  69   2.0000      -0.465442       -12.6653
  70   2.0000      -0.456376       -12.4186
  71   2.0000      -0.453313       -12.3353
  72   2.0000      -0.353003        -9.6057
  73   2.0000      -0.344048        -9.3620
  74   2.0000      -0.326814        -8.8931
  75   2.0000      -0.316907        -8.6235
  76   2.0000      -0.313744        -8.5374
  77   0.0000       0.077732         2.1152
  78   0.0000       0.112218         3.0536
  79   0.0000       0.119864         3.2617
  80   0.0000       0.136335         3.7099
  81   0.0000       0.140132         3.8132

MULLIKEN ATOMIC CHARGES
-----------------------
   0 C :   -0.266030
   1 C :    0.011857
   2 O :   -0.343548
   3 C :    0.430660
   4 O :   -0.426497
   5 C :   -0.182131
   6 C :    0.163790
   7 C :   -0.281706
   8 N :   -0.128958
   9 C :    0.207352
  10 S :   -0.442917
  11 N :   -0.210537
  12 C :    0.042643
  13 C :    0.031288
  14 C :   -0.164801
  15 C :   -0.134574
  16 C :   -0.277059
  17 C :    0.314164
  18 O :   -0.359209
  19 C :   -0.251199
  20 H :    0.101315
  21 H :    0.094243
  22 H :    0.090351
  23 H :    0.123892
  24 H :    0.098067
  25 H :    0.125105
  26 H :    0.102069
  27 H :    0.129898
  28 H :    0.198764
  29 H :    0.199916
  30 H :    0.155173
  31 H :    0.158064
  32 H :    0.159651
  33 H :    0.128024
  34 H :    0.239851
  35 H :    0.163031
Sum of atomic charges:   -0.0000000

LOEWDIN ATOMIC CHARGES
----------------------
   0 C :    0.104381
   1 C :   -0.012554
   2 O :    0.308555
   3 C :   -0.415121
   4 O :    0.102204
   5 C :   -0.091284
   6 C :   -0.063878
   7 C :    0.124708
   8 N :    0.405397
   9 C :   -0.458833
  10 S :   -0.037984
  11 N :    0.396614
  12 C :   -0.048313
  13 C :   -0.040398
  14 C :    0.025239
  15 C :    0.040901
  16 C :   -0.001225
  17 C :   -0.192572
  18 O :    0.392986
  19 C :    0.029686
  20 H :   -0.024723
  21 H :   -0.025330
  22 H :   -0.029667
  23 H :   -0.027103
  24 H :   -0.030310
  25 H :   -0.009498
  26 H :   -0.021357
  27 H :   -0.009735
  28 H :   -0.058851
  29 H :   -0.063025
  30 H :   -0.008488
  31 H :   -0.024096
  32 H :   -0.021169
  33 H :   -0.036247
  34 H :   -0.154968
  35 H :   -0.023941

  Mayer bond orders larger than 0.100000
B(  0-C ,  1-C ) :   0.9721 B(  0-C , 20-H ) :   0.9773 B(  0-C , 21-H ) :   0.9760
B(  0-C , 22-H ) :   0.9792 B(  1-C ,  2-O ) :   0.8862 B(  1-C , 23-H ) :   0.9725
B(  1-C , 24-H ) :   0.9830 B(  2-O ,  3-C ) :   1.1598 B(  3-C ,  4-O ) :   1.9810
B(  3-C ,  5-C ) :   1.0414 B(  5-C ,  6-C ) :   1.6559 B(  5-C , 12-C ) :   0.9509
B(  6-C ,  7-C ) :   0.9537 B(  6-C ,  8-N ) :   1.1357 B(  7-C , 25-H ) :   0.9654
B(  7-C , 26-H ) :   0.9911 B(  7-C , 27-H ) :   0.9634 B(  8-N ,  9-C ) :   1.1854
B(  8-N , 28-H ) :   0.9468 B(  9-C , 10-S ) :   1.6074 B(  9-C , 11-N ) :   1.3071
B( 11-N , 12-C ) :   0.9763 B( 11-N , 29-H ) :   0.9486 B( 12-C , 13-C ) :   0.9739
B( 12-C , 30-H ) :   0.9976 B( 13-C , 14-C ) :   1.3759 B( 13-C , 19-C ) :   1.3665
B( 14-C , 15-C ) :   1.3974 B( 14-C , 31-H ) :   0.9641 B( 15-C , 16-C ) :   1.3585
B( 15-C , 32-H ) :   0.9713 B( 16-C , 17-C ) :   1.3335 B( 16-C , 33-H ) :   0.9860
B( 17-C , 18-O ) :   1.1031 B( 17-C , 19-C ) :   1.3676 B( 18-O , 34-H ) :   0.9807
B( 19-C , 35-H ) :   0.9603

MP2 TOTAL ENERGY:    -1274.341169433 Eh
FINAL SINGLE POINT ENERGY     -1274.341169432726

DIPOLE MOMENT
-------------
                                X             Y             Z
Electronic contribution:     10.78114       9.12820      11.08448
Nuclear contribution   :    -12.15784     -10.44035     -12.24900
                        -----------------------------------------
Total Dipole Moment    :     -1.37670      -1.31214      -1.16452
                        -----------------------------------------
Magnitude (a.u.)       :      2.23005
Magnitude (Debye)      :      5.66834

Rotational constants in cm-1:     0.009699     0.009146     0.005621
Rotational constants in MHz :   290.765026   274.181835   168.504104

                             ****ORCA TERMINATED NORMALLY****
TOTAL RUN TIME: 0 days 1 hours 54 minutes 39 seconds 188 msec
