                         Program Version 4.2.0 -  RELEASE  -
|  1> ! ri-mp2 cc-pvtz cc-pvtz/c TightSCF NoKeepInts
|  2>
|  3> %scf
|  4>   MaxCore 4096
|  5> end
|  6> *xyz  0  1
|  7>     C       15.4639581   14.1200071   14.6569092
|  8>     C       14.8207509   15.3317217   15.3517068
|  9>     O       15.8898833   16.1944314   15.7776559
| 10>     C       15.7438301   17.5522817   15.7216924
| 11>     O       14.9128964   18.0891142   15.0089448
| 12>     C       16.6585262   18.2699811   16.6783848
| 13>     C       16.8497387   19.6111000   16.5830979
| 14>     C       16.0458599   20.5950883   15.7582803
| 15>     N       17.8854837   20.2417513   17.2763119
| 16>     C       18.8895462   19.5844078   17.9340936
| 17>     S       20.1408054   20.3919467   18.6537941
| 18>     N       18.8161875   18.2146325   17.9473029
| 19>     C       17.6902729   17.4128217   17.4318932
| 20>     C       17.0869489   16.5004189   18.4920987
| 21>     C       17.2441505   15.1044622   18.4106156
| 22>     C       16.6861528   14.2652221   19.3896304
| 23>     C       15.9689200   14.8272253   20.4598236
| 24>     C       15.8149787   16.2180368   20.5450853
| 25>     O       15.1238883   16.7631156   21.5777096
| 26>     C       16.3708850   17.0505727   19.5686724
| 27>     H       14.6925771   13.4217939   14.3099566
| 28>     H       16.1266770   13.5849392   15.3482152
| 29>     H       16.0525796   14.4406271   13.7882503
| 30>     H       14.1569177   15.8317884   14.6334536
| 31>     H       14.2223230   15.0138037   16.2154459
| 32>     H       14.9757512   20.5049497   15.9852097
| 33>     H       16.1716647   20.3953589   14.6865063
| 34>     H       16.3297201   21.6389686   15.9363540
| 35>     H       17.9631133   21.2460022   17.2554305
| 36>     H       19.5540904   17.7584036   18.4686332
| 37>     H       18.2075552   16.8230607   16.6618051
| 38>     H       17.7933288   14.6693817   17.5798622
| 39>     H       16.8101121   13.1861504   19.3173577
| 40>     H       15.5365880   14.1834409   21.2187052
| 41>     H       14.8433671   16.0379292   22.1558216
| 42>     H       16.2469716   18.1250628   19.6532893
| 43> *
| 44>
| 45>                          ****END OF INPUT****

CARTESIAN COORDINATES (ANGSTROEM)
---------------------------------
  C     15.463958   14.120007   14.656909
  C     14.820751   15.331722   15.351707
  O     15.889883   16.194431   15.777656
  C     15.743830   17.552282   15.721692
  O     14.912896   18.089114   15.008945
  C     16.658526   18.269981   16.678385
  C     16.849739   19.611100   16.583098
  C     16.045860   20.595088   15.758280
  N     17.885484   20.241751   17.276312
  C     18.889546   19.584408   17.934094
  S     20.140805   20.391947   18.653794
  N     18.816188   18.214633   17.947303
  C     17.690273   17.412822   17.431893
  C     17.086949   16.500419   18.492099
  C     17.244150   15.104462   18.410616
  C     16.686153   14.265222   19.389630
  C     15.968920   14.827225   20.459824
  C     15.814979   16.218037   20.545085
  O     15.123888   16.763116   21.577710
  C     16.370885   17.050573   19.568672
  H     14.692577   13.421794   14.309957
  H     16.126677   13.584939   15.348215
  H     16.052580   14.440627   13.788250
  H     14.156918   15.831788   14.633454
  H     14.222323   15.013804   16.215446
  H     14.975751   20.504950   15.985210
  H     16.171665   20.395359   14.686506
  H     16.329720   21.638969   15.936354
  H     17.963113   21.246002   17.255430
  H     19.554090   17.758404   18.468633
  H     18.207555   16.823061   16.661805
  H     17.793329   14.669382   17.579862
  H     16.810112   13.186150   19.317358
  H     15.536588   14.183441   21.218705
  H     14.843367   16.037929   22.155822
  H     16.246972   18.125063   19.653289

 Total Charge           Charge          ....    0
 Multiplicity           Mult            ....    1
 Number of Electrons    NEL             ....  154
 Basis Dimension        Dim             ....  828

ORBITAL ENERGIES
----------------

  NO   OCC          E(Eh)            E(eV)
   0   2.0000     -91.889011     -2500.4271
   1   2.0000     -20.599395      -560.5380
   2   2.0000     -20.596522      -560.4598
   3   2.0000     -20.541247      -558.9557
   4   2.0000     -15.629351      -425.2963
   5   2.0000     -15.607131      -424.6916
   6   2.0000     -11.394776      -310.0676
   7   2.0000     -11.383639      -309.7646
   8   2.0000     -11.337490      -308.5088
   9   2.0000     -11.313736      -307.8624
  10   2.0000     -11.307656      -307.6970
  11   2.0000     -11.294998      -307.3525
  12   2.0000     -11.260862      -306.4236
  13   2.0000     -11.258950      -306.3716
  14   2.0000     -11.255231      -306.2704
  15   2.0000     -11.251627      -306.1723
  16   2.0000     -11.243640      -305.9550
  17   2.0000     -11.239033      -305.8296
  18   2.0000     -11.238813      -305.8237
  19   2.0000     -11.230011      -305.5841
  20   2.0000      -8.894079      -242.0202
  21   2.0000      -6.575651      -178.9326
  22   2.0000      -6.573654      -178.8782
  23   2.0000      -6.573062      -178.8621
  24   2.0000      -1.450722       -39.4762
  25   2.0000      -1.416190       -38.5365
  26   2.0000      -1.354374       -36.8544
  27   2.0000      -1.340487       -36.4765
  28   2.0000      -1.238362       -33.6975
  29   2.0000      -1.157624       -31.5005
  30   2.0000      -1.121142       -30.5078
  31   2.0000      -1.043297       -28.3895
  32   2.0000      -1.039948       -28.2984
  33   2.0000      -1.015108       -27.6225
  34   2.0000      -0.996414       -27.1138
  35   2.0000      -0.984757       -26.7966
  36   2.0000      -0.921869       -25.0853
  37   2.0000      -0.888038       -24.1647
  38   2.0000      -0.846413       -23.0321
  39   2.0000      -0.837924       -22.8011
  40   2.0000      -0.834241       -22.7009
  41   2.0000      -0.818287       -22.2667
  42   2.0000      -0.764876       -20.8133
  43   2.0000      -0.733688       -19.9647
  44   2.0000      -0.721539       -19.6341
  45   2.0000      -0.695195       -18.9172
  46   2.0000      -0.686931       -18.6923
  47   2.0000      -0.679337       -18.4857
  48   2.0000      -0.675371       -18.3778
  49   2.0000      -0.658997       -17.9322
  50   2.0000      -0.647296       -17.6138
  51   2.0000      -0.640279       -17.4229
  52   2.0000      -0.631937       -17.1959
  53   2.0000      -0.607991       -16.5443
  54   2.0000      -0.606521       -16.5043
  55   2.0000      -0.600114       -16.3299
  56   2.0000      -0.598915       -16.2973
  57   2.0000      -0.577607       -15.7175
  58   2.0000      -0.569790       -15.5048
  59   2.0000      -0.566349       -15.4111
  60   2.0000      -0.562070       -15.2947
  61   2.0000      -0.542216       -14.7545
  62   2.0000      -0.540807       -14.7161
  63   2.0000      -0.527617       -14.3572
  64   2.0000      -0.524219       -14.2647
  65   2.0000      -0.513263       -13.9666
  66   2.0000      -0.500899       -13.6302
  67   2.0000      -0.496338       -13.5060
  68   2.0000      -0.485251       -13.2044
  69   2.0000      -0.464275       -12.6336
  70   2.0000      -0.457599       -12.4519
  71   2.0000      -0.446755       -12.1568
  72   2.0000      -0.353099        -9.6083
  73   2.0000      -0.349849        -9.5199
  74   2.0000      -0.328141        -8.9292
  75   2.0000      -0.321145        -8.7388
  76   2.0000      -0.318195        -8.6585
  77   0.0000       0.076467         2.0808
  78   0.0000       0.104568         2.8454
  79   0.0000       0.124571         3.3897
  80   0.0000       0.132210         3.5976
  81   0.0000       0.135494         3.6870

MULLIKEN ATOMIC CHARGES
-----------------------
   0 C :   -0.265009
   1 C :    0.013219
   2 O :   -0.348815
   3 C :    0.448146
   4 O :   -0.434334
   5 C :   -0.229675
   6 C :    0.170951
   7 C :   -0.268357
   8 N :   -0.125985
   9 C :    0.209779
  10 S :   -0.441471
  11 N :   -0.214867
  12 C :    0.057713
  13 C :    0.043711
  14 C :   -0.183352
  15 C :   -0.133470
  16 C :   -0.276294
  17 C :    0.316383
  18 O :   -0.356669
  19 C :   -0.248542
  20 H :    0.091971
  21 H :    0.089978
  22 H :    0.097592
  23 H :    0.127574
  24 H :    0.101436
  25 H :    0.133894
  26 H :    0.129012
  27 H :    0.094438
  28 H :    0.199916
  29 H :    0.200439
  30 H :    0.152957
  31 H :    0.153705
  32 H :    0.160565
  33 H :    0.130141
  34 H :    0.240512
  35 H :    0.162809
Sum of atomic charges:   -0.0000000

LOEWDIN ATOMIC CHARGES
----------------------
   0 C :    0.105412
   1 C :   -0.012791
   2 O :    0.309897
   3 C :   -0.414583
   4 O :    0.096180
   5 C :   -0.095789
   6 C :   -0.055997
   7 C :    0.131211
   8 N :    0.407240
   9 C :   -0.456709
  10 S :   -0.036222
  11 N :    0.394683
  12 C :   -0.054742
  13 C :   -0.039510
  14 C :    0.016918
  15 C :    0.038464
  16 C :   -0.000835
  17 C :   -0.189718
  18 O :    0.395068
  19 C :    0.033248
  20 H :   -0.025300
  21 H :   -0.031061
  22 H :   -0.025794
  23 H :   -0.027732
  24 H :   -0.030012
  25 H :   -0.004145
  26 H :   -0.005014
  27 H :   -0.023682
  28 H :   -0.057122
  29 H :   -0.064293
  30 H :   -0.013679
  31 H :   -0.030065
  32 H :   -0.021468
  33 H :   -0.035445
  34 H :   -0.153988
  35 H :   -0.022624

  Mayer bond orders larger than 0.100000
B(  0-C ,  1-C ) :   0.9735 B(  0-C , 20-H ) :   0.9765 B(  0-C , 21-H ) :   0.9798
B(  0-C , 22-H ) :   0.9780 B(  1-C ,  2-O ) :   0.8867 B(  1-C , 23-H ) :   0.9759
B(  1-C , 24-H ) :   0.9751 B(  2-O ,  3-C ) :   1.1622 B(  3-C ,  4-O ) :   1.9738
B(  3-C ,  5-C ) :   1.0644 B(  5-C ,  6-C ) :   1.6391 B(  5-C , 12-C ) :   0.9561
B(  6-C ,  7-C ) :   0.9655 B(  6-C ,  8-N ) :   1.1534 B(  7-C , 25-H ) :   0.9610
B(  7-C , 26-H ) :   0.9589 B(  7-C , 27-H ) :   0.9905 B(  8-N ,  9-C ) :   1.1874
B(  8-N , 28-H ) :   0.9464 B(  9-C , 10-S ) :   1.6068 B(  9-C , 11-N ) :   1.3089
B( 11-N , 12-C ) :   0.9696 B( 11-N , 29-H ) :   0.9484 B( 12-C , 13-C ) :   0.9621
B( 12-C , 30-H ) :   1.0015 B( 13-C , 14-C ) :   1.3550 B( 13-C , 19-C ) :   1.3803
B( 14-C , 15-C ) :   1.3924 B( 14-C , 31-H ) :   0.9707 B( 15-C , 16-C ) :   1.3601
B( 15-C , 32-H ) :   0.9705 B( 16-C , 17-C ) :   1.3346 B( 16-C , 33-H ) :   0.9850
B( 17-C , 18-O ) :   1.1048 B( 17-C , 19-C ) :   1.3645 B( 18-O , 34-H ) :   0.9799
B( 19-C , 35-H ) :   0.9596

MP2 TOTAL ENERGY:    -1274.341884811 Eh
FINAL SINGLE POINT ENERGY     -1274.341884811331

DIPOLE MOMENT
-------------
                                X             Y             Z
Electronic contribution:      8.69246      10.89942       8.94170
Nuclear contribution   :     -9.90059     -12.50793      -9.22506
                        -----------------------------------------
Total Dipole Moment    :     -1.20814      -1.60851      -0.28336
                        -----------------------------------------
Magnitude (a.u.)       :      2.03155
Magnitude (Debye)      :      5.16378

Rotational constants in cm-1:     0.011090     0.008468     0.005888
Rotational constants in MHz :   332.462151   253.864462   176.513588

                             ****ORCA TERMINATED NORMALLY****
TOTAL RUN TIME: 0 days 1 hours 40 minutes 14 seconds 276 msec
