                         Program Version 4.2.0 -  RELEASE  -
|  1> ! ri-mp2 cc-pvtz cc-pvtz/c TightSCF NoKeepInts
|  2>
|  3> %scf
|  4>   MaxCore 4096
|  5> end
|  6> *xyz  0  1
|  7>     C       14.9954536   15.0329700   13.8998030
|  8>     C       15.1805972   14.9852681   15.4323553
|  9>     O       16.1250802   15.9767707   15.8889379
| 10>     C       15.9129429   17.3240834   15.7601004
| 11>     O       15.0878629   17.7989964   14.9998554
| 12>     C       16.7298182   18.1240351   16.7410734
| 13>     C       16.8563496   19.4697923   16.6058433
| 14>     C       16.0554313   20.3806304   15.6979950
| 15>     N       17.8135250   20.1801722   17.3340730
| 16>     C       18.8098548   19.6027965   18.0733142
| 17>     S       19.9716024   20.5026134   18.8325836
| 18>     N       18.8086003   18.2325127   18.1339553
| 19>     C       17.7590038   17.3527024   17.5860781
| 20>     C       17.1443230   16.4472674   18.6457173
| 21>     C       17.4129496   15.0660226   18.6517997
| 22>     C       16.8463481   14.2333482   19.6315652
| 23>     C       16.0076929   14.7874130   20.6140509
| 24>     C       15.7425917   16.1640150   20.6123036
| 25>     O       14.9347512   16.7016278   21.5606789
| 26>     C       16.3078421   16.9900423   19.6357599
| 27>     H       14.3742140   15.8820935   13.5915380
| 28>     H       14.4971386   14.1206416   13.5507911
| 29>     H       15.9651610   15.1066151   13.3923719
| 30>     H       14.2109373   15.1318081   15.9266094
| 31>     H       15.5530480   13.9920298   15.7138428
| 32>     H       14.9796435   20.2482063   15.8710070
| 33>     H       16.2493999   20.1445398   14.6439531
| 34>     H       16.2808441   21.4432602   15.8461364
| 35>     H       17.8385918   21.1858438   17.2798913
| 36>     H       19.5368001   17.8362379   18.7145338
| 37>     H       18.3517077   16.7654314   16.8704390
| 38>     H       18.0577169   14.6366789   17.8896147
| 39>     H       17.0578194   13.1655017   19.6280230
| 40>     H       15.5682901   14.1487384   21.3731974
| 41>     H       14.6658187   15.9851379   22.1549037
| 42>     H       16.0972484   18.0541559   19.6533041
| 43> *
| 44>
| 45>                          ****END OF INPUT****

CARTESIAN COORDINATES (ANGSTROEM)
---------------------------------
  C     14.995454   15.032970   13.899803
  C     15.180597   14.985268   15.432355
  O     16.125080   15.976771   15.888938
  C     15.912943   17.324083   15.760100
  O     15.087863   17.798996   14.999855
  C     16.729818   18.124035   16.741073
  C     16.856350   19.469792   16.605843
  C     16.055431   20.380630   15.697995
  N     17.813525   20.180172   17.334073
  C     18.809855   19.602797   18.073314
  S     19.971602   20.502613   18.832584
  N     18.808600   18.232513   18.133955
  C     17.759004   17.352702   17.586078
  C     17.144323   16.447267   18.645717
  C     17.412950   15.066023   18.651800
  C     16.846348   14.233348   19.631565
  C     16.007693   14.787413   20.614051
  C     15.742592   16.164015   20.612304
  O     14.934751   16.701628   21.560679
  C     16.307842   16.990042   19.635760
  H     14.374214   15.882093   13.591538
  H     14.497139   14.120642   13.550791
  H     15.965161   15.106615   13.392372
  H     14.210937   15.131808   15.926609
  H     15.553048   13.992030   15.713843
  H     14.979643   20.248206   15.871007
  H     16.249400   20.144540   14.643953
  H     16.280844   21.443260   15.846136
  H     17.838592   21.185844   17.279891
  H     19.536800   17.836238   18.714534
  H     18.351708   16.765431   16.870439
  H     18.057717   14.636679   17.889615
  H     17.057819   13.165502   19.628023
  H     15.568290   14.148738   21.373197
  H     14.665819   15.985138   22.154904
  H     16.097248   18.054156   19.653304

 Total Charge           Charge          ....    0
 Multiplicity           Mult            ....    1
 Number of Electrons    NEL             ....  154
 Basis Dimension        Dim             ....  828

ORBITAL ENERGIES
----------------

  NO   OCC          E(Eh)            E(eV)
   0   2.0000     -91.888517     -2500.4137
   1   2.0000     -20.598170      -560.5047
   2   2.0000     -20.596096      -560.4483
   3   2.0000     -20.541951      -558.9749
   4   2.0000     -15.628860      -425.2829
   5   2.0000     -15.606495      -424.6743
   6   2.0000     -11.396386      -310.1114
   7   2.0000     -11.383076      -309.7493
   8   2.0000     -11.337028      -308.4962
   9   2.0000     -11.313190      -307.8476
  10   2.0000     -11.306902      -307.6764
  11   2.0000     -11.300508      -307.5025
  12   2.0000     -11.260264      -306.4073
  13   2.0000     -11.258746      -306.3660
  14   2.0000     -11.254696      -306.2559
  15   2.0000     -11.251529      -306.1697
  16   2.0000     -11.242975      -305.9369
  17   2.0000     -11.238277      -305.8091
  18   2.0000     -11.238159      -305.8059
  19   2.0000     -11.220516      -305.3258
  20   2.0000      -8.893590      -242.0069
  21   2.0000      -6.575164      -178.9193
  22   2.0000      -6.573165      -178.8649
  23   2.0000      -6.572575      -178.8489
  24   2.0000      -1.447683       -39.3935
  25   2.0000      -1.415746       -38.5244
  26   2.0000      -1.355035       -36.8724
  27   2.0000      -1.340055       -36.4648
  28   2.0000      -1.237859       -33.6838
  29   2.0000      -1.156940       -31.4819
  30   2.0000      -1.120426       -30.4883
  31   2.0000      -1.042222       -28.3603
  32   2.0000      -1.035393       -28.1745
  33   2.0000      -1.014422       -27.6038
  34   2.0000      -0.995353       -27.0849
  35   2.0000      -0.983674       -26.7671
  36   2.0000      -0.921335       -25.0708
  37   2.0000      -0.893816       -24.3220
  38   2.0000      -0.846525       -23.0351
  39   2.0000      -0.837636       -22.7932
  40   2.0000      -0.833633       -22.6843
  41   2.0000      -0.818839       -22.2817
  42   2.0000      -0.752313       -20.4715
  43   2.0000      -0.732225       -19.9249
  44   2.0000      -0.720576       -19.6079
  45   2.0000      -0.694994       -18.9117
  46   2.0000      -0.688392       -18.7321
  47   2.0000      -0.679655       -18.4943
  48   2.0000      -0.669751       -18.2249
  49   2.0000      -0.650457       -17.6998
  50   2.0000      -0.649272       -17.6676
  51   2.0000      -0.645263       -17.5585
  52   2.0000      -0.633044       -17.2260
  53   2.0000      -0.607120       -16.5206
  54   2.0000      -0.603722       -16.4281
  55   2.0000      -0.599136       -16.3033
  56   2.0000      -0.598272       -16.2798
  57   2.0000      -0.580757       -15.8032
  58   2.0000      -0.573831       -15.6147
  59   2.0000      -0.569543       -15.4980
  60   2.0000      -0.562509       -15.3066
  61   2.0000      -0.539884       -14.6910
  62   2.0000      -0.535831       -14.5807
  63   2.0000      -0.523769       -14.2525
  64   2.0000      -0.520073       -14.1519
  65   2.0000      -0.512479       -13.9453
  66   2.0000      -0.501789       -13.6544
  67   2.0000      -0.497452       -13.5364
  68   2.0000      -0.484066       -13.1721
  69   2.0000      -0.463081       -12.6011
  70   2.0000      -0.455762       -12.4019
  71   2.0000      -0.441513       -12.0142
  72   2.0000      -0.352529        -9.5928
  73   2.0000      -0.349193        -9.5020
  74   2.0000      -0.327686        -8.9168
  75   2.0000      -0.320586        -8.7236
  76   2.0000      -0.317724        -8.6457
  77   0.0000       0.077069         2.0972
  78   0.0000       0.105813         2.8793
  79   0.0000       0.124979         3.4009
  80   0.0000       0.133139         3.6229
  81   0.0000       0.136890         3.7250

MULLIKEN ATOMIC CHARGES
-----------------------
   0 C :   -0.294632
   1 C :    0.047516
   2 O :   -0.353672
   3 C :    0.439147
   4 O :   -0.436584
   5 C :   -0.216271
   6 C :    0.173184
   7 C :   -0.268503
   8 N :   -0.125532
   9 C :    0.210660
  10 S :   -0.442522
  11 N :   -0.215304
  12 C :    0.060460
  13 C :    0.047132
  14 C :   -0.181124
  15 C :   -0.132895
  16 C :   -0.276411
  17 C :    0.316614
  18 O :   -0.356959
  19 C :   -0.249750
  20 H :    0.126775
  21 H :    0.093689
  22 H :    0.091504
  23 H :    0.089034
  24 H :    0.102393
  25 H :    0.133793
  26 H :    0.128122
  27 H :    0.094776
  28 H :    0.199587
  29 H :    0.200396
  30 H :    0.151633
  31 H :    0.150786
  32 H :    0.160232
  33 H :    0.129747
  34 H :    0.240504
  35 H :    0.162475
Sum of atomic charges:   -0.0000000

LOEWDIN ATOMIC CHARGES
----------------------
   0 C :    0.104039
   1 C :   -0.012146
   2 O :    0.301231
   3 C :   -0.412993
   4 O :    0.103591
   5 C :   -0.094444
   6 C :   -0.056317
   7 C :    0.130700
   8 N :    0.407109
   9 C :   -0.456777
  10 S :   -0.036963
  11 N :    0.394598
  12 C :   -0.054808
  13 C :   -0.038888
  14 C :    0.016766
  15 C :    0.038734
  16 C :   -0.000966
  17 C :   -0.189641
  18 O :    0.394958
  19 C :    0.033001
  20 H :   -0.026687
  21 H :   -0.029524
  22 H :   -0.028596
  23 H :   -0.028689
  24 H :   -0.024666
  25 H :   -0.004422
  26 H :   -0.005354
  27 H :   -0.023724
  28 H :   -0.057271
  29 H :   -0.064427
  30 H :   -0.013910
  31 H :   -0.029464
  32 H :   -0.021520
  33 H :   -0.035583
  34 H :   -0.154060
  35 H :   -0.022887

  Mayer bond orders larger than 0.100000
B(  0-C ,  1-C ) :   0.9721 B(  0-C , 20-H ) :   0.9714 B(  0-C , 21-H ) :   0.9780
B(  0-C , 22-H ) :   0.9753 B(  1-C ,  2-O ) :   0.9031 B(  1-C , 23-H ) :   0.9765
B(  1-C , 24-H ) :   0.9837 B(  2-O ,  3-C ) :   1.1499 B(  3-C ,  4-O ) :   1.9554
B(  3-C ,  5-C ) :   1.0770 B(  5-C ,  6-C ) :   1.6362 B(  5-C , 12-C ) :   0.9546
B(  6-C ,  7-C ) :   0.9660 B(  6-C ,  8-N ) :   1.1534 B(  7-C , 25-H ) :   0.9610
B(  7-C , 26-H ) :   0.9589 B(  7-C , 27-H ) :   0.9910 B(  8-N ,  9-C ) :   1.1875
B(  8-N , 28-H ) :   0.9464 B(  9-C , 10-S ) :   1.6054 B(  9-C , 11-N ) :   1.3098
B( 11-N , 12-C ) :   0.9667 B( 11-N , 29-H ) :   0.9484 B( 12-C , 13-C ) :   0.9647
B( 12-C , 30-H ) :   1.0009 B( 13-C , 14-C ) :   1.3535 B( 13-C , 19-C ) :   1.3813
B( 14-C , 15-C ) :   1.3944 B( 14-C , 31-H ) :   0.9718 B( 15-C , 16-C ) :   1.3603
B( 15-C , 32-H ) :   0.9708 B( 16-C , 17-C ) :   1.3342 B( 16-C , 33-H ) :   0.9851
B( 17-C , 18-O ) :   1.1041 B( 17-C , 19-C ) :   1.3646 B( 18-O , 34-H ) :   0.9799
B( 19-C , 35-H ) :   0.9597

MP2 TOTAL ENERGY:    -1274.337988187 Eh
FINAL SINGLE POINT ENERGY     -1274.337988186600

DIPOLE MOMENT
-------------
                                X             Y             Z
Electronic contribution:      9.24083       9.35386      10.79310
Nuclear contribution   :    -10.35563     -11.03071     -11.13036
                        -----------------------------------------
Total Dipole Moment    :     -1.11480      -1.67685      -0.33726
                        -----------------------------------------
Magnitude (a.u.)       :      2.04165
Magnitude (Debye)      :      5.18946

Rotational constants in cm-1:     0.010559     0.008829     0.005773
Rotational constants in MHz :   316.564068   264.672893   173.065778

                             ****ORCA TERMINATED NORMALLY****
TOTAL RUN TIME: 0 days 1 hours 35 minutes 23 seconds 891 msec
