                         Program Version 4.2.0 -  RELEASE  -
|  1> ! ri-mp2 cc-pvtz cc-pvtz/c TightSCF NoKeepInts
|  2>
|  3> %scf
|  4>   MaxCore 4096
|  5> end
|  6> *xyz  0  1
|  7>     C       14.5110316   15.7271030   16.5010795
|  8>     C       15.2027111   16.0104162   15.1560971
|  9>     O       16.6000348   15.6783404   15.2553285
| 10>     C       17.5651496   16.6331740   15.4185987
| 11>     O       18.6608670   16.5448027   14.8986710
| 12>     C       17.2377084   17.7078569   16.3933203
| 13>     C       16.9812430   18.9504239   15.9246690
| 14>     C       16.6429467   19.3186923   14.4943065
| 15>     N       17.0471121   20.0632951   16.7645784
| 16>     C       17.6328389   20.0502916   18.0034968
| 17>     S       17.7991402   21.4265756   18.9049862
| 18>     N       18.0994057   18.8364452   18.4471571
| 19>     C       17.8574809   17.5396383   17.7820947
| 20>     C       17.1924190   16.4783285   18.6471083
| 21>     C       17.5684669   15.1291050   18.5157532
| 22>     C       16.9532807   14.1363354   19.2962487
| 23>     C       15.9538072   14.4956496   20.2164245
| 24>     C       15.5770536   15.8389850   20.3499481
| 25>     O       14.6066136   16.1874659   21.2315191
| 26>     C       16.1909190   16.8258678   19.5717908
| 27>     H       14.7513761   16.5028800   17.2352438
| 28>     H       14.8217350   14.7549479   16.9048149
| 29>     H       13.4215798   15.7134423   16.3764287
| 30>     H       14.7495317   15.3604076   14.3962232
| 31>     H       15.0434019   17.0487926   14.8415235
| 32>     H       17.0141831   18.5792641   13.7734800
| 33>     H       17.0998338   20.2760165   14.2124418
| 34>     H       15.5587934   19.4103786   14.3577477
| 35>     H       16.7466120   20.9661518   16.4324249
| 36>     H       18.5306903   18.8542803   19.3629793
| 37>     H       18.8981949   17.2392363   17.5873828
| 38>     H       18.3354431   14.8477301   17.7973415
| 39>     H       17.2502330   13.0948758   19.1837451
| 40>     H       15.4749507   13.7316431   20.8200347
| 41>     H       14.3327036   15.3826483   21.6967729
| 42>     H       15.8775075   17.8585123   19.6862389
| 43> *
| 44>
| 45>                          ****END OF INPUT****

CARTESIAN COORDINATES (ANGSTROEM)
---------------------------------
  C     14.511032   15.727103   16.501079
  C     15.202711   16.010416   15.156097
  O     16.600035   15.678340   15.255328
  C     17.565150   16.633174   15.418599
  O     18.660867   16.544803   14.898671
  C     17.237708   17.707857   16.393320
  C     16.981243   18.950424   15.924669
  C     16.642947   19.318692   14.494306
  N     17.047112   20.063295   16.764578
  C     17.632839   20.050292   18.003497
  S     17.799140   21.426576   18.904986
  N     18.099406   18.836445   18.447157
  C     17.857481   17.539638   17.782095
  C     17.192419   16.478328   18.647108
  C     17.568467   15.129105   18.515753
  C     16.953281   14.136335   19.296249
  C     15.953807   14.495650   20.216424
  C     15.577054   15.838985   20.349948
  O     14.606614   16.187466   21.231519
  C     16.190919   16.825868   19.571791
  H     14.751376   16.502880   17.235244
  H     14.821735   14.754948   16.904815
  H     13.421580   15.713442   16.376429
  H     14.749532   15.360408   14.396223
  H     15.043402   17.048793   14.841523
  H     17.014183   18.579264   13.773480
  H     17.099834   20.276017   14.212442
  H     15.558793   19.410379   14.357748
  H     16.746612   20.966152   16.432425
  H     18.530690   18.854280   19.362979
  H     18.898195   17.239236   17.587383
  H     18.335443   14.847730   17.797342
  H     17.250233   13.094876   19.183745
  H     15.474951   13.731643   20.820035
  H     14.332704   15.382648   21.696773
  H     15.877508   17.858512   19.686239

 Total Charge           Charge          ....    0
 Multiplicity           Mult            ....    1
 Number of Electrons    NEL             ....  154
 Basis Dimension        Dim             ....  828

ORBITAL ENERGIES
----------------

  NO   OCC          E(Eh)            E(eV)
   0   2.0000     -91.889021     -2500.4274
   1   2.0000     -20.600708      -560.5738
   2   2.0000     -20.599013      -560.5276
   3   2.0000     -20.558618      -559.4284
   4   2.0000     -15.624849      -425.1738
   5   2.0000     -15.610315      -424.7783
   6   2.0000     -11.399422      -310.1940
   7   2.0000     -11.385103      -309.8044
   8   2.0000     -11.327279      -308.2309
   9   2.0000     -11.318565      -307.9938
  10   2.0000     -11.315533      -307.9113
  11   2.0000     -11.307062      -307.6808
  12   2.0000     -11.267425      -306.6022
  13   2.0000     -11.265340      -306.5455
  14   2.0000     -11.260666      -306.4183
  15   2.0000     -11.259705      -306.3921
  16   2.0000     -11.247575      -306.0621
  17   2.0000     -11.243047      -305.9389
  18   2.0000     -11.242572      -305.9259
  19   2.0000     -11.226341      -305.4843
  20   2.0000      -8.894120      -242.0213
  21   2.0000      -6.575704      -178.9340
  22   2.0000      -6.573689      -178.8792
  23   2.0000      -6.573110      -178.8634
  24   2.0000      -1.451743       -39.5039
  25   2.0000      -1.420430       -38.6519
  26   2.0000      -1.366335       -37.1799
  27   2.0000      -1.339041       -36.4372
  28   2.0000      -1.238706       -33.7069
  29   2.0000      -1.162812       -31.6417
  30   2.0000      -1.126632       -30.6572
  31   2.0000      -1.049377       -28.5550
  32   2.0000      -1.037664       -28.2363
  33   2.0000      -1.021045       -27.7840
  34   2.0000      -1.005820       -27.3698
  35   2.0000      -0.989867       -26.9356
  36   2.0000      -0.927017       -25.2254
  37   2.0000      -0.890247       -24.2249
  38   2.0000      -0.852561       -23.1994
  39   2.0000      -0.842462       -22.9246
  40   2.0000      -0.838177       -22.8079
  41   2.0000      -0.834014       -22.6947
  42   2.0000      -0.757082       -20.6012
  43   2.0000      -0.738511       -20.0959
  44   2.0000      -0.732383       -19.9292
  45   2.0000      -0.698774       -19.0146
  46   2.0000      -0.693157       -18.8618
  47   2.0000      -0.683209       -18.5911
  48   2.0000      -0.675386       -18.3782
  49   2.0000      -0.665572       -18.1111
  50   2.0000      -0.652201       -17.7473
  51   2.0000      -0.639489       -17.4014
  52   2.0000      -0.634725       -17.2717
  53   2.0000      -0.617670       -16.8077
  54   2.0000      -0.611281       -16.6338
  55   2.0000      -0.608647       -16.5621
  56   2.0000      -0.604138       -16.4394
  57   2.0000      -0.585955       -15.9446
  58   2.0000      -0.578912       -15.7530
  59   2.0000      -0.575805       -15.6684
  60   2.0000      -0.564111       -15.3503
  61   2.0000      -0.559665       -15.2292
  62   2.0000      -0.539701       -14.6860
  63   2.0000      -0.528276       -14.3751
  64   2.0000      -0.521482       -14.1903
  65   2.0000      -0.514216       -13.9925
  66   2.0000      -0.503418       -13.6987
  67   2.0000      -0.501420       -13.6443
  68   2.0000      -0.490624       -13.3505
  69   2.0000      -0.466787       -12.7019
  70   2.0000      -0.457291       -12.4435
  71   2.0000      -0.452734       -12.3195
  72   2.0000      -0.356336        -9.6964
  73   2.0000      -0.350581        -9.5398
  74   2.0000      -0.328605        -8.9418
  75   2.0000      -0.326225        -8.8770
  76   2.0000      -0.319058        -8.6820
  77   0.0000       0.092412         2.5147
  78   0.0000       0.102933         2.8009
  79   0.0000       0.118285         3.2187
  80   0.0000       0.128299         3.4912
  81   0.0000       0.129095         3.5129

MULLIKEN ATOMIC CHARGES
-----------------------
   0 C :   -0.301987
   1 C :    0.026993
   2 O :   -0.318304
   3 C :    0.411161
   4 O :   -0.371056
   5 C :   -0.181153
   6 C :    0.135040
   7 C :   -0.331315
   8 N :   -0.140179
   9 C :    0.216025
  10 S :   -0.444049
  11 N :   -0.239734
  12 C :    0.056954
  13 C :    0.030599
  14 C :   -0.209858
  15 C :   -0.142346
  16 C :   -0.271750
  17 C :    0.324355
  18 O :   -0.354921
  19 C :   -0.258626
  20 H :    0.103376
  21 H :    0.113681
  22 H :    0.108823
  23 H :    0.122677
  24 H :    0.082415
  25 H :    0.130956
  26 H :    0.125144
  27 H :    0.124081
  28 H :    0.196682
  29 H :    0.206573
  30 H :    0.168780
  31 H :    0.160068
  32 H :    0.165595
  33 H :    0.133144
  34 H :    0.241297
  35 H :    0.180862
Sum of atomic charges:   -0.0000000

LOEWDIN ATOMIC CHARGES
----------------------
   0 C :    0.105445
   1 C :   -0.022977
   2 O :    0.307257
   3 C :   -0.422501
   4 O :    0.131510
   5 C :   -0.082175
   6 C :   -0.097797
   7 C :    0.124533
   8 N :    0.402179
   9 C :   -0.454777
  10 S :   -0.039041
  11 N :    0.396601
  12 C :   -0.050093
  13 C :   -0.041646
  14 C :    0.019832
  15 C :    0.045658
  16 C :   -0.000090
  17 C :   -0.189891
  18 O :    0.396826
  19 C :    0.029054
  20 H :   -0.032920
  21 H :   -0.021734
  22 H :   -0.027356
  23 H :   -0.022758
  24 H :   -0.035539
  25 H :   -0.007454
  26 H :   -0.011670
  27 H :   -0.018260
  28 H :   -0.058294
  29 H :   -0.064261
  30 H :   -0.004239
  31 H :   -0.023959
  32 H :   -0.018441
  33 H :   -0.034536
  34 H :   -0.152924
  35 H :   -0.023561

  Mayer bond orders larger than 0.100000
B(  0-C ,  1-C ) :   0.9681 B(  0-C , 20-H ) :   0.9709 B(  0-C , 21-H ) :   0.9709
B(  0-C , 22-H ) :   0.9780 B(  1-C ,  2-O ) :   0.9052 B(  1-C , 23-H ) :   0.9851
B(  1-C , 24-H ) :   0.9713 B(  2-O ,  3-C ) :   1.1454 B(  3-C ,  4-O ) :   2.1250
B(  3-C ,  5-C ) :   0.9048 B(  5-C ,  6-C ) :   1.7249 B(  5-C , 12-C ) :   0.9421
B(  6-C ,  7-C ) :   0.9261 B(  6-C ,  8-N ) :   1.1083 B(  7-C , 25-H ) :   0.9761
B(  7-C , 26-H ) :   0.9789 B(  7-C , 27-H ) :   0.9683 B(  8-N ,  9-C ) :   1.2054
B(  8-N , 28-H ) :   0.9521 B(  9-C , 10-S ) :   1.6065 B(  9-C , 11-N ) :   1.2849
B( 11-N , 12-C ) :   0.9686 B( 11-N , 29-H ) :   0.9449 B( 12-C , 13-C ) :   0.9690
B( 12-C , 30-H ) :   0.9908 B( 13-C , 14-C ) :   1.3744 B( 13-C , 19-C ) :   1.3415
B( 14-C , 15-C ) :   1.4044 B( 14-C , 31-H ) :   0.9693 B( 15-C , 16-C ) :   1.3556
B( 15-C , 32-H ) :   0.9693 B( 16-C , 17-C ) :   1.3336 B( 16-C , 33-H ) :   0.9843
B( 17-C , 18-O ) :   1.1105 B( 17-C , 19-C ) :   1.3585 B( 18-O , 34-H ) :   0.9792
B( 19-C , 35-H ) :   0.9557

MP2 TOTAL ENERGY:    -1274.320930177 Eh
FINAL SINGLE POINT ENERGY     -1274.320930177250

DIPOLE MOMENT
-------------
                                X             Y             Z
Electronic contribution:      9.02281       7.55659       6.65003
Nuclear contribution   :    -10.68917      -8.99548      -7.12215
                        -----------------------------------------
Total Dipole Moment    :     -1.66636      -1.43889      -0.47213
                        -----------------------------------------
Magnitude (a.u.)       :      2.25168
Magnitude (Debye)      :      5.72332

Rotational constants in cm-1:     0.011983     0.009184     0.006329
Rotational constants in MHz :   359.244830   275.326286   189.749174

                             ****ORCA TERMINATED NORMALLY****
TOTAL RUN TIME: 0 days 1 hours 42 minutes 28 seconds 207 msec
