                         Program Version 4.2.0 -  RELEASE  -
|  1> ! ri-mp2 cc-pvtz cc-pvtz/c TightSCF NoKeepInts
|  2>
|  3> %scf
|  4>   MaxCore 4096
|  5> end
|  6> *xyz  0  1
|  7>     C       15.5574894   14.5173595   14.1148321
|  8>     C       14.8842963   15.2205119   15.3056078
|  9>     O       15.8508447   16.1191944   15.8793938
| 10>     C       15.6578840   17.4723981   15.8344455
| 11>     O       14.8073607   17.9867394   15.1280070
| 12>     C       16.5784102   18.2174408   16.7645817
| 13>     C       16.7300711   19.5631578   16.6616292
| 14>     C       15.8757395   20.5235733   15.8600058
| 15>     N       17.7674852   20.2237033   17.3238134
| 16>     C       18.8078156   19.5958917   17.9533661
| 17>     S       20.0568771   20.4392458   18.6348104
| 18>     N       18.7723956   18.2247165   17.9711549
| 19>     C       17.6543280   17.3910989   17.4902560
| 20>     C       17.1073246   16.4663411   18.5700062
| 21>     C       17.3011555   15.0750069   18.4887097
| 22>     C       16.7975780   14.2249164   19.4877265
| 23>     C       16.0980263   14.7713656   20.5775101
| 24>     C       15.9074946   16.1576551   20.6623250
| 25>     O       15.2336946   16.6878150   21.7139908
| 26>     C       16.4096594   17.0010361   19.6663063
| 27>     H       15.8373997   15.2479523   13.3454313
| 28>     H       14.8740985   13.7886387   13.6622774
| 29>     H       16.4622597   13.9875031   14.4373500
| 30>     H       13.9726408   15.7377126   14.9770066
| 31>     H       14.5964074   14.4708618   16.0539643
| 32>     H       14.8147250   20.3983786   16.1116533
| 33>     H       15.9825870   20.3315822   14.7847733
| 34>     H       16.1299054   21.5754381   16.0359172
| 35>     H       17.8168866   21.2296352   17.2988395
| 36>     H       19.5370204   17.7902047   18.4721229
| 37>     H       18.1657104   16.8134575   16.7071912
| 38>     H       17.8368632   14.6516998   17.6432251
| 39>     H       16.9496153   13.1494342   19.4156416
| 40>     H       15.7075435   14.1191278   21.3516896
| 41>     H       14.9888056   15.9571864   22.3013456
| 42>     H       16.2586010   18.0720193   19.7510930
| 43> *
| 44>
| 45>                          ****END OF INPUT****

CARTESIAN COORDINATES (ANGSTROEM)
---------------------------------
  C     15.557489   14.517359   14.114832
  C     14.884296   15.220512   15.305608
  O     15.850845   16.119194   15.879394
  C     15.657884   17.472398   15.834445
  O     14.807361   17.986739   15.128007
  C     16.578410   18.217441   16.764582
  C     16.730071   19.563158   16.661629
  C     15.875739   20.523573   15.860006
  N     17.767485   20.223703   17.323813
  C     18.807816   19.595892   17.953366
  S     20.056877   20.439246   18.634810
  N     18.772396   18.224716   17.971155
  C     17.654328   17.391099   17.490256
  C     17.107325   16.466341   18.570006
  C     17.301155   15.075007   18.488710
  C     16.797578   14.224916   19.487726
  C     16.098026   14.771366   20.577510
  C     15.907495   16.157655   20.662325
  O     15.233695   16.687815   21.713991
  C     16.409659   17.001036   19.666306
  H     15.837400   15.247952   13.345431
  H     14.874099   13.788639   13.662277
  H     16.462260   13.987503   14.437350
  H     13.972641   15.737713   14.977007
  H     14.596407   14.470862   16.053964
  H     14.814725   20.398379   16.111653
  H     15.982587   20.331582   14.784773
  H     16.129905   21.575438   16.035917
  H     17.816887   21.229635   17.298839
  H     19.537020   17.790205   18.472123
  H     18.165710   16.813457   16.707191
  H     17.836863   14.651700   17.643225
  H     16.949615   13.149434   19.415642
  H     15.707543   14.119128   21.351690
  H     14.988806   15.957186   22.301346
  H     16.258601   18.072019   19.751093

 Total Charge           Charge          ....    0
 Multiplicity           Mult            ....    1
 Number of Electrons    NEL             ....  154
 Basis Dimension        Dim             ....  828

ORBITAL ENERGIES
----------------

  NO   OCC          E(Eh)            E(eV)
   0   2.0000     -91.888794     -2500.4212
   1   2.0000     -20.600912      -560.5793
   2   2.0000     -20.595909      -560.4432
   3   2.0000     -20.541154      -558.9532
   4   2.0000     -15.629148      -425.2907
   5   2.0000     -15.606912      -424.6857
   6   2.0000     -11.395670      -310.0919
   7   2.0000     -11.383413      -309.7584
   8   2.0000     -11.337389      -308.5060
   9   2.0000     -11.313038      -307.8434
  10   2.0000     -11.307409      -307.6902
  11   2.0000     -11.295567      -307.3680
  12   2.0000     -11.260250      -306.4070
  13   2.0000     -11.259279      -306.3806
  14   2.0000     -11.254552      -306.2519
  15   2.0000     -11.251551      -306.1703
  16   2.0000     -11.242982      -305.9371
  17   2.0000     -11.238373      -305.8117
  18   2.0000     -11.238252      -305.8084
  19   2.0000     -11.228442      -305.5415
  20   2.0000      -8.893865      -242.0144
  21   2.0000      -6.575437      -178.9267
  22   2.0000      -6.573439      -178.8724
  23   2.0000      -6.572848      -178.8563
  24   2.0000      -1.450964       -39.4827
  25   2.0000      -1.415571       -38.5196
  26   2.0000      -1.354582       -36.8601
  27   2.0000      -1.340329       -36.4722
  28   2.0000      -1.238174       -33.6924
  29   2.0000      -1.157043       -31.4847
  30   2.0000      -1.120960       -30.5029
  31   2.0000      -1.042839       -28.3771
  32   2.0000      -1.039173       -28.2773
  33   2.0000      -1.014407       -27.6034
  34   2.0000      -0.996195       -27.1078
  35   2.0000      -0.984449       -26.7882
  36   2.0000      -0.921575       -25.0773
  37   2.0000      -0.890699       -24.2371
  38   2.0000      -0.846343       -23.0302
  39   2.0000      -0.837501       -22.7896
  40   2.0000      -0.833622       -22.6840
  41   2.0000      -0.817571       -22.2472
  42   2.0000      -0.763121       -20.7656
  43   2.0000      -0.733167       -19.9505
  44   2.0000      -0.721981       -19.6461
  45   2.0000      -0.694745       -18.9050
  46   2.0000      -0.687539       -18.7089
  47   2.0000      -0.680030       -18.5046
  48   2.0000      -0.673080       -18.3154
  49   2.0000      -0.655716       -17.8429
  50   2.0000      -0.646942       -17.6042
  51   2.0000      -0.640326       -17.4242
  52   2.0000      -0.628844       -17.1117
  53   2.0000      -0.612441       -16.6654
  54   2.0000      -0.606097       -16.4927
  55   2.0000      -0.599868       -16.3232
  56   2.0000      -0.598509       -16.2863
  57   2.0000      -0.577704       -15.7201
  58   2.0000      -0.570044       -15.5117
  59   2.0000      -0.567866       -15.4524
  60   2.0000      -0.563252       -15.3269
  61   2.0000      -0.541374       -14.7315
  62   2.0000      -0.536913       -14.6101
  63   2.0000      -0.531501       -14.4629
  64   2.0000      -0.523605       -14.2480
  65   2.0000      -0.512945       -13.9579
  66   2.0000      -0.500546       -13.6205
  67   2.0000      -0.496251       -13.5037
  68   2.0000      -0.485254       -13.2044
  69   2.0000      -0.463193       -12.6041
  70   2.0000      -0.453984       -12.3535
  71   2.0000      -0.449220       -12.2239
  72   2.0000      -0.353015        -9.6060
  73   2.0000      -0.349248        -9.5035
  74   2.0000      -0.327918        -8.9231
  75   2.0000      -0.320531        -8.7221
  76   2.0000      -0.317949        -8.6518
  77   0.0000       0.077443         2.1073
  78   0.0000       0.105608         2.8737
  79   0.0000       0.123390         3.3576
  80   0.0000       0.132774         3.6130
  81   0.0000       0.135495         3.6870

MULLIKEN ATOMIC CHARGES
-----------------------
   0 C :   -0.269015
   1 C :    0.015633
   2 O :   -0.346796
   3 C :    0.445162
   4 O :   -0.437932
   5 C :   -0.225824
   6 C :    0.171911
   7 C :   -0.268690
   8 N :   -0.126078
   9 C :    0.209687
  10 S :   -0.441921
  11 N :   -0.214579
  12 C :    0.054844
  13 C :    0.046378
  14 C :   -0.179759
  15 C :   -0.135613
  16 C :   -0.275931
  17 C :    0.316534
  18 O :   -0.356944
  19 C :   -0.247364
  20 H :    0.099836
  21 H :    0.091450
  22 H :    0.090871
  23 H :    0.121590
  24 H :    0.107016
  25 H :    0.133645
  26 H :    0.128863
  27 H :    0.094443
  28 H :    0.199923
  29 H :    0.200404
  30 H :    0.153220
  31 H :    0.152315
  32 H :    0.160253
  33 H :    0.129679
  34 H :    0.240429
  35 H :    0.162360
Sum of atomic charges:   -0.0000000

LOEWDIN ATOMIC CHARGES
----------------------
   0 C :    0.104152
   1 C :   -0.013084
   2 O :    0.311941
   3 C :   -0.414313
   4 O :    0.093712
   5 C :   -0.094858
   6 C :   -0.056230
   7 C :    0.131030
   8 N :    0.407174
   9 C :   -0.456805
  10 S :   -0.036544
  11 N :    0.394758
  12 C :   -0.054883
  13 C :   -0.039485
  14 C :    0.016849
  15 C :    0.038673
  16 C :   -0.000646
  17 C :   -0.189604
  18 O :    0.394962
  19 C :    0.033390
  20 H :   -0.025510
  21 H :   -0.026272
  22 H :   -0.029936
  23 H :   -0.027950
  24 H :   -0.028482
  25 H :   -0.004196
  26 H :   -0.005166
  27 H :   -0.023689
  28 H :   -0.057144
  29 H :   -0.064276
  30 H :   -0.014050
  31 H :   -0.029641
  32 H :   -0.021529
  33 H :   -0.035522
  34 H :   -0.154074
  35 H :   -0.022751

  Mayer bond orders larger than 0.100000
B(  0-C ,  1-C ) :   0.9712 B(  0-C , 20-H ) :   0.9790 B(  0-C , 21-H ) :   0.9756
B(  0-C , 22-H ) :   0.9792 B(  1-C ,  2-O ) :   0.8856 B(  1-C , 23-H ) :   0.9734
B(  1-C , 24-H ) :   0.9798 B(  2-O ,  3-C ) :   1.1700 B(  3-C ,  4-O ) :   1.9597
B(  3-C ,  5-C ) :   1.0713 B(  5-C ,  6-C ) :   1.6409 B(  5-C , 12-C ) :   0.9552
B(  6-C ,  7-C ) :   0.9654 B(  6-C ,  8-N ) :   1.1531 B(  7-C , 25-H ) :   0.9613
B(  7-C , 26-H ) :   0.9588 B(  7-C , 27-H ) :   0.9906 B(  8-N ,  9-C ) :   1.1877
B(  8-N , 28-H ) :   0.9464 B(  9-C , 10-S ) :   1.6063 B(  9-C , 11-N ) :   1.3090
B( 11-N , 12-C ) :   0.9695 B( 11-N , 29-H ) :   0.9484 B( 12-C , 13-C ) :   0.9633
B( 12-C , 30-H ) :   1.0014 B( 13-C , 14-C ) :   1.3539 B( 13-C , 19-C ) :   1.3812
B( 14-C , 15-C ) :   1.3949 B( 14-C , 31-H ) :   0.9713 B( 15-C , 16-C ) :   1.3595
B( 15-C , 32-H ) :   0.9709 B( 16-C , 17-C ) :   1.3340 B( 16-C , 33-H ) :   0.9852
B( 17-C , 18-O ) :   1.1041 B( 17-C , 19-C ) :   1.3646 B( 18-O , 34-H ) :   0.9800
B( 19-C , 35-H ) :   0.9596

MP2 TOTAL ENERGY:    -1274.342735615 Eh
FINAL SINGLE POINT ENERGY     -1274.342735614809

DIPOLE MOMENT
-------------
                                X             Y             Z
Electronic contribution:      8.26212      10.17527      10.25347
Nuclear contribution   :     -9.41666     -11.81852     -10.58056
                        -----------------------------------------
Total Dipole Moment    :     -1.15454      -1.64325      -0.32709
                        -----------------------------------------
Magnitude (a.u.)       :      2.03475
Magnitude (Debye)      :      5.17194

Rotational constants in cm-1:     0.010549     0.008694     0.005843
Rotational constants in MHz :   316.256524   260.627337   175.180503

                             ****ORCA TERMINATED NORMALLY****
TOTAL RUN TIME: 0 days 1 hours 45 minutes 32 seconds 73 msec
