                         Program Version 4.2.0 -  RELEASE  -
|  1> ! ri-mp2 cc-pvtz cc-pvtz/c TightSCF NoKeepInts
|  2>
|  3> %scf
|  4>   MaxCore 4096
|  5> end
|  6> *xyz  0  1
|  7>     C       14.9997693   14.5157342   14.5743748
|  8>     C       14.6262012   16.0055500   14.7248057
|  9>     O       15.7760364   16.8777654   14.8253485
| 10>     C       16.7947510   16.6701183   15.7143049
| 11>     O       17.3716460   15.6033789   15.8356578
| 12>     C       17.0502286   17.8262575   16.6394333
| 13>     C       16.8877144   19.1212865   16.2590673
| 14>     C       16.2389972   19.6465905   14.9932964
| 15>     N       17.3893417   20.1630847   17.0435910
| 16>     C       18.2495529   19.9964667   18.0951362
| 17>     S       18.8899407   21.2846389   18.9112049
| 18>     N       18.5695559   18.7032818   18.4220018
| 19>     C       17.9502923   17.4979576   17.8374482
| 20>     C       17.2779413   16.6045933   18.8716718
| 21>     C       17.6230225   15.2452200   18.9776928
| 22>     C       17.0009342   14.4220765   19.9312868
| 23>     C       16.0260886   14.9633993   20.7868588
| 24>     C       15.6786010   16.3172822   20.6816587
| 25>     O       14.7340694   16.8413384   21.5029413
| 26>     C       16.2989807   17.1338326   19.7306826
| 27>     H       15.7827784   14.3840587   13.8169465
| 28>     H       14.1241688   13.9327976   14.2646706
| 29>     H       15.3560373   14.0964802   15.5235981
| 30>     H       14.0303844   16.3118586   13.8554147
| 31>     H       13.9957897   16.1241688   15.6159349
| 32>     H       15.1676995   19.4111967   14.9793097
| 33>     H       16.6971514   19.1955994   14.1039199
| 34>     H       16.3359980   20.7337572   14.8847585
| 35>     H       17.1826099   21.1187638   16.8010483
| 36>     H       19.1904011   18.6064619   19.2155735
| 37>     H       18.8392417   17.0040285   17.4184853
| 38>     H       18.3660213   14.8227466   18.3051034
| 39>     H       17.2720807   13.3700858   19.9997713
| 40>     H       15.5423180   14.3308964   21.5236525
| 41>     H       14.4514154   16.1372371   22.1056103
| 42>     H       16.0192391   18.1800093   19.6657390
| 43> *
| 44>
| 45>                          ****END OF INPUT****

CARTESIAN COORDINATES (ANGSTROEM)
---------------------------------
  C     14.999769   14.515734   14.574375
  C     14.626201   16.005550   14.724806
  O     15.776036   16.877765   14.825348
  C     16.794751   16.670118   15.714305
  O     17.371646   15.603379   15.835658
  C     17.050229   17.826258   16.639433
  C     16.887714   19.121287   16.259067
  C     16.238997   19.646590   14.993296
  N     17.389342   20.163085   17.043591
  C     18.249553   19.996467   18.095136
  S     18.889941   21.284639   18.911205
  N     18.569556   18.703282   18.422002
  C     17.950292   17.497958   17.837448
  C     17.277941   16.604593   18.871672
  C     17.623023   15.245220   18.977693
  C     17.000934   14.422076   19.931287
  C     16.026089   14.963399   20.786859
  C     15.678601   16.317282   20.681659
  O     14.734069   16.841338   21.502941
  C     16.298981   17.133833   19.730683
  H     15.782778   14.384059   13.816947
  H     14.124169   13.932798   14.264671
  H     15.356037   14.096480   15.523598
  H     14.030384   16.311859   13.855415
  H     13.995790   16.124169   15.615935
  H     15.167699   19.411197   14.979310
  H     16.697151   19.195599   14.103920
  H     16.335998   20.733757   14.884759
  H     17.182610   21.118764   16.801048
  H     19.190401   18.606462   19.215574
  H     18.839242   17.004029   17.418485
  H     18.366021   14.822747   18.305103
  H     17.272081   13.370086   19.999771
  H     15.542318   14.330896   21.523653
  H     14.451415   16.137237   22.105610
  H     16.019239   18.180009   19.665739

 Total Charge           Charge          ....    0
 Multiplicity           Mult            ....    1
 Number of Electrons    NEL             ....  154
 Basis Dimension        Dim             ....  828

ORBITAL ENERGIES
----------------

  NO   OCC          E(Eh)            E(eV)
   0   2.0000     -91.888102     -2500.4024
   1   2.0000     -20.593088      -560.3664
   2   2.0000     -20.592281      -560.3444
   3   2.0000     -20.549208      -559.1724
   4   2.0000     -15.628524      -425.2737
   5   2.0000     -15.605778      -424.6548
   6   2.0000     -11.396914      -310.1258
   7   2.0000     -11.382665      -309.7381
   8   2.0000     -11.337654      -308.5133
   9   2.0000     -11.309211      -307.7393
  10   2.0000     -11.306586      -307.6678
  11   2.0000     -11.304086      -307.5998
  12   2.0000     -11.259449      -306.3852
  13   2.0000     -11.258827      -306.3683
  14   2.0000     -11.256310      -306.2998
  15   2.0000     -11.249328      -306.1098
  16   2.0000     -11.239397      -305.8395
  17   2.0000     -11.235452      -305.7322
  18   2.0000     -11.232206      -305.6439
  19   2.0000     -11.222527      -305.3805
  20   2.0000      -8.893187      -241.9959
  21   2.0000      -6.574765      -178.9084
  22   2.0000      -6.572762      -178.8539
  23   2.0000      -6.572174      -178.8379
  24   2.0000      -1.447423       -39.3864
  25   2.0000      -1.412835       -38.4452
  26   2.0000      -1.357838       -36.9487
  27   2.0000      -1.339809       -36.4580
  28   2.0000      -1.237011       -33.6608
  29   2.0000      -1.153474       -31.3876
  30   2.0000      -1.120506       -30.4905
  31   2.0000      -1.042606       -28.3708
  32   2.0000      -1.033068       -28.1112
  33   2.0000      -1.011106       -27.5136
  34   2.0000      -0.998661       -27.1749
  35   2.0000      -0.983472       -26.7616
  36   2.0000      -0.921303       -25.0699
  37   2.0000      -0.892014       -24.2729
  38   2.0000      -0.848479       -23.0883
  39   2.0000      -0.836542       -22.7635
  40   2.0000      -0.829412       -22.5694
  41   2.0000      -0.821985       -22.3673
  42   2.0000      -0.745956       -20.2985
  43   2.0000      -0.729176       -19.8419
  44   2.0000      -0.726512       -19.7694
  45   2.0000      -0.691252       -18.8099
  46   2.0000      -0.684777       -18.6337
  47   2.0000      -0.679995       -18.5036
  48   2.0000      -0.671332       -18.2679
  49   2.0000      -0.666549       -18.1377
  50   2.0000      -0.645512       -17.5653
  51   2.0000      -0.643476       -17.5099
  52   2.0000      -0.633781       -17.2461
  53   2.0000      -0.605829       -16.4854
  54   2.0000      -0.602035       -16.3822
  55   2.0000      -0.599229       -16.3058
  56   2.0000      -0.596469       -16.2307
  57   2.0000      -0.577440       -15.7129
  58   2.0000      -0.573291       -15.6000
  59   2.0000      -0.571512       -15.5516
  60   2.0000      -0.559124       -15.2145
  61   2.0000      -0.547653       -14.9024
  62   2.0000      -0.537358       -14.6222
  63   2.0000      -0.524456       -14.2712
  64   2.0000      -0.516910       -14.0658
  65   2.0000      -0.510474       -13.8907
  66   2.0000      -0.497854       -13.5473
  67   2.0000      -0.493665       -13.4333
  68   2.0000      -0.479136       -13.0379
  69   2.0000      -0.462578       -12.5874
  70   2.0000      -0.457794       -12.4572
  71   2.0000      -0.446207       -12.1419
  72   2.0000      -0.352870        -9.6021
  73   2.0000      -0.345684        -9.4065
  74   2.0000      -0.327217        -8.9040
  75   2.0000      -0.317312        -8.6345
  76   2.0000      -0.315930        -8.5969
  77   0.0000       0.074531         2.0281
  78   0.0000       0.109446         2.9782
  79   0.0000       0.121669         3.3108
  80   0.0000       0.134926         3.6715
  81   0.0000       0.138312         3.7637

MULLIKEN ATOMIC CHARGES
-----------------------
   0 C :   -0.278254
   1 C :    0.041257
   2 O :   -0.376953
   3 C :    0.441828
   4 O :   -0.406106
   5 C :   -0.170839
   6 C :    0.154042
   7 C :   -0.280699
   8 N :   -0.128213
   9 C :    0.207029
  10 S :   -0.442458
  11 N :   -0.211387
  12 C :    0.041081
  13 C :    0.032821
  14 C :   -0.176179
  15 C :   -0.134121
  16 C :   -0.277597
  17 C :    0.313908
  18 O :   -0.358721
  19 C :   -0.252883
  20 H :    0.105224
  21 H :    0.092948
  22 H :    0.111871
  23 H :    0.099916
  24 H :    0.085687
  25 H :    0.124929
  26 H :    0.127537
  27 H :    0.102340
  28 H :    0.198798
  29 H :    0.199805
  30 H :    0.157012
  31 H :    0.161966
  32 H :    0.160917
  33 H :    0.128800
  34 H :    0.240120
  35 H :    0.164575
Sum of atomic charges:    0.0000000

LOEWDIN ATOMIC CHARGES
----------------------
   0 C :    0.104480
   1 C :   -0.015352
   2 O :    0.289295
   3 C :   -0.412784
   4 O :    0.123236
   5 C :   -0.094700
   6 C :   -0.064734
   7 C :    0.125230
   8 N :    0.405467
   9 C :   -0.458581
  10 S :   -0.037747
  11 N :    0.396256
  12 C :   -0.048541
  13 C :   -0.040995
  14 C :    0.023636
  15 C :    0.040521
  16 C :   -0.001336
  17 C :   -0.192730
  18 O :    0.393188
  19 C :    0.029162
  20 H :   -0.023127
  21 H :   -0.029284
  22 H :   -0.026317
  23 H :   -0.023670
  24 H :   -0.032084
  25 H :   -0.010065
  26 H :   -0.008169
  27 H :   -0.021133
  28 H :   -0.058653
  29 H :   -0.063354
  30 H :   -0.008137
  31 H :   -0.023718
  32 H :   -0.020845
  33 H :   -0.036038
  34 H :   -0.154669
  35 H :   -0.023710

  Mayer bond orders larger than 0.100000
B(  0-C ,  1-C ) :   0.9802 B(  0-C , 20-H ) :   0.9740 B(  0-C , 21-H ) :   0.9738
B(  0-C , 22-H ) :   0.9725 B(  1-C ,  2-O ) :   0.9098 B(  1-C , 23-H ) :   0.9814
B(  1-C , 24-H ) :   0.9756 B(  2-O ,  3-C ) :   1.0635 B(  3-C ,  4-O ) :   2.0100
B(  3-C ,  5-C ) :   1.0379 B(  5-C ,  6-C ) :   1.6659 B(  5-C , 12-C ) :   0.9486
B(  6-C ,  7-C ) :   0.9537 B(  6-C ,  8-N ) :   1.1351 B(  7-C , 25-H ) :   0.9648
B(  7-C , 26-H ) :   0.9651 B(  7-C , 27-H ) :   0.9908 B(  8-N ,  9-C ) :   1.1859
B(  8-N , 28-H ) :   0.9470 B(  9-C , 10-S ) :   1.6085 B(  9-C , 11-N ) :   1.3055
B( 11-N , 12-C ) :   0.9758 B( 11-N , 29-H ) :   0.9486 B( 12-C , 13-C ) :   0.9705
B( 12-C , 30-H ) :   0.9965 B( 13-C , 14-C ) :   1.3769 B( 13-C , 19-C ) :   1.3647
B( 14-C , 15-C ) :   1.3962 B( 14-C , 31-H ) :   0.9630 B( 15-C , 16-C ) :   1.3591
B( 15-C , 32-H ) :   0.9709 B( 16-C , 17-C ) :   1.3331 B( 16-C , 33-H ) :   0.9858
B( 17-C , 18-O ) :   1.1042 B( 17-C , 19-C ) :   1.3669 B( 18-O , 34-H ) :   0.9805
B( 19-C , 35-H ) :   0.9599

MP2 TOTAL ENERGY:    -1274.326675077 Eh
FINAL SINGLE POINT ENERGY     -1274.326675077058

DIPOLE MOMENT
-------------
                                X             Y             Z
Electronic contribution:      9.28088      10.61474      10.30317
Nuclear contribution   :    -10.87489     -11.81457     -11.19015
                        -----------------------------------------
Total Dipole Moment    :     -1.59401      -1.19983      -0.88698
                        -----------------------------------------
Magnitude (a.u.)       :      2.18339
Magnitude (Debye)      :      5.54974

Rotational constants in cm-1:     0.010259     0.009147     0.005713
Rotational constants in MHz :   307.567893   274.216133   171.283919

                             ****ORCA TERMINATED NORMALLY****
TOTAL RUN TIME: 0 days 1 hours 55 minutes 13 seconds 349 msec
