                         Program Version 4.2.0 -  RELEASE  -
|  1> ! ri-mp2 cc-pvtz cc-pvtz/c TightSCF NoKeepInts
|  2>
|  3> %scf
|  4>   MaxCore 4096
|  5> end
|  6> *xyz  0  1
|  7>     C       14.8420136   14.7403507   16.2882565
|  8>     C       15.8510176   14.9280091   15.1411730
|  9>     O       16.8224759   15.9147464   15.5368886
| 10>     C       16.5659061   17.2309150   15.2756860
| 11>     O       15.9948101   17.5801397   14.2567729
| 12>     C       16.9398856   18.1419584   16.4151840
| 13>     C       16.8982565   19.4913729   16.2619222
| 14>     C       16.2405668   20.2690212   15.1402660
| 15>     N       17.5075174   20.3414255   17.1876546
| 16>     C       18.3521085   19.9257539   18.1805183
| 17>     S       19.1265839   20.9944805   19.1774354
| 18>     N       18.5438732   18.5722051   18.2900961
| 19>     C       17.8124900   17.5403614   17.5313072
| 20>     C       17.1019354   16.5504634   18.4442383
| 21>     C       17.6721461   15.2923621   18.7126043
| 22>     C       17.0304095   14.3876112   19.5753377
| 23>     C       15.8096456   14.7447754   20.1736618
| 24>     C       15.2424559   15.9995797   19.9107628
| 25>     O       14.0645695   16.3471513   20.4873235
| 26>     C       15.8852700   16.8993840   19.0548673
| 27>     H       15.3451234   14.3758307   17.1908897
| 28>     H       14.0751141   14.0084239   16.0079538
| 29>     H       14.3401173   15.6862565   16.5272695
| 30>     H       16.3601261   13.9724319   14.9619789
| 31>     H       15.3363304   15.2129165   14.2132896
| 32>     H       15.2029856   19.9404903   14.9984575
| 33>     H       16.7694414   20.1033032   14.1929477
| 34>     H       16.2167397   21.3499084   15.3222407
| 35>     H       17.3952541   21.3388534   17.1009888
| 36>     H       19.1478579   18.2937975   19.0530123
| 37>     H       18.6514304   17.0530263   17.0144267
| 38>     H       18.6148671   15.0148311   18.2486043
| 39>     H       17.4782903   13.4160588   19.7771286
| 40>     H       15.3098271   14.0492703   20.8398619
| 41>     H       13.8012999   15.6215643   21.0732013
| 42>     H       15.4382580   17.8709701   18.8737921
| 43> *
| 44>
| 45>                          ****END OF INPUT****

CARTESIAN COORDINATES (ANGSTROEM)
---------------------------------
  C     14.842014   14.740351   16.288256
  C     15.851018   14.928009   15.141173
  O     16.822476   15.914746   15.536889
  C     16.565906   17.230915   15.275686
  O     15.994810   17.580140   14.256773
  C     16.939886   18.141958   16.415184
  C     16.898256   19.491373   16.261922
  C     16.240567   20.269021   15.140266
  N     17.507517   20.341425   17.187655
  C     18.352108   19.925754   18.180518
  S     19.126584   20.994481   19.177435
  N     18.543873   18.572205   18.290096
  C     17.812490   17.540361   17.531307
  C     17.101935   16.550463   18.444238
  C     17.672146   15.292362   18.712604
  C     17.030410   14.387611   19.575338
  C     15.809646   14.744775   20.173662
  C     15.242456   15.999580   19.910763
  O     14.064569   16.347151   20.487323
  C     15.885270   16.899384   19.054867
  H     15.345123   14.375831   17.190890
  H     14.075114   14.008424   16.007954
  H     14.340117   15.686256   16.527269
  H     16.360126   13.972432   14.961979
  H     15.336330   15.212916   14.213290
  H     15.202986   19.940490   14.998457
  H     16.769441   20.103303   14.192948
  H     16.216740   21.349908   15.322241
  H     17.395254   21.338853   17.100989
  H     19.147858   18.293797   19.053012
  H     18.651430   17.053026   17.014427
  H     18.614867   15.014831   18.248604
  H     17.478290   13.416059   19.777129
  H     15.309827   14.049270   20.839862
  H     13.801300   15.621564   21.073201
  H     15.438258   17.870970   18.873792

 Total Charge           Charge          ....    0
 Multiplicity           Mult            ....    1
 Number of Electrons    NEL             ....  154
 Basis Dimension        Dim             ....  828

ORBITAL ENERGIES
----------------

  NO   OCC          E(Eh)            E(eV)
   0   2.0000     -91.889707     -2500.4461
   1   2.0000     -20.599320      -560.5360
   2   2.0000     -20.593182      -560.3690
   3   2.0000     -20.542028      -558.9770
   4   2.0000     -15.630272      -425.3213
   5   2.0000     -15.607685      -424.7067
   6   2.0000     -11.393693      -310.0382
   7   2.0000     -11.384194      -309.7797
   8   2.0000     -11.338885      -308.5467
   9   2.0000     -11.316562      -307.9393
  10   2.0000     -11.308762      -307.7270
  11   2.0000     -11.293545      -307.3130
  12   2.0000     -11.263257      -306.4888
  13   2.0000     -11.259386      -306.3835
  14   2.0000     -11.258056      -306.3473
  15   2.0000     -11.252338      -306.1917
  16   2.0000     -11.246284      -306.0270
  17   2.0000     -11.241079      -305.8853
  18   2.0000     -11.240825      -305.8784
  19   2.0000     -11.221122      -305.3422
  20   2.0000      -8.894765      -242.0389
  21   2.0000      -6.576335      -178.9512
  22   2.0000      -6.574339      -178.8969
  23   2.0000      -6.573746      -178.8807
  24   2.0000      -1.448840       -39.4249
  25   2.0000      -1.418983       -38.6125
  26   2.0000      -1.352541       -36.8045
  27   2.0000      -1.341533       -36.5050
  28   2.0000      -1.239416       -33.7262
  29   2.0000      -1.159946       -31.5637
  30   2.0000      -1.121950       -30.5298
  31   2.0000      -1.044547       -28.4236
  32   2.0000      -1.033591       -28.1254
  33   2.0000      -1.017665       -27.6921
  34   2.0000      -0.997493       -27.1432
  35   2.0000      -0.985645       -26.8208
  36   2.0000      -0.923234       -25.1225
  37   2.0000      -0.890595       -24.2343
  38   2.0000      -0.847618       -23.0649
  39   2.0000      -0.840231       -22.8639
  40   2.0000      -0.836369       -22.7588
  41   2.0000      -0.814636       -22.1674
  42   2.0000      -0.757795       -20.6206
  43   2.0000      -0.735501       -20.0140
  44   2.0000      -0.722297       -19.6547
  45   2.0000      -0.698078       -18.9957
  46   2.0000      -0.689110       -18.7516
  47   2.0000      -0.677105       -18.4250
  48   2.0000      -0.670762       -18.2524
  49   2.0000      -0.665657       -18.1134
  50   2.0000      -0.647117       -17.6089
  51   2.0000      -0.642083       -17.4720
  52   2.0000      -0.636395       -17.3172
  53   2.0000      -0.609681       -16.5903
  54   2.0000      -0.604006       -16.4358
  55   2.0000      -0.601148       -16.3581
  56   2.0000      -0.595520       -16.2049
  57   2.0000      -0.579334       -15.7645
  58   2.0000      -0.570068       -15.5123
  59   2.0000      -0.566804       -15.4235
  60   2.0000      -0.558332       -15.1930
  61   2.0000      -0.548166       -14.9164
  62   2.0000      -0.538731       -14.6596
  63   2.0000      -0.526615       -14.3299
  64   2.0000      -0.525282       -14.2937
  65   2.0000      -0.513679       -13.9779
  66   2.0000      -0.502646       -13.6777
  67   2.0000      -0.498344       -13.5606
  68   2.0000      -0.479032       -13.0351
  69   2.0000      -0.463679       -12.6173
  70   2.0000      -0.451798       -12.2941
  71   2.0000      -0.446157       -12.1405
  72   2.0000      -0.354071        -9.6348
  73   2.0000      -0.352296        -9.5865
  74   2.0000      -0.329103        -8.9553
  75   2.0000      -0.324206        -8.8221
  76   2.0000      -0.319351        -8.6900
  77   0.0000       0.074448         2.0258
  78   0.0000       0.101974         2.7748
  79   0.0000       0.123254         3.3539
  80   0.0000       0.131470         3.5775
  81   0.0000       0.134022         3.6469

MULLIKEN ATOMIC CHARGES
-----------------------
   0 C :   -0.307301
   1 C :    0.022443
   2 O :   -0.363706
   3 C :    0.447972
   4 O :   -0.427373
   5 C :   -0.251596
   6 C :    0.180799
   7 C :   -0.265452
   8 N :   -0.126710
   9 C :    0.212863
  10 S :   -0.441212
  11 N :   -0.218453
  12 C :    0.067872
  13 C :    0.042476
  14 C :   -0.182787
  15 C :   -0.135159
  16 C :   -0.278704
  17 C :    0.319814
  18 O :   -0.358605
  19 C :   -0.244637
  20 H :    0.105701
  21 H :    0.110667
  22 H :    0.102464
  23 H :    0.104632
  24 H :    0.120471
  25 H :    0.131694
  26 H :    0.131175
  27 H :    0.094437
  28 H :    0.199771
  29 H :    0.201357
  30 H :    0.151934
  31 H :    0.151614
  32 H :    0.162673
  33 H :    0.131938
  34 H :    0.241416
  35 H :    0.165516
Sum of atomic charges:   -0.0000000

LOEWDIN ATOMIC CHARGES
----------------------
   0 C :    0.103608
   1 C :   -0.016805
   2 O :    0.301550
   3 C :   -0.417527
   4 O :    0.100756
   5 C :   -0.098612
   6 C :   -0.054168
   7 C :    0.131211
   8 N :    0.407801
   9 C :   -0.456159
  10 S :   -0.035558
  11 N :    0.394650
  12 C :   -0.054084
  13 C :   -0.037878
  14 C :    0.015009
  15 C :    0.039934
  16 C :   -0.001175
  17 C :   -0.189333
  18 O :    0.396142
  19 C :    0.035150
  20 H :   -0.026002
  21 H :   -0.027038
  22 H :   -0.028193
  23 H :   -0.026292
  24 H :   -0.028488
  25 H :   -0.004644
  26 H :   -0.004378
  27 H :   -0.023604
  28 H :   -0.056911
  29 H :   -0.064570
  30 H :   -0.012738
  31 H :   -0.028749
  32 H :   -0.020629
  33 H :   -0.035079
  34 H :   -0.153293
  35 H :   -0.023903

  Mayer bond orders larger than 0.100000
B(  0-C ,  1-C ) :   0.9624 B(  0-C , 20-H ) :   0.9727 B(  0-C , 21-H ) :   0.9783
B(  0-C , 22-H ) :   0.9750 B(  1-C ,  2-O ) :   0.8897 B(  1-C , 23-H ) :   0.9858
B(  1-C , 24-H ) :   0.9771 B(  2-O ,  3-C ) :   1.1358 B(  3-C ,  4-O ) :   1.9855
B(  3-C ,  5-C ) :   1.0668 B(  5-C ,  6-C ) :   1.6258 B(  5-C , 12-C ) :   0.9554
B(  6-C ,  7-C ) :   0.9660 B(  6-C ,  8-N ) :   1.1583 B(  7-C , 25-H ) :   0.9619
B(  7-C , 26-H ) :   0.9573 B(  7-C , 27-H ) :   0.9903 B(  8-N ,  9-C ) :   1.1859
B(  8-N , 28-H ) :   0.9465 B(  9-C , 10-S ) :   1.6042 B(  9-C , 11-N ) :   1.3120
B( 11-N , 12-C ) :   0.9594 B( 11-N , 29-H ) :   0.9482 B( 12-C , 13-C ) :   0.9648
B( 12-C , 30-H ) :   1.0025 B( 13-C , 14-C ) :   1.3522 B( 13-C , 19-C ) :   1.3699
B( 14-C , 15-C ) :   1.3926 B( 14-C , 31-H ) :   0.9729 B( 15-C , 16-C ) :   1.3555
B( 15-C , 32-H ) :   0.9712 B( 16-C , 17-C ) :   1.3348 B( 16-C , 33-H ) :   0.9850
B( 17-C , 18-O ) :   1.1048 B( 17-C , 19-C ) :   1.3600 B( 18-O , 34-H ) :   0.9793
B( 19-C , 35-H ) :   0.9601

MP2 TOTAL ENERGY:    -1274.339641804 Eh
FINAL SINGLE POINT ENERGY     -1274.339641803562

DIPOLE MOMENT
-------------
                                X             Y             Z
Electronic contribution:      8.35550      10.56581       5.98344
Nuclear contribution   :     -9.24520     -12.29062      -6.12677
                        -----------------------------------------
Total Dipole Moment    :     -0.88970      -1.72480      -0.14333
                        -----------------------------------------
Magnitude (a.u.)       :      1.94604
Magnitude (Debye)      :      4.94643

Rotational constants in cm-1:     0.012462     0.008609     0.006139
Rotational constants in MHz :   373.595167   258.104111   184.037236

                             ****ORCA TERMINATED NORMALLY****
TOTAL RUN TIME: 0 days 1 hours 42 minutes 35 seconds 458 msec
