                         Program Version 4.2.0 -  RELEASE  -
|  1> ! ri-mp2 cc-pvtz cc-pvtz/c TightSCF NoKeepInts
|  2>
|  3> %scf
|  4>   MaxCore 4096
|  5> end
|  6> *xyz  0  1
|  7>     C       13.9423097   16.6273491   15.5705888
|  8>     C       15.1539301   15.6887835   15.4361061
|  9>     O       16.2177248   16.3779129   14.7523276
| 10>     C       17.3479688   16.6172217   15.4745088
| 11>     O       18.3211171   15.8883987   15.4112243
| 12>     C       17.1999701   17.7015758   16.4906645
| 13>     C       16.7618489   18.9322423   16.1297087
| 14>     C       16.2054759   19.3413902   14.7802632
| 15>     N       16.8867668   20.0160060   17.0013524
| 16>     C       17.6401374   19.9996889   18.1456793
| 17>     S       17.8333959   21.3496014   19.0810946
| 18>     N       18.2458588   18.8086946   18.4640104
| 19>     C       18.0245899   17.5267709   17.7653031
| 20>     C       17.4928197   16.4100623   18.6513582
| 21>     C       18.0890835   15.1367757   18.6255438
| 22>     C       17.5846219   14.0958925   19.4228368
| 23>     C       16.4725401   14.3300190   20.2498486
| 24>     C       15.8723385   15.5965053   20.2719599
| 25>     O       14.7918526   15.8224741   21.0607057
| 26>     C       16.3758504   16.6303689   19.4759803
| 27>     H       14.1658607   17.4616584   16.2459454
| 28>     H       13.0845059   16.0826885   15.9838660
| 29>     H       13.6511094   17.0293696   14.5922514
| 30>     H       15.4725783   15.3370878   16.4282479
| 31>     H       14.8625905   14.8091653   14.8473061
| 32>     H       16.7422079   18.8472495   13.9604845
| 33>     H       16.2958782   20.4205492   14.6047261
| 34>     H       15.1457942   19.0786696   14.6919193
| 35>     H       16.4737103   20.9040786   16.7641519
| 36>     H       18.7873724   18.8218527   19.3192787
| 37>     H       19.0487846   17.3002085   17.4333508
| 38>     H       18.9400208   14.9512176   17.9731925
| 39>     H       18.0533115   13.1135828   19.3936731
| 40>     H       16.0791700   13.5282993   20.8661777
| 41>     H       14.6276227   15.0132336   21.5681325
| 42>     H       15.8962818   17.6033553   19.5042312
| 43> *
| 44>
| 45>                          ****END OF INPUT****

CARTESIAN COORDINATES (ANGSTROEM)
---------------------------------
  C     13.942310   16.627349   15.570589
  C     15.153930   15.688783   15.436106
  O     16.217725   16.377913   14.752328
  C     17.347969   16.617222   15.474509
  O     18.321117   15.888399   15.411224
  C     17.199970   17.701576   16.490665
  C     16.761849   18.932242   16.129709
  C     16.205476   19.341390   14.780263
  N     16.886767   20.016006   17.001352
  C     17.640137   19.999689   18.145679
  S     17.833396   21.349601   19.081095
  N     18.245859   18.808695   18.464010
  C     18.024590   17.526771   17.765303
  C     17.492820   16.410062   18.651358
  C     18.089083   15.136776   18.625544
  C     17.584622   14.095892   19.422837
  C     16.472540   14.330019   20.249849
  C     15.872338   15.596505   20.271960
  O     14.791853   15.822474   21.060706
  C     16.375850   16.630369   19.475980
  H     14.165861   17.461658   16.245945
  H     13.084506   16.082688   15.983866
  H     13.651109   17.029370   14.592251
  H     15.472578   15.337088   16.428248
  H     14.862590   14.809165   14.847306
  H     16.742208   18.847249   13.960484
  H     16.295878   20.420549   14.604726
  H     15.145794   19.078670   14.691919
  H     16.473710   20.904079   16.764152
  H     18.787372   18.821853   19.319279
  H     19.048785   17.300209   17.433351
  H     18.940021   14.951218   17.973192
  H     18.053311   13.113583   19.393673
  H     16.079170   13.528299   20.866178
  H     14.627623   15.013234   21.568132
  H     15.896282   17.603355   19.504231

 Total Charge           Charge          ....    0
 Multiplicity           Mult            ....    1
 Number of Electrons    NEL             ....  154
 Basis Dimension        Dim             ....  828

ORBITAL ENERGIES
----------------

  NO   OCC          E(Eh)            E(eV)
   0   2.0000     -91.890160     -2500.4584
   1   2.0000     -20.598763      -560.5208
   2   2.0000     -20.587000      -560.2007
   3   2.0000     -20.556083      -559.3594
   4   2.0000     -15.629503      -425.3004
   5   2.0000     -15.608860      -424.7387
   6   2.0000     -11.394702      -310.0656
   7   2.0000     -11.385639      -309.8190
   8   2.0000     -11.336213      -308.4740
   9   2.0000     -11.315825      -307.9193
  10   2.0000     -11.308017      -307.7068
  11   2.0000     -11.305498      -307.6382
  12   2.0000     -11.262788      -306.4761
  13   2.0000     -11.261732      -306.4473
  14   2.0000     -11.259154      -306.3772
  15   2.0000     -11.255938      -306.2897
  16   2.0000     -11.245397      -306.0028
  17   2.0000     -11.241368      -305.8932
  18   2.0000     -11.238259      -305.8086
  19   2.0000     -11.234840      -305.7155
  20   2.0000      -8.895244      -242.0519
  21   2.0000      -6.576818      -178.9643
  22   2.0000      -6.574815      -178.9098
  23   2.0000      -6.574226      -178.8938
  24   2.0000      -1.451193       -39.4890
  25   2.0000      -1.418515       -38.5998
  26   2.0000      -1.361340       -37.0439
  27   2.0000      -1.341202       -36.4960
  28   2.0000      -1.239028       -33.7157
  29   2.0000      -1.160001       -31.5652
  30   2.0000      -1.124935       -30.6110
  31   2.0000      -1.047263       -28.4975
  32   2.0000      -1.038031       -28.2463
  33   2.0000      -1.017458       -27.6864
  34   2.0000      -1.003291       -27.3009
  35   2.0000      -0.989078       -26.9142
  36   2.0000      -0.925142       -25.1744
  37   2.0000      -0.886721       -24.1289
  38   2.0000      -0.850778       -23.1509
  39   2.0000      -0.841571       -22.9003
  40   2.0000      -0.835753       -22.7420
  41   2.0000      -0.831896       -22.6370
  42   2.0000      -0.759342       -20.6628
  43   2.0000      -0.737220       -20.0608
  44   2.0000      -0.730619       -19.8812
  45   2.0000      -0.696477       -18.9521
  46   2.0000      -0.687619       -18.7111
  47   2.0000      -0.683617       -18.6022
  48   2.0000      -0.675483       -18.3808
  49   2.0000      -0.660232       -17.9658
  50   2.0000      -0.654020       -17.7968
  51   2.0000      -0.642785       -17.4911
  52   2.0000      -0.635244       -17.2859
  53   2.0000      -0.611061       -16.6278
  54   2.0000      -0.607512       -16.5312
  55   2.0000      -0.604923       -16.4608
  56   2.0000      -0.602091       -16.3837
  57   2.0000      -0.582529       -15.8514
  58   2.0000      -0.579339       -15.7646
  59   2.0000      -0.575457       -15.6590
  60   2.0000      -0.562774       -15.3138
  61   2.0000      -0.554651       -15.0928
  62   2.0000      -0.546527       -14.8718
  63   2.0000      -0.524470       -14.2715
  64   2.0000      -0.519374       -14.1329
  65   2.0000      -0.512877       -13.9561
  66   2.0000      -0.502253       -13.6670
  67   2.0000      -0.498049       -13.5526
  68   2.0000      -0.487640       -13.2694
  69   2.0000      -0.467794       -12.7293
  70   2.0000      -0.458649       -12.4805
  71   2.0000      -0.453192       -12.3320
  72   2.0000      -0.355589        -9.6761
  73   2.0000      -0.351308        -9.5596
  74   2.0000      -0.329401        -8.9635
  75   2.0000      -0.323183        -8.7943
  76   2.0000      -0.319658        -8.6983
  77   0.0000       0.076270         2.0754
  78   0.0000       0.102726         2.7953
  79   0.0000       0.120413         3.2766
  80   0.0000       0.130481         3.5506
  81   0.0000       0.132740         3.6120

MULLIKEN ATOMIC CHARGES
-----------------------
   0 C :   -0.306684
   1 C :    0.034760
   2 O :   -0.364657
   3 C :    0.448587
   4 O :   -0.376506
   5 C :   -0.222927
   6 C :    0.139775
   7 C :   -0.292710
   8 N :   -0.132182
   9 C :    0.205479
  10 S :   -0.440451
  11 N :   -0.216902
  12 C :    0.063786
  13 C :    0.008371
  14 C :   -0.196276
  15 C :   -0.130920
  16 C :   -0.277830
  17 C :    0.310979
  18 O :   -0.356548
  19 C :   -0.242934
  20 H :    0.098198
  21 H :    0.116201
  22 H :    0.100509
  23 H :    0.101376
  24 H :    0.120235
  25 H :    0.131593
  26 H :    0.112420
  27 H :    0.125104
  28 H :    0.198586
  29 H :    0.200434
  30 H :    0.161796
  31 H :    0.171779
  32 H :    0.163895
  33 H :    0.132037
  34 H :    0.241107
  35 H :    0.170519
Sum of atomic charges:   -0.0000000

LOEWDIN ATOMIC CHARGES
----------------------
   0 C :    0.103140
   1 C :   -0.013318
   2 O :    0.290788
   3 C :   -0.425082
   4 O :    0.129823
   5 C :   -0.094629
   6 C :   -0.075313
   7 C :    0.128500
   8 N :    0.404858
   9 C :   -0.456605
  10 S :   -0.036450
  11 N :    0.395615
  12 C :   -0.049503
  13 C :   -0.044299
  14 C :    0.021004
  15 C :    0.042798
  16 C :   -0.000691
  17 C :   -0.192812
  18 O :    0.394547
  19 C :    0.027519
  20 H :   -0.032154
  21 H :   -0.022749
  22 H :   -0.028342
  23 H :   -0.025554
  24 H :   -0.023330
  25 H :   -0.006724
  26 H :   -0.017345
  27 H :   -0.013494
  28 H :   -0.057869
  29 H :   -0.063936
  30 H :   -0.005730
  31 H :   -0.021864
  32 H :   -0.019120
  33 H :   -0.034953
  34 H :   -0.153459
  35 H :   -0.023268

  Mayer bond orders larger than 0.100000
B(  0-C ,  1-C ) :   0.9682 B(  0-C , 20-H ) :   0.9755 B(  0-C , 21-H ) :   0.9777
B(  0-C , 22-H ) :   0.9747 B(  1-C ,  2-O ) :   0.8912 B(  1-C , 23-H ) :   0.9672
B(  1-C , 24-H ) :   0.9839 B(  2-O ,  3-C ) :   1.0973 B(  3-C ,  4-O ) :   2.0917
B(  3-C ,  5-C ) :   0.9559 B(  5-C ,  6-C ) :   1.7028 B(  5-C , 12-C ) :   0.9409
B(  6-C ,  7-C ) :   0.9484 B(  6-C ,  8-N ) :   1.1235 B(  7-C , 25-H ) :   0.9683
B(  7-C , 26-H ) :   0.9871 B(  7-C , 27-H ) :   0.9638 B(  8-N ,  9-C ) :   1.1903
B(  8-N , 28-H ) :   0.9483 B(  9-C , 10-S ) :   1.6129 B(  9-C , 11-N ) :   1.2952
B( 11-N , 12-C ) :   0.9826 B( 11-N , 29-H ) :   0.9485 B( 12-C , 13-C ) :   0.9666
B( 12-C , 30-H ) :   0.9925 B( 13-C , 14-C ) :   1.3845 B( 13-C , 19-C ) :   1.3568
B( 14-C , 15-C ) :   1.3947 B( 14-C , 31-H ) :   0.9600 B( 15-C , 16-C ) :   1.3617
B( 15-C , 32-H ) :   0.9702 B( 16-C , 17-C ) :   1.3304 B( 16-C , 33-H ) :   0.9847
B( 17-C , 18-O ) :   1.1086 B( 17-C , 19-C ) :   1.3676 B( 18-O , 34-H ) :   0.9795
B( 19-C , 35-H ) :   0.9578

MP2 TOTAL ENERGY:    -1274.324850267 Eh
FINAL SINGLE POINT ENERGY     -1274.324850267335

DIPOLE MOMENT
-------------
                                X             Y             Z
Electronic contribution:     10.11455       6.47742       7.60599
Nuclear contribution   :    -11.49431      -7.82093      -8.03665
                        -----------------------------------------
Total Dipole Moment    :     -1.37975      -1.34352      -0.43066
                        -----------------------------------------
Magnitude (a.u.)       :      1.97338
Magnitude (Debye)      :      5.01593

Rotational constants in cm-1:     0.011186     0.009142     0.006513
Rotational constants in MHz :   335.347750   274.076556   195.243523

                             ****ORCA TERMINATED NORMALLY****
TOTAL RUN TIME: 0 days 1 hours 56 minutes 39 seconds 503 msec
