                         Program Version 4.2.0 -  RELEASE  -
|  1> ! ri-mp2 cc-pvtz cc-pvtz/c TightSCF NoKeepInts
|  2>
|  3> %scf
|  4>   MaxCore 4096
|  5> end
|  6> *xyz  0  1
|  7>     C       14.3095812   16.0384588   15.1925176
|  8>     C       15.4016884   15.4227097   16.0894655
|  9>     O       16.6974626   15.6566549   15.4966123
| 10>     C       17.1667351   16.9208207   15.2732936
| 11>     O       17.6168122   17.2350031   14.1868692
| 12>     C       17.0775895   17.8649157   16.4353365
| 13>     C       16.8698862   19.1804921   16.1827665
| 14>     C       16.3202731   19.7732503   14.9021936
| 15>     N       17.1693851   20.1593003   17.1315749
| 16>     C       17.9192360   19.9332504   18.2541806
| 17>     S       18.3515788   21.1554796   19.2806955
| 18>     N       18.3171823   18.6375582   18.4707115
| 19>     C       17.8623394   17.4643500   17.6984008
| 20>     C       17.2598993   16.3743561   18.5714734
| 21>     C       17.7426102   15.0545652   18.5021964
| 22>     C       17.1810748   14.0470318   19.3042081
| 23>     C       16.1335144   14.3632846   20.1862687
| 24>     C       15.6564973   15.6790090   20.2630773
| 25>     O       14.6428394   15.9864944   21.1103141
| 26>     C       16.2149525   16.6795978   19.4612544
| 27>     H       14.3529747   17.1335514   15.2061737
| 28>     H       13.3148552   15.7377206   15.5434773
| 29>     H       14.4227423   15.6972302   14.1554294
| 30>     H       15.3184641   15.8505735   17.0917747
| 31>     H       15.2366607   14.3406848   16.1724180
| 32>     H       15.6181886   19.0885752   14.4117174
| 33>     H       17.1350426   19.9637362   14.1912025
| 34>     H       15.7884273   20.7169789   15.0720192
| 35>     H       16.9237256   21.1208138   16.9564310
| 36>     H       18.8614806   18.4988865   19.3131904
| 37>     H       18.8354769   17.1225242   17.3165882
| 38>     H       18.5480176   14.8063714   17.8149211
| 39>     H       17.5581900   13.0274164   19.2406414
| 40>     H       15.6976152   13.5878538   20.8079804
| 41>     H       14.4306185   15.1873229   21.6161472
| 42>     H       15.8333824   17.6931776   19.5344772
| 43> *
| 44>
| 45>                          ****END OF INPUT****

CARTESIAN COORDINATES (ANGSTROEM)
---------------------------------
  C     14.309581   16.038459   15.192518
  C     15.401688   15.422710   16.089465
  O     16.697463   15.656655   15.496612
  C     17.166735   16.920821   15.273294
  O     17.616812   17.235003   14.186869
  C     17.077589   17.864916   16.435336
  C     16.869886   19.180492   16.182766
  C     16.320273   19.773250   14.902194
  N     17.169385   20.159300   17.131575
  C     17.919236   19.933250   18.254181
  S     18.351579   21.155480   19.280696
  N     18.317182   18.637558   18.470712
  C     17.862339   17.464350   17.698401
  C     17.259899   16.374356   18.571473
  C     17.742610   15.054565   18.502196
  C     17.181075   14.047032   19.304208
  C     16.133514   14.363285   20.186269
  C     15.656497   15.679009   20.263077
  O     14.642839   15.986494   21.110314
  C     16.214952   16.679598   19.461254
  H     14.352975   17.133551   15.206174
  H     13.314855   15.737721   15.543477
  H     14.422742   15.697230   14.155429
  H     15.318464   15.850573   17.091775
  H     15.236661   14.340685   16.172418
  H     15.618189   19.088575   14.411717
  H     17.135043   19.963736   14.191202
  H     15.788427   20.716979   15.072019
  H     16.923726   21.120814   16.956431
  H     18.861481   18.498887   19.313190
  H     18.835477   17.122524   17.316588
  H     18.548018   14.806371   17.814921
  H     17.558190   13.027416   19.240641
  H     15.697615   13.587854   20.807980
  H     14.430618   15.187323   21.616147
  H     15.833382   17.693178   19.534477

 Total Charge           Charge          ....    0
 Multiplicity           Mult            ....    1
 Number of Electrons    NEL             ....  154
 Basis Dimension        Dim             ....  828

ORBITAL ENERGIES
----------------

  NO   OCC          E(Eh)            E(eV)
   0   2.0000     -91.891021     -2500.4818
   1   2.0000     -20.603406      -560.6472
   2   2.0000     -20.590826      -560.3049
   3   2.0000     -20.551598      -559.2374
   4   2.0000     -15.628718      -425.2790
   5   2.0000     -15.610877      -424.7936
   6   2.0000     -11.394562      -310.0618
   7   2.0000     -11.385936      -309.8271
   8   2.0000     -11.333357      -308.3963
   9   2.0000     -11.321623      -308.0770
  10   2.0000     -11.316211      -307.9298
  11   2.0000     -11.299425      -307.4730
  12   2.0000     -11.268439      -306.6298
  13   2.0000     -11.262551      -306.4696
  14   2.0000     -11.258039      -306.3468
  15   2.0000     -11.256008      -306.2915
  16   2.0000     -11.251476      -306.1682
  17   2.0000     -11.246341      -306.0285
  18   2.0000     -11.245714      -306.0114
  19   2.0000     -11.231599      -305.6273
  20   2.0000      -8.896080      -242.0746
  21   2.0000      -6.577649      -178.9869
  22   2.0000      -6.575653      -178.9326
  23   2.0000      -6.575058      -178.9164
  24   2.0000      -1.445899       -39.3449
  25   2.0000      -1.423186       -38.7269
  26   2.0000      -1.357965       -36.9521
  27   2.0000      -1.341696       -36.5094
  28   2.0000      -1.240986       -33.7690
  29   2.0000      -1.164821       -31.6964
  30   2.0000      -1.124196       -30.5909
  31   2.0000      -1.049594       -28.5609
  32   2.0000      -1.034540       -28.1513
  33   2.0000      -1.022882       -27.8340
  34   2.0000      -1.002966       -27.2921
  35   2.0000      -0.989278       -26.9196
  36   2.0000      -0.926734       -25.2177
  37   2.0000      -0.892897       -24.2970
  38   2.0000      -0.851207       -23.1625
  39   2.0000      -0.844018       -22.9669
  40   2.0000      -0.841684       -22.9034
  41   2.0000      -0.831792       -22.6342
  42   2.0000      -0.753972       -20.5166
  43   2.0000      -0.738377       -20.0922
  44   2.0000      -0.718278       -19.5453
  45   2.0000      -0.701617       -19.0920
  46   2.0000      -0.691278       -18.8106
  47   2.0000      -0.680521       -18.5179
  48   2.0000      -0.676118       -18.3981
  49   2.0000      -0.667281       -18.1576
  50   2.0000      -0.650086       -17.6897
  51   2.0000      -0.649012       -17.6605
  52   2.0000      -0.635100       -17.2820
  53   2.0000      -0.619976       -16.8704
  54   2.0000      -0.612470       -16.6662
  55   2.0000      -0.606242       -16.4967
  56   2.0000      -0.603093       -16.4110
  57   2.0000      -0.582684       -15.8556
  58   2.0000      -0.577386       -15.7115
  59   2.0000      -0.567143       -15.4328
  60   2.0000      -0.555435       -15.1142
  61   2.0000      -0.549863       -14.9625
  62   2.0000      -0.545687       -14.8489
  63   2.0000      -0.532227       -14.4826
  64   2.0000      -0.527829       -14.3629
  65   2.0000      -0.517466       -14.0810
  66   2.0000      -0.505198       -13.7471
  67   2.0000      -0.500533       -13.6202
  68   2.0000      -0.482632       -13.1331
  69   2.0000      -0.467360       -12.7175
  70   2.0000      -0.454431       -12.3657
  71   2.0000      -0.450522       -12.2593
  72   2.0000      -0.357681        -9.7330
  73   2.0000      -0.352625        -9.5954
  74   2.0000      -0.330751        -9.0002
  75   2.0000      -0.328671        -8.9436
  76   2.0000      -0.321113        -8.7379
  77   0.0000       0.079693         2.1686
  78   0.0000       0.097264         2.6467
  79   0.0000       0.121836         3.3153
  80   0.0000       0.127495         3.4693
  81   0.0000       0.129166         3.5148

MULLIKEN ATOMIC CHARGES
-----------------------
   0 C :   -0.296089
   1 C :    0.029571
   2 O :   -0.345983
   3 C :    0.417028
   4 O :   -0.370140
   5 C :   -0.221220
   6 C :    0.153062
   7 C :   -0.282703
   8 N :   -0.131268
   9 C :    0.210147
  10 S :   -0.438311
  11 N :   -0.212565
  12 C :    0.030672
  13 C :   -0.001608
  14 C :   -0.169924
  15 C :   -0.137952
  16 C :   -0.271962
  17 C :    0.305618
  18 O :   -0.354730
  19 C :   -0.231344
  20 H :    0.085488
  21 H :    0.104812
  22 H :    0.115171
  23 H :    0.103683
  24 H :    0.122562
  25 H :    0.117883
  26 H :    0.144246
  27 H :    0.098200
  28 H :    0.198931
  29 H :    0.200729
  30 H :    0.156625
  31 H :    0.155631
  32 H :    0.165494
  33 H :    0.135047
  34 H :    0.241485
  35 H :    0.173713
Sum of atomic charges:   -0.0000000

LOEWDIN ATOMIC CHARGES
----------------------
   0 C :    0.105144
   1 C :   -0.019651
   2 O :    0.298548
   3 C :   -0.425754
   4 O :    0.128625
   5 C :   -0.100287
   6 C :   -0.070905
   7 C :    0.129191
   8 N :    0.406500
   9 C :   -0.456750
  10 S :   -0.034070
  11 N :    0.395723
  12 C :   -0.053495
  13 C :   -0.046053
  14 C :    0.022031
  15 C :    0.043899
  16 C :    0.001268
  17 C :   -0.192231
  18 O :    0.396741
  19 C :    0.030165
  20 H :   -0.034174
  21 H :   -0.024316
  22 H :   -0.022123
  23 H :   -0.038037
  24 H :   -0.020659
  25 H :   -0.011730
  26 H :   -0.003718
  27 H :   -0.021136
  28 H :   -0.056683
  29 H :   -0.063440
  30 H :   -0.010452
  31 H :   -0.025909
  32 H :   -0.018593
  33 H :   -0.033709
  34 H :   -0.152446
  35 H :   -0.021513

  Mayer bond orders larger than 0.100000
B(  0-C ,  1-C ) :   0.9756 B(  0-C , 20-H ) :   0.9751 B(  0-C , 21-H ) :   0.9775
B(  0-C , 22-H ) :   0.9757 B(  1-C ,  2-O ) :   0.8868 B(  1-C , 23-H ) :   0.9590
B(  1-C , 24-H ) :   0.9803 B(  2-O ,  3-C ) :   1.1424 B(  3-C ,  4-O ) :   2.1124
B(  3-C ,  5-C ) :   0.9507 B(  5-C ,  6-C ) :   1.6708 B(  5-C , 12-C ) :   0.9591
B(  6-C ,  7-C ) :   0.9559 B(  6-C ,  8-N ) :   1.1384 B(  7-C , 25-H ) :   0.9749
B(  7-C , 26-H ) :   0.9551 B(  7-C , 27-H ) :   0.9841 B(  8-N ,  9-C ) :   1.1935
B(  8-N , 28-H ) :   0.9489 B(  9-C , 10-S ) :   1.6150 B(  9-C , 11-N ) :   1.2908
B( 11-N , 12-C ) :   0.9822 B( 11-N , 29-H ) :   0.9468 B( 12-C , 13-C ) :   0.9639
B( 12-C , 30-H ) :   1.0050 B( 13-C , 14-C ) :   1.3761 B( 13-C , 19-C ) :   1.3545
B( 14-C , 15-C ) :   1.3936 B( 14-C , 31-H ) :   0.9692 B( 15-C , 16-C ) :   1.3614
B( 15-C , 32-H ) :   0.9693 B( 16-C , 17-C ) :   1.3318 B( 16-C , 33-H ) :   0.9831
B( 17-C , 18-O ) :   1.1104 B( 17-C , 19-C ) :   1.3625 B( 18-O , 34-H ) :   0.9789
B( 19-C , 35-H ) :   0.9580

MP2 TOTAL ENERGY:    -1274.323399208 Eh
FINAL SINGLE POINT ENERGY     -1274.323399208103

DIPOLE MOMENT
-------------
                                X             Y             Z
Electronic contribution:      9.75954       7.21390       7.97093
Nuclear contribution   :    -11.18110      -8.85894      -7.77705
                        -----------------------------------------
Total Dipole Moment    :     -1.42156      -1.64505       0.19388
                        -----------------------------------------
Magnitude (a.u.)       :      2.18279
Magnitude (Debye)      :      5.54822

Rotational constants in cm-1:     0.011652     0.009184     0.006168
Rotational constants in MHz :   349.333071   275.334744   184.901578

                             ****ORCA TERMINATED NORMALLY****
TOTAL RUN TIME: 0 days 1 hours 48 minutes 16 seconds 100 msec
