                         Program Version 4.2.0 -  RELEASE  -
|  1> ! ri-mp2 cc-pvtz cc-pvtz/c TightSCF NoKeepInts
|  2>
|  3> %scf
|  4>   MaxCore 4096
|  5> end
|  6> *xyz  0  1
|  7>     C       14.8662547   15.0433179   15.8906971
|  8>     C       14.9051591   16.0681401   14.7326580
|  9>     O       16.1856852   16.7258637   14.5749245
| 10>     C       17.1532596   16.6538658   15.5332424
| 11>     O       17.8724920   15.6763763   15.6462848
| 12>     C       17.1743778   17.8036564   16.4966016
| 13>     C       16.8997952   19.0786389   16.1178029
| 14>     C       16.3383985   19.5503102   14.7911546
| 15>     N       17.1856705   20.1505701   16.9669739
| 16>     C       17.9371447   20.0550556   18.1075241
| 17>     S       18.3231476   21.3852642   19.0111943
| 18>     N       18.3702811   18.7989258   18.4505329
| 19>     C       17.9711675   17.5462846   17.7795335
| 20>     C       17.2924891   16.5479136   18.7076459
| 21>     C       17.7553634   15.2228296   18.7955930
| 22>     C       17.1171754   14.2972852   19.6380217
| 23>     C       16.0065918   14.7005139   20.3990909
| 24>     C       15.5415119   16.0197948   20.3111600
| 25>     O       14.4642577   16.4097180   21.0380756
| 26>     C       16.1780573   16.9384642   19.4704923
| 27>     H       15.6122461   14.2518827   15.7421904
| 28>     H       13.8804464   14.5655044   15.9400424
| 29>     H       15.0513330   15.5229403   16.8602696
| 30>     H       14.6452947   15.5627436   13.7934333
| 31>     H       14.1360593   16.8287104   14.9189225
| 32>     H       15.2982360   19.2250321   14.6701432
| 33>     H       16.9202416   19.1438052   13.9540062
| 34>     H       16.3550864   20.6422404   14.6878792
| 35>     H       16.8965740   21.0823908   16.7155595
| 36>     H       18.9080334   18.7535098   19.3069630
| 37>     H       18.9530274   17.1708319   17.4555154
| 38>     H       18.6035051   14.9057389   18.1927979
| 39>     H       17.4810123   13.2727451   19.6929268
| 40>     H       15.5097525   13.9881746   21.0493262
| 41>     H       14.1944299   15.6557985   21.5838689
| 42>     H       15.8034420   17.9551624   19.4149516
| 43> *
| 44>
| 45>                          ****END OF INPUT****

CARTESIAN COORDINATES (ANGSTROEM)
---------------------------------
  C     14.866255   15.043318   15.890697
  C     14.905159   16.068140   14.732658
  O     16.185685   16.725864   14.574924
  C     17.153260   16.653866   15.533242
  O     17.872492   15.676376   15.646285
  C     17.174378   17.803656   16.496602
  C     16.899795   19.078639   16.117803
  C     16.338399   19.550310   14.791155
  N     17.185671   20.150570   16.966974
  C     17.937145   20.055056   18.107524
  S     18.323148   21.385264   19.011194
  N     18.370281   18.798926   18.450533
  C     17.971167   17.546285   17.779533
  C     17.292489   16.547914   18.707646
  C     17.755363   15.222830   18.795593
  C     17.117175   14.297285   19.638022
  C     16.006592   14.700514   20.399091
  C     15.541512   16.019795   20.311160
  O     14.464258   16.409718   21.038076
  C     16.178057   16.938464   19.470492
  H     15.612246   14.251883   15.742190
  H     13.880446   14.565504   15.940042
  H     15.051333   15.522940   16.860270
  H     14.645295   15.562744   13.793433
  H     14.136059   16.828710   14.918923
  H     15.298236   19.225032   14.670143
  H     16.920242   19.143805   13.954006
  H     16.355086   20.642240   14.687879
  H     16.896574   21.082391   16.715560
  H     18.908033   18.753510   19.306963
  H     18.953027   17.170832   17.455515
  H     18.603505   14.905739   18.192798
  H     17.481012   13.272745   19.692927
  H     15.509752   13.988175   21.049326
  H     14.194430   15.655798   21.583869
  H     15.803442   17.955162   19.414952

 Total Charge           Charge          ....    0
 Multiplicity           Mult            ....    1
 Number of Electrons    NEL             ....  154
 Basis Dimension        Dim             ....  828

ORBITAL ENERGIES
----------------

  NO   OCC          E(Eh)            E(eV)
   0   2.0000     -91.889498     -2500.4404
   1   2.0000     -20.595650      -560.4361
   2   2.0000     -20.584786      -560.1405
   3   2.0000     -20.551286      -559.2289
   4   2.0000     -15.630086      -425.3163
   5   2.0000     -15.607245      -424.6947
   6   2.0000     -11.394616      -310.0633
   7   2.0000     -11.384299      -309.7825
   8   2.0000     -11.339017      -308.5503
   9   2.0000     -11.312091      -307.8177
  10   2.0000     -11.307865      -307.7026
  11   2.0000     -11.305442      -307.6367
  12   2.0000     -11.260883      -306.4242
  13   2.0000     -11.259641      -306.3904
  14   2.0000     -11.258743      -306.3660
  15   2.0000     -11.251938      -306.1808
  16   2.0000     -11.242096      -305.9130
  17   2.0000     -11.238095      -305.8041
  18   2.0000     -11.234413      -305.7039
  19   2.0000     -11.228944      -305.5551
  20   2.0000      -8.894575      -242.0337
  21   2.0000      -6.576149      -178.9461
  22   2.0000      -6.574148      -178.8917
  23   2.0000      -6.573557      -178.8756
  24   2.0000      -1.446245       -39.3543
  25   2.0000      -1.415444       -38.5162
  26   2.0000      -1.355778       -36.8926
  27   2.0000      -1.341142       -36.4943
  28   2.0000      -1.238380       -33.6980
  29   2.0000      -1.156250       -31.4632
  30   2.0000      -1.122236       -30.5376
  31   2.0000      -1.044362       -28.4185
  32   2.0000      -1.032637       -28.0995
  33   2.0000      -1.013866       -27.5887
  34   2.0000      -1.001551       -27.2536
  35   2.0000      -0.986467       -26.8431
  36   2.0000      -0.923491       -25.1295
  37   2.0000      -0.896695       -24.4003
  38   2.0000      -0.850166       -23.1342
  39   2.0000      -0.838565       -22.8185
  40   2.0000      -0.831995       -22.6397
  41   2.0000      -0.822399       -22.3786
  42   2.0000      -0.743776       -20.2392
  43   2.0000      -0.729757       -19.8577
  44   2.0000      -0.726679       -19.7739
  45   2.0000      -0.692687       -18.8490
  46   2.0000      -0.686059       -18.6686
  47   2.0000      -0.677823       -18.4445
  48   2.0000      -0.676714       -18.4143
  49   2.0000      -0.664661       -18.0863
  50   2.0000      -0.649645       -17.6777
  51   2.0000      -0.646556       -17.5937
  52   2.0000      -0.634466       -17.2647
  53   2.0000      -0.624359       -16.9897
  54   2.0000      -0.606014       -16.4905
  55   2.0000      -0.601600       -16.3704
  56   2.0000      -0.599175       -16.3044
  57   2.0000      -0.578113       -15.7313
  58   2.0000      -0.575008       -15.6468
  59   2.0000      -0.564765       -15.3680
  60   2.0000      -0.552970       -15.0471
  61   2.0000      -0.546179       -14.8623
  62   2.0000      -0.539228       -14.6731
  63   2.0000      -0.530128       -14.4255
  64   2.0000      -0.518861       -14.1189
  65   2.0000      -0.511008       -13.9052
  66   2.0000      -0.498765       -13.5721
  67   2.0000      -0.493446       -13.4274
  68   2.0000      -0.482584       -13.1318
  69   2.0000      -0.465442       -12.6653
  70   2.0000      -0.457570       -12.4511
  71   2.0000      -0.448841       -12.2136
  72   2.0000      -0.354447        -9.6450
  73   2.0000      -0.348251        -9.4764
  74   2.0000      -0.328597        -8.9416
  75   2.0000      -0.319175        -8.6852
  76   2.0000      -0.318487        -8.6665
  77   0.0000       0.072928         1.9845
  78   0.0000       0.106531         2.8988
  79   0.0000       0.120694         3.2842
  80   0.0000       0.132586         3.6078
  81   0.0000       0.138403         3.7661

MULLIKEN ATOMIC CHARGES
-----------------------
   0 C :   -0.318196
   1 C :    0.053783
   2 O :   -0.388169
   3 C :    0.476576
   4 O :   -0.394046
   5 C :   -0.224565
   6 C :    0.149947
   7 C :   -0.285242
   8 N :   -0.126695
   9 C :    0.206939
  10 S :   -0.440397
  11 N :   -0.213254
  12 C :    0.056914
  13 C :    0.002574
  14 C :   -0.170808
  15 C :   -0.136401
  16 C :   -0.273703
  17 C :    0.312336
  18 O :   -0.358979
  19 C :   -0.240932
  20 H :    0.120407
  21 H :    0.108273
  22 H :    0.111991
  23 H :    0.108696
  24 H :    0.081649
  25 H :    0.122155
  26 H :    0.132088
  27 H :    0.104751
  28 H :    0.198445
  29 H :    0.199674
  30 H :    0.157839
  31 H :    0.166414
  32 H :    0.161849
  33 H :    0.130717
  34 H :    0.240510
  35 H :    0.166856
Sum of atomic charges:    0.0000000

LOEWDIN ATOMIC CHARGES
----------------------
   0 C :    0.107988
   1 C :   -0.013066
   2 O :    0.286066
   3 C :   -0.423066
   4 O :    0.124863
   5 C :   -0.098068
   6 C :   -0.066546
   7 C :    0.126728
   8 N :    0.405608
   9 C :   -0.457994
  10 S :   -0.036343
  11 N :    0.396163
  12 C :   -0.048539
  13 C :   -0.043073
  14 C :    0.024663
  15 C :    0.041963
  16 C :   -0.000988
  17 C :   -0.193723
  18 O :    0.393820
  19 C :    0.027687
  20 H :   -0.021705
  21 H :   -0.023787
  22 H :   -0.025617
  23 H :   -0.024138
  24 H :   -0.035699
  25 H :   -0.011312
  26 H :   -0.006379
  27 H :   -0.020167
  28 H :   -0.058355
  29 H :   -0.063507
  30 H :   -0.007158
  31 H :   -0.022889
  32 H :   -0.020081
  33 H :   -0.035490
  34 H :   -0.154128
  35 H :   -0.023731

  Mayer bond orders larger than 0.100000
B(  0-C ,  1-C ) :   0.9701 B(  0-C , 20-H ) :   0.9701 B(  0-C , 21-H ) :   0.9742
B(  0-C , 22-H ) :   0.9669 B(  1-C ,  2-O ) :   0.9026 B(  1-C , 23-H ) :   0.9805
B(  1-C , 24-H ) :   0.9764 B(  2-O ,  3-C ) :   1.0672 B(  3-C ,  4-O ) :   2.0398
B(  3-C ,  5-C ) :   1.0175 B(  5-C ,  6-C ) :   1.6757 B(  5-C , 12-C ) :   0.9444
B(  6-C ,  7-C ) :   0.9508 B(  6-C ,  8-N ) :   1.1421 B(  7-C , 25-H ) :   0.9673
B(  7-C , 26-H ) :   0.9647 B(  7-C , 27-H ) :   0.9892 B(  8-N ,  9-C ) :   1.1843
B(  8-N , 28-H ) :   0.9472 B(  9-C , 10-S ) :   1.6113 B(  9-C , 11-N ) :   1.3028
B( 11-N , 12-C ) :   0.9817 B( 11-N , 29-H ) :   0.9487 B( 12-C , 13-C ) :   0.9665
B( 12-C , 30-H ) :   0.9957 B( 13-C , 14-C ) :   1.3853 B( 13-C , 19-C ) :   1.3623
B( 14-C , 15-C ) :   1.3968 B( 14-C , 31-H ) :   0.9600 B( 15-C , 16-C ) :   1.3593
B( 15-C , 32-H ) :   0.9707 B( 16-C , 17-C ) :   1.3326 B( 16-C , 33-H ) :   0.9849
B( 17-C , 18-O ) :   1.1062 B( 17-C , 19-C ) :   1.3644 B( 18-O , 34-H ) :   0.9801
B( 19-C , 35-H ) :   0.9596

MP2 TOTAL ENERGY:    -1274.325216961 Eh
FINAL SINGLE POINT ENERGY     -1274.325216960619

DIPOLE MOMENT
-------------
                                X             Y             Z
Electronic contribution:      9.00642       9.45825       7.54670
Nuclear contribution   :    -10.51414     -10.67840      -8.26258
                        -----------------------------------------
Total Dipole Moment    :     -1.50773      -1.22016      -0.71588
                        -----------------------------------------
Magnitude (a.u.)       :      2.06749
Magnitude (Debye)      :      5.25514

Rotational constants in cm-1:     0.011281     0.009244     0.006186
Rotational constants in MHz :   338.187522   277.140735   185.449808

                             ****ORCA TERMINATED NORMALLY****
TOTAL RUN TIME: 0 days 2 hours 1 minutes 20 seconds 216 msec
