                         Program Version 4.2.0 -  RELEASE  -
|  1> ! ri-mp2 cc-pvtz cc-pvtz/c TightSCF NoKeepInts
|  2>
|  3> %scf
|  4>   MaxCore 4096
|  5> end
|  6> *xyz  0  1
|  7>     C       14.1011620   14.9950505   15.4768233
|  8>     C       15.1038248   15.9499476   16.1443431
|  9>     O       16.2754407   15.9820334   15.3083518
| 10>     C       17.1141193   17.0627602   15.2544183
| 11>     O       17.8372558   17.2577342   14.2956481
| 12>     C       17.0897927   17.9810458   16.4314975
| 13>     C       16.8841056   19.2963138   16.1942469
| 14>     C       16.2953288   19.8751117   14.9258854
| 15>     N       17.2405836   20.2680719   17.1304219
| 16>     C       18.0369067   20.0228805   18.2178276
| 17>     S       18.5265457   21.2317246   19.2343689
| 18>     N       18.4285955   18.7198450   18.4081983
| 19>     C       17.9332695   17.5595423   17.6404865
| 20>     C       17.3437858   16.4533595   18.4990111
| 21>     C       17.7815028   15.1249910   18.3474424
| 22>     C       17.2254571   14.0985490   19.1290975
| 23>     C       16.2270440   14.4039676   20.0701461
| 24>     C       15.7923633   15.7274987   20.2249409
| 25>     O       14.8235750   16.0241637   21.1267134
| 26>     C       16.3450254   16.7473075   19.4434896
| 27>     H       13.1781351   14.9312544   16.0657349
| 28>     H       14.5263300   13.9869000   15.3939949
| 29>     H       13.8442442   15.3451613   14.4691740
| 30>     H       14.6463663   16.9452638   16.2220091
| 31>     H       15.3401595   15.5844378   17.1487788
| 32>     H       15.4884785   19.2417412   14.5369814
| 33>     H       17.0651186   19.9409729   14.1451054
| 34>     H       15.8801028   20.8789233   15.0758764
| 35>     H       17.0008471   21.2340596   16.9722011
| 36>     H       19.0106993   18.5678589   19.2226460
| 37>     H       18.8833488   17.2142772   17.2062634
| 38>     H       18.5478502   14.8853573   17.6138738
| 39>     H       17.5676865   13.0724147   19.0031241
| 40>     H       15.7950212   13.6134754   20.6753873
| 41>     H       14.6108928   15.2094818   21.6071237
| 42>     H       15.9960354   17.7665221   19.5763670
| 43> *
| 44>
| 45>                          ****END OF INPUT****

CARTESIAN COORDINATES (ANGSTROEM)
---------------------------------
  C     14.101162   14.995050   15.476823
  C     15.103825   15.949948   16.144343
  O     16.275441   15.982033   15.308352
  C     17.114119   17.062760   15.254418
  O     17.837256   17.257734   14.295648
  C     17.089793   17.981046   16.431497
  C     16.884106   19.296314   16.194247
  C     16.295329   19.875112   14.925885
  N     17.240584   20.268072   17.130422
  C     18.036907   20.022880   18.217828
  S     18.526546   21.231725   19.234369
  N     18.428596   18.719845   18.408198
  C     17.933270   17.559542   17.640487
  C     17.343786   16.453360   18.499011
  C     17.781503   15.124991   18.347442
  C     17.225457   14.098549   19.129098
  C     16.227044   14.403968   20.070146
  C     15.792363   15.727499   20.224941
  O     14.823575   16.024164   21.126713
  C     16.345025   16.747308   19.443490
  H     13.178135   14.931254   16.065735
  H     14.526330   13.986900   15.393995
  H     13.844244   15.345161   14.469174
  H     14.646366   16.945264   16.222009
  H     15.340160   15.584438   17.148779
  H     15.488478   19.241741   14.536981
  H     17.065119   19.940973   14.145105
  H     15.880103   20.878923   15.075876
  H     17.000847   21.234060   16.972201
  H     19.010699   18.567859   19.222646
  H     18.883349   17.214277   17.206263
  H     18.547850   14.885357   17.613874
  H     17.567686   13.072415   19.003124
  H     15.795021   13.613475   20.675387
  H     14.610893   15.209482   21.607124
  H     15.996035   17.766522   19.576367

 Total Charge           Charge          ....    0
 Multiplicity           Mult            ....    1
 Number of Electrons    NEL             ....  154
 Basis Dimension        Dim             ....  828

ORBITAL ENERGIES
----------------

  NO   OCC          E(Eh)            E(eV)
   0   2.0000     -91.889868     -2500.4504
   1   2.0000     -20.605083      -560.6928
   2   2.0000     -20.599606      -560.5438
   3   2.0000     -20.551474      -559.2341
   4   2.0000     -15.626450      -425.2173
   5   2.0000     -15.610887      -424.7938
   6   2.0000     -11.395900      -310.0982
   7   2.0000     -11.385362      -309.8115
   8   2.0000     -11.327811      -308.2454
   9   2.0000     -11.323662      -308.1325
  10   2.0000     -11.316806      -307.9460
  11   2.0000     -11.297967      -307.4333
  12   2.0000     -11.270270      -306.6796
  13   2.0000     -11.264961      -306.5352
  14   2.0000     -11.258323      -306.3545
  15   2.0000     -11.256194      -306.2966
  16   2.0000     -11.253564      -306.2250
  17   2.0000     -11.248270      -306.0810
  18   2.0000     -11.247835      -306.0692
  19   2.0000     -11.230294      -305.5918
  20   2.0000      -8.894948      -242.0438
  21   2.0000      -6.576524      -178.9563
  22   2.0000      -6.574520      -178.9018
  23   2.0000      -6.573933      -178.8858
  24   2.0000      -1.447852       -39.3981
  25   2.0000      -1.424847       -38.7721
  26   2.0000      -1.361566       -37.0501
  27   2.0000      -1.339659       -36.4540
  28   2.0000      -1.239598       -33.7312
  29   2.0000      -1.167142       -31.7596
  30   2.0000      -1.125983       -30.6396
  31   2.0000      -1.051845       -28.6222
  32   2.0000      -1.037166       -28.2227
  33   2.0000      -1.025090       -27.8941
  34   2.0000      -1.003653       -27.3108
  35   2.0000      -0.989441       -26.9241
  36   2.0000      -0.927495       -25.2384
  37   2.0000      -0.878247       -23.8983
  38   2.0000      -0.853234       -23.2177
  39   2.0000      -0.844559       -22.9816
  40   2.0000      -0.843527       -22.9535
  41   2.0000      -0.838442       -22.8152
  42   2.0000      -0.759912       -20.6783
  43   2.0000      -0.739890       -20.1334
  44   2.0000      -0.728614       -19.8266
  45   2.0000      -0.703558       -19.1448
  46   2.0000      -0.692863       -18.8538
  47   2.0000      -0.678982       -18.4760
  48   2.0000      -0.676476       -18.4079
  49   2.0000      -0.669292       -18.2124
  50   2.0000      -0.652392       -17.7525
  51   2.0000      -0.650824       -17.7098
  52   2.0000      -0.636957       -17.3325
  53   2.0000      -0.614846       -16.7308
  54   2.0000      -0.609156       -16.5760
  55   2.0000      -0.605005       -16.4630
  56   2.0000      -0.590067       -16.0565
  57   2.0000      -0.582076       -15.8391
  58   2.0000      -0.576397       -15.6846
  59   2.0000      -0.569062       -15.4850
  60   2.0000      -0.563643       -15.3375
  61   2.0000      -0.558361       -15.1938
  62   2.0000      -0.549097       -14.9417
  63   2.0000      -0.530527       -14.4364
  64   2.0000      -0.523386       -14.2421
  65   2.0000      -0.516927       -14.0663
  66   2.0000      -0.507468       -13.8089
  67   2.0000      -0.504241       -13.7211
  68   2.0000      -0.487920       -13.2770
  69   2.0000      -0.469136       -12.7658
  70   2.0000      -0.454178       -12.3588
  71   2.0000      -0.449693       -12.2368
  72   2.0000      -0.358205        -9.7472
  73   2.0000      -0.352420        -9.5898
  74   2.0000      -0.332633        -9.0514
  75   2.0000      -0.328711        -8.9447
  76   2.0000      -0.319238        -8.6869
  77   0.0000       0.085298         2.3211
  78   0.0000       0.096496         2.6258
  79   0.0000       0.117924         3.2089
  80   0.0000       0.126237         3.4351
  81   0.0000       0.129935         3.5357

MULLIKEN ATOMIC CHARGES
-----------------------
   0 C :   -0.257947
   1 C :    0.023508
   2 O :   -0.300774
   3 C :    0.403252
   4 O :   -0.377235
   5 C :   -0.218552
   6 C :    0.154932
   7 C :   -0.288276
   8 N :   -0.133904
   9 C :    0.213696
  10 S :   -0.440913
  11 N :   -0.216310
  12 C :    0.021485
  13 C :   -0.006584
  14 C :   -0.186695
  15 C :   -0.134543
  16 C :   -0.270630
  17 C :    0.305454
  18 O :   -0.354484
  19 C :   -0.220698
  20 H :    0.088840
  21 H :    0.100160
  22 H :    0.100207
  23 H :    0.092407
  24 H :    0.109569
  25 H :    0.112359
  26 H :    0.146383
  27 H :    0.099304
  28 H :    0.197514
  29 H :    0.200437
  30 H :    0.163388
  31 H :    0.159269
  32 H :    0.164991
  33 H :    0.135320
  34 H :    0.241879
  35 H :    0.173192
Sum of atomic charges:   -0.0000000

LOEWDIN ATOMIC CHARGES
----------------------
   0 C :    0.110102
   1 C :   -0.024288
   2 O :    0.309545
   3 C :   -0.419040
   4 O :    0.125085
   5 C :   -0.094028
   6 C :   -0.085660
   7 C :    0.129435
   8 N :    0.404481
   9 C :   -0.454616
  10 S :   -0.036440
  11 N :    0.395682
  12 C :   -0.054702
  13 C :   -0.046443
  14 C :    0.017660
  15 C :    0.044341
  16 C :    0.001685
  17 C :   -0.191734
  18 O :    0.397390
  19 C :    0.032369
  20 H :   -0.025766
  21 H :   -0.025118
  22 H :   -0.026047
  23 H :   -0.036406
  24 H :   -0.032771
  25 H :   -0.011136
  26 H :   -0.003070
  27 H :   -0.019978
  28 H :   -0.058310
  29 H :   -0.064043
  30 H :   -0.008633
  31 H :   -0.025479
  32 H :   -0.017918
  33 H :   -0.033162
  34 H :   -0.152065
  35 H :   -0.020923

  Mayer bond orders larger than 0.100000
B(  0-C ,  1-C ) :   0.9835 B(  0-C , 20-H ) :   0.9776 B(  0-C , 21-H ) :   0.9786
B(  0-C , 22-H ) :   0.9792 B(  1-C ,  2-O ) :   0.9021 B(  1-C , 23-H ) :   0.9682
B(  1-C , 24-H ) :   0.9643 B(  2-O ,  3-C ) :   1.2022 B(  3-C ,  4-O ) :   2.1236
B(  3-C ,  5-C ) :   0.9209 B(  5-C ,  6-C ) :   1.7033 B(  5-C , 12-C ) :   0.9631
B(  6-C ,  7-C ) :   0.9404 B(  6-C ,  8-N ) :   1.1216 B(  7-C , 25-H ) :   0.9783
B(  7-C , 26-H ) :   0.9580 B(  7-C , 27-H ) :   0.9857 B(  8-N ,  9-C ) :   1.1991
B(  8-N , 28-H ) :   0.9493 B(  9-C , 10-S ) :   1.6124 B(  9-C , 11-N ) :   1.2864
B( 11-N , 12-C ) :   0.9795 B( 11-N , 29-H ) :   0.9469 B( 12-C , 13-C ) :   0.9522
B( 12-C , 30-H ) :   1.0040 B( 13-C , 14-C ) :   1.3750 B( 13-C , 19-C ) :   1.3614
B( 14-C , 15-C ) :   1.3960 B( 14-C , 31-H ) :   0.9686 B( 15-C , 16-C ) :   1.3628
B( 15-C , 32-H ) :   0.9699 B( 16-C , 17-C ) :   1.3278 B( 16-C , 33-H ) :   0.9834
B( 17-C , 18-O ) :   1.1117 B( 17-C , 19-C ) :   1.3644 B( 18-O , 34-H ) :   0.9785
B( 19-C , 35-H ) :   0.9573

MP2 TOTAL ENERGY:    -1274.325699514 Eh
FINAL SINGLE POINT ENERGY     -1274.325699513732

DIPOLE MOMENT
-------------
                                X             Y             Z
Electronic contribution:     10.53988       9.17203       7.21467
Nuclear contribution   :    -12.12423     -10.76950      -6.97265
                        -----------------------------------------
Total Dipole Moment    :     -1.58435      -1.59747       0.24203
                        -----------------------------------------
Magnitude (a.u.)       :      2.26288
Magnitude (Debye)      :      5.75179

Rotational constants in cm-1:     0.011847     0.008851     0.006058
Rotational constants in MHz :   355.157380   265.338477   181.608342

                             ****ORCA TERMINATED NORMALLY****
TOTAL RUN TIME: 0 days 1 hours 45 minutes 24 seconds 124 msec
