                         Program Version 4.2.0 -  RELEASE  -
|  1> ! ri-mp2 cc-pvtz cc-pvtz/c TightSCF NoKeepInts
|  2>
|  3> %scf
|  4>   MaxCore 4096
|  5> end
|  6> *xyz  0  1
|  7>     C       14.1359249   15.1143431   15.2987488
|  8>     C       14.9433151   16.4220079   15.3333415
|  9>     O       16.2828074   16.0986264   14.9080897
| 10>     C       17.3982256   16.4611059   15.6186158
| 11>     O       18.4166436   15.7964502   15.5701914
| 12>     C       17.2717533   17.6515190   16.5154472
| 13>     C       16.9611636   18.8706108   16.0097436
| 14>     C       16.5077957   19.1939204   14.6000731
| 15>     N       17.1327396   20.0254540   16.7753505
| 16>     C       17.8334902   20.0708381   17.9517018
| 17>     S       18.0976902   21.4925571   18.7535611
| 18>     N       18.3258194   18.8763026   18.4170878
| 19>     C       18.0239447   17.5500350   17.8423305
| 20>     C       17.3742303   16.5703069   18.8079271
| 21>     C       17.8256961   15.2402429   18.8764969
| 22>     C       17.2155357   14.3232050   19.7484222
| 23>     C       16.1427410   14.7393894   20.5554660
| 24>     C       15.6863397   16.0627171   20.4833954
| 25>     O       14.6440713   16.4645634   21.2534078
| 26>     C       16.2948938   16.9734386   19.6136037
| 27>     H       14.5708776   14.3747115   15.9831375
| 28>     H       14.1322717   14.6880648   14.2876388
| 29>     H       13.0969177   15.2926960   15.6013175
| 30>     H       14.4912272   17.1559538   14.6548873
| 31>     H       14.9149308   16.8165825   16.3575480
| 32>     H       16.7933368   18.4168886   13.8804094
| 33>     H       16.9662423   20.1236264   14.2389974
| 34>     H       15.4198587   19.3204529   14.5534706
| 35>     H       16.8100037   20.9145289   16.4269431
| 36>     H       18.8350374   18.9357476   19.2901728
| 37>     H       19.0394168   17.2124830   17.5858648
| 38>     H       18.6466787   14.9141017   18.2408415
| 39>     H       17.5721960   13.2954188   19.7918212
| 40>     H       15.6677723   14.0335553   21.2288832
| 41>     H       14.3900170   15.7148271   21.8126037
| 42>     H       15.9253942   17.9927270   19.5704612
| 43> *
| 44>
| 45>                          ****END OF INPUT****

CARTESIAN COORDINATES (ANGSTROEM)
---------------------------------
  C     14.135925   15.114343   15.298749
  C     14.943315   16.422008   15.333341
  O     16.282807   16.098626   14.908090
  C     17.398226   16.461106   15.618616
  O     18.416644   15.796450   15.570191
  C     17.271753   17.651519   16.515447
  C     16.961164   18.870611   16.009744
  C     16.507796   19.193920   14.600073
  N     17.132740   20.025454   16.775350
  C     17.833490   20.070838   17.951702
  S     18.097690   21.492557   18.753561
  N     18.325819   18.876303   18.417088
  C     18.023945   17.550035   17.842330
  C     17.374230   16.570307   18.807927
  C     17.825696   15.240243   18.876497
  C     17.215536   14.323205   19.748422
  C     16.142741   14.739389   20.555466
  C     15.686340   16.062717   20.483395
  O     14.644071   16.464563   21.253408
  C     16.294894   16.973439   19.613604
  H     14.570878   14.374711   15.983137
  H     14.132272   14.688065   14.287639
  H     13.096918   15.292696   15.601318
  H     14.491227   17.155954   14.654887
  H     14.914931   16.816582   16.357548
  H     16.793337   18.416889   13.880409
  H     16.966242   20.123626   14.238997
  H     15.419859   19.320453   14.553471
  H     16.810004   20.914529   16.426943
  H     18.835037   18.935748   19.290173
  H     19.039417   17.212483   17.585865
  H     18.646679   14.914102   18.240841
  H     17.572196   13.295419   19.791821
  H     15.667772   14.033555   21.228883
  H     14.390017   15.714827   21.812604
  H     15.925394   17.992727   19.570461

 Total Charge           Charge          ....    0
 Multiplicity           Mult            ....    1
 Number of Electrons    NEL             ....  154
 Basis Dimension        Dim             ....  828

ORBITAL ENERGIES
----------------

  NO   OCC          E(Eh)            E(eV)
   0   2.0000     -91.890027     -2500.4548
   1   2.0000     -20.604071      -560.6653
   2   2.0000     -20.598918      -560.5251
   3   2.0000     -20.549399      -559.1776
   4   2.0000     -15.628575      -425.2751
   5   2.0000     -15.609442      -424.7545
   6   2.0000     -11.398779      -310.1765
   7   2.0000     -11.385823      -309.8240
   8   2.0000     -11.335366      -308.4510
   9   2.0000     -11.316093      -307.9265
  10   2.0000     -11.309390      -307.7441
  11   2.0000     -11.306882      -307.6759
  12   2.0000     -11.267147      -306.5947
  13   2.0000     -11.264135      -306.5127
  14   2.0000     -11.263726      -306.5016
  15   2.0000     -11.256201      -306.2968
  16   2.0000     -11.245249      -305.9988
  17   2.0000     -11.241603      -305.8996
  18   2.0000     -11.238410      -305.8127
  19   2.0000     -11.232534      -305.6528
  20   2.0000      -8.895132      -242.0489
  21   2.0000      -6.576713      -178.9615
  22   2.0000      -6.574701      -178.9067
  23   2.0000      -6.574118      -178.8908
  24   2.0000      -1.449782       -39.4506
  25   2.0000      -1.418638       -38.6031
  26   2.0000      -1.362246       -37.0686
  27   2.0000      -1.341423       -36.5020
  28   2.0000      -1.239528       -33.7293
  29   2.0000      -1.160460       -31.5777
  30   2.0000      -1.125997       -30.6399
  31   2.0000      -1.047979       -28.5170
  32   2.0000      -1.040952       -28.3257
  33   2.0000      -1.018291       -27.7091
  34   2.0000      -1.005837       -27.3702
  35   2.0000      -0.989422       -26.9235
  36   2.0000      -0.926278       -25.2053
  37   2.0000      -0.883469       -24.0404
  38   2.0000      -0.856120       -23.2962
  39   2.0000      -0.842464       -22.9246
  40   2.0000      -0.837032       -22.7768
  41   2.0000      -0.835340       -22.7308
  42   2.0000      -0.756279       -20.5794
  43   2.0000      -0.740212       -20.1422
  44   2.0000      -0.731589       -19.9075
  45   2.0000      -0.696759       -18.9598
  46   2.0000      -0.689004       -18.7488
  47   2.0000      -0.683050       -18.5867
  48   2.0000      -0.675334       -18.3768
  49   2.0000      -0.661492       -18.0001
  50   2.0000      -0.658920       -17.9301
  51   2.0000      -0.647077       -17.6079
  52   2.0000      -0.639273       -17.3955
  53   2.0000      -0.612342       -16.6627
  54   2.0000      -0.606706       -16.5093
  55   2.0000      -0.602368       -16.3913
  56   2.0000      -0.598242       -16.2790
  57   2.0000      -0.581227       -15.8160
  58   2.0000      -0.577560       -15.7162
  59   2.0000      -0.571697       -15.5567
  60   2.0000      -0.561976       -15.2921
  61   2.0000      -0.560184       -15.2434
  62   2.0000      -0.551058       -14.9951
  63   2.0000      -0.527745       -14.3607
  64   2.0000      -0.518366       -14.1055
  65   2.0000      -0.514778       -14.0078
  66   2.0000      -0.504206       -13.7201
  67   2.0000      -0.501003       -13.6330
  68   2.0000      -0.488708       -13.2984
  69   2.0000      -0.472256       -12.8507
  70   2.0000      -0.455726       -12.4009
  71   2.0000      -0.451349       -12.2818
  72   2.0000      -0.356376        -9.6975
  73   2.0000      -0.351260        -9.5583
  74   2.0000      -0.329459        -8.9650
  75   2.0000      -0.323557        -8.8044
  76   2.0000      -0.319828        -8.7030
  77   0.0000       0.081910         2.2289
  78   0.0000       0.103470         2.8156
  79   0.0000       0.116891         3.1808
  80   0.0000       0.130547         3.5524
  81   0.0000       0.131662         3.5827

MULLIKEN ATOMIC CHARGES
-----------------------
   0 C :   -0.250473
   1 C :    0.014532
   2 O :   -0.316569
   3 C :    0.419528
   4 O :   -0.383198
   5 C :   -0.243014
   6 C :    0.179518
   7 C :   -0.337403
   8 N :   -0.138503
   9 C :    0.207073
  10 S :   -0.442221
  11 N :   -0.220307
  12 C :    0.063663
  13 C :    0.026288
  14 C :   -0.215798
  15 C :   -0.128125
  16 C :   -0.277009
  17 C :    0.314581
  18 O :   -0.356419
  19 C :   -0.256698
  20 H :    0.104137
  21 H :    0.100884
  22 H :    0.087897
  23 H :    0.092035
  24 H :    0.110119
  25 H :    0.140763
  26 H :    0.129381
  27 H :    0.124174
  28 H :    0.198261
  29 H :    0.201981
  30 H :    0.166027
  31 H :    0.175395
  32 H :    0.164502
  33 H :    0.131245
  34 H :    0.241289
  35 H :    0.172464
Sum of atomic charges:   -0.0000000

LOEWDIN ATOMIC CHARGES
----------------------
   0 C :    0.109889
   1 C :   -0.022081
   2 O :    0.307972
   3 C :   -0.416700
   4 O :    0.118855
   5 C :   -0.088039
   6 C :   -0.085533
   7 C :    0.126289
   8 N :    0.403097
   9 C :   -0.457170
  10 S :   -0.037673
  11 N :    0.396078
  12 C :   -0.049587
  13 C :   -0.044092
  14 C :    0.020990
  15 C :    0.044338
  16 C :   -0.000097
  17 C :   -0.191728
  18 O :    0.394583
  19 C :    0.026386
  20 H :   -0.022459
  21 H :   -0.025119
  22 H :   -0.026227
  23 H :   -0.035130
  24 H :   -0.033384
  25 H :   -0.007172
  26 H :   -0.011655
  27 H :   -0.017735
  28 H :   -0.057181
  29 H :   -0.063456
  30 H :   -0.004432
  31 H :   -0.021202
  32 H :   -0.018771
  33 H :   -0.034942
  34 H :   -0.153291
  35 H :   -0.023622

  Mayer bond orders larger than 0.100000
B(  0-C ,  1-C ) :   0.9859 B(  0-C , 20-H ) :   0.9775 B(  0-C , 21-H ) :   0.9789
B(  0-C , 22-H ) :   0.9767 B(  1-C ,  2-O ) :   0.9008 B(  1-C , 23-H ) :   0.9742
B(  1-C , 24-H ) :   0.9576 B(  2-O ,  3-C ) :   1.1820 B(  3-C ,  4-O ) :   2.0875
B(  3-C ,  5-C ) :   0.9333 B(  5-C ,  6-C ) :   1.7076 B(  5-C , 12-C ) :   0.9410
B(  6-C ,  7-C ) :   0.9312 B(  6-C ,  8-N ) :   1.1137 B(  7-C , 25-H ) :   0.9731
B(  7-C , 26-H ) :   0.9782 B(  7-C , 27-H ) :   0.9671 B(  8-N ,  9-C ) :   1.1949
B(  8-N , 28-H ) :   0.9505 B(  9-C , 10-S ) :   1.6107 B(  9-C , 11-N ) :   1.2930
B( 11-N , 12-C ) :   0.9853 B( 11-N , 29-H ) :   0.9478 B( 12-C , 13-C ) :   0.9684
B( 12-C , 30-H ) :   0.9903 B( 13-C , 14-C ) :   1.3851 B( 13-C , 19-C ) :   1.3537
B( 14-C , 15-C ) :   1.3934 B( 14-C , 31-H ) :   0.9593 B( 15-C , 16-C ) :   1.3613
B( 15-C , 32-H ) :   0.9698 B( 16-C , 17-C ) :   1.3312 B( 16-C , 33-H ) :   0.9851
B( 17-C , 18-O ) :   1.1083 B( 17-C , 19-C ) :   1.3657 B( 18-O , 34-H ) :   0.9794
B( 19-C , 35-H ) :   0.9568

MP2 TOTAL ENERGY:    -1274.331834253 Eh
FINAL SINGLE POINT ENERGY     -1274.331834252634

DIPOLE MOMENT
-------------
                                X             Y             Z
Electronic contribution:     10.22717       8.62964       8.35170
Nuclear contribution   :    -11.89077      -9.68591      -8.77014
                        -----------------------------------------
Total Dipole Moment    :     -1.66360      -1.05627      -0.41845
                        -----------------------------------------
Magnitude (a.u.)       :      2.01454
Magnitude (Debye)      :      5.12055

Rotational constants in cm-1:     0.010804     0.009111     0.006207
Rotational constants in MHz :   323.887735   273.139795   186.069543

                             ****ORCA TERMINATED NORMALLY****
TOTAL RUN TIME: 0 days 1 hours 39 minutes 2 seconds 8 msec
