                         Program Version 4.2.0 -  RELEASE  -
|  1> ! ri-mp2 cc-pvtz cc-pvtz/c TightSCF NoKeepInts
|  2>
|  3> %scf
|  4>   MaxCore 4096
|  5> end
|  6> *xyz  0  1
|  7>     C       15.0919164   14.5418578   14.2418109
|  8>     C       14.5686421   15.9297490   14.6698642
|  9>     O       15.6222520   16.8863491   14.9331092
| 10>     C       16.6712619   16.6539670   15.7818470
| 11>     O       17.2152649   15.5706480   15.9066940
| 12>     C       16.9927384   17.8113367   16.6853855
| 13>     C       16.8547018   19.1066934   16.2958430
| 14>     C       16.1763849   19.6383224   15.0482513
| 15>     N       17.4151860   20.1416644   17.0489860
| 16>     C       18.3099129   19.9613988   18.0688959
| 17>     S       19.0189686   21.2389573   18.8439176
| 18>     N       18.6046347   18.6630292   18.3985685
| 19>     C       17.9275436   17.4704226   17.8534454
| 20>     C       17.2711153   16.6096546   18.9248973
| 21>     C       17.5863905   15.2438054   19.0403032
| 22>     C       16.9806734   14.4515189   20.0299213
| 23>     C       16.0526031   15.0305334   20.9124195
| 24>     C       15.7349720   16.3910110   20.7981191
| 25>     O       14.8358773   16.9515373   21.6459272
| 26>     C       16.3390496   17.1768091   19.8114208
| 27>     H       15.9016420   14.6383128   13.5077063
| 28>     H       14.2853603   13.9561297   13.7848570
| 29>     H       15.4635086   13.9717286   15.1021279
| 30>     H       13.9290632   16.3282446   13.8719050
| 31>     H       13.9446362   15.8129420   15.5657403
| 32>     H       15.0988872   19.4339825   15.0755445
| 33>     H       16.5888245   19.1654127   14.1480485
| 34>     H       16.3002848   20.7211191   14.9245945
| 35>     H       17.2263850   21.1002723   16.8035064
| 36>     H       19.2518228   18.5565420   19.1695038
| 37>     H       18.7851696   16.9458044   17.4074946
| 38>     H       18.2927950   14.7924043   18.3474668
| 39>     H       17.2279860   13.3941756   20.1054150
| 40>     H       15.5815272   14.4219849   21.6770607
| 41>     H       14.5558013   16.2630278   22.2674588
| 42>     H       16.0832165   18.2286510   19.7399430
| 43> *
| 44>
| 45>                          ****END OF INPUT****

CARTESIAN COORDINATES (ANGSTROEM)
---------------------------------
  C     15.091916   14.541858   14.241811
  C     14.568642   15.929749   14.669864
  O     15.622252   16.886349   14.933109
  C     16.671262   16.653967   15.781847
  O     17.215265   15.570648   15.906694
  C     16.992738   17.811337   16.685385
  C     16.854702   19.106693   16.295843
  C     16.176385   19.638322   15.048251
  N     17.415186   20.141664   17.048986
  C     18.309913   19.961399   18.068896
  S     19.018969   21.238957   18.843918
  N     18.604635   18.663029   18.398568
  C     17.927544   17.470423   17.853445
  C     17.271115   16.609655   18.924897
  C     17.586391   15.243805   19.040303
  C     16.980673   14.451519   20.029921
  C     16.052603   15.030533   20.912419
  C     15.734972   16.391011   20.798119
  O     14.835877   16.951537   21.645927
  C     16.339050   17.176809   19.811421
  H     15.901642   14.638313   13.507706
  H     14.285360   13.956130   13.784857
  H     15.463509   13.971729   15.102128
  H     13.929063   16.328245   13.871905
  H     13.944636   15.812942   15.565740
  H     15.098887   19.433982   15.075544
  H     16.588825   19.165413   14.148048
  H     16.300285   20.721119   14.924594
  H     17.226385   21.100272   16.803506
  H     19.251823   18.556542   19.169504
  H     18.785170   16.945804   17.407495
  H     18.292795   14.792404   18.347467
  H     17.227986   13.394176   20.105415
  H     15.581527   14.421985   21.677061
  H     14.555801   16.263028   22.267459
  H     16.083216   18.228651   19.739943

 Total Charge           Charge          ....    0
 Multiplicity           Mult            ....    1
 Number of Electrons    NEL             ....  154
 Basis Dimension        Dim             ....  828

ORBITAL ENERGIES
----------------

  NO   OCC          E(Eh)            E(eV)
   0   2.0000     -91.887575     -2500.3880
   1   2.0000     -20.595959      -560.4445
   2   2.0000     -20.592326      -560.3457
   3   2.0000     -20.547818      -559.1346
   4   2.0000     -15.627785      -425.2537
   5   2.0000     -15.605307      -424.6420
   6   2.0000     -11.397623      -310.1451
   7   2.0000     -11.382107      -309.7229
   8   2.0000     -11.336775      -308.4893
   9   2.0000     -11.308391      -307.7170
  10   2.0000     -11.306084      -307.6542
  11   2.0000     -11.303792      -307.5918
  12   2.0000     -11.259381      -306.3833
  13   2.0000     -11.258293      -306.3537
  14   2.0000     -11.255516      -306.2782
  15   2.0000     -11.248536      -306.0882
  16   2.0000     -11.238630      -305.8187
  17   2.0000     -11.234631      -305.7099
  18   2.0000     -11.231466      -305.6237
  19   2.0000     -11.222317      -305.3748
  20   2.0000      -8.892666      -241.9817
  21   2.0000      -6.574245      -178.8943
  22   2.0000      -6.572241      -178.8398
  23   2.0000      -6.571654      -178.8238
  24   2.0000      -1.447731       -39.3948
  25   2.0000      -1.412071       -38.4244
  26   2.0000      -1.358132       -36.9567
  27   2.0000      -1.339232       -36.4423
  28   2.0000      -1.236488       -33.6465
  29   2.0000      -1.152692       -31.3663
  30   2.0000      -1.120030       -30.4776
  31   2.0000      -1.042271       -28.3616
  32   2.0000      -1.033273       -28.1168
  33   2.0000      -1.010305       -27.4918
  34   2.0000      -0.997928       -27.1550
  35   2.0000      -0.982785       -26.7429
  36   2.0000      -0.920739       -25.0546
  37   2.0000      -0.892836       -24.2953
  38   2.0000      -0.847744       -23.0683
  39   2.0000      -0.835739       -22.7416
  40   2.0000      -0.828629       -22.5481
  41   2.0000      -0.820446       -22.3255
  42   2.0000      -0.746347       -20.3091
  43   2.0000      -0.729415       -19.8484
  44   2.0000      -0.725964       -19.7545
  45   2.0000      -0.690801       -18.7976
  46   2.0000      -0.684721       -18.6322
  47   2.0000      -0.679775       -18.4976
  48   2.0000      -0.669229       -18.2107
  49   2.0000      -0.666697       -18.1417
  50   2.0000      -0.644447       -17.5363
  51   2.0000      -0.642976       -17.4963
  52   2.0000      -0.633213       -17.2306
  53   2.0000      -0.604586       -16.4516
  54   2.0000      -0.598823       -16.2948
  55   2.0000      -0.598311       -16.2809
  56   2.0000      -0.595677       -16.2092
  57   2.0000      -0.583304       -15.8725
  58   2.0000      -0.572858       -15.5883
  59   2.0000      -0.570264       -15.5177
  60   2.0000      -0.559363       -15.2210
  61   2.0000      -0.546594       -14.8736
  62   2.0000      -0.537216       -14.6184
  63   2.0000      -0.523267       -14.2388
  64   2.0000      -0.516228       -14.0473
  65   2.0000      -0.510183       -13.8828
  66   2.0000      -0.498589       -13.5673
  67   2.0000      -0.493733       -13.4352
  68   2.0000      -0.479183       -13.0392
  69   2.0000      -0.461812       -12.5665
  70   2.0000      -0.458010       -12.4631
  71   2.0000      -0.445552       -12.1241
  72   2.0000      -0.352311        -9.5869
  73   2.0000      -0.344900        -9.3852
  74   2.0000      -0.326713        -8.8903
  75   2.0000      -0.316782        -8.6201
  76   2.0000      -0.315106        -8.5745
  77   0.0000       0.076324         2.0769
  78   0.0000       0.110683         3.0118
  79   0.0000       0.122011         3.3201
  80   0.0000       0.135515         3.6875
  81   0.0000       0.138911         3.7800

MULLIKEN ATOMIC CHARGES
-----------------------
   0 C :   -0.281784
   1 C :    0.044709
   2 O :   -0.368680
   3 C :    0.426855
   4 O :   -0.413587
   5 C :   -0.150725
   6 C :    0.150663
   7 C :   -0.280908
   8 N :   -0.128311
   9 C :    0.207500
  10 S :   -0.443283
  11 N :   -0.211156
  12 C :    0.038702
  13 C :    0.033266
  14 C :   -0.173011
  15 C :   -0.134486
  16 C :   -0.277478
  17 C :    0.313779
  18 O :   -0.358800
  19 C :   -0.251327
  20 H :    0.100581
  21 H :    0.092668
  22 H :    0.116840
  23 H :    0.098281
  24 H :    0.087035
  25 H :    0.126914
  26 H :    0.125522
  27 H :    0.101659
  28 H :    0.198661
  29 H :    0.199769
  30 H :    0.156617
  31 H :    0.160609
  32 H :    0.160336
  33 H :    0.128448
  34 H :    0.239959
  35 H :    0.164165
Sum of atomic charges:   -0.0000000

LOEWDIN ATOMIC CHARGES
----------------------
   0 C :    0.103458
   1 C :   -0.012851
   2 O :    0.291177
   3 C :   -0.412147
   4 O :    0.119857
   5 C :   -0.092627
   6 C :   -0.065229
   7 C :    0.125020
   8 N :    0.405244
   9 C :   -0.458665
  10 S :   -0.038368
  11 N :    0.396296
  12 C :   -0.048322
  13 C :   -0.040672
  14 C :    0.023790
  15 C :    0.040550
  16 C :   -0.001399
  17 C :   -0.192598
  18 O :    0.393165
  19 C :    0.029566
  20 H :   -0.024456
  21 H :   -0.029836
  22 H :   -0.026231
  23 H :   -0.024166
  24 H :   -0.030378
  25 H :   -0.009773
  26 H :   -0.009018
  27 H :   -0.021250
  28 H :   -0.058812
  29 H :   -0.063322
  30 H :   -0.008343
  31 H :   -0.023950
  32 H :   -0.021045
  33 H :   -0.036154
  34 H :   -0.154816
  35 H :   -0.023696

  Mayer bond orders larger than 0.100000
B(  0-C ,  1-C ) :   0.9759 B(  0-C , 20-H ) :   0.9748 B(  0-C , 21-H ) :   0.9747
B(  0-C , 22-H ) :   0.9721 B(  1-C ,  2-O ) :   0.9101 B(  1-C , 23-H ) :   0.9829
B(  1-C , 24-H ) :   0.9777 B(  2-O ,  3-C ) :   1.0818 B(  3-C ,  4-O ) :   1.9973
B(  3-C ,  5-C ) :   1.0435 B(  5-C ,  6-C ) :   1.6636 B(  5-C , 12-C ) :   0.9465
B(  6-C ,  7-C ) :   0.9548 B(  6-C ,  8-N ) :   1.1331 B(  7-C , 25-H ) :   0.9638
B(  7-C , 26-H ) :   0.9656 B(  7-C , 27-H ) :   0.9910 B(  8-N ,  9-C ) :   1.1865
B(  8-N , 28-H ) :   0.9471 B(  9-C , 10-S ) :   1.6075 B(  9-C , 11-N ) :   1.3057
B( 11-N , 12-C ) :   0.9756 B( 11-N , 29-H ) :   0.9485 B( 12-C , 13-C ) :   0.9718
B( 12-C , 30-H ) :   0.9967 B( 13-C , 14-C ) :   1.3768 B( 13-C , 19-C ) :   1.3654
B( 14-C , 15-C ) :   1.3968 B( 14-C , 31-H ) :   0.9634 B( 15-C , 16-C ) :   1.3590
B( 15-C , 32-H ) :   0.9711 B( 16-C , 17-C ) :   1.3331 B( 16-C , 33-H ) :   0.9859
B( 17-C , 18-O ) :   1.1039 B( 17-C , 19-C ) :   1.3671 B( 18-O , 34-H ) :   0.9806
B( 19-C , 35-H ) :   0.9600

MP2 TOTAL ENERGY:    -1274.328715525 Eh
FINAL SINGLE POINT ENERGY     -1274.328715525135

DIPOLE MOMENT
-------------
                                X             Y             Z
Electronic contribution:      9.12328      10.60166      11.10431
Nuclear contribution   :    -10.73191     -11.82077     -12.05245
                        -----------------------------------------
Total Dipole Moment    :     -1.60863      -1.21910      -0.94814
                        -----------------------------------------
Magnitude (a.u.)       :      2.22999
Magnitude (Debye)      :      5.66818

Rotational constants in cm-1:     0.010037     0.009117     0.005613
Rotational constants in MHz :   300.915445   273.335339   168.275622

                             ****ORCA TERMINATED NORMALLY****
TOTAL RUN TIME: 0 days 1 hours 54 minutes 11 seconds 142 msec
