                         Program Version 4.2.0 -  RELEASE  -
|  1> ! ri-mp2 cc-pvtz cc-pvtz/c TightSCF NoKeepInts
|  2>
|  3> %scf
|  4>   MaxCore 4096
|  5> end
|  6> *xyz  0  1
|  7>     C       14.1380721   15.1853960   15.5549880
|  8>     C       14.9765781   16.4385463   15.2556208
|  9>     O       16.3216800   15.9870188   14.9955612
| 10>     C       17.4531024   16.4890777   15.5902654
| 11>     O       18.5267481   15.9299041   15.4659158
| 12>     C       17.2818165   17.6574496   16.5039440
| 13>     C       16.9711376   18.8753689   15.9981889
| 14>     C       16.5338403   19.1900486   14.5816802
| 15>     N       17.1163600   20.0286269   16.7712196
| 16>     C       17.7950158   20.0739732   17.9608288
| 17>     S       18.0308540   21.4938061   18.7748048
| 18>     N       18.2903726   18.8813953   18.4293015
| 19>     C       18.0120039   17.5553323   17.8416998
| 20>     C       17.3611727   16.5556042   18.7852532
| 21>     C       17.8117979   15.2239772   18.8219733
| 22>     C       17.1996874   14.2864429   19.6703997
| 23>     C       16.1255853   14.6835862   20.4852785
| 24>     C       15.6697562   16.0084780   20.4443432
| 25>     O       14.6260076   16.3918476   21.2217499
| 26>     C       16.2803391   16.9397735   19.5980753
| 27>     H       14.5235748   14.6669906   16.4424169
| 28>     H       14.1677999   14.4881567   14.7081630
| 29>     H       13.0916964   15.4551751   15.7425584
| 30>     H       14.5742676   16.9587397   14.3769179
| 31>     H       14.9088768   17.1048427   16.1239786
| 32>     H       16.8162403   18.4023366   13.8721279
| 33>     H       17.0053204   20.1119478   14.2172296
| 34>     H       15.4472455   19.3258915   14.5248795
| 35>     H       16.7925929   20.9164641   16.4205717
| 36>     H       18.7840396   18.9411008   19.3112460
| 37>     H       19.0353980   17.2322267   17.5982406
| 38>     H       18.6337749   14.9130101   18.1799925
| 39>     H       17.5557088   13.2576946   19.6896891
| 40>     H       15.6490209   13.9619278   21.1405487
| 41>     H       14.3693070   15.6283034   21.7606457
| 42>     H       15.9102088   17.9595383   19.5777023
| 43> *
| 44>
| 45>                          ****END OF INPUT****

CARTESIAN COORDINATES (ANGSTROEM)
---------------------------------
  C     14.138072   15.185396   15.554988
  C     14.976578   16.438546   15.255621
  O     16.321680   15.987019   14.995561
  C     17.453102   16.489078   15.590265
  O     18.526748   15.929904   15.465916
  C     17.281817   17.657450   16.503944
  C     16.971138   18.875369   15.998189
  C     16.533840   19.190049   14.581680
  N     17.116360   20.028627   16.771220
  C     17.795016   20.073973   17.960829
  S     18.030854   21.493806   18.774805
  N     18.290373   18.881395   18.429302
  C     18.012004   17.555332   17.841700
  C     17.361173   16.555604   18.785253
  C     17.811798   15.223977   18.821973
  C     17.199687   14.286443   19.670400
  C     16.125585   14.683586   20.485278
  C     15.669756   16.008478   20.444343
  O     14.626008   16.391848   21.221750
  C     16.280339   16.939774   19.598075
  H     14.523575   14.666991   16.442417
  H     14.167800   14.488157   14.708163
  H     13.091696   15.455175   15.742558
  H     14.574268   16.958740   14.376918
  H     14.908877   17.104843   16.123979
  H     16.816240   18.402337   13.872128
  H     17.005320   20.111948   14.217230
  H     15.447245   19.325892   14.524880
  H     16.792593   20.916464   16.420572
  H     18.784040   18.941101   19.311246
  H     19.035398   17.232227   17.598241
  H     18.633775   14.913010   18.179993
  H     17.555709   13.257695   19.689689
  H     15.649021   13.961928   21.140549
  H     14.369307   15.628303   21.760646
  H     15.910209   17.959538   19.577702

 Total Charge           Charge          ....    0
 Multiplicity           Mult            ....    1
 Number of Electrons    NEL             ....  154
 Basis Dimension        Dim             ....  828

ORBITAL ENERGIES
----------------

  NO   OCC          E(Eh)            E(eV)
   0   2.0000     -91.889853     -2500.4500
   1   2.0000     -20.605954      -560.7165
   2   2.0000     -20.599341      -560.5366
   3   2.0000     -20.549079      -559.1689
   4   2.0000     -15.627921      -425.2574
   5   2.0000     -15.609757      -424.7631
   6   2.0000     -11.399878      -310.2064
   7   2.0000     -11.385865      -309.8251
   8   2.0000     -11.333318      -308.3953
   9   2.0000     -11.316684      -307.9426
  10   2.0000     -11.310390      -307.7714
  11   2.0000     -11.306910      -307.6767
  12   2.0000     -11.268692      -306.6367
  13   2.0000     -11.264542      -306.5238
  14   2.0000     -11.263864      -306.5053
  15   2.0000     -11.256977      -306.3179
  16   2.0000     -11.245730      -306.0119
  17   2.0000     -11.241968      -305.9095
  18   2.0000     -11.239244      -305.8354
  19   2.0000     -11.232448      -305.6504
  20   2.0000      -8.894961      -242.0442
  21   2.0000      -6.576543      -178.9568
  22   2.0000      -6.574530      -178.9021
  23   2.0000      -6.573948      -178.8862
  24   2.0000      -1.448890       -39.4263
  25   2.0000      -1.419044       -38.6142
  26   2.0000      -1.362208       -37.0676
  27   2.0000      -1.340957       -36.4893
  28   2.0000      -1.239367       -33.7249
  29   2.0000      -1.161153       -31.5966
  30   2.0000      -1.126788       -30.6615
  31   2.0000      -1.048691       -28.5363
  32   2.0000      -1.041747       -28.3474
  33   2.0000      -1.018956       -27.7272
  34   2.0000      -1.006245       -27.3813
  35   2.0000      -0.989918       -26.9370
  36   2.0000      -0.926698       -25.2167
  37   2.0000      -0.885024       -24.0827
  38   2.0000      -0.855964       -23.2920
  39   2.0000      -0.842257       -22.9190
  40   2.0000      -0.837280       -22.7835
  41   2.0000      -0.835755       -22.7421
  42   2.0000      -0.756841       -20.5947
  43   2.0000      -0.740727       -20.1562
  44   2.0000      -0.731766       -19.9124
  45   2.0000      -0.697244       -18.9730
  46   2.0000      -0.689931       -18.7740
  47   2.0000      -0.683817       -18.6076
  48   2.0000      -0.674798       -18.3622
  49   2.0000      -0.662618       -18.0307
  50   2.0000      -0.656210       -17.8564
  51   2.0000      -0.646081       -17.5808
  52   2.0000      -0.638645       -17.3784
  53   2.0000      -0.613076       -16.6827
  54   2.0000      -0.608367       -16.5545
  55   2.0000      -0.603095       -16.4111
  56   2.0000      -0.602197       -16.3866
  57   2.0000      -0.583215       -15.8701
  58   2.0000      -0.578264       -15.7354
  59   2.0000      -0.569636       -15.5006
  60   2.0000      -0.560776       -15.2595
  61   2.0000      -0.558273       -15.1914
  62   2.0000      -0.551465       -15.0061
  63   2.0000      -0.530825       -14.4445
  64   2.0000      -0.519380       -14.1330
  65   2.0000      -0.514465       -13.9993
  66   2.0000      -0.505899       -13.7662
  67   2.0000      -0.501394       -13.6436
  68   2.0000      -0.488333       -13.2882
  69   2.0000      -0.471651       -12.8343
  70   2.0000      -0.454217       -12.3599
  71   2.0000      -0.452110       -12.3025
  72   2.0000      -0.356008        -9.6875
  73   2.0000      -0.351603        -9.5676
  74   2.0000      -0.329347        -8.9620
  75   2.0000      -0.324254        -8.8234
  76   2.0000      -0.319565        -8.6958
  77   0.0000       0.085318         2.3216
  78   0.0000       0.103447         2.8149
  79   0.0000       0.115413         3.1406
  80   0.0000       0.129566         3.5257
  81   0.0000       0.130658         3.5554

MULLIKEN ATOMIC CHARGES
-----------------------
   0 C :   -0.254131
   1 C :    0.020820
   2 O :   -0.309728
   3 C :    0.411553
   4 O :   -0.385043
   5 C :   -0.217924
   6 C :    0.156631
   7 C :   -0.332892
   8 N :   -0.139775
   9 C :    0.208857
  10 S :   -0.442779
  11 N :   -0.222754
  12 C :    0.059534
  13 C :    0.029664
  14 C :   -0.221414
  15 C :   -0.127748
  16 C :   -0.277948
  17 C :    0.315362
  18 O :   -0.356045
  19 C :   -0.255653
  20 H :    0.105142
  21 H :    0.102358
  22 H :    0.086492
  23 H :    0.096802
  24 H :    0.104573
  25 H :    0.134819
  26 H :    0.132016
  27 H :    0.125020
  28 H :    0.198169
  29 H :    0.202517
  30 H :    0.167927
  31 H :    0.175138
  32 H :    0.164785
  33 H :    0.131499
  34 H :    0.241326
  35 H :    0.172830
Sum of atomic charges:   -0.0000000

LOEWDIN ATOMIC CHARGES
----------------------
   0 C :    0.109817
   1 C :   -0.022270
   2 O :    0.310934
   3 C :   -0.416638
   4 O :    0.117469
   5 C :   -0.085420
   6 C :   -0.091607
   7 C :    0.126545
   8 N :    0.402432
   9 C :   -0.456387
  10 S :   -0.038188
  11 N :    0.396171
  12 C :   -0.049750
  13 C :   -0.043799
  14 C :    0.020229
  15 C :    0.044766
  16 C :   -0.000197
  17 C :   -0.191012
  18 O :    0.394922
  19 C :    0.026621
  20 H :   -0.022462
  21 H :   -0.024807
  22 H :   -0.026261
  23 H :   -0.033874
  24 H :   -0.036464
  25 H :   -0.006926
  26 H :   -0.010554
  27 H :   -0.016688
  28 H :   -0.057544
  29 H :   -0.063583
  30 H :   -0.004002
  31 H :   -0.021299
  32 H :   -0.018562
  33 H :   -0.034844
  34 H :   -0.153235
  35 H :   -0.023534

  Mayer bond orders larger than 0.100000
B(  0-C ,  1-C ) :   0.9833 B(  0-C , 20-H ) :   0.9762 B(  0-C , 21-H ) :   0.9798
B(  0-C , 22-H ) :   0.9763 B(  1-C ,  2-O ) :   0.9062 B(  1-C , 23-H ) :   0.9735
B(  1-C , 24-H ) :   0.9571 B(  2-O ,  3-C ) :   1.1907 B(  3-C ,  4-O ) :   2.0939
B(  3-C ,  5-C ) :   0.9266 B(  5-C ,  6-C ) :   1.7170 B(  5-C , 12-C ) :   0.9403
B(  6-C ,  7-C ) :   0.9317 B(  6-C ,  8-N ) :   1.1077 B(  7-C , 25-H ) :   0.9764
B(  7-C , 26-H ) :   0.9778 B(  7-C , 27-H ) :   0.9656 B(  8-N ,  9-C ) :   1.1968
B(  8-N , 28-H ) :   0.9508 B(  9-C , 10-S ) :   1.6099 B(  9-C , 11-N ) :   1.2913
B( 11-N , 12-C ) :   0.9839 B( 11-N , 29-H ) :   0.9473 B( 12-C , 13-C ) :   0.9689
B( 12-C , 30-H ) :   0.9893 B( 13-C , 14-C ) :   1.3832 B( 13-C , 19-C ) :   1.3536
B( 14-C , 15-C ) :   1.3942 B( 14-C , 31-H ) :   0.9600 B( 15-C , 16-C ) :   1.3615
B( 15-C , 32-H ) :   0.9695 B( 16-C , 17-C ) :   1.3305 B( 16-C , 33-H ) :   0.9852
B( 17-C , 18-O ) :   1.1086 B( 17-C , 19-C ) :   1.3667 B( 18-O , 34-H ) :   0.9794
B( 19-C , 35-H ) :   0.9564

MP2 TOTAL ENERGY:    -1274.330686422 Eh
FINAL SINGLE POINT ENERGY     -1274.330686421810

DIPOLE MOMENT
-------------
                                X             Y             Z
Electronic contribution:     10.15422       8.42392       8.06048
Nuclear contribution   :    -11.85048      -9.49488      -8.51061
                        -----------------------------------------
Total Dipole Moment    :     -1.69626      -1.07097      -0.45014
                        -----------------------------------------
Magnitude (a.u.)       :      2.05594
Magnitude (Debye)      :      5.22578

Rotational constants in cm-1:     0.011017     0.009052     0.006266
Rotational constants in MHz :   330.267829   271.358120   187.848774

                             ****ORCA TERMINATED NORMALLY****
TOTAL RUN TIME: 0 days 1 hours 40 minutes 22 seconds 71 msec
