                         Program Version 4.2.0 -  RELEASE  -
|  1> ! ri-mp2 cc-pvtz cc-pvtz/c TightSCF NoKeepInts
|  2>
|  3> %scf
|  4>   MaxCore 4096
|  5> end
|  6> *xyz  0  1
|  7>     C       14.3625891   15.2715016   16.1594326
|  8>     C       15.0170420   16.3539753   15.2847542
|  9>     O       16.3739147   15.9315328   15.0364189
| 10>     C       17.5008629   16.5644893   15.4979331
| 11>     O       18.6131468   16.1353463   15.2557783
| 12>     C       17.2912125   17.6957706   16.4439214
| 13>     C       17.0030970   18.9247743   15.9559339
| 14>     C       16.5852154   19.2585833   14.5380137
| 15>     N       17.1303334   20.0604133   16.7572286
| 16>     C       17.7719114   20.0737065   17.9685372
| 17>     S       17.9888646   21.4724281   18.8233778
| 18>     N       18.2454495   18.8671738   18.4255639
| 19>     C       17.9802326   17.5565053   17.7980475
| 20>     C       17.2993471   16.5320665   18.6918307
| 21>     C       17.7401626   15.1966695   18.6956212
| 22>     C       17.0957161   14.2349448   19.4913732
| 23>     C       15.9990713   14.6116496   20.2856812
| 24>     C       15.5535016   15.9406191   20.2774181
| 25>     O       14.4870467   16.3040582   21.0331142
| 26>     C       16.1962173   16.8960483   19.4835514
| 27>     H       14.8751149   15.1936317   17.1268928
| 28>     H       14.4104509   14.2929767   15.6652123
| 29>     H       13.3091078   15.5107519   16.3482988
| 30>     H       14.4771855   16.4186539   14.3311350
| 31>     H       14.9372194   17.3245056   15.7852267
| 32>     H       16.8411699   18.4636497   13.8264621
| 33>     H       17.0900148   20.1654962   14.1807986
| 34>     H       15.5036973   19.4294340   14.4761154
| 35>     H       16.8227209   20.9576799   16.4161577
| 36>     H       18.7119552   18.9042869   19.3233627
| 37>     H       19.0090729   17.2362510   17.5742122
| 38>     H       18.5793444   14.9017971   18.0686403
| 39>     H       17.4440698   13.2033679   19.4858589
| 40>     H       15.4972608   13.8711659   20.8998793
| 41>     H       14.2112946   15.5257609   21.5406424
| 42>     H       15.8323866   17.9183342   19.4855737
| 43> *
| 44>
| 45>                          ****END OF INPUT****

CARTESIAN COORDINATES (ANGSTROEM)
---------------------------------
  C     14.362589   15.271502   16.159433
  C     15.017042   16.353975   15.284754
  O     16.373915   15.931533   15.036419
  C     17.500863   16.564489   15.497933
  O     18.613147   16.135346   15.255778
  C     17.291213   17.695771   16.443921
  C     17.003097   18.924774   15.955934
  C     16.585215   19.258583   14.538014
  N     17.130333   20.060413   16.757229
  C     17.771911   20.073706   17.968537
  S     17.988865   21.472428   18.823378
  N     18.245449   18.867174   18.425564
  C     17.980233   17.556505   17.798047
  C     17.299347   16.532066   18.691831
  C     17.740163   15.196669   18.695621
  C     17.095716   14.234945   19.491373
  C     15.999071   14.611650   20.285681
  C     15.553502   15.940619   20.277418
  O     14.487047   16.304058   21.033114
  C     16.196217   16.896048   19.483551
  H     14.875115   15.193632   17.126893
  H     14.410451   14.292977   15.665212
  H     13.309108   15.510752   16.348299
  H     14.477185   16.418654   14.331135
  H     14.937219   17.324506   15.785227
  H     16.841170   18.463650   13.826462
  H     17.090015   20.165496   14.180799
  H     15.503697   19.429434   14.476115
  H     16.822721   20.957680   16.416158
  H     18.711955   18.904287   19.323363
  H     19.009073   17.236251   17.574212
  H     18.579344   14.901797   18.068640
  H     17.444070   13.203368   19.485859
  H     15.497261   13.871166   20.899879
  H     14.211295   15.525761   21.540642
  H     15.832387   17.918334   19.485574

 Total Charge           Charge          ....    0
 Multiplicity           Mult            ....    1
 Number of Electrons    NEL             ....  154
 Basis Dimension        Dim             ....  828

ORBITAL ENERGIES
----------------

  NO   OCC          E(Eh)            E(eV)
   0   2.0000     -91.889504     -2500.4405
   1   2.0000     -20.605091      -560.6930
   2   2.0000     -20.601056      -560.5832
   3   2.0000     -20.550925      -559.2191
   4   2.0000     -15.626703      -425.2242
   5   2.0000     -15.610163      -424.7741
   6   2.0000     -11.400124      -310.2132
   7   2.0000     -11.385785      -309.8230
   8   2.0000     -11.330254      -308.3119
   9   2.0000     -11.318833      -308.0011
  10   2.0000     -11.312197      -307.8205
  11   2.0000     -11.305682      -307.6432
  12   2.0000     -11.268302      -306.6261
  13   2.0000     -11.266641      -306.5809
  14   2.0000     -11.262636      -306.4719
  15   2.0000     -11.259419      -306.3844
  16   2.0000     -11.247858      -306.0698
  17   2.0000     -11.243718      -305.9571
  18   2.0000     -11.241952      -305.9091
  19   2.0000     -11.229183      -305.5616
  20   2.0000      -8.894614      -242.0347
  21   2.0000      -6.576197      -178.9474
  22   2.0000      -6.574182      -178.8926
  23   2.0000      -6.573603      -178.8768
  24   2.0000      -1.448852       -39.4253
  25   2.0000      -1.420780       -38.6614
  26   2.0000      -1.362922       -37.0870
  27   2.0000      -1.340072       -36.4652
  28   2.0000      -1.239096       -33.7175
  29   2.0000      -1.163282       -31.6545
  30   2.0000      -1.127565       -30.6826
  31   2.0000      -1.050135       -28.5756
  32   2.0000      -1.039381       -28.2830
  33   2.0000      -1.020904       -27.7802
  34   2.0000      -1.006742       -27.3948
  35   2.0000      -0.990245       -26.9459
  36   2.0000      -0.927450       -25.2372
  37   2.0000      -0.886969       -24.1356
  38   2.0000      -0.854578       -23.2543
  39   2.0000      -0.842585       -22.9279
  40   2.0000      -0.838757       -22.8237
  41   2.0000      -0.836370       -22.7588
  42   2.0000      -0.756038       -20.5728
  43   2.0000      -0.740668       -20.1546
  44   2.0000      -0.732886       -19.9429
  45   2.0000      -0.698910       -19.0183
  46   2.0000      -0.691463       -18.8157
  47   2.0000      -0.683274       -18.5928
  48   2.0000      -0.675390       -18.3783
  49   2.0000      -0.663554       -18.0562
  50   2.0000      -0.653879       -17.7929
  51   2.0000      -0.641905       -17.4671
  52   2.0000      -0.636976       -17.3330
  53   2.0000      -0.615687       -16.7537
  54   2.0000      -0.612819       -16.6756
  55   2.0000      -0.608215       -16.5504
  56   2.0000      -0.603932       -16.4338
  57   2.0000      -0.585569       -15.9341
  58   2.0000      -0.579078       -15.7575
  59   2.0000      -0.568919       -15.4811
  60   2.0000      -0.561570       -15.2811
  61   2.0000      -0.557065       -15.1585
  62   2.0000      -0.543782       -14.7970
  63   2.0000      -0.534572       -14.5464
  64   2.0000      -0.521423       -14.1886
  65   2.0000      -0.513184       -13.9644
  66   2.0000      -0.507169       -13.8008
  67   2.0000      -0.502527       -13.6745
  68   2.0000      -0.489050       -13.3077
  69   2.0000      -0.470005       -12.7895
  70   2.0000      -0.453344       -12.3361
  71   2.0000      -0.451771       -12.2933
  72   2.0000      -0.355822        -9.6824
  73   2.0000      -0.353585        -9.6215
  74   2.0000      -0.329180        -8.9574
  75   2.0000      -0.326600        -8.8872
  76   2.0000      -0.319215        -8.6863
  77   0.0000       0.089119         2.4250
  78   0.0000       0.102708         2.7948
  79   0.0000       0.114904         3.1267
  80   0.0000       0.128028         3.4838
  81   0.0000       0.128892         3.5073

MULLIKEN ATOMIC CHARGES
-----------------------
   0 C :   -0.265540
   1 C :    0.027291
   2 O :   -0.311579
   3 C :    0.409641
   4 O :   -0.383944
   5 C :   -0.200942
   6 C :    0.139815
   7 C :   -0.324115
   8 N :   -0.139114
   9 C :    0.211407
  10 S :   -0.443337
  11 N :   -0.223959
  12 C :    0.054293
  13 C :    0.011620
  14 C :   -0.213953
  15 C :   -0.130390
  16 C :   -0.274282
  17 C :    0.309583
  18 O :   -0.356990
  19 C :   -0.237566
  20 H :    0.110450
  21 H :    0.104704
  22 H :    0.087710
  23 H :    0.109803
  24 H :    0.091462
  25 H :    0.128803
  26 H :    0.130569
  27 H :    0.123946
  28 H :    0.197648
  29 H :    0.202331
  30 H :    0.168967
  31 H :    0.172934
  32 H :    0.164440
  33 H :    0.132696
  34 H :    0.241551
  35 H :    0.174046
Sum of atomic charges:   -0.0000000

LOEWDIN ATOMIC CHARGES
----------------------
   0 C :    0.107687
   1 C :   -0.020550
   2 O :    0.312431
   3 C :   -0.418327
   4 O :    0.119612
   5 C :   -0.083883
   6 C :   -0.097920
   7 C :    0.126714
   8 N :    0.401844
   9 C :   -0.455084
  10 S :   -0.038804
  11 N :    0.396026
  12 C :   -0.050172
  13 C :   -0.044734
  14 C :    0.018946
  15 C :    0.045554
  16 C :    0.000010
  17 C :   -0.191015
  18 O :    0.396068
  19 C :    0.027642
  20 H :   -0.023443
  21 H :   -0.024398
  22 H :   -0.026924
  23 H :   -0.028611
  24 H :   -0.039582
  25 H :   -0.006731
  26 H :   -0.010392
  27 H :   -0.016608
  28 H :   -0.057791
  29 H :   -0.063983
  30 H :   -0.003600
  31 H :   -0.021684
  32 H :   -0.018134
  33 H :   -0.034395
  34 H :   -0.152847
  35 H :   -0.022925

  Mayer bond orders larger than 0.100000
B(  0-C ,  1-C ) :   0.9799 B(  0-C , 20-H ) :   0.9697 B(  0-C , 21-H ) :   0.9798
B(  0-C , 22-H ) :   0.9755 B(  1-C ,  2-O ) :   0.9032 B(  1-C , 23-H ) :   0.9794
B(  1-C , 24-H ) :   0.9584 B(  2-O ,  3-C ) :   1.1851 B(  3-C ,  4-O ) :   2.1050
B(  3-C ,  5-C ) :   0.9141 B(  5-C ,  6-C ) :   1.7254 B(  5-C , 12-C ) :   0.9401
B(  6-C ,  7-C ) :   0.9374 B(  6-C ,  8-N ) :   1.1044 B(  7-C , 25-H ) :   0.9762
B(  7-C , 26-H ) :   0.9771 B(  7-C , 27-H ) :   0.9656 B(  8-N ,  9-C ) :   1.1994
B(  8-N , 28-H ) :   0.9512 B(  9-C , 10-S ) :   1.6096 B(  9-C , 11-N ) :   1.2882
B( 11-N , 12-C ) :   0.9837 B( 11-N , 29-H ) :   0.9472 B( 12-C , 13-C ) :   0.9664
B( 12-C , 30-H ) :   0.9896 B( 13-C , 14-C ) :   1.3863 B( 13-C , 19-C ) :   1.3560
B( 14-C , 15-C ) :   1.3941 B( 14-C , 31-H ) :   0.9612 B( 15-C , 16-C ) :   1.3614
B( 15-C , 32-H ) :   0.9700 B( 16-C , 17-C ) :   1.3306 B( 16-C , 33-H ) :   0.9848
B( 17-C , 18-O ) :   1.1102 B( 17-C , 19-C ) :   1.3658 B( 18-O , 34-H ) :   0.9791
B( 19-C , 35-H ) :   0.9559

MP2 TOTAL ENERGY:    -1274.330371795 Eh
FINAL SINGLE POINT ENERGY     -1274.330371795322

DIPOLE MOMENT
-------------
                                X             Y             Z
Electronic contribution:      9.65787       8.32182       6.83348
Nuclear contribution   :    -11.37122      -9.49569      -7.21743
                        -----------------------------------------
Total Dipole Moment    :     -1.71336      -1.17387      -0.38395
                        -----------------------------------------
Magnitude (a.u.)       :      2.11210
Magnitude (Debye)      :      5.36853

Rotational constants in cm-1:     0.011757     0.009005     0.006408
Rotational constants in MHz :   352.472671   269.950680   192.118015

                             ****ORCA TERMINATED NORMALLY****
TOTAL RUN TIME: 0 days 1 hours 42 minutes 55 seconds 724 msec
