                         Program Version 4.2.0 -  RELEASE  -
|  1> ! ri-mp2 cc-pvtz cc-pvtz/c TightSCF NoKeepInts
|  2>
|  3> %scf
|  4>   MaxCore 4096
|  5> end
|  6> *xyz  0  1
|  7>     C       15.6830339   14.3701142   13.9161842
|  8>     C       14.9328694   15.4295802   14.7522986
|  9>     O       15.8954047   16.2984259   15.3801387
| 10>     C       15.4407514   17.2062807   16.2974023
| 11>     O       14.2638800   17.3686933   16.5726745
| 12>     C       16.5364731   18.0400055   16.8690796
| 13>     C       16.7163154   19.3326262   16.5271317
| 14>     C       15.7870476   20.1566676   15.6666109
| 15>     N       17.8545508   20.0262225   16.9519715
| 16>     C       18.9378614   19.4367161   17.5592143
| 17>     S       20.2847415   20.2920684   17.9977641
| 18>     N       18.8575974   18.0837609   17.7792774
| 19>     C       17.6509991   17.2630186   17.5540784
| 20>     C       17.1396616   16.5701297   18.8035531
| 21>     C       17.7079348   15.3499399   19.1990448
| 22>     C       17.2279497   14.6852875   20.3379436
| 23>     C       16.1733513   15.2457514   21.0809475
| 24>     C       15.5876783   16.4507264   20.6731479
| 25>     O       14.5605682   16.9911187   21.3778712
| 26>     C       16.0684704   17.1115499   19.5430648
| 27>     H       16.1251061   14.8411382   13.0289524
| 28>     H       14.9960613   13.5875699   13.5666578
| 29>     H       16.4877861   13.8907134   14.4872465
| 30>     H       14.2205108   15.9957078   14.1374924
| 31>     H       14.3695297   14.9087483   15.5398308
| 32>     H       15.3624901   19.5457500   14.8607447
| 33>     H       16.3024079   20.9995906   15.1895029
| 34>     H       14.9572691   20.5587491   16.2619984
| 35>     H       17.9208609   21.0195022   16.7991715
| 36>     H       19.6673435   17.6795849   18.2376749
| 37>     H       18.0130348   16.5354098   16.8171827
| 38>     H       18.5183070   14.9175449   18.6170979
| 39>     H       17.6734367   13.7406189   20.6398157
| 40>     H       15.8051631   14.7398339   21.9648694
| 41>     H       14.4723829   16.4912776   22.2024448
| 42>     H       15.5881698   18.0395769   19.2479179
| 43> *
| 44>
| 45>                          ****END OF INPUT****

CARTESIAN COORDINATES (ANGSTROEM)
---------------------------------
  C     15.683034   14.370114   13.916184
  C     14.932869   15.429580   14.752299
  O     15.895405   16.298426   15.380139
  C     15.440751   17.206281   16.297402
  O     14.263880   17.368693   16.572675
  C     16.536473   18.040005   16.869080
  C     16.716315   19.332626   16.527132
  C     15.787048   20.156668   15.666611
  N     17.854551   20.026222   16.951971
  C     18.937861   19.436716   17.559214
  S     20.284741   20.292068   17.997764
  N     18.857597   18.083761   17.779277
  C     17.650999   17.263019   17.554078
  C     17.139662   16.570130   18.803553
  C     17.707935   15.349940   19.199045
  C     17.227950   14.685287   20.337944
  C     16.173351   15.245751   21.080947
  C     15.587678   16.450726   20.673148
  O     14.560568   16.991119   21.377871
  C     16.068470   17.111550   19.543065
  H     16.125106   14.841138   13.028952
  H     14.996061   13.587570   13.566658
  H     16.487786   13.890713   14.487246
  H     14.220511   15.995708   14.137492
  H     14.369530   14.908748   15.539831
  H     15.362490   19.545750   14.860745
  H     16.302408   20.999591   15.189503
  H     14.957269   20.558749   16.261998
  H     17.920861   21.019502   16.799171
  H     19.667344   17.679585   18.237675
  H     18.013035   16.535410   16.817183
  H     18.518307   14.917545   18.617098
  H     17.673437   13.740619   20.639816
  H     15.805163   14.739834   21.964869
  H     14.472383   16.491278   22.202445
  H     15.588170   18.039577   19.247918

 Total Charge           Charge          ....    0
 Multiplicity           Mult            ....    1
 Number of Electrons    NEL             ....  154
 Basis Dimension        Dim             ....  828

ORBITAL ENERGIES
----------------

  NO   OCC          E(Eh)            E(eV)
   0   2.0000     -91.884104     -2500.2936
   1   2.0000     -20.610697      -560.8456
   2   2.0000     -20.594446      -560.4034
   3   2.0000     -20.553007      -559.2758
   4   2.0000     -15.621078      -425.0711
   5   2.0000     -15.604495      -424.6199
   6   2.0000     -11.396439      -310.1129
   7   2.0000     -11.380622      -309.6825
   8   2.0000     -11.322849      -308.1104
   9   2.0000     -11.311455      -307.8003
  10   2.0000     -11.306007      -307.6521
  11   2.0000     -11.300558      -307.5038
  12   2.0000     -11.259758      -306.3936
  13   2.0000     -11.255981      -306.2908
  14   2.0000     -11.255048      -306.2654
  15   2.0000     -11.254824      -306.2593
  16   2.0000     -11.243344      -305.9469
  17   2.0000     -11.240121      -305.8593
  18   2.0000     -11.237356      -305.7840
  19   2.0000     -11.235712      -305.7393
  20   2.0000      -8.889217      -241.8879
  21   2.0000      -6.570808      -178.8008
  22   2.0000      -6.568791      -178.7459
  23   2.0000      -6.568224      -178.7305
  24   2.0000      -1.456538       -39.6344
  25   2.0000      -1.413667       -38.4678
  26   2.0000      -1.361367       -37.0447
  27   2.0000      -1.332453       -36.2579
  28   2.0000      -1.232791       -33.5460
  29   2.0000      -1.159768       -31.5589
  30   2.0000      -1.122723       -30.5508
  31   2.0000      -1.043950       -28.4073
  32   2.0000      -1.041975       -28.3536
  33   2.0000      -1.016361       -27.6566
  34   2.0000      -0.997898       -27.1542
  35   2.0000      -0.982756       -26.7422
  36   2.0000      -0.920757       -25.0551
  37   2.0000      -0.890522       -24.2323
  38   2.0000      -0.844700       -22.9855
  39   2.0000      -0.836365       -22.7586
  40   2.0000      -0.831973       -22.6391
  41   2.0000      -0.819553       -22.3012
  42   2.0000      -0.763777       -20.7834
  43   2.0000      -0.734471       -19.9860
  44   2.0000      -0.725083       -19.7305
  45   2.0000      -0.694274       -18.8922
  46   2.0000      -0.684439       -18.6245
  47   2.0000      -0.682860       -18.5816
  48   2.0000      -0.680636       -18.5211
  49   2.0000      -0.664510       -18.0822
  50   2.0000      -0.647077       -17.6079
  51   2.0000      -0.646707       -17.5978
  52   2.0000      -0.634079       -17.2542
  53   2.0000      -0.609713       -16.5911
  54   2.0000      -0.603379       -16.4188
  55   2.0000      -0.597850       -16.2683
  56   2.0000      -0.587242       -15.9797
  57   2.0000      -0.577629       -15.7181
  58   2.0000      -0.575083       -15.6488
  59   2.0000      -0.571891       -15.5620
  60   2.0000      -0.562795       -15.3144
  61   2.0000      -0.557122       -15.1600
  62   2.0000      -0.537994       -14.6396
  63   2.0000      -0.526944       -14.3389
  64   2.0000      -0.519977       -14.1493
  65   2.0000      -0.509809       -13.8726
  66   2.0000      -0.503887       -13.7115
  67   2.0000      -0.494974       -13.4689
  68   2.0000      -0.486548       -13.2396
  69   2.0000      -0.464598       -12.6424
  70   2.0000      -0.462483       -12.5848
  71   2.0000      -0.452438       -12.3115
  72   2.0000      -0.350941        -9.5496
  73   2.0000      -0.348208        -9.4752
  74   2.0000      -0.325170        -8.8483
  75   2.0000      -0.321088        -8.7372
  76   2.0000      -0.314060        -8.5460
  77   0.0000       0.095268         2.5924
  78   0.0000       0.110055         2.9947
  79   0.0000       0.118863         3.2344
  80   0.0000       0.128600         3.4994
  81   0.0000       0.135304         3.6818

MULLIKEN ATOMIC CHARGES
-----------------------
   0 C :   -0.262687
   1 C :    0.043807
   2 O :   -0.334375
   3 C :    0.378873
   4 O :   -0.407890
   5 C :   -0.130249
   6 C :    0.132790
   7 C :   -0.284674
   8 N :   -0.140493
   9 C :    0.233377
  10 S :   -0.453693
  11 N :   -0.225159
  12 C :    0.063538
  13 C :    0.050114
  14 C :   -0.215398
  15 C :   -0.127990
  16 C :   -0.271895
  17 C :    0.311266
  18 O :   -0.353395
  19 C :   -0.218635
  20 H :    0.094145
  21 H :    0.094611
  22 H :    0.099113
  23 H :    0.093088
  24 H :    0.089271
  25 H :    0.113747
  26 H :    0.100444
  27 H :    0.133299
  28 H :    0.195027
  29 H :    0.199617
  30 H :    0.152376
  31 H :    0.150491
  32 H :    0.159048
  33 H :    0.132216
  34 H :    0.239413
  35 H :    0.166860
Sum of atomic charges:   -0.0000000

LOEWDIN ATOMIC CHARGES
----------------------
   0 C :    0.109481
   1 C :   -0.014657
   2 O :    0.299076
   3 C :   -0.408373
   4 O :    0.113475
   5 C :   -0.080450
   6 C :   -0.089991
   7 C :    0.129720
   8 N :    0.401683
   9 C :   -0.447878
  10 S :   -0.046584
  11 N :    0.391227
  12 C :   -0.055909
  13 C :   -0.041492
  14 C :    0.009084
  15 C :    0.042682
  16 C :    0.005380
  17 C :   -0.187944
  18 O :    0.397738
  19 C :    0.043747
  20 H :   -0.028443
  21 H :   -0.022421
  22 H :   -0.026111
  23 H :   -0.029654
  24 H :   -0.028723
  25 H :   -0.009116
  26 H :   -0.018172
  27 H :   -0.007229
  28 H :   -0.060098
  29 H :   -0.065599
  30 H :   -0.012758
  31 H :   -0.029447
  32 H :   -0.021595
  33 H :   -0.035461
  34 H :   -0.155135
  35 H :   -0.020051

  Mayer bond orders larger than 0.100000
B(  0-C ,  1-C ) :   0.9696 B(  0-C , 20-H ) :   0.9794 B(  0-C , 21-H ) :   0.9777
B(  0-C , 22-H ) :   0.9760 B(  1-C ,  2-O ) :   0.9073 B(  1-C , 23-H ) :   0.9768
B(  1-C , 24-H ) :   0.9778 B(  2-O ,  3-C ) :   1.1860 B(  3-C ,  4-O ) :   1.9882
B(  3-C ,  5-C ) :   0.9507 B(  5-C ,  6-C ) :   1.7129 B(  5-C , 12-C ) :   0.9390
B(  6-C ,  7-C ) :   0.9485 B(  6-C ,  8-N ) :   1.1371 B(  7-C , 25-H ) :   0.9750
B(  7-C , 26-H ) :   0.9868 B(  7-C , 27-H ) :   0.9649 B(  8-N ,  9-C ) :   1.1974
B(  8-N , 28-H ) :   0.9520 B(  9-C , 10-S ) :   1.5873 B(  9-C , 11-N ) :   1.3033
B( 11-N , 12-C ) :   0.9507 B( 11-N , 29-H ) :   0.9466 B( 12-C , 13-C ) :   0.9812
B( 12-C , 30-H ) :   0.9875 B( 13-C , 14-C ) :   1.3474 B( 13-C , 19-C ) :   1.3696
B( 14-C , 15-C ) :   1.4024 B( 14-C , 31-H ) :   0.9728 B( 15-C , 16-C ) :   1.3659
B( 15-C , 32-H ) :   0.9708 B( 16-C , 17-C ) :   1.3334 B( 16-C , 33-H ) :   0.9843
B( 17-C , 18-O ) :   1.1066 B( 17-C , 19-C ) :   1.3620 B( 18-O , 34-H ) :   0.9803
B( 19-C , 35-H ) :   0.9574

MP2 TOTAL ENERGY:    -1274.337433004 Eh
FINAL SINGLE POINT ENERGY     -1274.337433003821

DIPOLE MOMENT
-------------
                                X             Y             Z
Electronic contribution:      7.56940       9.79300      10.51919
Nuclear contribution   :     -8.62645     -11.34738     -11.09585
                        -----------------------------------------
Total Dipole Moment    :     -1.05704      -1.55438      -0.57666
                        -----------------------------------------
Magnitude (a.u.)       :      1.96621
Magnitude (Debye)      :      4.99770

Rotational constants in cm-1:     0.009850     0.008686     0.006028
Rotational constants in MHz :   295.303005   260.392452   180.710328

                             ****ORCA TERMINATED NORMALLY****
TOTAL RUN TIME: 0 days 1 hours 36 minutes 19 seconds 435 msec
