                         Program Version 4.2.0 -  RELEASE  -
|  1> ! ri-mp2 cc-pvtz cc-pvtz/c TightSCF NoKeepInts
|  2>
|  3> %scf
|  4>   MaxCore 4096
|  5> end
|  6> *xyz  0  1
|  7>     C       14.3258922   15.1033410   13.8013276
|  8>     C       14.8002185   15.6029323   15.1760071
|  9>     O       15.9218834   16.4718228   14.9526940
| 10>     C       16.9436905   16.4189284   15.8502526
| 11>     O       17.5390728   15.3802972   16.0793362
| 12>     C       17.1248670   17.6624076   16.6718560
| 13>     C       16.8998724   18.9056528   16.1713439
| 14>     C       16.2401551   19.2723331   14.8564882
| 15>     N       17.3367339   20.0406188   16.8591326
| 16>     C       18.1917426   20.0167639   17.9279275
| 17>     S       18.7547428   21.4063235   18.6260456
| 18>     N       18.5745399   18.7776480   18.3755259
| 19>     C       18.0255163   17.4924195   17.9011306
| 20>     C       17.3875332   16.6637184   19.0082157
| 21>     C       17.8023292   15.3405485   19.2433597
| 22>     C       17.2117808   14.5771616   20.2643502
| 23>     C       16.1984317   15.1423053   21.0575158
| 24>     C       15.7815450   16.4599788   20.8236545
| 25>     O       14.7996961   17.0064326   21.5842853
| 26>     C       16.3705979   17.2169366   19.8057985
| 27>     H       15.1295881   14.5553554   13.2932695
| 28>     H       14.0241839   15.9447523   13.1654026
| 29>     H       13.4678120   14.4291782   13.9113448
| 30>     H       13.9957662   16.1413080   15.6937462
| 31>     H       15.0875231   14.7353324   15.7869388
| 32>     H       16.7319997   18.7636710   14.0175735
| 33>     H       16.2809466   20.3478757   14.6451865
| 34>     H       15.1831277   18.9788996   14.8565432
| 35>     H       17.0840539   20.9576626   16.5271537
| 36>     H       19.1901404   18.7875602   19.1790437
| 37>     H       18.9436334   17.0094443   17.5356622
| 38>     H       18.5755210   14.8979429   18.6194927
| 39>     H       17.5370673   13.5521115   20.4329928
| 40>     H       15.7389256   14.5557164   21.8460506
| 41>     H       14.5485819   16.3483970   22.2497792
| 42>     H       16.0372877   18.2362217   19.6415730
| 43> *
| 44>
| 45>                          ****END OF INPUT****

CARTESIAN COORDINATES (ANGSTROEM)
---------------------------------
  C     14.325892   15.103341   13.801328
  C     14.800218   15.602932   15.176007
  O     15.921883   16.471823   14.952694
  C     16.943690   16.418928   15.850253
  O     17.539073   15.380297   16.079336
  C     17.124867   17.662408   16.671856
  C     16.899872   18.905653   16.171344
  C     16.240155   19.272333   14.856488
  N     17.336734   20.040619   16.859133
  C     18.191743   20.016764   17.927927
  S     18.754743   21.406323   18.626046
  N     18.574540   18.777648   18.375526
  C     18.025516   17.492420   17.901131
  C     17.387533   16.663718   19.008216
  C     17.802329   15.340549   19.243360
  C     17.211781   14.577162   20.264350
  C     16.198432   15.142305   21.057516
  C     15.781545   16.459979   20.823654
  O     14.799696   17.006433   21.584285
  C     16.370598   17.216937   19.805799
  H     15.129588   14.555355   13.293269
  H     14.024184   15.944752   13.165403
  H     13.467812   14.429178   13.911345
  H     13.995766   16.141308   15.693746
  H     15.087523   14.735332   15.786939
  H     16.732000   18.763671   14.017573
  H     16.280947   20.347876   14.645186
  H     15.183128   18.978900   14.856543
  H     17.084054   20.957663   16.527154
  H     19.190140   18.787560   19.179044
  H     18.943633   17.009444   17.535662
  H     18.575521   14.897943   18.619493
  H     17.537067   13.552112   20.432993
  H     15.738926   14.555716   21.846051
  H     14.548582   16.348397   22.249779
  H     16.037288   18.236222   19.641573

 Total Charge           Charge          ....    0
 Multiplicity           Mult            ....    1
 Number of Electrons    NEL             ....  154
 Basis Dimension        Dim             ....  828

ORBITAL ENERGIES
----------------

  NO   OCC          E(Eh)            E(eV)
   0   2.0000     -91.889127     -2500.4303
   1   2.0000     -20.593288      -560.3719
   2   2.0000     -20.591092      -560.3121
   3   2.0000     -20.550346      -559.2033
   4   2.0000     -15.630079      -425.3161
   5   2.0000     -15.606617      -424.6776
   6   2.0000     -11.394200      -310.0519
   7   2.0000     -11.383767      -309.7680
   8   2.0000     -11.339528      -308.5642
   9   2.0000     -11.309362      -307.7434
  10   2.0000     -11.304838      -307.6203
  11   2.0000     -11.302057      -307.5446
  12   2.0000     -11.260656      -306.4180
  13   2.0000     -11.260199      -306.4056
  14   2.0000     -11.256577      -306.3070
  15   2.0000     -11.249359      -306.1106
  16   2.0000     -11.239522      -305.8429
  17   2.0000     -11.235725      -305.7396
  18   2.0000     -11.232333      -305.6473
  19   2.0000     -11.231206      -305.6166
  20   2.0000      -8.894202      -242.0235
  21   2.0000      -6.575776      -178.9360
  22   2.0000      -6.573776      -178.8815
  23   2.0000      -6.573185      -178.8655
  24   2.0000      -1.453646       -39.5557
  25   2.0000      -1.413032       -38.4506
  26   2.0000      -1.358224       -36.9592
  27   2.0000      -1.341023       -36.4911
  28   2.0000      -1.238020       -33.6882
  29   2.0000      -1.153884       -31.3988
  30   2.0000      -1.121843       -30.5269
  31   2.0000      -1.044259       -28.4157
  32   2.0000      -1.036384       -28.2014
  33   2.0000      -1.011457       -27.5231
  34   2.0000      -0.999983       -27.2109
  35   2.0000      -0.984970       -26.8024
  36   2.0000      -0.921818       -25.0839
  37   2.0000      -0.883222       -24.0337
  38   2.0000      -0.849087       -23.1048
  39   2.0000      -0.837357       -22.7857
  40   2.0000      -0.829597       -22.5745
  41   2.0000      -0.826353       -22.4862
  42   2.0000      -0.760555       -20.6957
  43   2.0000      -0.736379       -20.0379
  44   2.0000      -0.727546       -19.7975
  45   2.0000      -0.691483       -18.8162
  46   2.0000      -0.687580       -18.7100
  47   2.0000      -0.680462       -18.5163
  48   2.0000      -0.672434       -18.2979
  49   2.0000      -0.655445       -17.8356
  50   2.0000      -0.648159       -17.6373
  51   2.0000      -0.640986       -17.4421
  52   2.0000      -0.629913       -17.1408
  53   2.0000      -0.620458       -16.8835
  54   2.0000      -0.604278       -16.4432
  55   2.0000      -0.600042       -16.3280
  56   2.0000      -0.596570       -16.2335
  57   2.0000      -0.580127       -15.7860
  58   2.0000      -0.574520       -15.6335
  59   2.0000      -0.562667       -15.3110
  60   2.0000      -0.561687       -15.2843
  61   2.0000      -0.549868       -14.9627
  62   2.0000      -0.536167       -14.5898
  63   2.0000      -0.522152       -14.2085
  64   2.0000      -0.517450       -14.0805
  65   2.0000      -0.510564       -13.8932
  66   2.0000      -0.504049       -13.7159
  67   2.0000      -0.495350       -13.4791
  68   2.0000      -0.481084       -13.0910
  69   2.0000      -0.463067       -12.6007
  70   2.0000      -0.460621       -12.5341
  71   2.0000      -0.453023       -12.3274
  72   2.0000      -0.354202        -9.6383
  73   2.0000      -0.345984        -9.4147
  74   2.0000      -0.328147        -8.9293
  75   2.0000      -0.318304        -8.6615
  76   2.0000      -0.316069        -8.6007
  77   0.0000       0.072816         1.9814
  78   0.0000       0.109408         2.9771
  79   0.0000       0.119628         3.2553
  80   0.0000       0.134618         3.6631
  81   0.0000       0.138522         3.7694

MULLIKEN ATOMIC CHARGES
-----------------------
   0 C :   -0.260818
   1 C :    0.033258
   2 O :   -0.370011
   3 C :    0.453487
   4 O :   -0.399604
   5 C :   -0.202742
   6 C :    0.154257
   7 C :   -0.280943
   8 N :   -0.128120
   9 C :    0.206712
  10 S :   -0.440656
  11 N :   -0.210951
  12 C :    0.041694
  13 C :    0.032959
  14 C :   -0.173185
  15 C :   -0.134091
  16 C :   -0.277481
  17 C :    0.313601
  18 O :   -0.358958
  19 C :   -0.252884
  20 H :    0.105080
  21 H :    0.090897
  22 H :    0.088689
  23 H :    0.093919
  24 H :    0.108558
  25 H :    0.128830
  26 H :    0.103893
  27 H :    0.124154
  28 H :    0.198961
  29 H :    0.199947
  30 H :    0.156338
  31 H :    0.161157
  32 H :    0.160877
  33 H :    0.128793
  34 H :    0.240230
  35 H :    0.164154
Sum of atomic charges:   -0.0000000

LOEWDIN ATOMIC CHARGES
----------------------
   0 C :    0.107946
   1 C :   -0.017939
   2 O :    0.300800
   3 C :   -0.421124
   4 O :    0.117809
   5 C :   -0.096220
   6 C :   -0.064446
   7 C :    0.125776
   8 N :    0.405840
   9 C :   -0.458361
  10 S :   -0.036356
  11 N :    0.396202
  12 C :   -0.048602
  13 C :   -0.041119
  14 C :    0.024449
  15 C :    0.041132
  16 C :   -0.001179
  17 C :   -0.192835
  18 O :    0.393053
  19 C :    0.028769
  20 H :   -0.022397
  21 H :   -0.029533
  22 H :   -0.025950
  23 H :   -0.034184
  24 H :   -0.024951
  25 H :   -0.007711
  26 H :   -0.020637
  27 H :   -0.010212
  28 H :   -0.058387
  29 H :   -0.063238
  30 H :   -0.007670
  31 H :   -0.023546
  32 H :   -0.020698
  33 H :   -0.035978
  34 H :   -0.154570
  35 H :   -0.023934

  Mayer bond orders larger than 0.100000
B(  0-C ,  1-C ) :   0.9791 B(  0-C , 20-H ) :   0.9773 B(  0-C , 21-H ) :   0.9796
B(  0-C , 22-H ) :   0.9757 B(  1-C ,  2-O ) :   0.8899 B(  1-C , 23-H ) :   0.9750
B(  1-C , 24-H ) :   0.9726 B(  2-O ,  3-C ) :   1.0826 B(  3-C ,  4-O ) :   2.0309
B(  3-C ,  5-C ) :   1.0315 B(  5-C ,  6-C ) :   1.6589 B(  5-C , 12-C ) :   0.9498
B(  6-C ,  7-C ) :   0.9531 B(  6-C ,  8-N ) :   1.1389 B(  7-C , 25-H ) :   0.9654
B(  7-C , 26-H ) :   0.9900 B(  7-C , 27-H ) :   0.9654 B(  8-N ,  9-C ) :   1.1840
B(  8-N , 28-H ) :   0.9470 B(  9-C , 10-S ) :   1.6105 B(  9-C , 11-N ) :   1.3054
B( 11-N , 12-C ) :   0.9765 B( 11-N , 29-H ) :   0.9485 B( 12-C , 13-C ) :   0.9718
B( 12-C , 30-H ) :   0.9961 B( 13-C , 14-C ) :   1.3779 B( 13-C , 19-C ) :   1.3636
B( 14-C , 15-C ) :   1.3972 B( 14-C , 31-H ) :   0.9629 B( 15-C , 16-C ) :   1.3591
B( 15-C , 32-H ) :   0.9709 B( 16-C , 17-C ) :   1.3330 B( 16-C , 33-H ) :   0.9858
B( 17-C , 18-O ) :   1.1041 B( 17-C , 19-C ) :   1.3676 B( 18-O , 34-H ) :   0.9804
B( 19-C , 35-H ) :   0.9602

MP2 TOTAL ENERGY:    -1274.329107827 Eh
FINAL SINGLE POINT ENERGY     -1274.329107827234

DIPOLE MOMENT
-------------
                                X             Y             Z
Electronic contribution:     10.47325       9.89450      11.26741
Nuclear contribution   :    -11.99810     -11.12670     -11.97096
                        -----------------------------------------
Total Dipole Moment    :     -1.52485      -1.23220      -0.70356
                        -----------------------------------------
Magnitude (a.u.)       :      2.08290
Magnitude (Debye)      :      5.29432

Rotational constants in cm-1:     0.009764     0.009173     0.005628
Rotational constants in MHz :   292.716530   275.011868   168.728687

                             ****ORCA TERMINATED NORMALLY****
TOTAL RUN TIME: 0 days 1 hours 33 minutes 57 seconds 77 msec
