                         Program Version 4.2.0 -  RELEASE  -
|  1> ! ri-mp2 cc-pvtz cc-pvtz/c TightSCF NoKeepInts
|  2>
|  3> %scf
|  4>   MaxCore 4096
|  5> end
|  6> *xyz  0  1
|  7>     C       15.0828663   14.2501710   16.1294957
|  8>     C       15.7725741   15.0108832   14.9839806
|  9>     O       16.6050013   16.0215551   15.5821252
| 10>     C       16.3298146   17.3463133   15.3850738
| 11>     O       15.6632918   17.7394257   14.4427523
| 12>     C       16.8808390   18.2205650   16.4798690
| 13>     C       16.9238204   19.5705986   16.3388041
| 14>     C       16.2400368   20.4030544   15.2738111
| 15>     N       17.6633138   20.3634530   17.2193926
| 16>     C       18.5345515   19.8757041   18.1552704
| 17>     S       19.4502579   20.8740924   19.1043131
| 18>     N       18.6266845   18.5103868   18.2507841
| 19>     C       17.7816259   17.5424478   17.5267181
| 20>     C       17.0513274   16.5905912   18.4654711
| 21>     C       17.5477499   15.2934934   18.6909215
| 22>     C       16.8773961   14.4132121   19.5570077
| 23>     C       15.7021742   14.8343084   20.2025581
| 24>     C       15.2092012   16.1281749   19.9836611
| 25>     O       14.0759799   16.5378653   20.6072515
| 26>     C       15.8800156   17.0030584   19.1234848
| 27>     H       15.8257874   13.7718883   16.7791192
| 28>     H       14.4217580   13.4708878   15.7318019
| 29>     H       14.4802589   14.9340908   16.7406022
| 30>     H       16.3929139   14.3165057   14.4030248
| 31>     H       15.0149842   15.4361626   14.3119862
| 32>     H       15.1677172   20.1724120   15.2330008
| 33>     H       16.6600660   20.1852591   14.2835662
| 34>     H       16.3347407   21.4819590   15.4440253
| 35>     H       17.6215388   21.3672670   17.1447904
| 36>     H       19.2521683   18.1806977   18.9748852
| 37>     H       18.5469537   17.0020755   16.9516676
| 38>     H       18.4528520   14.9650482   18.1871397
| 39>     H       17.2674566   13.4107225   19.7241715
| 40>     H       15.1802261   14.1579032   20.8713739
| 41>     H       13.7811087   15.8145510   21.1806356
| 42>     H       15.4879471   18.0032153   18.9734631
| 43> *
| 44>
| 45>                          ****END OF INPUT****

CARTESIAN COORDINATES (ANGSTROEM)
---------------------------------
  C     15.082866   14.250171   16.129496
  C     15.772574   15.010883   14.983981
  O     16.605001   16.021555   15.582125
  C     16.329815   17.346313   15.385074
  O     15.663292   17.739426   14.442752
  C     16.880839   18.220565   16.479869
  C     16.923820   19.570599   16.338804
  C     16.240037   20.403054   15.273811
  N     17.663314   20.363453   17.219393
  C     18.534551   19.875704   18.155270
  S     19.450258   20.874092   19.104313
  N     18.626684   18.510387   18.250784
  C     17.781626   17.542448   17.526718
  C     17.051327   16.590591   18.465471
  C     17.547750   15.293493   18.690922
  C     16.877396   14.413212   19.557008
  C     15.702174   14.834308   20.202558
  C     15.209201   16.128175   19.983661
  O     14.075980   16.537865   20.607252
  C     15.880016   17.003058   19.123485
  H     15.825787   13.771888   16.779119
  H     14.421758   13.470888   15.731802
  H     14.480259   14.934091   16.740602
  H     16.392914   14.316506   14.403025
  H     15.014984   15.436163   14.311986
  H     15.167717   20.172412   15.233001
  H     16.660066   20.185259   14.283566
  H     16.334741   21.481959   15.444025
  H     17.621539   21.367267   17.144790
  H     19.252168   18.180698   18.974885
  H     18.546954   17.002076   16.951668
  H     18.452852   14.965048   18.187140
  H     17.267457   13.410722   19.724172
  H     15.180226   14.157903   20.871374
  H     13.781109   15.814551   21.180636
  H     15.487947   18.003215   18.973463

 Total Charge           Charge          ....    0
 Multiplicity           Mult            ....    1
 Number of Electrons    NEL             ....  154
 Basis Dimension        Dim             ....  828

ORBITAL ENERGIES
----------------

  NO   OCC          E(Eh)            E(eV)
   0   2.0000     -91.888928     -2500.4248
   1   2.0000     -20.598605      -560.5165
   2   2.0000     -20.598296      -560.5081
   3   2.0000     -20.540704      -558.9410
   4   2.0000     -15.629357      -425.2964
   5   2.0000     -15.607127      -424.6915
   6   2.0000     -11.394575      -310.0621
   7   2.0000     -11.383644      -309.7647
   8   2.0000     -11.337616      -308.5122
   9   2.0000     -11.315509      -307.9107
  10   2.0000     -11.307874      -307.7029
  11   2.0000     -11.293431      -307.3099
  12   2.0000     -11.262294      -306.4626
  13   2.0000     -11.259042      -306.3741
  14   2.0000     -11.256677      -306.3098
  15   2.0000     -11.251668      -306.1735
  16   2.0000     -11.245005      -305.9922
  17   2.0000     -11.239943      -305.8544
  18   2.0000     -11.239727      -305.8485
  19   2.0000     -11.222985      -305.3929
  20   2.0000      -8.893996      -242.0179
  21   2.0000      -6.575569      -178.9303
  22   2.0000      -6.573570      -178.8759
  23   2.0000      -6.572980      -178.8599
  24   2.0000      -1.449622       -39.4462
  25   2.0000      -1.417964       -38.5848
  26   2.0000      -1.353560       -36.8322
  27   2.0000      -1.340480       -36.4763
  28   2.0000      -1.238463       -33.7003
  29   2.0000      -1.158875       -31.5346
  30   2.0000      -1.121397       -30.5148
  31   2.0000      -1.043720       -28.4011
  32   2.0000      -1.036586       -28.2069
  33   2.0000      -1.016630       -27.6639
  34   2.0000      -0.996388       -27.1131
  35   2.0000      -0.984802       -26.7978
  36   2.0000      -0.922349       -25.0984
  37   2.0000      -0.888821       -24.1860
  38   2.0000      -0.846722       -23.0405
  39   2.0000      -0.839023       -22.8310
  40   2.0000      -0.835248       -22.7283
  41   2.0000      -0.814777       -22.1712
  42   2.0000      -0.762462       -20.7476
  43   2.0000      -0.734476       -19.9861
  44   2.0000      -0.721307       -19.6278
  45   2.0000      -0.697007       -18.9665
  46   2.0000      -0.688628       -18.7385
  47   2.0000      -0.678207       -18.4549
  48   2.0000      -0.670002       -18.2317
  49   2.0000      -0.666815       -18.1449
  50   2.0000      -0.646501       -17.5922
  51   2.0000      -0.641931       -17.4678
  52   2.0000      -0.635574       -17.2948
  53   2.0000      -0.608532       -16.5590
  54   2.0000      -0.602297       -16.3893
  55   2.0000      -0.600306       -16.3352
  56   2.0000      -0.589340       -16.0368
  57   2.0000      -0.578375       -15.7384
  58   2.0000      -0.569556       -15.4984
  59   2.0000      -0.565745       -15.3947
  60   2.0000      -0.563982       -15.3467
  61   2.0000      -0.549818       -14.9613
  62   2.0000      -0.538446       -14.6519
  63   2.0000      -0.525750       -14.3064
  64   2.0000      -0.524791       -14.2803
  65   2.0000      -0.512994       -13.9593
  66   2.0000      -0.501168       -13.6375
  67   2.0000      -0.496444       -13.5089
  68   2.0000      -0.482968       -13.1422
  69   2.0000      -0.462964       -12.5979
  70   2.0000      -0.451757       -12.2929
  71   2.0000      -0.448613       -12.2074
  72   2.0000      -0.353519        -9.6197
  73   2.0000      -0.350898        -9.5484
  74   2.0000      -0.328307        -8.9337
  75   2.0000      -0.322632        -8.7793
  76   2.0000      -0.318480        -8.6663
  77   0.0000       0.077457         2.1077
  78   0.0000       0.102775         2.7966
  79   0.0000       0.123782         3.3683
  80   0.0000       0.132069         3.5938
  81   0.0000       0.135073         3.6755

MULLIKEN ATOMIC CHARGES
-----------------------
   0 C :   -0.284345
   1 C :    0.019327
   2 O :   -0.349387
   3 C :    0.447314
   4 O :   -0.434403
   5 C :   -0.254989
   6 C :    0.182348
   7 C :   -0.267515
   8 N :   -0.126750
   9 C :    0.213971
  10 S :   -0.442779
  11 N :   -0.219960
  12 C :    0.075736
  13 C :    0.058250
  14 C :   -0.193580
  15 C :   -0.134801
  16 C :   -0.273146
  17 C :    0.315959
  18 O :   -0.357471
  19 C :   -0.252170
  20 H :    0.095060
  21 H :    0.104959
  22 H :    0.102594
  23 H :    0.097813
  24 H :    0.117285
  25 H :    0.132826
  26 H :    0.129902
  27 H :    0.094457
  28 H :    0.199384
  29 H :    0.201130
  30 H :    0.150117
  31 H :    0.151228
  32 H :    0.164643
  33 H :    0.131547
  34 H :    0.241078
  35 H :    0.164369
Sum of atomic charges:   -0.0000000

LOEWDIN ATOMIC CHARGES
----------------------
   0 C :    0.103827
   1 C :   -0.012747
   2 O :    0.308411
   3 C :   -0.415666
   4 O :    0.095870
   5 C :   -0.096329
   6 C :   -0.056211
   7 C :    0.131165
   8 N :    0.407352
   9 C :   -0.455381
  10 S :   -0.036840
  11 N :    0.394201
  12 C :   -0.054200
  13 C :   -0.037329
  14 C :    0.016224
  15 C :    0.041984
  16 C :   -0.000588
  17 C :   -0.189438
  18 O :    0.395620
  19 C :    0.032714
  20 H :   -0.029471
  21 H :   -0.027501
  22 H :   -0.025423
  23 H :   -0.029705
  24 H :   -0.028539
  25 H :   -0.004411
  26 H :   -0.004722
  27 H :   -0.023684
  28 H :   -0.057112
  29 H :   -0.064919
  30 H :   -0.013604
  31 H :   -0.029849
  32 H :   -0.021199
  33 H :   -0.035195
  34 H :   -0.153621
  35 H :   -0.023685

  Mayer bond orders larger than 0.100000
B(  0-C ,  1-C ) :   0.9702 B(  0-C , 20-H ) :   0.9741 B(  0-C , 21-H ) :   0.9786
B(  0-C , 22-H ) :   0.9744 B(  1-C ,  2-O ) :   0.8905 B(  1-C , 23-H ) :   0.9852
B(  1-C , 24-H ) :   0.9736 B(  2-O ,  3-C ) :   1.1699 B(  3-C ,  4-O ) :   1.9701
B(  3-C ,  5-C ) :   1.0624 B(  5-C ,  6-C ) :   1.6334 B(  5-C , 12-C ) :   0.9544
B(  6-C ,  7-C ) :   0.9654 B(  6-C ,  8-N ) :   1.1587 B(  7-C , 25-H ) :   0.9613
B(  7-C , 26-H ) :   0.9586 B(  7-C , 27-H ) :   0.9903 B(  8-N ,  9-C ) :   1.1870
B(  8-N , 28-H ) :   0.9465 B(  9-C , 10-S ) :   1.6020 B(  9-C , 11-N ) :   1.3123
B( 11-N , 12-C ) :   0.9603 B( 11-N , 29-H ) :   0.9482 B( 12-C , 13-C ) :   0.9658
B( 12-C , 30-H ) :   1.0004 B( 13-C , 14-C ) :   1.3478 B( 13-C , 19-C ) :   1.3757
B( 14-C , 15-C ) :   1.3897 B( 14-C , 31-H ) :   0.9734 B( 15-C , 16-C ) :   1.3572
B( 15-C , 32-H ) :   0.9703 B( 16-C , 17-C ) :   1.3329 B( 16-C , 33-H ) :   0.9848
B( 17-C , 18-O ) :   1.1048 B( 17-C , 19-C ) :   1.3646 B( 18-O , 34-H ) :   0.9794
B( 19-C , 35-H ) :   0.9598

MP2 TOTAL ENERGY:    -1274.343367823 Eh
FINAL SINGLE POINT ENERGY     -1274.343367823451

DIPOLE MOMENT
-------------
                                X             Y             Z
Electronic contribution:      7.99083      11.45622       6.51927
Nuclear contribution   :     -8.89942     -13.20462      -6.80843
                        -----------------------------------------
Total Dipole Moment    :     -0.90859      -1.74840      -0.28916
                        -----------------------------------------
Magnitude (a.u.)       :      1.99150
Magnitude (Debye)      :      5.06198

Rotational constants in cm-1:     0.012404     0.008365     0.006048
Rotational constants in MHz :   371.862750   250.790885   181.303368

                             ****ORCA TERMINATED NORMALLY****
TOTAL RUN TIME: 0 days 1 hours 39 minutes 20 seconds 122 msec
