                         Program Version 4.2.0 -  RELEASE  -
|  1> ! ri-mp2 cc-pvtz cc-pvtz/c TightSCF NoKeepInts
|  2>
|  3> %scf
|  4>   MaxCore 4096
|  5> end
|  6> *xyz  0  1
|  7>     C       14.2402398   15.4855638   15.1524077
|  8>     C       15.3852897   15.5543611   16.1775533
|  9>     O       16.6014681   15.8230955   15.4523388
| 10>     C       17.0190841   17.1063945   15.2398718
| 11>     O       17.3332636   17.4766715   14.1238234
| 12>     C       17.0494005   17.9956344   16.4499324
| 13>     C       16.8719302   19.3290262   16.2810324
| 14>     C       16.2434514   20.0054394   15.0809241
| 15>     N       17.2635766   20.2439012   17.2596369
| 16>     C       18.0652830   19.9309427   18.3240228
| 17>     S       18.5994980   21.0794987   19.3869980
| 18>     N       18.4237071   18.6119948   18.4507070
| 19>     C       17.8865110   17.4989111   17.6435409
| 20>     C       17.2839319   16.3914342   18.4948736
| 21>     C       17.7822298   15.0778408   18.4177329
| 22>     C       17.2222917   14.0559950   19.2026967
| 23>     C       16.1610821   14.3518421   20.0755145
| 24>     C       15.6704508   15.6619483   20.1618843
| 25>     O       14.6446108   15.9503244   21.0010494
| 26>     C       16.2280552   16.6768554   19.3777624
| 27>     H       14.1178500   16.4473481   14.6387854
| 28>     H       13.2937640   15.2376872   15.6480306
| 29>     H       14.4445346   14.7157760   14.3974522
| 30>     H       15.1604517   16.3213090   16.9275242
| 31>     H       15.4679796   14.5853277   16.6868542
| 32>     H       15.4534852   19.3822881   14.6434975
| 33>     H       16.9960511   20.1723797   14.2989994
| 34>     H       15.7926187   20.9730742   15.3313219
| 35>     H       17.0434206   21.2212491   17.1505927
| 36>     H       19.0052927   18.4092263   19.2543893
| 37>     H       18.8238442   17.1430258   17.1916305
| 38>     H       18.5986259   14.8455642   17.7380043
| 39>     H       17.6109875   13.0410858   19.1331138
| 40>     H       15.7260551   13.5652436   20.6837303
| 41>     H       14.4376961   15.1449320   21.4992992
| 42>     H       15.8389877   17.6868083   19.4604711
| 43> *
| 44>
| 45>                          ****END OF INPUT****

CARTESIAN COORDINATES (ANGSTROEM)
---------------------------------
  C     14.240240   15.485564   15.152408
  C     15.385290   15.554361   16.177553
  O     16.601468   15.823096   15.452339
  C     17.019084   17.106395   15.239872
  O     17.333264   17.476671   14.123823
  C     17.049400   17.995634   16.449932
  C     16.871930   19.329026   16.281032
  C     16.243451   20.005439   15.080924
  N     17.263577   20.243901   17.259637
  C     18.065283   19.930943   18.324023
  S     18.599498   21.079499   19.386998
  N     18.423707   18.611995   18.450707
  C     17.886511   17.498911   17.643541
  C     17.283932   16.391434   18.494874
  C     17.782230   15.077841   18.417733
  C     17.222292   14.055995   19.202697
  C     16.161082   14.351842   20.075514
  C     15.670451   15.661948   20.161884
  O     14.644611   15.950324   21.001049
  C     16.228055   16.676855   19.377762
  H     14.117850   16.447348   14.638785
  H     13.293764   15.237687   15.648031
  H     14.444535   14.715776   14.397452
  H     15.160452   16.321309   16.927524
  H     15.467980   14.585328   16.686854
  H     15.453485   19.382288   14.643498
  H     16.996051   20.172380   14.298999
  H     15.792619   20.973074   15.331322
  H     17.043421   21.221249   17.150593
  H     19.005293   18.409226   19.254389
  H     18.823844   17.143026   17.191630
  H     18.598626   14.845564   17.738004
  H     17.610988   13.041086   19.133114
  H     15.726055   13.565244   20.683730
  H     14.437696   15.144932   21.499299
  H     15.838988   17.686808   19.460471

 Total Charge           Charge          ....    0
 Multiplicity           Mult            ....    1
 Number of Electrons    NEL             ....  154
 Basis Dimension        Dim             ....  828

ORBITAL ENERGIES
----------------

  NO   OCC          E(Eh)            E(eV)
   0   2.0000     -91.891323     -2500.4900
   1   2.0000     -20.604126      -560.6668
   2   2.0000     -20.591755      -560.3301
   3   2.0000     -20.549414      -559.1780
   4   2.0000     -15.629464      -425.2993
   5   2.0000     -15.611077      -424.7990
   6   2.0000     -11.393889      -310.0435
   7   2.0000     -11.386218      -309.8347
   8   2.0000     -11.334318      -308.4225
   9   2.0000     -11.322280      -308.0949
  10   2.0000     -11.316256      -307.9310
  11   2.0000     -11.297332      -307.4160
  12   2.0000     -11.268750      -306.6383
  13   2.0000     -11.263125      -306.4852
  14   2.0000     -11.258510      -306.3596
  15   2.0000     -11.255480      -306.2772
  16   2.0000     -11.252397      -306.1933
  17   2.0000     -11.246868      -306.0428
  18   2.0000     -11.246702      -306.0383
  19   2.0000     -11.227145      -305.5061
  20   2.0000      -8.896380      -242.0828
  21   2.0000      -6.577947      -178.9950
  22   2.0000      -6.575952      -178.9408
  23   2.0000      -6.575357      -178.9246
  24   2.0000      -1.446624       -39.3646
  25   2.0000      -1.423910       -38.7466
  26   2.0000      -1.357750       -36.9463
  27   2.0000      -1.342132       -36.5213
  28   2.0000      -1.241363       -33.7792
  29   2.0000      -1.165430       -31.7130
  30   2.0000      -1.124315       -30.5942
  31   2.0000      -1.049990       -28.5717
  32   2.0000      -1.033639       -28.1268
  33   2.0000      -1.023539       -27.8519
  34   2.0000      -1.002447       -27.2780
  35   2.0000      -0.989160       -26.9164
  36   2.0000      -0.926988       -25.2246
  37   2.0000      -0.884440       -24.0668
  38   2.0000      -0.852089       -23.1865
  39   2.0000      -0.844460       -22.9789
  40   2.0000      -0.842549       -22.9269
  41   2.0000      -0.835014       -22.7219
  42   2.0000      -0.757494       -20.6125
  43   2.0000      -0.739010       -20.1095
  44   2.0000      -0.720140       -19.5960
  45   2.0000      -0.702628       -19.1195
  46   2.0000      -0.692291       -18.8382
  47   2.0000      -0.678238       -18.4558
  48   2.0000      -0.674411       -18.3517
  49   2.0000      -0.670472       -18.2445
  50   2.0000      -0.649411       -17.6714
  51   2.0000      -0.648853       -17.6562
  52   2.0000      -0.636356       -17.3161
  53   2.0000      -0.613812       -16.7027
  54   2.0000      -0.608786       -16.5659
  55   2.0000      -0.603509       -16.4223
  56   2.0000      -0.600274       -16.3343
  57   2.0000      -0.583091       -15.8667
  58   2.0000      -0.576890       -15.6980
  59   2.0000      -0.569414       -15.4946
  60   2.0000      -0.559770       -15.2321
  61   2.0000      -0.551831       -15.0161
  62   2.0000      -0.545177       -14.8350
  63   2.0000      -0.529686       -14.4135
  64   2.0000      -0.523475       -14.2445
  65   2.0000      -0.517342       -14.0776
  66   2.0000      -0.505411       -13.7529
  67   2.0000      -0.500273       -13.6131
  68   2.0000      -0.486635       -13.2420
  69   2.0000      -0.467452       -12.7200
  70   2.0000      -0.453901       -12.3513
  71   2.0000      -0.448540       -12.2054
  72   2.0000      -0.358515        -9.7557
  73   2.0000      -0.352369        -9.5884
  74   2.0000      -0.331495        -9.0204
  75   2.0000      -0.329106        -8.9554
  76   2.0000      -0.321396        -8.7456
  77   0.0000       0.078107         2.1254
  78   0.0000       0.094762         2.5786
  79   0.0000       0.120242         3.2720
  80   0.0000       0.127126         3.4593
  81   0.0000       0.128081         3.4853

MULLIKEN ATOMIC CHARGES
-----------------------
   0 C :   -0.260839
   1 C :    0.011835
   2 O :   -0.338589
   3 C :    0.416962
   4 O :   -0.373182
   5 C :   -0.242552
   6 C :    0.158433
   7 C :   -0.273273
   8 N :   -0.130819
   9 C :    0.209328
  10 S :   -0.437932
  11 N :   -0.209198
  12 C :    0.037616
  13 C :    0.001598
  14 C :   -0.166075
  15 C :   -0.150145
  16 C :   -0.267825
  17 C :    0.306507
  18 O :   -0.354600
  19 C :   -0.229464
  20 H :    0.088390
  21 H :    0.092154
  22 H :    0.106172
  23 H :    0.102349
  24 H :    0.119872
  25 H :    0.118823
  26 H :    0.141189
  27 H :    0.096671
  28 H :    0.199323
  29 H :    0.200052
  30 H :    0.156251
  31 H :    0.152472
  32 H :    0.166642
  33 H :    0.135538
  34 H :    0.241800
  35 H :    0.174516
Sum of atomic charges:   -0.0000000

LOEWDIN ATOMIC CHARGES
----------------------
   0 C :    0.105849
   1 C :   -0.025762
   2 O :    0.304636
   3 C :   -0.425856
   4 O :    0.125554
   5 C :   -0.102927
   6 C :   -0.069127
   7 C :    0.129391
   8 N :    0.406417
   9 C :   -0.456519
  10 S :   -0.033643
  11 N :    0.395354
  12 C :   -0.053584
  13 C :   -0.043804
  14 C :    0.021787
  15 C :    0.042686
  16 C :    0.001140
  17 C :   -0.192086
  18 O :    0.396657
  19 C :    0.033111
  20 H :   -0.030095
  21 H :   -0.027277
  22 H :   -0.023325
  23 H :   -0.038261
  24 H :   -0.022690
  25 H :   -0.008880
  26 H :   -0.003836
  27 H :   -0.021718
  28 H :   -0.056554
  29 H :   -0.063426
  30 H :   -0.010757
  31 H :   -0.026098
  32 H :   -0.018868
  33 H :   -0.033561
  34 H :   -0.152270
  35 H :   -0.021657

  Mayer bond orders larger than 0.100000
B(  0-C ,  1-C ) :   0.9821 B(  0-C , 20-H ) :   0.9767 B(  0-C , 21-H ) :   0.9773
B(  0-C , 22-H ) :   0.9795 B(  1-C ,  2-O ) :   0.8801 B(  1-C , 23-H ) :   0.9577
B(  1-C , 24-H ) :   0.9770 B(  2-O ,  3-C ) :   1.1572 B(  3-C ,  4-O ) :   2.1086
B(  3-C ,  5-C ) :   0.9610 B(  5-C ,  6-C ) :   1.6680 B(  5-C , 12-C ) :   0.9592
B(  6-C ,  7-C ) :   0.9550 B(  6-C ,  8-N ) :   1.1406 B(  7-C , 25-H ) :   0.9736
B(  7-C , 26-H ) :   0.9547 B(  7-C , 27-H ) :   0.9848 B(  8-N ,  9-C ) :   1.1921
B(  8-N , 28-H ) :   0.9485 B(  9-C , 10-S ) :   1.6148 B(  9-C , 11-N ) :   1.2935
B( 11-N , 12-C ) :   0.9806 B( 11-N , 29-H ) :   0.9475 B( 12-C , 13-C ) :   0.9631
B( 12-C , 30-H ) :   1.0068 B( 13-C , 14-C ) :   1.3584 B( 13-C , 19-C ) :   1.3531
B( 14-C , 15-C ) :   1.3984 B( 14-C , 31-H ) :   0.9738 B( 15-C , 16-C ) :   1.3602
B( 15-C , 32-H ) :   0.9696 B( 16-C , 17-C ) :   1.3290 B( 16-C , 33-H ) :   0.9830
B( 17-C , 18-O ) :   1.1105 B( 17-C , 19-C ) :   1.3663 B( 18-O , 34-H ) :   0.9787
B( 19-C , 35-H ) :   0.9578

MP2 TOTAL ENERGY:    -1274.325242131 Eh
FINAL SINGLE POINT ENERGY     -1274.325242130617

DIPOLE MOMENT
-------------
                                X             Y             Z
Electronic contribution:     10.12823       8.26527       7.78881
Nuclear contribution   :    -11.48813      -9.87936      -7.49938
                        -----------------------------------------
Total Dipole Moment    :     -1.35990      -1.61409       0.28944
                        -----------------------------------------
Magnitude (a.u.)       :      2.13035
Magnitude (Debye)      :      5.41491

Rotational constants in cm-1:     0.011745     0.009043     0.006087
Rotational constants in MHz :   352.101872   271.094074   182.486896

                             ****ORCA TERMINATED NORMALLY****
TOTAL RUN TIME: 0 days 1 hours 46 minutes 54 seconds 364 msec
