                         Program Version 4.2.0 -  RELEASE  -
|  1> ! ri-mp2 cc-pvtz cc-pvtz/c TightSCF NoKeepInts
|  2>
|  3> %scf
|  4>   MaxCore 4096
|  5> end
|  6> *xyz  0  1
|  7>     C       14.8367851   14.2989430   16.4760030
|  8>     C       15.2618216   15.7123259   16.0389022
|  9>     O       16.6497772   15.6932462   15.6604933
| 10>     C       17.1556342   16.8883627   15.2505076
| 11>     O       17.4241649   17.0713896   14.0775904
| 12>     C       17.2542875   17.9415860   16.3184290
| 13>     C       17.1905804   19.2453024   15.9502549
| 14>     C       16.6557377   19.8005822   14.6443738
| 15>     N       17.5940683   20.2612893   16.8126767
| 16>     C       18.2613826   20.0531816   17.9884524
| 17>     S       18.7955964   21.3102267   18.9195844
| 18>     N       18.4674023   18.7452095   18.3541987
| 19>     C       17.9406485   17.5608416   17.6467846
| 20>     C       17.1471891   16.6283616   18.5534361
| 21>     C       17.4621954   15.2583531   18.6131558
| 22>     C       16.6360072   14.3671219   19.3187321
| 23>     C       15.4817987   14.8506312   19.9595344
| 24>     C       15.2152520   16.2270588   19.9752393
| 25>     O       14.1107696   16.6946776   20.6095888
| 26>     C       16.0514284   17.1151833   19.2891131
| 27>     H       14.5959410   13.6904133   15.5980674
| 28>     H       13.9470562   14.3415029   17.1151204
| 29>     H       15.6296615   13.7869640   17.0284851
| 30>     H       14.6360567   16.0649514   15.2090023
| 31>     H       15.1150384   16.4008049   16.8793998
| 32>     H       17.4677644   19.9278144   13.9171031
| 33>     H       16.1540875   20.7672691   14.7767974
| 34>     H       15.9198569   19.1268016   14.1891485
| 35>     H       17.4745383   21.2229374   16.5373458
| 36>     H       18.9075439   18.6264799   19.2576388
| 37>     H       18.8851276   17.0794067   17.3510918
| 38>     H       18.3139568   14.8735368   18.0569513
| 39>     H       16.8537211   13.2996121   19.3034156
| 40>     H       14.7966940   14.1558032   20.4358211
| 41>     H       13.6762166   15.9357588   21.0285506
| 42>     H       15.8212121   18.1760696   19.2970101
| 43> *
| 44>
| 45>                          ****END OF INPUT****

CARTESIAN COORDINATES (ANGSTROEM)
---------------------------------
  C     14.836785   14.298943   16.476003
  C     15.261822   15.712326   16.038902
  O     16.649777   15.693246   15.660493
  C     17.155634   16.888363   15.250508
  O     17.424165   17.071390   14.077590
  C     17.254288   17.941586   16.318429
  C     17.190580   19.245302   15.950255
  C     16.655738   19.800582   14.644374
  N     17.594068   20.261289   16.812677
  C     18.261383   20.053182   17.988452
  S     18.795596   21.310227   18.919584
  N     18.467402   18.745210   18.354199
  C     17.940648   17.560842   17.646785
  C     17.147189   16.628362   18.553436
  C     17.462195   15.258353   18.613156
  C     16.636007   14.367122   19.318732
  C     15.481799   14.850631   19.959534
  C     15.215252   16.227059   19.975239
  O     14.110770   16.694678   20.609589
  C     16.051428   17.115183   19.289113
  H     14.595941   13.690413   15.598067
  H     13.947056   14.341503   17.115120
  H     15.629661   13.786964   17.028485
  H     14.636057   16.064951   15.209002
  H     15.115038   16.400805   16.879400
  H     17.467764   19.927814   13.917103
  H     16.154087   20.767269   14.776797
  H     15.919857   19.126802   14.189148
  H     17.474538   21.222937   16.537346
  H     18.907544   18.626480   19.257639
  H     18.885128   17.079407   17.351092
  H     18.313957   14.873537   18.056951
  H     16.853721   13.299612   19.303416
  H     14.796694   14.155803   20.435821
  H     13.676217   15.935759   21.028551
  H     15.821212   18.176070   19.297010

 Total Charge           Charge          ....    0
 Multiplicity           Mult            ....    1
 Number of Electrons    NEL             ....  154
 Basis Dimension        Dim             ....  828

ORBITAL ENERGIES
----------------

  NO   OCC          E(Eh)            E(eV)
   0   2.0000     -91.891609     -2500.4978
   1   2.0000     -20.603751      -560.6566
   2   2.0000     -20.586937      -560.1990
   3   2.0000     -20.552338      -559.2575
   4   2.0000     -15.629389      -425.2973
   5   2.0000     -15.611624      -424.8139
   6   2.0000     -11.391951      -309.9907
   7   2.0000     -11.386781      -309.8501
   8   2.0000     -11.334682      -308.4324
   9   2.0000     -11.321475      -308.0730
  10   2.0000     -11.317234      -307.9576
  11   2.0000     -11.297518      -307.4211
  12   2.0000     -11.268728      -306.6377
  13   2.0000     -11.261716      -306.4469
  14   2.0000     -11.259552      -306.3880
  15   2.0000     -11.255189      -306.2693
  16   2.0000     -11.250865      -306.1516
  17   2.0000     -11.246710      -306.0385
  18   2.0000     -11.245348      -306.0015
  19   2.0000     -11.226827      -305.4975
  20   2.0000      -8.896691      -242.0913
  21   2.0000      -6.578261      -179.0036
  22   2.0000      -6.576263      -178.9492
  23   2.0000      -6.575666      -178.9330
  24   2.0000      -1.450289       -39.4644
  25   2.0000      -1.423378       -38.7321
  26   2.0000      -1.358278       -36.9606
  27   2.0000      -1.342884       -36.5417
  28   2.0000      -1.241960       -33.7954
  29   2.0000      -1.164597       -31.6903
  30   2.0000      -1.123470       -30.5712
  31   2.0000      -1.048792       -28.5391
  32   2.0000      -1.033640       -28.1268
  33   2.0000      -1.022879       -27.8339
  34   2.0000      -1.001461       -27.2511
  35   2.0000      -0.989218       -26.9180
  36   2.0000      -0.927025       -25.2256
  37   2.0000      -0.875869       -23.8336
  38   2.0000      -0.851726       -23.1767
  39   2.0000      -0.843778       -22.9604
  40   2.0000      -0.841207       -22.8904
  41   2.0000      -0.837836       -22.7987
  42   2.0000      -0.762729       -20.7549
  43   2.0000      -0.739057       -20.1107
  44   2.0000      -0.727666       -19.8008
  45   2.0000      -0.701552       -19.0902
  46   2.0000      -0.690462       -18.7884
  47   2.0000      -0.682354       -18.5678
  48   2.0000      -0.675747       -18.3880
  49   2.0000      -0.658559       -17.9203
  50   2.0000      -0.649473       -17.6731
  51   2.0000      -0.643504       -17.5106
  52   2.0000      -0.639880       -17.4120
  53   2.0000      -0.619621       -16.8607
  54   2.0000      -0.611123       -16.6295
  55   2.0000      -0.605823       -16.4853
  56   2.0000      -0.603266       -16.4157
  57   2.0000      -0.582217       -15.8429
  58   2.0000      -0.574865       -15.6429
  59   2.0000      -0.567333       -15.4379
  60   2.0000      -0.556394       -15.1402
  61   2.0000      -0.548001       -14.9119
  62   2.0000      -0.537684       -14.6311
  63   2.0000      -0.529142       -14.3987
  64   2.0000      -0.525954       -14.3119
  65   2.0000      -0.516365       -14.0510
  66   2.0000      -0.507034       -13.7971
  67   2.0000      -0.500634       -13.6229
  68   2.0000      -0.482864       -13.1394
  69   2.0000      -0.466241       -12.6871
  70   2.0000      -0.461160       -12.5488
  71   2.0000      -0.451710       -12.2917
  72   2.0000      -0.357257        -9.7215
  73   2.0000      -0.352062        -9.5801
  74   2.0000      -0.330939        -9.0053
  75   2.0000      -0.327625        -8.9151
  76   2.0000      -0.321470        -8.7476
  77   0.0000       0.076973         2.0946
  78   0.0000       0.095709         2.6044
  79   0.0000       0.118001         3.2110
  80   0.0000       0.125781         3.4227
  81   0.0000       0.126446         3.4408

MULLIKEN ATOMIC CHARGES
-----------------------
   0 C :   -0.295426
   1 C :    0.015245
   2 O :   -0.343241
   3 C :    0.434234
   4 O :   -0.370940
   5 C :   -0.252824
   6 C :    0.159329
   7 C :   -0.271525
   8 N :   -0.126034
   9 C :    0.209168
  10 S :   -0.437322
  11 N :   -0.215868
  12 C :    0.045063
  13 C :    0.001389
  14 C :   -0.152514
  15 C :   -0.159186
  16 C :   -0.276435
  17 C :    0.310474
  18 O :   -0.357114
  19 C :   -0.236624
  20 H :    0.114815
  21 H :    0.095653
  22 H :    0.108842
  23 H :    0.111964
  24 H :    0.101616
  25 H :    0.135434
  26 H :    0.096608
  27 H :    0.121510
  28 H :    0.199411
  29 H :    0.200412
  30 H :    0.154587
  31 H :    0.154016
  32 H :    0.170836
  33 H :    0.137273
  34 H :    0.241906
  35 H :    0.175267
Sum of atomic charges:   -0.0000000

LOEWDIN ATOMIC CHARGES
----------------------
   0 C :    0.113232
   1 C :   -0.023170
   2 O :    0.298684
   3 C :   -0.427774
   4 O :    0.130763
   5 C :   -0.098636
   6 C :   -0.068788
   7 C :    0.129264
   8 N :    0.407414
   9 C :   -0.456268
  10 S :   -0.032630
  11 N :    0.394373
  12 C :   -0.050905
  13 C :   -0.043814
  14 C :    0.023403
  15 C :    0.045948
  16 C :    0.003066
  17 C :   -0.193116
  18 O :    0.395443
  19 C :    0.031502
  20 H :   -0.028834
  21 H :   -0.026111
  22 H :   -0.028539
  23 H :   -0.031697
  24 H :   -0.039826
  25 H :   -0.005816
  26 H :   -0.020997
  27 H :   -0.008731
  28 H :   -0.055389
  29 H :   -0.064611
  30 H :   -0.011963
  31 H :   -0.026622
  32 H :   -0.019989
  33 H :   -0.034495
  34 H :   -0.152187
  35 H :   -0.022186

  Mayer bond orders larger than 0.100000
B(  0-C ,  1-C ) :   0.9682 B(  0-C , 20-H ) :   0.9845 B(  0-C , 21-H ) :   0.9773
B(  0-C , 22-H ) :   0.9712 B(  1-C ,  2-O ) :   0.8894 B(  1-C , 23-H ) :   0.9816
B(  1-C , 24-H ) :   0.9619 B(  2-O ,  3-C ) :   1.1344 B(  3-C ,  4-O ) :   2.1135
B(  3-C ,  5-C ) :   0.9746 B(  5-C ,  6-C ) :   1.6582 B(  5-C , 12-C ) :   0.9591
B(  6-C ,  7-C ) :   0.9599 B(  6-C ,  8-N ) :   1.1440 B(  7-C , 25-H ) :   0.9569
B(  7-C , 26-H ) :   0.9825 B(  7-C , 27-H ) :   0.9725 B(  8-N ,  9-C ) :   1.1929
B(  8-N , 28-H ) :   0.9489 B(  9-C , 10-S ) :   1.6153 B(  9-C , 11-N ) :   1.2925
B( 11-N , 12-C ) :   0.9844 B( 11-N , 29-H ) :   0.9471 B( 12-C , 13-C ) :   0.9609
B( 12-C , 30-H ) :   1.0035 B( 13-C , 14-C ) :   1.3672 B( 13-C , 19-C ) :   1.3564
B( 14-C , 15-C ) :   1.3865 B( 14-C , 31-H ) :   0.9699 B( 15-C , 16-C ) :   1.3521
B( 15-C , 32-H ) :   0.9721 B( 16-C , 17-C ) :   1.3311 B( 16-C , 33-H ) :   0.9831
B( 17-C , 18-O ) :   1.1074 B( 17-C , 19-C ) :   1.3622 B( 18-O , 34-H ) :   0.9784
B( 19-C , 35-H ) :   0.9589

MP2 TOTAL ENERGY:    -1274.322487957 Eh
FINAL SINGLE POINT ENERGY     -1274.322487957016

DIPOLE MOMENT
-------------
                                X             Y             Z
Electronic contribution:      9.56451      10.83148       5.11605
Nuclear contribution   :    -11.08145     -12.30856      -4.95612
                        -----------------------------------------
Total Dipole Moment    :     -1.51694      -1.47708       0.15993
                        -----------------------------------------
Magnitude (a.u.)       :      2.12331
Magnitude (Debye)      :      5.39703

Rotational constants in cm-1:     0.013325     0.008572     0.006109
Rotational constants in MHz :   399.470700   256.984744   183.129190

                             ****ORCA TERMINATED NORMALLY****
TOTAL RUN TIME: 0 days 1 hours 49 minutes 36 seconds 116 msec
