                         Program Version 4.2.0 -  RELEASE  -
|  1> ! ri-mp2 cc-pvtz cc-pvtz/c TightSCF NoKeepInts
|  2>
|  3> %scf
|  4>   MaxCore 4096
|  5> end
|  6> *xyz  0  1
|  7>     C       14.6306333   14.9989262   14.2006562
|  8>     C       15.6050037   14.7378117   15.3689561
|  9>     O       16.3133197   15.8947015   15.8887437
| 10>     C       16.0372406   17.2269674   15.6951967
| 11>     O       15.2682612   17.6544995   14.8534223
| 12>     C       16.7827338   18.0965857   16.6759039
| 13>     C       16.8744678   19.4395064   16.4892305
| 14>     C       16.0904221   20.2881004   15.5089583
| 15>     N       17.7714329   20.2110329   17.2318768
| 16>     C       18.7447215   19.6993612   18.0461000
| 17>     S       19.8370468   20.6686493   18.8227729
| 18>     N       18.7816313   18.3339213   18.1683905
| 19>     C       17.7907708   17.3972422   17.6059288
| 20>     C       17.1505840   16.5178037   18.6724460
| 21>     C       17.4755069   15.1517663   18.7645402
| 22>     C       16.8853191   14.3429431   19.7503585
| 23>     C       15.9660788   14.9059343   20.6523783
| 24>     C       15.6448681   16.2677642   20.5652806
| 25>     O       14.7594604   16.8141356   21.4362575
| 26>     C       16.2339262   17.0700741   19.5830687
| 27>     H       13.7842701   15.6194076   14.5209571
| 28>     H       14.2228393   14.0513731   13.8288919
| 29>     H       15.1404410   15.4955384   13.3654873
| 30>     H       15.0313252   14.2894061   16.1905582
| 31>     H       16.3441827   13.9908064   15.0527303
| 32>     H       15.0125654   20.1187087   15.6284886
| 33>     H       16.3508734   20.0258302   14.4756380
| 34>     H       16.2663968   21.3631413   15.6323224
| 35>     H       17.7687022   21.2136745   17.1339702
| 36>     H       19.4894219   17.9873313   18.8033811
| 37>     H       18.4386878   16.8004495   16.9484863
| 38>     H       18.1833166   14.7154610   18.0649169
| 39>     H       17.1408549   13.2866860   19.8138404
| 40>     H       15.5081055   14.2857836   21.4158937
| 41>     H       14.4827596   16.1152645   22.0476262
| 42>     H       15.9788285   18.1234110   19.5343449
| 43> *
| 44>
| 45>                          ****END OF INPUT****

CARTESIAN COORDINATES (ANGSTROEM)
---------------------------------
  C     14.630633   14.998926   14.200656
  C     15.605004   14.737812   15.368956
  O     16.313320   15.894702   15.888744
  C     16.037241   17.226967   15.695197
  O     15.268261   17.654499   14.853422
  C     16.782734   18.096586   16.675904
  C     16.874468   19.439506   16.489231
  C     16.090422   20.288100   15.508958
  N     17.771433   20.211033   17.231877
  C     18.744722   19.699361   18.046100
  S     19.837047   20.668649   18.822773
  N     18.781631   18.333921   18.168390
  C     17.790771   17.397242   17.605929
  C     17.150584   16.517804   18.672446
  C     17.475507   15.151766   18.764540
  C     16.885319   14.342943   19.750359
  C     15.966079   14.905934   20.652378
  C     15.644868   16.267764   20.565281
  O     14.759460   16.814136   21.436257
  C     16.233926   17.070074   19.583069
  H     13.784270   15.619408   14.520957
  H     14.222839   14.051373   13.828892
  H     15.140441   15.495538   13.365487
  H     15.031325   14.289406   16.190558
  H     16.344183   13.990806   15.052730
  H     15.012565   20.118709   15.628489
  H     16.350873   20.025830   14.475638
  H     16.266397   21.363141   15.632322
  H     17.768702   21.213674   17.133970
  H     19.489422   17.987331   18.803381
  H     18.438688   16.800449   16.948486
  H     18.183317   14.715461   18.064917
  H     17.140855   13.286686   19.813840
  H     15.508105   14.285784   21.415894
  H     14.482760   16.115264   22.047626
  H     15.978829   18.123411   19.534345

 Total Charge           Charge          ....    0
 Multiplicity           Mult            ....    1
 Number of Electrons    NEL             ....  154
 Basis Dimension        Dim             ....  828

ORBITAL ENERGIES
----------------

  NO   OCC          E(Eh)            E(eV)
   0   2.0000     -91.887712     -2500.3918
   1   2.0000     -20.597429      -560.4845
   2   2.0000     -20.595923      -560.4436
   3   2.0000     -20.539317      -558.9032
   4   2.0000     -15.627877      -425.2561
   5   2.0000     -15.605682      -424.6522
   6   2.0000     -11.398241      -310.1619
   7   2.0000     -11.382210      -309.7257
   8   2.0000     -11.335937      -308.4665
   9   2.0000     -11.312980      -307.8418
  10   2.0000     -11.305929      -307.6500
  11   2.0000     -11.303351      -307.5798
  12   2.0000     -11.259948      -306.3988
  13   2.0000     -11.258190      -306.3509
  14   2.0000     -11.254553      -306.2519
  15   2.0000     -11.250570      -306.1436
  16   2.0000     -11.242768      -305.9313
  17   2.0000     -11.237965      -305.8006
  18   2.0000     -11.237912      -305.7991
  19   2.0000     -11.222474      -305.3790
  20   2.0000      -8.892796      -241.9853
  21   2.0000      -6.574373      -178.8978
  22   2.0000      -6.572372      -178.8433
  23   2.0000      -6.571784      -178.8273
  24   2.0000      -1.441737       -39.2317
  25   2.0000      -1.415568       -38.5196
  26   2.0000      -1.353755       -36.8375
  27   2.0000      -1.339202       -36.4415
  28   2.0000      -1.237069       -33.6624
  29   2.0000      -1.156525       -31.4706
  30   2.0000      -1.119257       -30.4565
  31   2.0000      -1.041661       -28.3450
  32   2.0000      -1.036587       -28.2070
  33   2.0000      -1.014182       -27.5973
  34   2.0000      -0.994958       -27.0742
  35   2.0000      -0.982916       -26.7465
  36   2.0000      -0.920598       -25.0508
  37   2.0000      -0.897432       -24.4204
  38   2.0000      -0.845889       -23.0178
  39   2.0000      -0.837324       -22.7847
  40   2.0000      -0.833370       -22.6771
  41   2.0000      -0.817862       -22.2551
  42   2.0000      -0.744611       -20.2619
  43   2.0000      -0.730983       -19.8911
  44   2.0000      -0.716733       -19.5033
  45   2.0000      -0.694493       -18.8981
  46   2.0000      -0.686720       -18.6866
  47   2.0000      -0.675445       -18.3798
  48   2.0000      -0.667955       -18.1760
  49   2.0000      -0.662438       -18.0259
  50   2.0000      -0.647658       -17.6237
  51   2.0000      -0.643271       -17.5043
  52   2.0000      -0.634035       -17.2530
  53   2.0000      -0.606260       -16.4972
  54   2.0000      -0.600387       -16.3374
  55   2.0000      -0.598519       -16.2865
  56   2.0000      -0.596726       -16.2377
  57   2.0000      -0.581696       -15.8288
  58   2.0000      -0.575117       -15.6497
  59   2.0000      -0.568762       -15.4768
  60   2.0000      -0.560910       -15.2631
  61   2.0000      -0.539524       -14.6812
  62   2.0000      -0.535137       -14.5618
  63   2.0000      -0.524270       -14.2661
  64   2.0000      -0.522741       -14.2245
  65   2.0000      -0.511583       -13.9209
  66   2.0000      -0.501467       -13.6456
  67   2.0000      -0.496693       -13.5157
  68   2.0000      -0.482892       -13.1402
  69   2.0000      -0.462054       -12.5731
  70   2.0000      -0.450299       -12.2533
  71   2.0000      -0.439419       -11.9572
  72   2.0000      -0.351589        -9.5672
  73   2.0000      -0.348856        -9.4928
  74   2.0000      -0.326990        -8.8978
  75   2.0000      -0.320400        -8.7185
  76   2.0000      -0.316941        -8.6244
  77   0.0000       0.078733         2.1424
  78   0.0000       0.106323         2.8932
  79   0.0000       0.124675         3.3926
  80   0.0000       0.133608         3.6357
  81   0.0000       0.137305         3.7363

MULLIKEN ATOMIC CHARGES
-----------------------
   0 C :   -0.283757
   1 C :    0.049085
   2 O :   -0.361316
   3 C :    0.432389
   4 O :   -0.433426
   5 C :   -0.210067
   6 C :    0.173823
   7 C :   -0.267738
   8 N :   -0.126196
   9 C :    0.211162
  10 S :   -0.444134
  11 N :   -0.215662
  12 C :    0.060617
  13 C :    0.050702
  14 C :   -0.183848
  15 C :   -0.133710
  16 C :   -0.277294
  17 C :    0.317097
  18 O :   -0.356960
  19 C :   -0.250052
  20 H :    0.111469
  21 H :    0.096141
  22 H :    0.106767
  23 H :    0.092777
  24 H :    0.091367
  25 H :    0.132909
  26 H :    0.128456
  27 H :    0.094289
  28 H :    0.199532
  29 H :    0.200178
  30 H :    0.150707
  31 H :    0.151735
  32 H :    0.160336
  33 H :    0.129719
  34 H :    0.240438
  35 H :    0.162464
Sum of atomic charges:   -0.0000000

LOEWDIN ATOMIC CHARGES
----------------------
   0 C :    0.102137
   1 C :   -0.008562
   2 O :    0.295770
   3 C :   -0.412381
   4 O :    0.106680
   5 C :   -0.093827
   6 C :   -0.056814
   7 C :    0.130018
   8 N :    0.406883
   9 C :   -0.456922
  10 S :   -0.038172
  11 N :    0.394569
  12 C :   -0.055016
  13 C :   -0.038438
  14 C :    0.016544
  15 C :    0.038685
  16 C :   -0.001352
  17 C :   -0.189604
  18 O :    0.394964
  19 C :    0.033079
  20 H :   -0.025243
  21 H :   -0.028148
  22 H :   -0.025239
  23 H :   -0.027760
  24 H :   -0.027322
  25 H :   -0.004730
  26 H :   -0.005548
  27 H :   -0.023995
  28 H :   -0.057408
  29 H :   -0.064602
  30 H :   -0.014387
  31 H :   -0.029649
  32 H :   -0.021534
  33 H :   -0.035657
  34 H :   -0.154117
  35 H :   -0.022902

  Mayer bond orders larger than 0.100000
B(  0-C ,  1-C ) :   0.9854 B(  0-C , 20-H ) :   0.9732 B(  0-C , 21-H ) :   0.9735
B(  0-C , 22-H ) :   0.9740 B(  1-C ,  2-O ) :   0.8997 B(  1-C , 23-H ) :   0.9737
B(  1-C , 24-H ) :   0.9793 B(  2-O ,  3-C ) :   1.1422 B(  3-C ,  4-O ) :   1.9695
B(  3-C ,  5-C ) :   1.0752 B(  5-C ,  6-C ) :   1.6411 B(  5-C , 12-C ) :   0.9587
B(  6-C ,  7-C ) :   0.9654 B(  6-C ,  8-N ) :   1.1499 B(  7-C , 25-H ) :   0.9613
B(  7-C , 26-H ) :   0.9590 B(  7-C , 27-H ) :   0.9911 B(  8-N ,  9-C ) :   1.1887
B(  8-N , 28-H ) :   0.9465 B(  9-C , 10-S ) :   1.6033 B(  9-C , 11-N ) :   1.3107
B( 11-N , 12-C ) :   0.9650 B( 11-N , 29-H ) :   0.9485 B( 12-C , 13-C ) :   0.9640
B( 12-C , 30-H ) :   1.0011 B( 13-C , 14-C ) :   1.3506 B( 13-C , 19-C ) :   1.3822
B( 14-C , 15-C ) :   1.3947 B( 14-C , 31-H ) :   0.9724 B( 15-C , 16-C ) :   1.3593
B( 15-C , 32-H ) :   0.9708 B( 16-C , 17-C ) :   1.3339 B( 16-C , 33-H ) :   0.9853
B( 17-C , 18-O ) :   1.1042 B( 17-C , 19-C ) :   1.3647 B( 18-O , 34-H ) :   0.9800
B( 19-C , 35-H ) :   0.9597

MP2 TOTAL ENERGY:    -1274.331449687 Eh
FINAL SINGLE POINT ENERGY     -1274.331449687400

DIPOLE MOMENT
-------------
                                X             Y             Z
Electronic contribution:      9.41273       9.93881      10.15761
Nuclear contribution   :    -10.45486     -11.74635     -10.52425
                        -----------------------------------------
Total Dipole Moment    :     -1.04213      -1.80754      -0.36665
                        -----------------------------------------
Magnitude (a.u.)       :      2.11842
Magnitude (Debye)      :      5.38458

Rotational constants in cm-1:     0.010706     0.008751     0.005776
Rotational constants in MHz :   320.971462   262.358269   173.159361

                             ****ORCA TERMINATED NORMALLY****
TOTAL RUN TIME: 0 days 1 hours 42 minutes 33 seconds 867 msec
