                         Program Version 4.2.0 -  RELEASE  -
|  1> ! ri-mp2 cc-pvtz cc-pvtz/c TightSCF NoKeepInts
|  2>
|  3> %scf
|  4>   MaxCore 4096
|  5> end
|  6> *xyz  0  1
|  7>     C       14.4303102   16.6793303   16.1139125
|  8>     C       15.1168527   15.7328547   15.1057158
|  9>     O       16.5168862   15.9595484   14.7729473
| 10>     C       17.5347207   16.5618408   15.4775227
| 11>     O       18.6817094   16.1793642   15.3383045
| 12>     C       17.2028577   17.6282918   16.4611402
| 13>     C       16.8347546   18.8447664   15.9944472
| 14>     C       16.4978845   19.1867440   14.5566831
| 15>     N       16.8731834   19.9719127   16.8175680
| 16>     C       17.4955686   20.0089029   18.0377918
| 17>     S       17.6094232   21.4053240   18.9162399
| 18>     N       18.0498989   18.8319775   18.4786617
| 19>     C       17.8844833   17.5176422   17.8258039
| 20>     C       17.3018393   16.4205425   18.7044948
| 21>     C       17.7929822   15.1064486   18.6041189
| 22>     C       17.2508061   14.0789240   19.3937941
| 23>     C       16.2067112   14.3678110   20.2891515
| 24>     C       15.7121309   15.6756233   20.3877277
| 25>     O       14.6977984   15.9552482   21.2441479
| 26>     C       16.2534284   16.6968534   19.6001287
| 27>     H       14.8962236   16.6274346   17.1035680
| 28>     H       13.3857684   16.3711817   16.2454029
| 29>     H       14.4110272   17.7150786   15.7618662
| 30>     H       15.0395967   14.7182884   15.5186094
| 31>     H       14.5370793   15.7309983   14.1735935
| 32>     H       15.9483710   18.3831631   14.0543704
| 33>     H       17.4176378   19.3606362   13.9831442
| 34>     H       15.8812223   20.0906822   14.4814631
| 35>     H       16.5190821   20.8541351   16.4833463
| 36>     H       18.5073670   18.8864677   19.3801236
| 37>     H       18.9377908   17.2871618   17.6057559
| 38>     H       18.5957718   14.8809740   17.9045189
| 39>     H       17.6393639   13.0654001   19.3082702
| 40>     H       15.7845734   13.5768601   20.9003530
| 41>     H       14.4905459   15.1404962   21.7262995
| 42>     H       15.8513490   17.7010911   19.6870128
| 43> *
| 44>
| 45>                          ****END OF INPUT****

CARTESIAN COORDINATES (ANGSTROEM)
---------------------------------
  C     14.430310   16.679330   16.113913
  C     15.116853   15.732855   15.105716
  O     16.516886   15.959548   14.772947
  C     17.534721   16.561841   15.477523
  O     18.681709   16.179364   15.338304
  C     17.202858   17.628292   16.461140
  C     16.834755   18.844766   15.994447
  C     16.497885   19.186744   14.556683
  N     16.873183   19.971913   16.817568
  C     17.495569   20.008903   18.037792
  S     17.609423   21.405324   18.916240
  N     18.049899   18.831978   18.478662
  C     17.884483   17.517642   17.825804
  C     17.301839   16.420542   18.704495
  C     17.792982   15.106449   18.604119
  C     17.250806   14.078924   19.393794
  C     16.206711   14.367811   20.289151
  C     15.712131   15.675623   20.387728
  O     14.697798   15.955248   21.244148
  C     16.253428   16.696853   19.600129
  H     14.896224   16.627435   17.103568
  H     13.385768   16.371182   16.245403
  H     14.411027   17.715079   15.761866
  H     15.039597   14.718288   15.518609
  H     14.537079   15.730998   14.173593
  H     15.948371   18.383163   14.054370
  H     17.417638   19.360636   13.983144
  H     15.881222   20.090682   14.481463
  H     16.519082   20.854135   16.483346
  H     18.507367   18.886468   19.380124
  H     18.937791   17.287162   17.605756
  H     18.595772   14.880974   17.904519
  H     17.639364   13.065400   19.308270
  H     15.784573   13.576860   20.900353
  H     14.490546   15.140496   21.726299
  H     15.851349   17.701091   19.687013

 Total Charge           Charge          ....    0
 Multiplicity           Mult            ....    1
 Number of Electrons    NEL             ....  154
 Basis Dimension        Dim             ....  828

ORBITAL ENERGIES
----------------

  NO   OCC          E(Eh)            E(eV)
   0   2.0000     -91.889274     -2500.4343
   1   2.0000     -20.600754      -560.5750
   2   2.0000     -20.597510      -560.4867
   3   2.0000     -20.549130      -559.1703
   4   2.0000     -15.626816      -425.2273
   5   2.0000     -15.609382      -424.7529
   6   2.0000     -11.400394      -310.2205
   7   2.0000     -11.384932      -309.7997
   8   2.0000     -11.329029      -308.2786
   9   2.0000     -11.318481      -307.9915
  10   2.0000     -11.313395      -307.8531
  11   2.0000     -11.310159      -307.7651
  12   2.0000     -11.266552      -306.5785
  13   2.0000     -11.263949      -306.5076
  14   2.0000     -11.259172      -306.3776
  15   2.0000     -11.259086      -306.3753
  16   2.0000     -11.247104      -306.0493
  17   2.0000     -11.242981      -305.9371
  18   2.0000     -11.240855      -305.8792
  19   2.0000     -11.237576      -305.7900
  20   2.0000      -8.894372      -242.0282
  21   2.0000      -6.575954      -178.9408
  22   2.0000      -6.573944      -178.8861
  23   2.0000      -6.573361      -178.8702
  24   2.0000      -1.441849       -39.2347
  25   2.0000      -1.420464       -38.6528
  26   2.0000      -1.355919       -36.8964
  27   2.0000      -1.339490       -36.4494
  28   2.0000      -1.238364       -33.6976
  29   2.0000      -1.162264       -31.6268
  30   2.0000      -1.125960       -30.6389
  31   2.0000      -1.048853       -28.5408
  32   2.0000      -1.041463       -28.3396
  33   2.0000      -1.020391       -27.7663
  34   2.0000      -1.005008       -27.3477
  35   2.0000      -0.990489       -26.9526
  36   2.0000      -0.926653       -25.2155
  37   2.0000      -0.901744       -24.5377
  38   2.0000      -0.851616       -23.1736
  39   2.0000      -0.842127       -22.9154
  40   2.0000      -0.837843       -22.7989
  41   2.0000      -0.827551       -22.5188
  42   2.0000      -0.747874       -20.3507
  43   2.0000      -0.735323       -20.0092
  44   2.0000      -0.728762       -19.8306
  45   2.0000      -0.697960       -18.9924
  46   2.0000      -0.687950       -18.7201
  47   2.0000      -0.676923       -18.4200
  48   2.0000      -0.673460       -18.3258
  49   2.0000      -0.664816       -18.0906
  50   2.0000      -0.657049       -17.8792
  51   2.0000      -0.651567       -17.7300
  52   2.0000      -0.637224       -17.3397
  53   2.0000      -0.613953       -16.7065
  54   2.0000      -0.605755       -16.4834
  55   2.0000      -0.604454       -16.4480
  56   2.0000      -0.599534       -16.3141
  57   2.0000      -0.593289       -16.1442
  58   2.0000      -0.579109       -15.7584
  59   2.0000      -0.577930       -15.7263
  60   2.0000      -0.564457       -15.3597
  61   2.0000      -0.558016       -15.1844
  62   2.0000      -0.544296       -14.8110
  63   2.0000      -0.532330       -14.4854
  64   2.0000      -0.521967       -14.2034
  65   2.0000      -0.513908       -13.9842
  66   2.0000      -0.502368       -13.6701
  67   2.0000      -0.498131       -13.5548
  68   2.0000      -0.486125       -13.2281
  69   2.0000      -0.464131       -12.6297
  70   2.0000      -0.456109       -12.4113
  71   2.0000      -0.450246       -12.2518
  72   2.0000      -0.354641        -9.6503
  73   2.0000      -0.349585        -9.5127
  74   2.0000      -0.328834        -8.9480
  75   2.0000      -0.326132        -8.8745
  76   2.0000      -0.318707        -8.6725
  77   0.0000       0.086580         2.3559
  78   0.0000       0.103821         2.8251
  79   0.0000       0.116096         3.1591
  80   0.0000       0.122280         3.3274
  81   0.0000       0.129332         3.5193

MULLIKEN ATOMIC CHARGES
-----------------------
   0 C :   -0.334293
   1 C :    0.036172
   2 O :   -0.348313
   3 C :    0.435141
   4 O :   -0.380649
   5 C :   -0.222572
   6 C :    0.138661
   7 C :   -0.314177
   8 N :   -0.140533
   9 C :    0.211982
  10 S :   -0.443344
  11 N :   -0.234536
  12 C :    0.095483
  13 C :    0.021272
  14 C :   -0.237511
  15 C :   -0.129822
  16 C :   -0.276719
  17 C :    0.324865
  18 O :   -0.355501
  19 C :   -0.269074
  20 H :    0.127687
  21 H :    0.127196
  22 H :    0.098072
  23 H :    0.111792
  24 H :    0.112854
  25 H :    0.123462
  26 H :    0.148242
  27 H :    0.104143
  28 H :    0.196941
  29 H :    0.205234
  30 H :    0.169722
  31 H :    0.179380
  32 H :    0.165567
  33 H :    0.132496
  34 H :    0.241331
  35 H :    0.179352
Sum of atomic charges:   -0.0000000

LOEWDIN ATOMIC CHARGES
----------------------
   0 C :    0.102246
   1 C :   -0.012139
   2 O :    0.287417
   3 C :   -0.414652
   4 O :    0.121438
   5 C :   -0.083911
   6 C :   -0.090017
   7 C :    0.126011
   8 N :    0.403865
   9 C :   -0.455652
  10 S :   -0.038574
  11 N :    0.396683
  12 C :   -0.049475
  13 C :   -0.043631
  14 C :    0.017679
  15 C :    0.044915
  16 C :   -0.000686
  17 C :   -0.191116
  18 O :    0.396016
  19 C :    0.026822
  20 H :   -0.027786
  21 H :   -0.020092
  22 H :   -0.032814
  23 H :   -0.024197
  24 H :   -0.022851
  25 H :   -0.013776
  26 H :   -0.005017
  27 H :   -0.018305
  28 H :   -0.059337
  29 H :   -0.064134
  30 H :   -0.004071
  31 H :   -0.021346
  32 H :   -0.018274
  33 H :   -0.034786
  34 H :   -0.153007
  35 H :   -0.023444

  Mayer bond orders larger than 0.100000
B(  0-C ,  1-C ) :   0.9648 B(  0-C , 20-H ) :   0.9625 B(  0-C , 21-H ) :   0.9767
B(  0-C , 22-H ) :   0.9745 B(  1-C ,  2-O ) :   0.9033 B(  1-C , 23-H ) :   0.9794
B(  1-C , 24-H ) :   0.9804 B(  2-O ,  3-C ) :   1.1538 B(  3-C ,  4-O ) :   2.0887
B(  3-C ,  5-C ) :   0.9425 B(  5-C ,  6-C ) :   1.7163 B(  5-C , 12-C ) :   0.9206
B(  6-C ,  7-C ) :   0.9425 B(  6-C ,  8-N ) :   1.0993 B(  7-C , 25-H ) :   0.9758
B(  7-C , 26-H ) :   0.9631 B(  7-C , 27-H ) :   0.9810 B(  8-N ,  9-C ) :   1.1994
B(  8-N , 28-H ) :   0.9488 B(  9-C , 10-S ) :   1.6071 B(  9-C , 11-N ) :   1.2909
B( 11-N , 12-C ) :   0.9721 B( 11-N , 29-H ) :   0.9463 B( 12-C , 13-C ) :   0.9710
B( 12-C , 30-H ) :   0.9910 B( 13-C , 14-C ) :   1.3851 B( 13-C , 19-C ) :   1.3428
B( 14-C , 15-C ) :   1.3982 B( 14-C , 31-H ) :   0.9581 B( 15-C , 16-C ) :   1.3596
B( 15-C , 32-H ) :   0.9693 B( 16-C , 17-C ) :   1.3328 B( 16-C , 33-H ) :   0.9845
B( 17-C , 18-O ) :   1.1094 B( 17-C , 19-C ) :   1.3599 B( 18-O , 34-H ) :   0.9792
B( 19-C , 35-H ) :   0.9566

MP2 TOTAL ENERGY:    -1274.316803784 Eh
FINAL SINGLE POINT ENERGY     -1274.316803784154

DIPOLE MOMENT
-------------
                                X             Y             Z
Electronic contribution:      8.88879       6.28857       7.23302
Nuclear contribution   :    -10.56809      -7.74697      -7.65868
                        -----------------------------------------
Total Dipole Moment    :     -1.67930      -1.45840      -0.42566
                        -----------------------------------------
Magnitude (a.u.)       :      2.26455
Magnitude (Debye)      :      5.75602

Rotational constants in cm-1:     0.011480     0.009209     0.006439
Rotational constants in MHz :   344.150205   276.069882   193.046064

                             ****ORCA TERMINATED NORMALLY****
TOTAL RUN TIME: 0 days 1 hours 46 minutes 0 seconds 582 msec
