                         Program Version 4.2.0 -  RELEASE  -
|  1> ! ri-mp2 cc-pvtz cc-pvtz/c TightSCF NoKeepInts
|  2>
|  3> %scf
|  4>   MaxCore 4096
|  5> end
|  6> *xyz  0  1
|  7>     C       14.6327152   15.5934904   16.2498226
|  8>     C       14.9490667   16.3619994   14.9501922
|  9>     O       16.3455803   16.2253335   14.6027342
| 10>     C       17.3762811   16.4800872   15.4705975
| 11>     O       18.3628550   15.7673753   15.4930349
| 12>     C       17.2014002   17.6288581   16.4165226
| 13>     C       16.9134394   18.8714754   15.9509624
| 14>     C       16.5506051   19.2734386   14.5335628
| 15>     N       17.0531763   19.9923795   16.7720669
| 16>     C       17.7290167   19.9948931   17.9629201
| 17>     S       17.9741413   21.3853156   18.8236294
| 18>     N       18.2194629   18.7856107   18.3875638
| 19>     C       17.9180319   17.4816396   17.7642921
| 20>     C       17.2645846   16.4726475   18.6983327
| 21>     C       17.6730286   15.1268505   18.6840127
| 22>     C       17.0605583   14.1848362   19.5270558
| 23>     C       16.0302511   14.5918728   20.3917750
| 24>     C       15.6196597   15.9318291   20.4071260
| 25>     O       14.6189265   16.3258150   21.2340868
| 26>     C       16.2304044   16.8676162   19.5659893
| 27>     H       15.0019598   16.1248968   17.1321342
| 28>     H       15.0812851   14.5917794   16.2316988
| 29>     H       13.5485982   15.4768099   16.3676905
| 30>     H       14.3433704   15.9493166   14.1328714
| 31>     H       14.6644731   17.4120575   15.0752393
| 32>     H       16.8948350   18.5451475   13.7896655
| 33>     H       17.0226823   20.2254673   14.2583568
| 34>     H       15.4679392   19.3982100   14.4170902
| 35>     H       16.7345867   20.8935369   16.4523290
| 36>     H       18.7146438   18.8119039   19.2702655
| 37>     H       18.9391014   17.1527265   17.5194167
| 38>     H       18.4633736   14.8082455   18.0071562
| 39>     H       17.3837443   13.1453907   19.5047055
| 40>     H       15.5536554   13.8668883   21.0433242
| 41>     H       14.3561802   15.5554512   21.7601578
| 42>     H       15.8933865   17.8988083   19.5896186
| 43> *
| 44>
| 45>                          ****END OF INPUT****

CARTESIAN COORDINATES (ANGSTROEM)
---------------------------------
  C     14.632715   15.593490   16.249823
  C     14.949067   16.361999   14.950192
  O     16.345580   16.225334   14.602734
  C     17.376281   16.480087   15.470598
  O     18.362855   15.767375   15.493035
  C     17.201400   17.628858   16.416523
  C     16.913439   18.871475   15.950962
  C     16.550605   19.273439   14.533563
  N     17.053176   19.992379   16.772067
  C     17.729017   19.994893   17.962920
  S     17.974141   21.385316   18.823629
  N     18.219463   18.785611   18.387564
  C     17.918032   17.481640   17.764292
  C     17.264585   16.472648   18.698333
  C     17.673029   15.126850   18.684013
  C     17.060558   14.184836   19.527056
  C     16.030251   14.591873   20.391775
  C     15.619660   15.931829   20.407126
  O     14.618926   16.325815   21.234087
  C     16.230404   16.867616   19.565989
  H     15.001960   16.124897   17.132134
  H     15.081285   14.591779   16.231699
  H     13.548598   15.476810   16.367690
  H     14.343370   15.949317   14.132871
  H     14.664473   17.412057   15.075239
  H     16.894835   18.545147   13.789665
  H     17.022682   20.225467   14.258357
  H     15.467939   19.398210   14.417090
  H     16.734587   20.893537   16.452329
  H     18.714644   18.811904   19.270266
  H     18.939101   17.152726   17.519417
  H     18.463374   14.808245   18.007156
  H     17.383744   13.145391   19.504706
  H     15.553655   13.866888   21.043324
  H     14.356180   15.555451   21.760158
  H     15.893386   17.898808   19.589619

 Total Charge           Charge          ....    0
 Multiplicity           Mult            ....    1
 Number of Electrons    NEL             ....  154
 Basis Dimension        Dim             ....  828

ORBITAL ENERGIES
----------------

  NO   OCC          E(Eh)            E(eV)
   0   2.0000     -91.890289     -2500.4619
   1   2.0000     -20.598381      -560.5105
   2   2.0000     -20.598353      -560.5097
   3   2.0000     -20.551413      -559.2324
   4   2.0000     -15.628922      -425.2846
   5   2.0000     -15.609234      -424.7489
   6   2.0000     -11.399315      -310.1911
   7   2.0000     -11.385708      -309.8209
   8   2.0000     -11.337634      -308.5127
   9   2.0000     -11.315535      -307.9114
  10   2.0000     -11.309386      -307.7440
  11   2.0000     -11.308999      -307.7335
  12   2.0000     -11.265915      -306.5611
  13   2.0000     -11.265712      -306.5556
  14   2.0000     -11.263046      -306.4831
  15   2.0000     -11.255658      -306.2820
  16   2.0000     -11.244759      -305.9855
  17   2.0000     -11.240595      -305.8721
  18   2.0000     -11.237023      -305.7749
  19   2.0000     -11.229762      -305.5773
  20   2.0000      -8.895388      -242.0558
  21   2.0000      -6.576968      -178.9684
  22   2.0000      -6.574957      -178.9137
  23   2.0000      -6.574372      -178.8978
  24   2.0000      -1.447836       -39.3976
  25   2.0000      -1.418112       -38.5888
  26   2.0000      -1.360827       -37.0300
  27   2.0000      -1.342161       -36.5220
  28   2.0000      -1.239951       -33.7408
  29   2.0000      -1.159596       -31.5542
  30   2.0000      -1.125286       -30.6206
  31   2.0000      -1.047145       -28.4943
  32   2.0000      -1.036429       -28.2027
  33   2.0000      -1.017858       -27.6973
  34   2.0000      -1.005912       -27.3723
  35   2.0000      -0.989683       -26.9306
  36   2.0000      -0.926331       -25.2067
  37   2.0000      -0.896662       -24.3994
  38   2.0000      -0.853883       -23.2353
  39   2.0000      -0.841390       -22.8954
  40   2.0000      -0.835052       -22.7229
  41   2.0000      -0.830269       -22.5928
  42   2.0000      -0.745833       -20.2951
  43   2.0000      -0.737488       -20.0681
  44   2.0000      -0.731377       -19.9018
  45   2.0000      -0.695602       -18.9283
  46   2.0000      -0.687514       -18.7082
  47   2.0000      -0.682590       -18.5742
  48   2.0000      -0.675615       -18.3844
  49   2.0000      -0.661524       -18.0010
  50   2.0000      -0.656865       -17.8742
  51   2.0000      -0.647747       -17.6261
  52   2.0000      -0.638088       -17.3633
  53   2.0000      -0.622565       -16.9409
  54   2.0000      -0.610650       -16.6166
  55   2.0000      -0.605551       -16.4779
  56   2.0000      -0.601749       -16.3744
  57   2.0000      -0.585506       -15.9324
  58   2.0000      -0.575532       -15.6610
  59   2.0000      -0.564742       -15.3674
  60   2.0000      -0.563574       -15.3356
  61   2.0000      -0.550153       -14.9704
  62   2.0000      -0.542497       -14.7621
  63   2.0000      -0.536674       -14.6037
  64   2.0000      -0.520951       -14.1758
  65   2.0000      -0.512123       -13.9356
  66   2.0000      -0.501066       -13.6347
  67   2.0000      -0.499616       -13.5952
  68   2.0000      -0.484429       -13.1820
  69   2.0000      -0.469248       -12.7689
  70   2.0000      -0.457885       -12.4597
  71   2.0000      -0.449820       -12.2402
  72   2.0000      -0.358074        -9.7437
  73   2.0000      -0.349743        -9.5170
  74   2.0000      -0.329722        -8.9722
  75   2.0000      -0.323233        -8.7956
  76   2.0000      -0.320469        -8.7204
  77   0.0000       0.080443         2.1890
  78   0.0000       0.104755         2.8505
  79   0.0000       0.117371         3.1938
  80   0.0000       0.129627         3.5273
  81   0.0000       0.130890         3.5617

MULLIKEN ATOMIC CHARGES
-----------------------
   0 C :   -0.317741
   1 C :    0.036886
   2 O :   -0.342435
   3 C :    0.452971
   4 O :   -0.381326
   5 C :   -0.240164
   6 C :    0.147269
   7 C :   -0.327778
   8 N :   -0.137713
   9 C :    0.206214
  10 S :   -0.441734
  11 N :   -0.225381
  12 C :    0.073874
  13 C :   -0.001998
  14 C :   -0.205461
  15 C :   -0.136425
  16 C :   -0.270963
  17 C :    0.315570
  18 O :   -0.356949
  19 C :   -0.241600
  20 H :    0.117081
  21 H :    0.116257
  22 H :    0.106737
  23 H :    0.124256
  24 H :    0.078795
  25 H :    0.141789
  26 H :    0.126159
  27 H :    0.123581
  28 H :    0.197903
  29 H :    0.204029
  30 H :    0.166130
  31 H :    0.179926
  32 H :    0.164560
  33 H :    0.132043
  34 H :    0.240929
  35 H :    0.174708
Sum of atomic charges:   -0.0000000

LOEWDIN ATOMIC CHARGES
----------------------
   0 C :    0.108220
   1 C :   -0.020071
   2 O :    0.296979
   3 C :   -0.416629
   4 O :    0.123167
   5 C :   -0.087391
   6 C :   -0.082979
   7 C :    0.125707
   8 N :    0.403543
   9 C :   -0.458911
  10 S :   -0.037229
  11 N :    0.396433
  12 C :   -0.047863
  13 C :   -0.044316
  14 C :    0.021843
  15 C :    0.044359
  16 C :   -0.000292
  17 C :   -0.192069
  18 O :    0.395281
  19 C :    0.026376
  20 H :   -0.031503
  21 H :   -0.021362
  22 H :   -0.024562
  23 H :   -0.020502
  24 H :   -0.039744
  25 H :   -0.007971
  26 H :   -0.012340
  27 H :   -0.018749
  28 H :   -0.056945
  29 H :   -0.063136
  30 H :   -0.004560
  31 H :   -0.021665
  32 H :   -0.018812
  33 H :   -0.034953
  34 H :   -0.153403
  35 H :   -0.023952

  Mayer bond orders larger than 0.100000
B(  0-C ,  1-C ) :   0.9627 B(  0-C , 20-H ) :   0.9670 B(  0-C , 21-H ) :   0.9730
B(  0-C , 22-H ) :   0.9773 B(  1-C ,  2-O ) :   0.9007 B(  1-C , 23-H ) :   0.9812
B(  1-C , 24-H ) :   0.9711 B(  2-O ,  3-C ) :   1.1439 B(  3-C ,  4-O ) :   2.0788
B(  3-C ,  5-C ) :   0.9403 B(  5-C ,  6-C ) :   1.7090 B(  5-C , 12-C ) :   0.9353
B(  6-C ,  7-C ) :   0.9341 B(  6-C ,  8-N ) :   1.1143 B(  7-C , 25-H ) :   0.9705
B(  7-C , 26-H ) :   0.9801 B(  7-C , 27-H ) :   0.9660 B(  8-N ,  9-C ) :   1.1945
B(  8-N , 28-H ) :   0.9505 B(  9-C , 10-S ) :   1.6104 B(  9-C , 11-N ) :   1.2942
B( 11-N , 12-C ) :   0.9782 B( 11-N , 29-H ) :   0.9473 B( 12-C , 13-C ) :   0.9737
B( 12-C , 30-H ) :   0.9903 B( 13-C , 14-C ) :   1.3902 B( 13-C , 19-C ) :   1.3447
B( 14-C , 15-C ) :   1.3972 B( 14-C , 31-H ) :   0.9564 B( 15-C , 16-C ) :   1.3593
B( 15-C , 32-H ) :   0.9700 B( 16-C , 17-C ) :   1.3325 B( 16-C , 33-H ) :   0.9844
B( 17-C , 18-O ) :   1.1087 B( 17-C , 19-C ) :   1.3622 B( 18-O , 34-H ) :   0.9797
B( 19-C , 35-H ) :   0.9584

MP2 TOTAL ENERGY:    -1274.329317760 Eh
FINAL SINGLE POINT ENERGY     -1274.329317759989

DIPOLE MOMENT
-------------
                                X             Y             Z
Electronic contribution:      8.91303       7.49982       6.67096
Nuclear contribution   :    -10.54793      -8.56826      -7.19036
                        -----------------------------------------
Total Dipole Moment    :     -1.63490      -1.06844      -0.51940
                        -----------------------------------------
Magnitude (a.u.)       :      2.02096
Magnitude (Debye)      :      5.13686

Rotational constants in cm-1:     0.011459     0.009320     0.006357
Rotational constants in MHz :   343.532351   279.404132   190.592432

                             ****ORCA TERMINATED NORMALLY****
TOTAL RUN TIME: 0 days 1 hours 57 minutes 19 seconds 835 msec
