                         Program Version 4.2.0 -  RELEASE  -
|  1> ! ri-mp2 cc-pvtz cc-pvtz/c TightSCF NoKeepInts
|  2>
|  3> %scf
|  4>   MaxCore 4096
|  5> end
|  6> *xyz  0  1
|  7>     C       14.1462323   15.4730865   13.7828636
|  8>     C       15.0631128   15.2988116   15.0050522
|  9>     O       16.0422870   16.3471099   14.9610423
| 10>     C       17.0213410   16.3278919   15.9071742
| 11>     O       17.6087385   15.3005919   16.2011764
| 12>     C       17.1617305   17.5998546   16.6933544
| 13>     C       16.9378292   18.8244599   16.1476676
| 14>     C       16.3117271   19.1441886   14.8043275
| 15>     N       17.3403079   19.9855057   16.8126246
| 16>     C       18.1621927   20.0058069   17.9070541
| 17>     S       18.6880751   21.4233825   18.5773436
| 18>     N       18.5450551   18.7861951   18.4049880
| 19>     C       18.0254995   17.4801549   17.9550577
| 20>     C       17.3642445   16.6797269   19.0693316
| 21>     C       17.7949544   15.3745411   19.3679595
| 22>     C       17.1839976   14.6381457   20.3967600
| 23>     C       16.1341593   15.2124896   21.1338879
| 24>     C       15.7015985   16.5122762   20.8368277
| 25>     O       14.6850705   17.0675102   21.5436823
| 26>     C       16.3111871   17.2423711   19.8114848
| 27>     H       14.7258337   15.4088504   12.8534306
| 28>     H       13.6426037   16.4471924   13.8115775
| 29>     H       13.3788759   14.6896200   13.7632584
| 30>     H       14.4780891   15.3583632   15.9326367
| 31>     H       15.5508290   14.3150677   14.9605615
| 32>     H       16.8408197   18.6270518   13.9938543
| 33>     H       16.3337678   20.2150159   14.5679763
| 34>     H       15.2621091   18.8258447   14.7797422
| 35>     H       17.0866617   20.8884741   16.4448473
| 36>     H       19.1344773   18.8288746   19.2268201
| 37>     H       18.9600877   16.9976504   17.6335303
| 38>     H       18.5968096   14.9243406   18.7873308
| 39>     H       17.5218209   13.6265517   20.6146285
| 40>     H       15.6587972   14.6467318   21.9281972
| 41>     H       14.4207337   16.4280173   22.2219473
| 42>     H       15.9653434   18.2482530   19.5980009
| 43> *
| 44>
| 45>                          ****END OF INPUT****

CARTESIAN COORDINATES (ANGSTROEM)
---------------------------------
  C     14.146232   15.473087   13.782864
  C     15.063113   15.298812   15.005052
  O     16.042287   16.347110   14.961042
  C     17.021341   16.327892   15.907174
  O     17.608739   15.300592   16.201176
  C     17.161731   17.599855   16.693354
  C     16.937829   18.824460   16.147668
  C     16.311727   19.144189   14.804327
  N     17.340308   19.985506   16.812625
  C     18.162193   20.005807   17.907054
  S     18.688075   21.423382   18.577344
  N     18.545055   18.786195   18.404988
  C     18.025499   17.480155   17.955058
  C     17.364245   16.679727   19.069332
  C     17.794954   15.374541   19.367960
  C     17.183998   14.638146   20.396760
  C     16.134159   15.212490   21.133888
  C     15.701598   16.512276   20.836828
  O     14.685070   17.067510   21.543682
  C     16.311187   17.242371   19.811485
  H     14.725834   15.408850   12.853431
  H     13.642604   16.447192   13.811578
  H     13.378876   14.689620   13.763258
  H     14.478089   15.358363   15.932637
  H     15.550829   14.315068   14.960562
  H     16.840820   18.627052   13.993854
  H     16.333768   20.215016   14.567976
  H     15.262109   18.825845   14.779742
  H     17.086662   20.888474   16.444847
  H     19.134477   18.828875   19.226820
  H     18.960088   16.997650   17.633530
  H     18.596810   14.924341   18.787331
  H     17.521821   13.626552   20.614628
  H     15.658797   14.646732   21.928197
  H     14.420734   16.428017   22.221947
  H     15.965343   18.248253   19.598001

 Total Charge           Charge          ....    0
 Multiplicity           Mult            ....    1
 Number of Electrons    NEL             ....  154
 Basis Dimension        Dim             ....  828

ORBITAL ENERGIES
----------------

  NO   OCC          E(Eh)            E(eV)
   0   2.0000     -91.888722     -2500.4192
   1   2.0000     -20.594791      -560.4127
   2   2.0000     -20.592650      -560.3545
   3   2.0000     -20.548578      -559.1552
   4   2.0000     -15.629575      -425.3023
   5   2.0000     -15.606240      -424.6674
   6   2.0000     -11.393910      -310.0441
   7   2.0000     -11.383320      -309.7559
   8   2.0000     -11.339068      -308.5517
   9   2.0000     -11.308646      -307.7239
  10   2.0000     -11.304577      -307.6132
  11   2.0000     -11.300658      -307.5065
  12   2.0000     -11.260330      -306.4091
  13   2.0000     -11.259959      -306.3991
  14   2.0000     -11.255842      -306.2870
  15   2.0000     -11.248603      -306.0900
  16   2.0000     -11.238832      -305.8242
  17   2.0000     -11.235031      -305.7207
  18   2.0000     -11.234987      -305.7196
  19   2.0000     -11.231631      -305.6282
  20   2.0000      -8.893799      -242.0126
  21   2.0000      -6.575374      -178.9250
  22   2.0000      -6.573373      -178.8706
  23   2.0000      -6.572783      -178.8545
  24   2.0000      -1.454595       -39.5815
  25   2.0000      -1.412397       -38.4333
  26   2.0000      -1.357771       -36.9468
  27   2.0000      -1.340608       -36.4798
  28   2.0000      -1.237636       -33.6778
  29   2.0000      -1.153195       -31.3800
  30   2.0000      -1.121442       -30.5160
  31   2.0000      -1.044715       -28.4281
  32   2.0000      -1.037113       -28.2213
  33   2.0000      -1.010746       -27.5038
  34   2.0000      -0.999517       -27.1982
  35   2.0000      -0.984707       -26.7952
  36   2.0000      -0.921281       -25.0693
  37   2.0000      -0.885082       -24.0843
  38   2.0000      -0.847960       -23.0742
  39   2.0000      -0.836140       -22.7525
  40   2.0000      -0.828855       -22.5543
  41   2.0000      -0.823451       -22.4072
  42   2.0000      -0.761303       -20.7161
  43   2.0000      -0.736417       -20.0389
  44   2.0000      -0.726914       -19.7803
  45   2.0000      -0.690521       -18.7900
  46   2.0000      -0.686235       -18.6734
  47   2.0000      -0.680818       -18.5260
  48   2.0000      -0.675058       -18.3693
  49   2.0000      -0.654086       -17.7986
  50   2.0000      -0.652107       -17.7447
  51   2.0000      -0.640432       -17.4270
  52   2.0000      -0.632246       -17.2043
  53   2.0000      -0.614932       -16.7332
  54   2.0000      -0.603906       -16.4331
  55   2.0000      -0.599415       -16.3109
  56   2.0000      -0.595967       -16.2171
  57   2.0000      -0.576805       -15.6957
  58   2.0000      -0.573880       -15.6161
  59   2.0000      -0.563396       -15.3308
  60   2.0000      -0.560474       -15.2513
  61   2.0000      -0.547652       -14.9024
  62   2.0000      -0.541739       -14.7415
  63   2.0000      -0.524817       -14.2810
  64   2.0000      -0.516887       -14.0652
  65   2.0000      -0.510334       -13.8869
  66   2.0000      -0.505590       -13.7578
  67   2.0000      -0.494800       -13.4642
  68   2.0000      -0.480888       -13.0856
  69   2.0000      -0.462694       -12.5905
  70   2.0000      -0.462212       -12.5774
  71   2.0000      -0.451325       -12.2812
  72   2.0000      -0.353796        -9.6273
  73   2.0000      -0.345331        -9.3969
  74   2.0000      -0.327749        -8.9185
  75   2.0000      -0.317884        -8.6501
  76   2.0000      -0.315287        -8.5794
  77   0.0000       0.073713         2.0058
  78   0.0000       0.110213         2.9990
  79   0.0000       0.120585         3.2813
  80   0.0000       0.135029         3.6743
  81   0.0000       0.137827         3.7505

MULLIKEN ATOMIC CHARGES
-----------------------
   0 C :   -0.271779
   1 C :    0.039781
   2 O :   -0.354832
   3 C :    0.439518
   4 O :   -0.406495
   5 C :   -0.187127
   6 C :    0.151684
   7 C :   -0.283151
   8 N :   -0.127795
   9 C :    0.207443
  10 S :   -0.441197
  11 N :   -0.210467
  12 C :    0.040728
  13 C :    0.033606
  14 C :   -0.169480
  15 C :   -0.133975
  16 C :   -0.277453
  17 C :    0.313548
  18 O :   -0.359091
  19 C :   -0.253343
  20 H :    0.100624
  21 H :    0.090791
  22 H :    0.096643
  23 H :    0.085671
  24 H :    0.111656
  25 H :    0.127578
  26 H :    0.103470
  27 H :    0.125968
  28 H :    0.198936
  29 H :    0.199877
  30 H :    0.155910
  31 H :    0.159826
  32 H :    0.160410
  33 H :    0.128528
  34 H :    0.240116
  35 H :    0.163874
Sum of atomic charges:   -0.0000000

LOEWDIN ATOMIC CHARGES
----------------------
   0 C :    0.108377
   1 C :   -0.019458
   2 O :    0.301296
   3 C :   -0.418215
   4 O :    0.114618
   5 C :   -0.094849
   6 C :   -0.064291
   7 C :    0.125697
   8 N :    0.405756
   9 C :   -0.458408
  10 S :   -0.036769
  11 N :    0.396287
  12 C :   -0.048380
  13 C :   -0.040875
  14 C :    0.024975
  15 C :    0.041253
  16 C :   -0.001240
  17 C :   -0.192913
  18 O :    0.392979
  19 C :    0.028858
  20 H :   -0.024889
  21 H :   -0.030054
  22 H :   -0.023406
  23 H :   -0.031454
  24 H :   -0.026499
  25 H :   -0.008164
  26 H :   -0.020881
  27 H :   -0.010524
  28 H :   -0.058489
  29 H :   -0.063191
  30 H :   -0.007842
  31 H :   -0.023719
  32 H :   -0.020831
  33 H :   -0.036076
  34 H :   -0.154715
  35 H :   -0.023969

  Mayer bond orders larger than 0.100000
B(  0-C ,  1-C ) :   0.9744 B(  0-C , 20-H ) :   0.9770 B(  0-C , 21-H ) :   0.9789
B(  0-C , 22-H ) :   0.9770 B(  1-C ,  2-O ) :   0.9052 B(  1-C , 23-H ) :   0.9718
B(  1-C , 24-H ) :   0.9782 B(  2-O ,  3-C ) :   1.0974 B(  3-C ,  4-O ) :   2.0179
B(  3-C ,  5-C ) :   1.0352 B(  5-C ,  6-C ) :   1.6558 B(  5-C , 12-C ) :   0.9492
B(  6-C ,  7-C ) :   0.9546 B(  6-C ,  8-N ) :   1.1378 B(  7-C , 25-H ) :   0.9649
B(  7-C , 26-H ) :   0.9911 B(  7-C , 27-H ) :   0.9638 B(  8-N ,  9-C ) :   1.1842
B(  8-N , 28-H ) :   0.9469 B(  9-C , 10-S ) :   1.6097 B(  9-C , 11-N ) :   1.3058
B( 11-N , 12-C ) :   0.9771 B( 11-N , 29-H ) :   0.9485 B( 12-C , 13-C ) :   0.9721
B( 12-C , 30-H ) :   0.9966 B( 13-C , 14-C ) :   1.3780 B( 13-C , 19-C ) :   1.3639
B( 14-C , 15-C ) :   1.3976 B( 14-C , 31-H ) :   0.9633 B( 15-C , 16-C ) :   1.3589
B( 15-C , 32-H ) :   0.9710 B( 16-C , 17-C ) :   1.3332 B( 16-C , 33-H ) :   0.9859
B( 17-C , 18-O ) :   1.1038 B( 17-C , 19-C ) :   1.3676 B( 18-O , 34-H ) :   0.9805
B( 19-C , 35-H ) :   0.9602

MP2 TOTAL ENERGY:    -1274.333295161 Eh
FINAL SINGLE POINT ENERGY     -1274.333295161397

DIPOLE MOMENT
-------------
                                X             Y             Z
Electronic contribution:     10.47589       9.43457      11.53454
Nuclear contribution   :    -11.93700     -10.76031     -12.36101
                        -----------------------------------------
Total Dipole Moment    :     -1.46111      -1.32574      -0.82648
                        -----------------------------------------
Magnitude (a.u.)       :      2.13904
Magnitude (Debye)      :      5.43702

Rotational constants in cm-1:     0.009658     0.009155     0.005634
Rotational constants in MHz :   289.525455   274.450364   168.909529

                             ****ORCA TERMINATED NORMALLY****
TOTAL RUN TIME: 0 days 1 hours 43 minutes 5 seconds 151 msec
