                         Program Version 4.2.0 -  RELEASE  -
|  1> ! ri-mp2 cc-pvtz cc-pvtz/c TightSCF NoKeepInts
|  2>
|  3> %scf
|  4>   MaxCore 4096
|  5> end
|  6> *xyz  0  1
|  7>     C       14.5656467   15.8715209   16.5071943
|  8>     C       15.2511340   15.9298146   15.1287680
|  9>     O       16.6569729   15.6426849   15.2570465
| 10>     C       17.6007150   16.6156728   15.4453929
| 11>     O       18.7173077   16.5341660   14.9706396
| 12>     C       17.2306882   17.6932486   16.4003591
| 13>     C       16.9230385   18.9163359   15.9123362
| 14>     C       16.5785233   19.2491875   14.4750256
| 15>     N       16.9367855   20.0425803   16.7367442
| 16>     C       17.5120689   20.0708751   17.9803962
| 17>     S       17.6116100   21.4649646   18.8641927
| 18>     N       18.0254498   18.8838908   18.4448449
| 19>     C       17.8466184   17.5694641   17.7946757
| 20>     C       17.2130730   16.4930415   18.6643840
| 21>     C       17.6582314   15.1619927   18.5695153
| 22>     C       17.0709912   14.1545706   19.3528031
| 23>     C       16.0294799   14.4808028   20.2380976
| 24>     C       15.5830519   15.8059029   20.3340314
| 25>     O       14.5716908   16.1219643   21.1811705
| 26>     C       16.1693793   16.8073378   19.5533431
| 27>     H       14.9008816   14.9929064   17.0732332
| 28>     H       13.4774911   15.8037435   16.3888706
| 29>     H       14.7770720   16.7694225   17.0974977
| 30>     H       14.8026693   15.1526345   14.4961862
| 31>     H       15.0748418   16.8953591   14.6396197
| 32>     H       16.9904495   18.5186397   13.7673601
| 33>     H       16.9912293   20.2234823   14.1833160
| 34>     H       15.4922659   19.2873474   14.3300526
| 35>     H       16.6008753   20.9273471   16.3901571
| 36>     H       18.4468194   18.9321006   19.3641682
| 37>     H       18.9006156   17.3098734   17.6131793
| 38>     H       18.4574568   14.9059667   17.8771921
| 39>     H       17.4216648   13.1272008   19.2690087
| 40>     H       15.5719659   13.7052523   20.8435340
| 41>     H       14.3254312   15.3135026   21.6554779
| 42>     H       15.8028140   17.8252023   19.6381857
| 43> *
| 44>
| 45>                          ****END OF INPUT****

CARTESIAN COORDINATES (ANGSTROEM)
---------------------------------
  C     14.565647   15.871521   16.507194
  C     15.251134   15.929815   15.128768
  O     16.656973   15.642685   15.257046
  C     17.600715   16.615673   15.445393
  O     18.717308   16.534166   14.970640
  C     17.230688   17.693249   16.400359
  C     16.923039   18.916336   15.912336
  C     16.578523   19.249188   14.475026
  N     16.936785   20.042580   16.736744
  C     17.512069   20.070875   17.980396
  S     17.611610   21.464965   18.864193
  N     18.025450   18.883891   18.444845
  C     17.846618   17.569464   17.794676
  C     17.213073   16.493042   18.664384
  C     17.658231   15.161993   18.569515
  C     17.070991   14.154571   19.352803
  C     16.029480   14.480803   20.238098
  C     15.583052   15.805903   20.334031
  O     14.571691   16.121964   21.181170
  C     16.169379   16.807338   19.553343
  H     14.900882   14.992906   17.073233
  H     13.477491   15.803743   16.388871
  H     14.777072   16.769423   17.097498
  H     14.802669   15.152634   14.496186
  H     15.074842   16.895359   14.639620
  H     16.990450   18.518640   13.767360
  H     16.991229   20.223482   14.183316
  H     15.492266   19.287347   14.330053
  H     16.600875   20.927347   16.390157
  H     18.446819   18.932101   19.364168
  H     18.900616   17.309873   17.613179
  H     18.457457   14.905967   17.877192
  H     17.421665   13.127201   19.269009
  H     15.571966   13.705252   20.843534
  H     14.325431   15.313503   21.655478
  H     15.802814   17.825202   19.638186

 Total Charge           Charge          ....    0
 Multiplicity           Mult            ....    1
 Number of Electrons    NEL             ....  154
 Basis Dimension        Dim             ....  828

ORBITAL ENERGIES
----------------

  NO   OCC          E(Eh)            E(eV)
   0   2.0000     -91.888820     -2500.4219
   1   2.0000     -20.600588      -560.5705
   2   2.0000     -20.598913      -560.5249
   3   2.0000     -20.558433      -559.4234
   4   2.0000     -15.624639      -425.1681
   5   2.0000     -15.610164      -424.7741
   6   2.0000     -11.399631      -310.1997
   7   2.0000     -11.384956      -309.8004
   8   2.0000     -11.326555      -308.2112
   9   2.0000     -11.318358      -307.9882
  10   2.0000     -11.315159      -307.9011
  11   2.0000     -11.308191      -307.7115
  12   2.0000     -11.267013      -306.5910
  13   2.0000     -11.265721      -306.5559
  14   2.0000     -11.260623      -306.4171
  15   2.0000     -11.259550      -306.3879
  16   2.0000     -11.247542      -306.0612
  17   2.0000     -11.242852      -305.9335
  18   2.0000     -11.242469      -305.9231
  19   2.0000     -11.227079      -305.5044
  20   2.0000      -8.893925      -242.0160
  21   2.0000      -6.575509      -178.9287
  22   2.0000      -6.573494      -178.8739
  23   2.0000      -6.572916      -178.8581
  24   2.0000      -1.451016       -39.4842
  25   2.0000      -1.420314       -38.6487
  26   2.0000      -1.365815       -37.1657
  27   2.0000      -1.338827       -36.4313
  28   2.0000      -1.238502       -33.7014
  29   2.0000      -1.162744       -31.6399
  30   2.0000      -1.126617       -30.6568
  31   2.0000      -1.049343       -28.5541
  32   2.0000      -1.037538       -28.2328
  33   2.0000      -1.020830       -27.7782
  34   2.0000      -1.006048       -27.3760
  35   2.0000      -0.989899       -26.9365
  36   2.0000      -0.926979       -25.2244
  37   2.0000      -0.892569       -24.2880
  38   2.0000      -0.852387       -23.1946
  39   2.0000      -0.842235       -22.9184
  40   2.0000      -0.838180       -22.8080
  41   2.0000      -0.832794       -22.6615
  42   2.0000      -0.755472       -20.5574
  43   2.0000      -0.738590       -20.0981
  44   2.0000      -0.732518       -19.9328
  45   2.0000      -0.698664       -19.0116
  46   2.0000      -0.692594       -18.8464
  47   2.0000      -0.682364       -18.5681
  48   2.0000      -0.675206       -18.3733
  49   2.0000      -0.665920       -18.1206
  50   2.0000      -0.652001       -17.7419
  51   2.0000      -0.641301       -17.4507
  52   2.0000      -0.636830       -17.3290
  53   2.0000      -0.615419       -16.7464
  54   2.0000      -0.609508       -16.5856
  55   2.0000      -0.608823       -16.5669
  56   2.0000      -0.604158       -16.4400
  57   2.0000      -0.587170       -15.9777
  58   2.0000      -0.579988       -15.7823
  59   2.0000      -0.576865       -15.6973
  60   2.0000      -0.564135       -15.3509
  61   2.0000      -0.559801       -15.2330
  62   2.0000      -0.540100       -14.6969
  63   2.0000      -0.528348       -14.3771
  64   2.0000      -0.520819       -14.1722
  65   2.0000      -0.513882       -13.9834
  66   2.0000      -0.503273       -13.6947
  67   2.0000      -0.502367       -13.6701
  68   2.0000      -0.490322       -13.3423
  69   2.0000      -0.465130       -12.6568
  70   2.0000      -0.457082       -12.4378
  71   2.0000      -0.453634       -12.3440
  72   2.0000      -0.356281        -9.6949
  73   2.0000      -0.350056        -9.5255
  74   2.0000      -0.328463        -8.9379
  75   2.0000      -0.326245        -8.8776
  76   2.0000      -0.318777        -8.6744
  77   0.0000       0.092874         2.5272
  78   0.0000       0.103602         2.8192
  79   0.0000       0.116931         3.1819
  80   0.0000       0.128589         3.4991
  81   0.0000       0.128838         3.5059

MULLIKEN ATOMIC CHARGES
-----------------------
   0 C :   -0.309017
   1 C :    0.025449
   2 O :   -0.318953
   3 C :    0.410143
   4 O :   -0.370790
   5 C :   -0.195424
   6 C :    0.147299
   7 C :   -0.334936
   8 N :   -0.139647
   9 C :    0.215674
  10 S :   -0.444378
  11 N :   -0.238317
  12 C :    0.065357
  13 C :    0.028108
  14 C :   -0.215455
  15 C :   -0.136347
  16 C :   -0.277059
  17 C :    0.322488
  18 O :   -0.355267
  19 C :   -0.253554
  20 H :    0.118114
  21 H :    0.110823
  22 H :    0.104051
  23 H :    0.125753
  24 H :    0.083278
  25 H :    0.130121
  26 H :    0.125629
  27 H :    0.124194
  28 H :    0.196599
  29 H :    0.205943
  30 H :    0.169614
  31 H :    0.161162
  32 H :    0.164681
  33 H :    0.132949
  34 H :    0.241353
  35 H :    0.180363
Sum of atomic charges:   -0.0000000

LOEWDIN ATOMIC CHARGES
----------------------
   0 C :    0.103835
   1 C :   -0.021620
   2 O :    0.304954
   3 C :   -0.421106
   4 O :    0.131642
   5 C :   -0.079928
   6 C :   -0.098668
   7 C :    0.124104
   8 N :    0.401905
   9 C :   -0.454789
  10 S :   -0.039458
  11 N :    0.396628
  12 C :   -0.049930
  13 C :   -0.041458
  14 C :    0.019124
  15 C :    0.044828
  16 C :   -0.000491
  17 C :   -0.190161
  18 O :    0.396703
  19 C :    0.030408
  20 H :   -0.020323
  21 H :   -0.027137
  22 H :   -0.034970
  23 H :   -0.020688
  24 H :   -0.035995
  25 H :   -0.007813
  26 H :   -0.011639
  27 H :   -0.018355
  28 H :   -0.058466
  29 H :   -0.064239
  30 H :   -0.003724
  31 H :   -0.023699
  32 H :   -0.018389
  33 H :   -0.034526
  34 H :   -0.152990
  35 H :   -0.023567

  Mayer bond orders larger than 0.100000
B(  0-C ,  1-C ) :   0.9620 B(  0-C , 20-H ) :   0.9697 B(  0-C , 21-H ) :   0.9772
B(  0-C , 22-H ) :   0.9710 B(  1-C ,  2-O ) :   0.9046 B(  1-C , 23-H ) :   0.9854
B(  1-C , 24-H ) :   0.9757 B(  2-O ,  3-C ) :   1.1484 B(  3-C ,  4-O ) :   2.1249
B(  3-C ,  5-C ) :   0.9028 B(  5-C ,  6-C ) :   1.7250 B(  5-C , 12-C ) :   0.9362
B(  6-C ,  7-C ) :   0.9255 B(  6-C ,  8-N ) :   1.1070 B(  7-C , 25-H ) :   0.9766
B(  7-C , 26-H ) :   0.9785 B(  7-C , 27-H ) :   0.9684 B(  8-N ,  9-C ) :   1.2051
B(  8-N , 28-H ) :   0.9521 B(  9-C , 10-S ) :   1.6062 B(  9-C , 11-N ) :   1.2847
B( 11-N , 12-C ) :   0.9704 B( 11-N , 29-H ) :   0.9453 B( 12-C , 13-C ) :   0.9679
B( 12-C , 30-H ) :   0.9910 B( 13-C , 14-C ) :   1.3771 B( 13-C , 19-C ) :   1.3422
B( 14-C , 15-C ) :   1.4036 B( 14-C , 31-H ) :   0.9684 B( 15-C , 16-C ) :   1.3571
B( 15-C , 32-H ) :   0.9696 B( 16-C , 17-C ) :   1.3326 B( 16-C , 33-H ) :   0.9845
B( 17-C , 18-O ) :   1.1105 B( 17-C , 19-C ) :   1.3607 B( 18-O , 34-H ) :   0.9792
B( 19-C , 35-H ) :   0.9552

MP2 TOTAL ENERGY:    -1274.320828903 Eh
FINAL SINGLE POINT ENERGY     -1274.320828903444

DIPOLE MOMENT
-------------
                                X             Y             Z
Electronic contribution:      8.67624       7.42459       6.64541
Nuclear contribution   :    -10.29520      -8.91405      -7.13725
                        -----------------------------------------
Total Dipole Moment    :     -1.61896      -1.48946      -0.49184
                        -----------------------------------------
Magnitude (a.u.)       :      2.25420
Magnitude (Debye)      :      5.72972

Rotational constants in cm-1:     0.011991     0.009207     0.006396
Rotational constants in MHz :   359.467382   276.004340   191.744079

                             ****ORCA TERMINATED NORMALLY****
TOTAL RUN TIME: 0 days 1 hours 43 minutes 31 seconds 202 msec
