                         Program Version 4.2.0 -  RELEASE  -
|  1> ! ri-mp2 cc-pvtz cc-pvtz/c TightSCF NoKeepInts
|  2>
|  3> %scf
|  4>   MaxCore 4096
|  5> end
|  6> *xyz  0  1
|  7>     C       14.5325843   14.7327266   14.9687149
|  8>     C       14.7112975   16.2425419   15.2093461
|  9>     O       16.0131513   16.6248201   14.7355274
| 10>     C       17.0381062   16.5528806   15.6284457
| 11>     O       17.7115952   15.5446907   15.7438198
| 12>     C       17.1741366   17.7398811   16.5358846
| 13>     C       16.9543757   19.0097818   16.1074639
| 14>     C       16.3557480   19.4498561   14.7861760
| 15>     N       17.3463634   20.1016216   16.8858205
| 16>     C       18.1544913   20.0151819   17.9877280
| 17>     S       18.6658951   21.3609841   18.8013793
| 18>     N       18.5343909   18.7528983   18.3692666
| 19>     C       18.0253150   17.4961827   17.7859268
| 20>     C       17.3459697   16.5848829   18.7991022
| 21>     C       17.7355886   15.2395506   18.9259732
| 22>     C       17.1012321   14.3962517   19.8534366
| 23>     C       16.0682196   14.9027859   20.6606764
| 24>     C       15.6755300   16.2422723   20.5335972
| 25>     O       14.6732913   16.7322451   21.3058837
| 26>     C       16.3080112   17.0789750   19.6084242
| 27>     H       15.2593552   14.1562251   15.5555323
| 28>     H       14.6770668   14.4897199   13.9085733
| 29>     H       13.5259186   14.4112778   15.2618223
| 30>     H       13.9445128   16.7833315   14.6398765
| 31>     H       14.5840362   16.4834570   16.2740677
| 32>     H       16.8564917   18.9535751   13.9448778
| 33>     H       16.4509265   20.5295796   14.6172192
| 34>     H       15.2885767   19.2028348   14.7381879
| 35>     H       17.0982913   21.0363543   16.6029850
| 36>     H       19.1173422   18.7157925   19.1961027
| 37>     H       18.9642252   17.0476262   17.4289857
| 38>     H       18.5238229   14.8429259   18.2897718
| 39>     H       17.4080502   13.3552339   19.9387587
| 40>     H       15.5747422   14.2542286   21.3769003
| 41>     H       14.3966409   16.0233435   21.9059756
| 42>     H       15.9917073   18.1134833   19.5257701
| 43> *
| 44>
| 45>                          ****END OF INPUT****

CARTESIAN COORDINATES (ANGSTROEM)
---------------------------------
  C     14.532584   14.732727   14.968715
  C     14.711298   16.242542   15.209346
  O     16.013151   16.624820   14.735527
  C     17.038106   16.552881   15.628446
  O     17.711595   15.544691   15.743820
  C     17.174137   17.739881   16.535885
  C     16.954376   19.009782   16.107464
  C     16.355748   19.449856   14.786176
  N     17.346363   20.101622   16.885821
  C     18.154491   20.015182   17.987728
  S     18.665895   21.360984   18.801379
  N     18.534391   18.752898   18.369267
  C     18.025315   17.496183   17.785927
  C     17.345970   16.584883   18.799102
  C     17.735589   15.239551   18.925973
  C     17.101232   14.396252   19.853437
  C     16.068220   14.902786   20.660676
  C     15.675530   16.242272   20.533597
  O     14.673291   16.732245   21.305884
  C     16.308011   17.078975   19.608424
  H     15.259355   14.156225   15.555532
  H     14.677067   14.489720   13.908573
  H     13.525919   14.411278   15.261822
  H     13.944513   16.783331   14.639876
  H     14.584036   16.483457   16.274068
  H     16.856492   18.953575   13.944878
  H     16.450927   20.529580   14.617219
  H     15.288577   19.202835   14.738188
  H     17.098291   21.036354   16.602985
  H     19.117342   18.715792   19.196103
  H     18.964225   17.047626   17.428986
  H     18.523823   14.842926   18.289772
  H     17.408050   13.355234   19.938759
  H     15.574742   14.254229   21.376900
  H     14.396641   16.023343   21.905976
  H     15.991707   18.113483   19.525770

 Total Charge           Charge          ....    0
 Multiplicity           Mult            ....    1
 Number of Electrons    NEL             ....  154
 Basis Dimension        Dim             ....  828

ORBITAL ENERGIES
----------------

  NO   OCC          E(Eh)            E(eV)
   0   2.0000     -91.890208     -2500.4597
   1   2.0000     -20.595590      -560.4345
   2   2.0000     -20.588148      -560.2320
   3   2.0000     -20.553798      -559.2973
   4   2.0000     -15.631085      -425.3435
   5   2.0000     -15.607912      -424.7129
   6   2.0000     -11.394722      -310.0661
   7   2.0000     -11.385056      -309.8031
   8   2.0000     -11.340395      -308.5878
   9   2.0000     -11.311962      -307.8141
  10   2.0000     -11.306334      -307.6610
  11   2.0000     -11.305989      -307.6516
  12   2.0000     -11.262690      -306.4734
  13   2.0000     -11.260763      -306.4209
  14   2.0000     -11.259077      -306.3751
  15   2.0000     -11.251827      -306.1778
  16   2.0000     -11.241827      -305.9057
  17   2.0000     -11.238204      -305.8071
  18   2.0000     -11.234551      -305.7077
  19   2.0000     -11.224980      -305.4472
  20   2.0000      -8.895282      -242.0529
  21   2.0000      -6.576854      -178.9653
  22   2.0000      -6.574854      -178.9109
  23   2.0000      -6.574262      -178.8948
  24   2.0000      -1.452744       -39.5312
  25   2.0000      -1.415346       -38.5135
  26   2.0000      -1.360843       -37.0304
  27   2.0000      -1.342081       -36.5199
  28   2.0000      -1.239158       -33.7192
  29   2.0000      -1.156328       -31.4653
  30   2.0000      -1.123167       -30.5629
  31   2.0000      -1.044763       -28.4295
  32   2.0000      -1.033819       -28.1316
  33   2.0000      -1.013966       -27.5914
  34   2.0000      -1.002076       -27.2679
  35   2.0000      -0.986731       -26.8503
  36   2.0000      -0.923688       -25.1348
  37   2.0000      -0.884602       -24.0712
  38   2.0000      -0.852455       -23.1965
  39   2.0000      -0.840331       -22.8666
  40   2.0000      -0.832260       -22.6469
  41   2.0000      -0.830708       -22.6047
  42   2.0000      -0.752402       -20.4739
  43   2.0000      -0.735149       -20.0044
  44   2.0000      -0.729478       -19.8501
  45   2.0000      -0.693826       -18.8800
  46   2.0000      -0.686827       -18.6895
  47   2.0000      -0.680223       -18.5098
  48   2.0000      -0.675190       -18.3729
  49   2.0000      -0.666274       -18.1302
  50   2.0000      -0.650646       -17.7050
  51   2.0000      -0.645351       -17.5609
  52   2.0000      -0.636840       -17.3293
  53   2.0000      -0.607772       -16.5383
  54   2.0000      -0.602434       -16.3931
  55   2.0000      -0.599114       -16.3027
  56   2.0000      -0.596907       -16.2427
  57   2.0000      -0.580244       -15.7892
  58   2.0000      -0.577017       -15.7014
  59   2.0000      -0.572732       -15.5848
  60   2.0000      -0.561517       -15.2796
  61   2.0000      -0.553755       -15.0685
  62   2.0000      -0.540714       -14.7136
  63   2.0000      -0.521273       -14.1846
  64   2.0000      -0.518286       -14.1033
  65   2.0000      -0.512295       -13.9402
  66   2.0000      -0.500260       -13.6128
  67   2.0000      -0.496473       -13.5097
  68   2.0000      -0.483602       -13.1595
  69   2.0000      -0.466506       -12.6943
  70   2.0000      -0.459269       -12.4973
  71   2.0000      -0.450439       -12.2571
  72   2.0000      -0.355739        -9.6801
  73   2.0000      -0.348309        -9.4780
  74   2.0000      -0.329261        -8.9597
  75   2.0000      -0.319670        -8.6987
  76   2.0000      -0.318646        -8.6708
  77   0.0000       0.072182         1.9642
  78   0.0000       0.106264         2.8916
  79   0.0000       0.119766         3.2590
  80   0.0000       0.133068         3.6210
  81   0.0000       0.138392         3.7658

MULLIKEN ATOMIC CHARGES
-----------------------
   0 C :   -0.259423
   1 C :    0.022455
   2 O :   -0.370384
   3 C :    0.468957
   4 O :   -0.388507
   5 C :   -0.237709
   6 C :    0.164364
   7 C :   -0.288505
   8 N :   -0.128372
   9 C :    0.205928
  10 S :   -0.439465
  11 N :   -0.212478
  12 C :    0.050257
  13 C :    0.032504
  14 C :   -0.184240
  15 C :   -0.131738
  16 C :   -0.277528
  17 C :    0.314629
  18 O :   -0.358342
  19 C :   -0.259066
  20 H :    0.109612
  21 H :    0.097888
  22 H :    0.087974
  23 H :    0.101223
  24 H :    0.096307
  25 H :    0.133811
  26 H :    0.107232
  27 H :    0.120866
  28 H :    0.198692
  29 H :    0.199937
  30 H :    0.157970
  31 H :    0.165630
  32 H :    0.162101
  33 H :    0.129868
  34 H :    0.240721
  35 H :    0.166835
Sum of atomic charges:   -0.0000000

LOEWDIN ATOMIC CHARGES
----------------------
   0 C :    0.108645
   1 C :   -0.024988
   2 O :    0.297807
   3 C :   -0.422677
   4 O :    0.128121
   5 C :   -0.098212
   6 C :   -0.066882
   7 C :    0.126999
   8 N :    0.405666
   9 C :   -0.458152
  10 S :   -0.035509
  11 N :    0.396159
  12 C :   -0.049277
  13 C :   -0.042356
  14 C :    0.023731
  15 C :    0.042053
  16 C :   -0.000764
  17 C :   -0.193273
  18 O :    0.393344
  19 C :    0.027468
  20 H :   -0.023340
  21 H :   -0.024554
  22 H :   -0.028973
  23 H :   -0.027490
  24 H :   -0.031679
  25 H :   -0.006057
  26 H :   -0.019462
  27 H :   -0.011494
  28 H :   -0.058159
  29 H :   -0.063290
  30 H :   -0.007029
  31 H :   -0.022826
  32 H :   -0.020049
  33 H :   -0.035557
  34 H :   -0.154039
  35 H :   -0.023904

  Mayer bond orders larger than 0.100000
B(  0-C ,  1-C ) :   0.9861 B(  0-C , 20-H ) :   0.9734 B(  0-C , 21-H ) :   0.9769
B(  0-C , 22-H ) :   0.9753 B(  1-C ,  2-O ) :   0.8947 B(  1-C , 23-H ) :   0.9800
B(  1-C , 24-H ) :   0.9661 B(  2-O ,  3-C ) :   1.0793 B(  3-C ,  4-O ) :   2.0475
B(  3-C ,  5-C ) :   1.0069 B(  5-C ,  6-C ) :   1.6705 B(  5-C , 12-C ) :   0.9531
B(  6-C ,  7-C ) :   0.9491 B(  6-C ,  8-N ) :   1.1376 B(  7-C , 25-H ) :   0.9645
B(  7-C , 26-H ) :   0.9892 B(  7-C , 27-H ) :   0.9676 B(  8-N ,  9-C ) :   1.1843
B(  8-N , 28-H ) :   0.9471 B(  9-C , 10-S ) :   1.6126 B(  9-C , 11-N ) :   1.3025
B( 11-N , 12-C ) :   0.9821 B( 11-N , 29-H ) :   0.9487 B( 12-C , 13-C ) :   0.9691
B( 12-C , 30-H ) :   0.9948 B( 13-C , 14-C ) :   1.3812 B( 13-C , 19-C ) :   1.3603
B( 14-C , 15-C ) :   1.3958 B( 14-C , 31-H ) :   0.9614 B( 15-C , 16-C ) :   1.3601
B( 15-C , 32-H ) :   0.9705 B( 16-C , 17-C ) :   1.3326 B( 16-C , 33-H ) :   0.9854
B( 17-C , 18-O ) :   1.1056 B( 17-C , 19-C ) :   1.3653 B( 18-O , 34-H ) :   0.9800
B( 19-C , 35-H ) :   0.9594

MP2 TOTAL ENERGY:    -1274.327153217 Eh
FINAL SINGLE POINT ENERGY     -1274.327153217192

DIPOLE MOMENT
-------------
                                X             Y             Z
Electronic contribution:     10.19496       9.83522       8.73318
Nuclear contribution   :    -11.76833     -10.85339      -9.28774
                        -----------------------------------------
Total Dipole Moment    :     -1.57337      -1.01817      -0.55456
                        -----------------------------------------
Magnitude (a.u.)       :      1.95440
Magnitude (Debye)      :      4.96769

Rotational constants in cm-1:     0.010662     0.009201     0.005972
Rotational constants in MHz :   319.636867   275.835783   179.050717

                             ****ORCA TERMINATED NORMALLY****
TOTAL RUN TIME: 0 days 1 hours 38 minutes 42 seconds 247 msec
