                         Program Version 4.2.0 -  RELEASE  -
|  1> ! ri-mp2 cc-pvtz cc-pvtz/c TightSCF NoKeepInts
|  2>
|  3> %scf
|  4>   MaxCore 4096
|  5> end
|  6> *xyz  0  1
|  7>     C       14.3141053   15.0394976   14.9785563
|  8>     C       15.8248383   14.7753021   15.1682405
|  9>     O       16.5502821   15.8864623   15.7485827
| 10>     C       16.2620702   17.2139767   15.5623790
| 11>     O       15.5758127   17.6248821   14.6433510
| 12>     C       16.9208886   18.0886442   16.5971983
| 13>     C       17.0145554   19.4321143   16.4197184
| 14>     C       16.3020023   20.2728483   15.3802300
| 15>     N       17.8417733   20.2101811   17.2330207
| 16>     C       18.7470110   19.7051158   18.1263492
| 17>     S       19.7621903   20.6823680   18.9925320
| 18>     N       18.7837281   18.3397420   18.2520846
| 19>     C       17.8533304   17.3950732   17.6056924
| 20>     C       17.1302525   16.5077370   18.6107526
| 21>     C       17.4472507   15.1410074   18.7181675
| 22>     C       16.7784062   14.3242453   19.6454516
| 23>     C       15.7875011   14.8798624   20.4730813
| 24>     C       15.4734881   16.2422763   20.3705969
| 25>     O       14.5183009   16.7813906   21.1693605
| 26>     C       16.1410013   17.0525553   19.4468599
| 27>     H       13.8823792   15.5086191   15.8715468
| 28>     H       13.7854966   14.0947679   14.8040278
| 29>     H       14.1223629   15.6834125   14.1116898
| 30>     H       15.9598661   13.8964270   15.8117137
| 31>     H       16.2576723   14.5351278   14.1883992
| 32>     H       16.6528043   20.0198198   14.3715963
| 33>     H       16.4495510   21.3498540   15.5223418
| 34>     H       15.2208245   20.0857172   15.4077469
| 35>     H       17.8399131   21.2128184   17.1348826
| 36>     H       19.4383188   17.9982309   18.9443356
| 37>     H       18.5590427   16.8049130   17.0040880
| 38>     H       18.2099464   14.7101754   18.0750847
| 39>     H       17.0282661   13.2674237   19.7208658
| 40>     H       15.2683670   14.2534181   21.1909474
| 41>     H       14.1937220   16.0778652   21.7511572
| 42>     H       15.8896783   18.1061278   19.3853710
| 43> *
| 44>
| 45>                          ****END OF INPUT****

CARTESIAN COORDINATES (ANGSTROEM)
---------------------------------
  C     14.314105   15.039498   14.978556
  C     15.824838   14.775302   15.168240
  O     16.550282   15.886462   15.748583
  C     16.262070   17.213977   15.562379
  O     15.575813   17.624882   14.643351
  C     16.920889   18.088644   16.597198
  C     17.014555   19.432114   16.419718
  C     16.302002   20.272848   15.380230
  N     17.841773   20.210181   17.233021
  C     18.747011   19.705116   18.126349
  S     19.762190   20.682368   18.992532
  N     18.783728   18.339742   18.252085
  C     17.853330   17.395073   17.605692
  C     17.130252   16.507737   18.610753
  C     17.447251   15.141007   18.718167
  C     16.778406   14.324245   19.645452
  C     15.787501   14.879862   20.473081
  C     15.473488   16.242276   20.370597
  O     14.518301   16.781391   21.169360
  C     16.141001   17.052555   19.446860
  H     13.882379   15.508619   15.871547
  H     13.785497   14.094768   14.804028
  H     14.122363   15.683412   14.111690
  H     15.959866   13.896427   15.811714
  H     16.257672   14.535128   14.188399
  H     16.652804   20.019820   14.371596
  H     16.449551   21.349854   15.522342
  H     15.220824   20.085717   15.407747
  H     17.839913   21.212818   17.134883
  H     19.438319   17.998231   18.944336
  H     18.559043   16.804913   17.004088
  H     18.209946   14.710175   18.075085
  H     17.028266   13.267424   19.720866
  H     15.268367   14.253418   21.190947
  H     14.193722   16.077865   21.751157
  H     15.889678   18.106128   19.385371

 Total Charge           Charge          ....    0
 Multiplicity           Mult            ....    1
 Number of Electrons    NEL             ....  154
 Basis Dimension        Dim             ....  828

ORBITAL ENERGIES
----------------

  NO   OCC          E(Eh)            E(eV)
   0   2.0000     -91.888102     -2500.4024
   1   2.0000     -20.597206      -560.4785
   2   2.0000     -20.596543      -560.4604
   3   2.0000     -20.540357      -558.9315
   4   2.0000     -15.628346      -425.2689
   5   2.0000     -15.606186      -424.6659
   6   2.0000     -11.396659      -310.1189
   7   2.0000     -11.382712      -309.7393
   8   2.0000     -11.336385      -308.4787
   9   2.0000     -11.313674      -307.8607
  10   2.0000     -11.306460      -307.6644
  11   2.0000     -11.301918      -307.5408
  12   2.0000     -11.260586      -306.4161
  13   2.0000     -11.258655      -306.3636
  14   2.0000     -11.255192      -306.2694
  15   2.0000     -11.250974      -306.1546
  16   2.0000     -11.243460      -305.9501
  17   2.0000     -11.238701      -305.8206
  18   2.0000     -11.238602      -305.8179
  19   2.0000     -11.223081      -305.3956
  20   2.0000      -8.893181      -241.9958
  21   2.0000      -6.574757      -178.9082
  22   2.0000      -6.572756      -178.8538
  23   2.0000      -6.572168      -178.8378
  24   2.0000      -1.444678       -39.3117
  25   2.0000      -1.416201       -38.5368
  26   2.0000      -1.353292       -36.8249
  27   2.0000      -1.339570       -36.4515
  28   2.0000      -1.237473       -33.6734
  29   2.0000      -1.157280       -31.4912
  30   2.0000      -1.120055       -30.4783
  31   2.0000      -1.042280       -28.3619
  32   2.0000      -1.035692       -28.1826
  33   2.0000      -1.014871       -27.6160
  34   2.0000      -0.995458       -27.0878
  35   2.0000      -0.983595       -26.7650
  36   2.0000      -0.921161       -25.0661
  37   2.0000      -0.897714       -24.4280
  38   2.0000      -0.846193       -23.0261
  39   2.0000      -0.837900       -22.8004
  40   2.0000      -0.834041       -22.6954
  41   2.0000      -0.817010       -22.2320
  42   2.0000      -0.746304       -20.3080
  43   2.0000      -0.732479       -19.9318
  44   2.0000      -0.719547       -19.5799
  45   2.0000      -0.695100       -18.9146
  46   2.0000      -0.687459       -18.7067
  47   2.0000      -0.676905       -18.4195
  48   2.0000      -0.671701       -18.2779
  49   2.0000      -0.656564       -17.8660
  50   2.0000      -0.648640       -17.6504
  51   2.0000      -0.640635       -17.4326
  52   2.0000      -0.633840       -17.2477
  53   2.0000      -0.614127       -16.7113
  54   2.0000      -0.606487       -16.5033
  55   2.0000      -0.600343       -16.3362
  56   2.0000      -0.598726       -16.2922
  57   2.0000      -0.577082       -15.7032
  58   2.0000      -0.570312       -15.5190
  59   2.0000      -0.568041       -15.4572
  60   2.0000      -0.558895       -15.2083
  61   2.0000      -0.541709       -14.7406
  62   2.0000      -0.535271       -14.5655
  63   2.0000      -0.524502       -14.2724
  64   2.0000      -0.520663       -14.1680
  65   2.0000      -0.512658       -13.9501
  66   2.0000      -0.502004       -13.6602
  67   2.0000      -0.497495       -13.5375
  68   2.0000      -0.484191       -13.1755
  69   2.0000      -0.462233       -12.5780
  70   2.0000      -0.454199       -12.3594
  71   2.0000      -0.441373       -12.0104
  72   2.0000      -0.352113        -9.5815
  73   2.0000      -0.349499        -9.5104
  74   2.0000      -0.327384        -8.9086
  75   2.0000      -0.321072        -8.7368
  76   2.0000      -0.317313        -8.6345
  77   0.0000       0.078291         2.1304
  78   0.0000       0.104857         2.8533
  79   0.0000       0.125391         3.4121
  80   0.0000       0.133185         3.6241
  81   0.0000       0.137783         3.7493

MULLIKEN ATOMIC CHARGES
-----------------------
   0 C :   -0.306328
   1 C :    0.049728
   2 O :   -0.357145
   3 C :    0.443583
   4 O :   -0.434260
   5 C :   -0.228368
   6 C :    0.174051
   7 C :   -0.267950
   8 N :   -0.126028
   9 C :    0.210853
  10 S :   -0.443368
  11 N :   -0.215504
  12 C :    0.064611
  13 C :    0.047028
  14 C :   -0.184104
  15 C :   -0.132928
  16 C :   -0.276669
  17 C :    0.317233
  18 O :   -0.356869
  19 C :   -0.251501
  20 H :    0.100302
  21 H :    0.095484
  22 H :    0.126094
  23 H :    0.100754
  24 H :    0.096629
  25 H :    0.129338
  26 H :    0.094370
  27 H :    0.132451
  28 H :    0.199514
  29 H :    0.200293
  30 H :    0.151921
  31 H :    0.152715
  32 H :    0.160786
  33 H :    0.129951
  34 H :    0.240571
  35 H :    0.162763
Sum of atomic charges:    0.0000000

LOEWDIN ATOMIC CHARGES
----------------------
   0 C :    0.104146
   1 C :   -0.009558
   2 O :    0.298547
   3 C :   -0.413866
   4 O :    0.102555
   5 C :   -0.094401
   6 C :   -0.056898
   7 C :    0.130529
   8 N :    0.406971
   9 C :   -0.456608
  10 S :   -0.037641
  11 N :    0.394636
  12 C :   -0.054797
  13 C :   -0.038878
  14 C :    0.017003
  15 C :    0.038514
  16 C :   -0.000943
  17 C :   -0.189798
  18 O :    0.395011
  19 C :    0.032869
  20 H :   -0.026433
  21 H :   -0.027829
  22 H :   -0.025333
  23 H :   -0.025630
  24 H :   -0.029461
  25 H :   -0.005172
  26 H :   -0.023842
  27 H :   -0.004685
  28 H :   -0.057297
  29 H :   -0.064551
  30 H :   -0.013973
  31 H :   -0.029301
  32 H :   -0.021509
  33 H :   -0.035517
  34 H :   -0.154009
  35 H :   -0.022855

  Mayer bond orders larger than 0.100000
B(  0-C ,  1-C ) :   0.9640 B(  0-C , 20-H ) :   0.9757 B(  0-C , 21-H ) :   0.9757
B(  0-C , 22-H ) :   0.9723 B(  1-C ,  2-O ) :   0.9022 B(  1-C , 23-H ) :   0.9807
B(  1-C , 24-H ) :   0.9834 B(  2-O ,  3-C ) :   1.1605 B(  3-C ,  4-O ) :   1.9672
B(  3-C ,  5-C ) :   1.0589 B(  5-C ,  6-C ) :   1.6413 B(  5-C , 12-C ) :   0.9568
B(  6-C ,  7-C ) :   0.9654 B(  6-C ,  8-N ) :   1.1533 B(  7-C , 25-H ) :   0.9588
B(  7-C , 26-H ) :   0.9904 B(  7-C , 27-H ) :   0.9619 B(  8-N ,  9-C ) :   1.1882
B(  8-N , 28-H ) :   0.9466 B(  9-C , 10-S ) :   1.6043 B(  9-C , 11-N ) :   1.3100
B( 11-N , 12-C ) :   0.9686 B( 11-N , 29-H ) :   0.9487 B( 12-C , 13-C ) :   0.9632
B( 12-C , 30-H ) :   1.0003 B( 13-C , 14-C ) :   1.3541 B( 13-C , 19-C ) :   1.3797
B( 14-C , 15-C ) :   1.3932 B( 14-C , 31-H ) :   0.9711 B( 15-C , 16-C ) :   1.3603
B( 15-C , 32-H ) :   0.9706 B( 16-C , 17-C ) :   1.3340 B( 16-C , 33-H ) :   0.9851
B( 17-C , 18-O ) :   1.1043 B( 17-C , 19-C ) :   1.3641 B( 18-O , 34-H ) :   0.9799
B( 19-C , 35-H ) :   0.9597

MP2 TOTAL ENERGY:    -1274.336262701 Eh
FINAL SINGLE POINT ENERGY     -1274.336262701323

DIPOLE MOMENT
-------------
                                X             Y             Z
Electronic contribution:      9.96747       9.78028       8.95548
Nuclear contribution   :    -11.01990     -11.56377      -9.33416
                        -----------------------------------------
Total Dipole Moment    :     -1.05243      -1.78349      -0.37868
                        -----------------------------------------
Magnitude (a.u.)       :      2.10520
Magnitude (Debye)      :      5.35099

Rotational constants in cm-1:     0.011303     0.008638     0.005895
Rotational constants in MHz :   338.867467   258.965097   176.737096

                             ****ORCA TERMINATED NORMALLY****
TOTAL RUN TIME: 0 days 2 hours 0 minutes 29 seconds 732 msec
