                         Program Version 4.2.0 -  RELEASE  -
|  1> ! ri-mp2 cc-pvtz cc-pvtz/c TightSCF NoKeepInts
|  2>
|  3> %scf
|  4>   MaxCore 4096
|  5> end
|  6> *xyz  0  1
|  7>     C       14.6338380   14.8995260   14.4575479
|  8>     C       15.3882937   15.0642623   15.7929659
|  9>     O       16.4527752   16.0295882   15.6745400
| 10>     C       16.1776823   17.3646223   15.5661727
| 11>     O       15.3900397   17.8071975   14.7493878
| 12>     C       16.8580585   18.1801098   16.6337781
| 13>     C       16.9076728   19.5347075   16.5500531
| 14>     C       16.1307311   20.4233148   15.6005810
| 15>     N       17.7488493   20.2771265   17.3820698
| 16>     C       18.7074691   19.7365037   18.1955126
| 17>     S       19.7335654   20.6788390   19.0870096
| 18>     N       18.7881552   18.3672781   18.2177653
| 19>     C       17.8549541   17.4438747   17.5455603
| 20>     C       17.2064619   16.4612898   18.5122184
| 21>     C       17.6129176   15.1144947   18.5421208
| 22>     C       17.0074883   14.2060609   19.4265908
| 23>     C       15.9908058   14.6494951   20.2898442
| 24>     C       15.5889452   15.9922946   20.2660783
| 25>     O       14.6081887   16.4232028   21.0985705
| 26>     C       16.1922503   16.8936012   19.3834067
| 27>     H       13.9918138   15.7639669   14.2501242
| 28>     H       13.9918121   14.0111995   14.4900822
| 29>     H       15.3386982   14.7821453   13.6251228
| 30>     H       14.6908421   15.3580090   16.5890405
| 31>     H       15.8242102   14.0961851   16.0710995
| 32>     H       15.0546447   20.2204983   15.6756178
| 33>     H       16.4280486   20.2324287   14.5614805
| 34>     H       16.2756488   21.4924813   15.7950792
| 35>     H       17.7152280   21.2837750   17.3580505
| 36>     H       19.4848507   17.9972476   18.8518878
| 37>     H       18.5461281   16.9214523   16.8687831
| 38>     H       18.3959692   14.7702103   17.8714873
| 39>     H       17.3274306   13.1654832   19.4427851
| 40>     H       15.5212206   13.9521278   20.9759477
| 41>     H       14.3489290   15.6750493   21.6572715
| 42>     H       15.8723829   17.9303509   19.3823666
| 43> *
| 44>
| 45>                          ****END OF INPUT****

CARTESIAN COORDINATES (ANGSTROEM)
---------------------------------
  C     14.633838   14.899526   14.457548
  C     15.388294   15.064262   15.792966
  O     16.452775   16.029588   15.674540
  C     16.177682   17.364622   15.566173
  O     15.390040   17.807197   14.749388
  C     16.858058   18.180110   16.633778
  C     16.907673   19.534707   16.550053
  C     16.130731   20.423315   15.600581
  N     17.748849   20.277127   17.382070
  C     18.707469   19.736504   18.195513
  S     19.733565   20.678839   19.087010
  N     18.788155   18.367278   18.217765
  C     17.854954   17.443875   17.545560
  C     17.206462   16.461290   18.512218
  C     17.612918   15.114495   18.542121
  C     17.007488   14.206061   19.426591
  C     15.990806   14.649495   20.289844
  C     15.588945   15.992295   20.266078
  O     14.608189   16.423203   21.098571
  C     16.192250   16.893601   19.383407
  H     13.991814   15.763967   14.250124
  H     13.991812   14.011200   14.490082
  H     15.338698   14.782145   13.625123
  H     14.690842   15.358009   16.589040
  H     15.824210   14.096185   16.071099
  H     15.054645   20.220498   15.675618
  H     16.428049   20.232429   14.561480
  H     16.275649   21.492481   15.795079
  H     17.715228   21.283775   17.358051
  H     19.484851   17.997248   18.851888
  H     18.546128   16.921452   16.868783
  H     18.395969   14.770210   17.871487
  H     17.327431   13.165483   19.442785
  H     15.521221   13.952128   20.975948
  H     14.348929   15.675049   21.657271
  H     15.872383   17.930351   19.382367

 Total Charge           Charge          ....    0
 Multiplicity           Mult            ....    1
 Number of Electrons    NEL             ....  154
 Basis Dimension        Dim             ....  828

ORBITAL ENERGIES
----------------

  NO   OCC          E(Eh)            E(eV)
   0   2.0000     -91.889628     -2500.4439
   1   2.0000     -20.599470      -560.5401
   2   2.0000     -20.588345      -560.2374
   3   2.0000     -20.544830      -559.0532
   4   2.0000     -15.630097      -425.3166
   5   2.0000     -15.607669      -424.7063
   6   2.0000     -11.394589      -310.0625
   7   2.0000     -11.384255      -309.7813
   8   2.0000     -11.338060      -308.5243
   9   2.0000     -11.316981      -307.9507
  10   2.0000     -11.308227      -307.7125
  11   2.0000     -11.298750      -307.4546
  12   2.0000     -11.263507      -306.4956
  13   2.0000     -11.258308      -306.3541
  14   2.0000     -11.258117      -306.3489
  15   2.0000     -11.252515      -306.1965
  16   2.0000     -11.246591      -306.0353
  17   2.0000     -11.241760      -305.9038
  18   2.0000     -11.241401      -305.8941
  19   2.0000     -11.217168      -305.2347
  20   2.0000      -8.894694      -242.0369
  21   2.0000      -6.576264      -178.9492
  22   2.0000      -6.574268      -178.8949
  23   2.0000      -6.573675      -178.8788
  24   2.0000      -1.446322       -39.3564
  25   2.0000      -1.419146       -38.6169
  26   2.0000      -1.354491       -36.8576
  27   2.0000      -1.341137       -36.4942
  28   2.0000      -1.239053       -33.7163
  29   2.0000      -1.160219       -31.5712
  30   2.0000      -1.121549       -30.5189
  31   2.0000      -1.044729       -28.4285
  32   2.0000      -1.032391       -28.0928
  33   2.0000      -1.018035       -27.7021
  34   2.0000      -0.996484       -27.1157
  35   2.0000      -0.984942       -26.8016
  36   2.0000      -0.923120       -25.1194
  37   2.0000      -0.887978       -24.1631
  38   2.0000      -0.848065       -23.0770
  39   2.0000      -0.840428       -22.8692
  40   2.0000      -0.836942       -22.7743
  41   2.0000      -0.823153       -22.3991
  42   2.0000      -0.752897       -20.4874
  43   2.0000      -0.734683       -19.9917
  44   2.0000      -0.720199       -19.5976
  45   2.0000      -0.697924       -18.9915
  46   2.0000      -0.689468       -18.7614
  47   2.0000      -0.679466       -18.4892
  48   2.0000      -0.670198       -18.2370
  49   2.0000      -0.655960       -17.8496
  50   2.0000      -0.647752       -17.6262
  51   2.0000      -0.646590       -17.5946
  52   2.0000      -0.635722       -17.2989
  53   2.0000      -0.609708       -16.5910
  54   2.0000      -0.603624       -16.4254
  55   2.0000      -0.601174       -16.3588
  56   2.0000      -0.593346       -16.1458
  57   2.0000      -0.581821       -15.8322
  58   2.0000      -0.576201       -15.6792
  59   2.0000      -0.570236       -15.5169
  60   2.0000      -0.564192       -15.3524
  61   2.0000      -0.541005       -14.7215
  62   2.0000      -0.534917       -14.5558
  63   2.0000      -0.526265       -14.3204
  64   2.0000      -0.518108       -14.0984
  65   2.0000      -0.513338       -13.9686
  66   2.0000      -0.500868       -13.6293
  67   2.0000      -0.496281       -13.5045
  68   2.0000      -0.485647       -13.2151
  69   2.0000      -0.464067       -12.6279
  70   2.0000      -0.455998       -12.4083
  71   2.0000      -0.440515       -11.9870
  72   2.0000      -0.354088        -9.6352
  73   2.0000      -0.352038        -9.5794
  74   2.0000      -0.329027        -8.9533
  75   2.0000      -0.324242        -8.8231
  76   2.0000      -0.318949        -8.6790
  77   0.0000       0.073255         1.9934
  78   0.0000       0.101665         2.7664
  79   0.0000       0.124254         3.3811
  80   0.0000       0.131228         3.5709
  81   0.0000       0.134854         3.6696

MULLIKEN ATOMIC CHARGES
-----------------------
   0 C :   -0.274659
   1 C :    0.037473
   2 O :   -0.374108
   3 C :    0.457399
   4 O :   -0.422803
   5 C :   -0.250764
   6 C :    0.181634
   7 C :   -0.266675
   8 N :   -0.126056
   9 C :    0.212168
  10 S :   -0.441090
  11 N :   -0.217371
  12 C :    0.075445
  13 C :    0.022790
  14 C :   -0.177478
  15 C :   -0.130365
  16 C :   -0.278244
  17 C :    0.314636
  18 O :   -0.356041
  19 C :   -0.246917
  20 H :    0.116167
  21 H :    0.089624
  22 H :    0.095352
  23 H :    0.092398
  24 H :    0.102638
  25 H :    0.132767
  26 H :    0.129942
  27 H :    0.094907
  28 H :    0.199349
  29 H :    0.200781
  30 H :    0.151895
  31 H :    0.153617
  32 H :    0.163209
  33 H :    0.132208
  34 H :    0.241184
  35 H :    0.164991
Sum of atomic charges:   -0.0000000

LOEWDIN ATOMIC CHARGES
----------------------
   0 C :    0.104813
   1 C :   -0.018111
   2 O :    0.293966
   3 C :   -0.414941
   4 O :    0.113154
   5 C :   -0.098697
   6 C :   -0.055256
   7 C :    0.131303
   8 N :    0.407412
   9 C :   -0.456162
  10 S :   -0.035816
  11 N :    0.394304
  12 C :   -0.054683
  13 C :   -0.038907
  14 C :    0.018257
  15 C :    0.039531
  16 C :   -0.001085
  17 C :   -0.190380
  18 O :    0.395620
  19 C :    0.032014
  20 H :   -0.027746
  21 H :   -0.030775
  22 H :   -0.025792
  23 H :   -0.030327
  24 H :   -0.024523
  25 H :   -0.004546
  26 H :   -0.004584
  27 H :   -0.023532
  28 H :   -0.057058
  29 H :   -0.064586
  30 H :   -0.012779
  31 H :   -0.028340
  32 H :   -0.020730
  33 H :   -0.034944
  34 H :   -0.153358
  35 H :   -0.022714

  Mayer bond orders larger than 0.100000
B(  0-C ,  1-C ) :   0.9842 B(  0-C , 20-H ) :   0.9721 B(  0-C , 21-H ) :   0.9773
B(  0-C , 22-H ) :   0.9758 B(  1-C ,  2-O ) :   0.8922 B(  1-C , 23-H ) :   0.9704
B(  1-C , 24-H ) :   0.9810 B(  2-O ,  3-C ) :   1.0943 B(  3-C ,  4-O ) :   1.9849
B(  3-C ,  5-C ) :   1.0829 B(  5-C ,  6-C ) :   1.6309 B(  5-C , 12-C ) :   0.9535
B(  6-C ,  7-C ) :   0.9654 B(  6-C ,  8-N ) :   1.1563 B(  7-C , 25-H ) :   0.9608
B(  7-C , 26-H ) :   0.9587 B(  7-C , 27-H ) :   0.9905 B(  8-N ,  9-C ) :   1.1859
B(  8-N , 28-H ) :   0.9462 B(  9-C , 10-S ) :   1.6060 B(  9-C , 11-N ) :   1.3103
B( 11-N , 12-C ) :   0.9647 B( 11-N , 29-H ) :   0.9484 B( 12-C , 13-C ) :   0.9627
B( 12-C , 30-H ) :   1.0004 B( 13-C , 14-C ) :   1.3512 B( 13-C , 19-C ) :   1.3802
B( 14-C , 15-C ) :   1.3913 B( 14-C , 31-H ) :   0.9730 B( 15-C , 16-C ) :   1.3600
B( 15-C , 32-H ) :   0.9701 B( 16-C , 17-C ) :   1.3328 B( 16-C , 33-H ) :   0.9844
B( 17-C , 18-O ) :   1.1062 B( 17-C , 19-C ) :   1.3647 B( 18-O , 34-H ) :   0.9793
B( 19-C , 35-H ) :   0.9592

MP2 TOTAL ENERGY:    -1274.332213122 Eh
FINAL SINGLE POINT ENERGY     -1274.332213121995

DIPOLE MOMENT
-------------
                                X             Y             Z
Electronic contribution:      9.83443       9.85141       9.10337
Nuclear contribution   :    -10.86947     -11.49094      -9.18174
                        -----------------------------------------
Total Dipole Moment    :     -1.03505      -1.63953      -0.07837
                        -----------------------------------------
Magnitude (a.u.)       :      1.94050
Magnitude (Debye)      :      4.93235

Rotational constants in cm-1:     0.011597     0.008591     0.005908
Rotational constants in MHz :   347.659266   257.553637   177.131052

                             ****ORCA TERMINATED NORMALLY****
TOTAL RUN TIME: 0 days 1 hours 41 minutes 13 seconds 451 msec
