                         Program Version 4.2.0 -  RELEASE  -
|  1> ! ri-mp2 cc-pvtz cc-pvtz/c TightSCF NoKeepInts
|  2>
|  3> %scf
|  4>   MaxCore 4096
|  5> end
|  6> *xyz  0  1
|  7>     C       15.1883303   14.7064395   13.8359375
|  8>     C       14.5222910   15.8198404   14.6736324
|  9>     O       15.4648341   16.8454035   15.0561461
| 10>     C       16.5360531   16.5989653   15.8714143
| 11>     O       17.0363580   15.4962727   16.0107991
| 12>     C       16.9294523   17.7647306   16.7348799
| 13>     C       16.8184307   19.0546224   16.3193422
| 14>     C       16.1078489   19.5797242   15.0870283
| 15>     N       17.4425049   20.0873959   17.0239273
| 16>     C       18.3721653   19.9008916   18.0109121
| 17>     S       19.1546821   21.1714263   18.7243753
| 18>     N       18.6375788   18.6013421   18.3601916
| 19>     C       17.8993049   17.4200044   17.8730432
| 20>     C       17.2607217   16.6075960   18.9919853
| 21>     C       17.5398875   15.2362017   19.1321172
| 22>     C       16.9517694   14.4890830   20.1664889
| 23>     C       16.0780753   15.1192687   21.0692112
| 24>     C       15.7965970   16.4854340   20.9305249
| 25>     O       14.9501965   17.0954118   21.7982267
| 26>     C       16.3830930   17.2262089   19.8993988
| 27>     H       15.8516776   15.1348899   13.0745245
| 28>     H       14.4240181   14.1090510   13.3246199
| 29>     H       15.7716930   14.0216263   14.4628006
| 30>     H       13.7265401   16.2822408   14.0757146
| 31>     H       14.0582475   15.3806077   15.5668698
| 32>     H       15.0268024   19.4074208   15.1601384
| 33>     H       16.4712729   19.0761975   14.1823954
| 34>     H       16.2571032   20.6556966   14.9351512
| 35>     H       17.2746562   21.0458495   16.7631353
| 36>     H       19.3116052   18.4911537   19.1072331
| 37>     H       18.7202767   16.8565104   17.4061263
| 38>     H       18.2037155   14.7453218   18.4242605
| 39>     H       17.1702837   13.4269433   20.2608992
| 40>     H       15.6206510   14.5457239   21.8684020
| 41>     H       14.6722999   16.4312931   22.4466559
| 42>     H       16.1559824   18.2832106   19.8094912
| 43> *
| 44>
| 45>                          ****END OF INPUT****

CARTESIAN COORDINATES (ANGSTROEM)
---------------------------------
  C     15.188330   14.706440   13.835938
  C     14.522291   15.819840   14.673632
  O     15.464834   16.845403   15.056146
  C     16.536053   16.598965   15.871414
  O     17.036358   15.496273   16.010799
  C     16.929452   17.764731   16.734880
  C     16.818431   19.054622   16.319342
  C     16.107849   19.579724   15.087028
  N     17.442505   20.087396   17.023927
  C     18.372165   19.900892   18.010912
  S     19.154682   21.171426   18.724375
  N     18.637579   18.601342   18.360192
  C     17.899305   17.420004   17.873043
  C     17.260722   16.607596   18.991985
  C     17.539887   15.236202   19.132117
  C     16.951769   14.489083   20.166489
  C     16.078075   15.119269   21.069211
  C     15.796597   16.485434   20.930525
  O     14.950196   17.095412   21.798227
  C     16.383093   17.226209   19.899399
  H     15.851678   15.134890   13.074525
  H     14.424018   14.109051   13.324620
  H     15.771693   14.021626   14.462801
  H     13.726540   16.282241   14.075715
  H     14.058248   15.380608   15.566870
  H     15.026802   19.407421   15.160138
  H     16.471273   19.076197   14.182395
  H     16.257103   20.655697   14.935151
  H     17.274656   21.045849   16.763135
  H     19.311605   18.491154   19.107233
  H     18.720277   16.856510   17.406126
  H     18.203716   14.745322   18.424260
  H     17.170284   13.426943   20.260899
  H     15.620651   14.545724   21.868402
  H     14.672300   16.431293   22.446656
  H     16.155982   18.283211   19.809491

 Total Charge           Charge          ....    0
 Multiplicity           Mult            ....    1
 Number of Electrons    NEL             ....  154
 Basis Dimension        Dim             ....  828

ORBITAL ENERGIES
----------------

  NO   OCC          E(Eh)            E(eV)
   0   2.0000     -91.887482     -2500.3855
   1   2.0000     -20.599630      -560.5444
   2   2.0000     -20.591725      -560.3293
   3   2.0000     -20.547234      -559.1187
   4   2.0000     -15.627674      -425.2506
   5   2.0000     -15.605236      -424.6401
   6   2.0000     -11.397500      -310.1417
   7   2.0000     -11.382018      -309.7205
   8   2.0000     -11.336728      -308.4880
   9   2.0000     -11.307759      -307.6998
  10   2.0000     -11.304681      -307.6160
  11   2.0000     -11.303861      -307.5937
  12   2.0000     -11.259804      -306.3948
  13   2.0000     -11.258370      -306.3558
  14   2.0000     -11.254973      -306.2634
  15   2.0000     -11.247916      -306.0714
  16   2.0000     -11.238044      -305.8027
  17   2.0000     -11.234049      -305.6940
  18   2.0000     -11.230928      -305.6091
  19   2.0000     -11.222515      -305.3802
  20   2.0000      -8.892573      -241.9792
  21   2.0000      -6.574152      -178.8918
  22   2.0000      -6.572147      -178.8372
  23   2.0000      -6.571561      -178.8213
  24   2.0000      -1.450236       -39.4629
  25   2.0000      -1.411468       -38.4080
  26   2.0000      -1.358560       -36.9683
  27   2.0000      -1.339169       -36.4406
  28   2.0000      -1.236419       -33.6447
  29   2.0000      -1.152217       -31.3534
  30   2.0000      -1.120119       -30.4800
  31   2.0000      -1.042143       -28.3582
  32   2.0000      -1.033388       -28.1199
  33   2.0000      -1.009765       -27.4771
  34   2.0000      -0.997688       -27.1485
  35   2.0000      -0.982637       -26.7389
  36   2.0000      -0.920523       -25.0487
  37   2.0000      -0.892913       -24.2974
  38   2.0000      -0.847454       -23.0604
  39   2.0000      -0.835218       -22.7274
  40   2.0000      -0.828050       -22.5324
  41   2.0000      -0.819496       -22.2996
  42   2.0000      -0.749146       -20.3853
  43   2.0000      -0.731643       -19.9090
  44   2.0000      -0.725855       -19.7515
  45   2.0000      -0.690681       -18.7944
  46   2.0000      -0.685063       -18.6415
  47   2.0000      -0.679981       -18.5032
  48   2.0000      -0.668545       -18.1920
  49   2.0000      -0.664565       -18.0837
  50   2.0000      -0.644577       -17.5398
  51   2.0000      -0.641468       -17.4552
  52   2.0000      -0.632600       -17.2139
  53   2.0000      -0.605047       -16.4642
  54   2.0000      -0.598773       -16.2934
  55   2.0000      -0.597620       -16.2621
  56   2.0000      -0.594659       -16.1815
  57   2.0000      -0.587978       -15.9997
  58   2.0000      -0.572577       -15.5806
  59   2.0000      -0.568254       -15.4630
  60   2.0000      -0.559742       -15.2313
  61   2.0000      -0.546381       -14.8678
  62   2.0000      -0.536855       -14.6086
  63   2.0000      -0.521485       -14.1903
  64   2.0000      -0.515560       -14.0291
  65   2.0000      -0.510559       -13.8930
  66   2.0000      -0.500966       -13.6320
  67   2.0000      -0.493859       -13.4386
  68   2.0000      -0.479513       -13.0482
  69   2.0000      -0.461855       -12.5677
  70   2.0000      -0.458044       -12.4640
  71   2.0000      -0.447839       -12.1863
  72   2.0000      -0.352329        -9.5874
  73   2.0000      -0.344377        -9.3710
  74   2.0000      -0.326608        -8.8875
  75   2.0000      -0.316683        -8.6174
  76   2.0000      -0.314468        -8.5571
  77   0.0000       0.077570         2.1108
  78   0.0000       0.111544         3.0353
  79   0.0000       0.121724         3.3123
  80   0.0000       0.135949         3.6994
  81   0.0000       0.140217         3.8155

MULLIKEN ATOMIC CHARGES
-----------------------
   0 C :   -0.294422
   1 C :    0.044964
   2 O :   -0.355069
   3 C :    0.418141
   4 O :   -0.420704
   5 C :   -0.149839
   6 C :    0.153855
   7 C :   -0.280660
   8 N :   -0.128769
   9 C :    0.207795
  10 S :   -0.443370
  11 N :   -0.210958
  12 C :    0.038854
  13 C :    0.033119
  14 C :   -0.169832
  15 C :   -0.134627
  16 C :   -0.277304
  17 C :    0.313857
  18 O :   -0.358881
  19 C :   -0.250372
  20 H :    0.092644
  21 H :    0.093495
  22 H :    0.126186
  23 H :    0.100806
  24 H :    0.091073
  25 H :    0.128992
  26 H :    0.123977
  27 H :    0.101459
  28 H :    0.198673
  29 H :    0.199776
  30 H :    0.155892
  31 H :    0.159505
  32 H :    0.159928
  33 H :    0.128223
  34 H :    0.239856
  35 H :    0.163735
Sum of atomic charges:   -0.0000000

LOEWDIN ATOMIC CHARGES
----------------------
   0 C :    0.103861
   1 C :   -0.012824
   2 O :    0.296051
   3 C :   -0.412689
   4 O :    0.114803
   5 C :   -0.091121
   6 C :   -0.065349
   7 C :    0.124991
   8 N :    0.405182
   9 C :   -0.458660
  10 S :   -0.038426
  11 N :    0.396341
  12 C :   -0.048164
  13 C :   -0.040509
  14 C :    0.024184
  15 C :    0.040656
  16 C :   -0.001318
  17 C :   -0.192456
  18 O :    0.393157
  19 C :    0.029865
  20 H :   -0.027802
  21 H :   -0.029674
  22 H :   -0.026284
  23 H :   -0.024492
  24 H :   -0.028377
  25 H :   -0.009368
  26 H :   -0.009724
  27 H :   -0.021234
  28 H :   -0.058858
  29 H :   -0.063247
  30 H :   -0.008411
  31 H :   -0.024127
  32 H :   -0.021142
  33 H :   -0.036207
  34 H :   -0.154904
  35 H :   -0.023724

  Mayer bond orders larger than 0.100000
B(  0-C ,  1-C ) :   0.9697 B(  0-C , 20-H ) :   0.9756 B(  0-C , 21-H ) :   0.9767
B(  0-C , 22-H ) :   0.9708 B(  1-C ,  2-O ) :   0.9098 B(  1-C , 23-H ) :   0.9847
B(  1-C , 24-H ) :   0.9791 B(  2-O ,  3-C ) :   1.1132 B(  3-C ,  4-O ) :   1.9811
B(  3-C ,  5-C ) :   1.0484 B(  5-C ,  6-C ) :   1.6564 B(  5-C , 12-C ) :   0.9460
B(  6-C ,  7-C ) :   0.9548 B(  6-C ,  8-N ) :   1.1326 B(  7-C , 25-H ) :   0.9629
B(  7-C , 26-H ) :   0.9659 B(  7-C , 27-H ) :   0.9912 B(  8-N ,  9-C ) :   1.1866
B(  8-N , 28-H ) :   0.9471 B(  9-C , 10-S ) :   1.6074 B(  9-C , 11-N ) :   1.3057
B( 11-N , 12-C ) :   0.9761 B( 11-N , 29-H ) :   0.9485 B( 12-C , 13-C ) :   0.9732
B( 12-C , 30-H ) :   0.9968 B( 13-C , 14-C ) :   1.3766 B( 13-C , 19-C ) :   1.3662
B( 14-C , 15-C ) :   1.3972 B( 14-C , 31-H ) :   0.9637 B( 15-C , 16-C ) :   1.3589
B( 15-C , 32-H ) :   0.9712 B( 16-C , 17-C ) :   1.3331 B( 16-C , 33-H ) :   0.9860
B( 17-C , 18-O ) :   1.1036 B( 17-C , 19-C ) :   1.3674 B( 18-O , 34-H ) :   0.9807
B( 19-C , 35-H ) :   0.9600

MP2 TOTAL ENERGY:    -1274.333541099 Eh
FINAL SINGLE POINT ENERGY     -1274.333541098641

DIPOLE MOMENT
-------------
                                X             Y             Z
Electronic contribution:      8.92620      10.28959      11.97639
Nuclear contribution   :    -10.53869     -11.49817     -12.93930
                        -----------------------------------------
Total Dipole Moment    :     -1.61250      -1.20858      -0.96290
                        -----------------------------------------
Magnitude (a.u.)       :      2.23338
Magnitude (Debye)      :      5.67680

Rotational constants in cm-1:     0.009904     0.009043     0.005528
Rotational constants in MHz :   296.927390   271.113453   165.718829

                             ****ORCA TERMINATED NORMALLY****
TOTAL RUN TIME: 0 days 1 hours 50 minutes 53 seconds 525 msec
