                         Program Version 4.2.0 -  RELEASE  -
|  1> ! ri-mp2 cc-pvtz cc-pvtz/c TightSCF NoKeepInts
|  2>
|  3> %scf
|  4>   MaxCore 4096
|  5> end
|  6> *xyz  0  1
|  7>     C       14.4415759   14.7938441   15.2259094
|  8>     C       15.9596405   14.8493582   14.9490361
|  9>     O       16.5766619   15.8929253   15.7290462
| 10>     C       16.2541625   17.2119790   15.5537062
| 11>     O       15.5571598   17.5982330   14.6307706
| 12>     C       16.8906342   18.1027466   16.5876387
| 13>     C       16.9620981   19.4462452   16.4026611
| 14>     C       16.2424691   20.2667220   15.3520746
| 15>     N       17.7705495   20.2430226   17.2166496
| 16>     C       18.6781885   19.7582072   18.1188732
| 17>     S       19.6710301   20.7574509   18.9858166
| 18>     N       18.7369966   18.3942600   18.2529739
| 19>     C       17.8270664   17.4301361   17.6058598
| 20>     C       17.1087251   16.5381840   18.6101847
| 21>     C       17.4188486   15.1689359   18.7041623
| 22>     C       16.7531683   14.3485456   19.6305118
| 23>     C       15.7724640   14.9029919   20.4709549
| 24>     C       15.4650763   16.2678138   20.3816663
| 25>     O       14.5193903   16.8057398   21.1924605
| 26>     C       16.1292876   17.0816565   19.4586748
| 27>     H       14.2476707   14.7465406   16.3048946
| 28>     H       14.0036320   13.9021201   14.7617175
| 29>     H       13.9214962   15.6685807   14.8176153
| 30>     H       16.4099569   13.8858427   15.2196668
| 31>     H       16.1363813   15.0194559   13.8784081
| 32>     H       16.6027705   20.0108319   14.3475512
| 33>     H       16.3724666   21.3470492   15.4859841
| 34>     H       15.1641890   20.0629185   15.3754067
| 35>     H       17.7521909   21.2449501   17.1129767
| 36>     H       19.3924294   18.0677163   18.9516609
| 37>     H       18.5469381   16.8477089   17.0136169
| 38>     H       18.1725043   14.7385783   18.0502418
| 39>     H       16.9969585   13.2895794   19.6944592
| 40>     H       15.2556250   14.2735925   21.1878597
| 41>     H       14.1938681   16.0986520   21.7693688
| 42>     H       15.8827293   18.1368852   19.4069402
| 43> *
| 44>
| 45>                          ****END OF INPUT****

CARTESIAN COORDINATES (ANGSTROEM)
---------------------------------
  C     14.441576   14.793844   15.225909
  C     15.959640   14.849358   14.949036
  O     16.576662   15.892925   15.729046
  C     16.254162   17.211979   15.553706
  O     15.557160   17.598233   14.630771
  C     16.890634   18.102747   16.587639
  C     16.962098   19.446245   16.402661
  C     16.242469   20.266722   15.352075
  N     17.770550   20.243023   17.216650
  C     18.678189   19.758207   18.118873
  S     19.671030   20.757451   18.985817
  N     18.736997   18.394260   18.252974
  C     17.827066   17.430136   17.605860
  C     17.108725   16.538184   18.610185
  C     17.418849   15.168936   18.704162
  C     16.753168   14.348546   19.630512
  C     15.772464   14.902992   20.470955
  C     15.465076   16.267814   20.381666
  O     14.519390   16.805740   21.192460
  C     16.129288   17.081657   19.458675
  H     14.247671   14.746541   16.304895
  H     14.003632   13.902120   14.761717
  H     13.921496   15.668581   14.817615
  H     16.409957   13.885843   15.219667
  H     16.136381   15.019456   13.878408
  H     16.602770   20.010832   14.347551
  H     16.372467   21.347049   15.485984
  H     15.164189   20.062918   15.375407
  H     17.752191   21.244950   17.112977
  H     19.392429   18.067716   18.951661
  H     18.546938   16.847709   17.013617
  H     18.172504   14.738578   18.050242
  H     16.996959   13.289579   19.694459
  H     15.255625   14.273592   21.187860
  H     14.193868   16.098652   21.769369
  H     15.882729   18.136885   19.406940

 Total Charge           Charge          ....    0
 Multiplicity           Mult            ....    1
 Number of Electrons    NEL             ....  154
 Basis Dimension        Dim             ....  828

ORBITAL ENERGIES
----------------

  NO   OCC          E(Eh)            E(eV)
   0   2.0000     -91.888427     -2500.4112
   1   2.0000     -20.600382      -560.5649
   2   2.0000     -20.596083      -560.4479
   3   2.0000     -20.541312      -558.9575
   4   2.0000     -15.628766      -425.2803
   5   2.0000     -15.606585      -424.6768
   6   2.0000     -11.396246      -310.1076
   7   2.0000     -11.383098      -309.7498
   8   2.0000     -11.336941      -308.4939
   9   2.0000     -11.313197      -307.8478
  10   2.0000     -11.306905      -307.6765
  11   2.0000     -11.299529      -307.4758
  12   2.0000     -11.260184      -306.4052
  13   2.0000     -11.259372      -306.3831
  14   2.0000     -11.254598      -306.2532
  15   2.0000     -11.251426      -306.1669
  16   2.0000     -11.243176      -305.9424
  17   2.0000     -11.238492      -305.8149
  18   2.0000     -11.238230      -305.8078
  19   2.0000     -11.222080      -305.3683
  20   2.0000      -8.893503      -242.0045
  21   2.0000      -6.575077      -178.9169
  22   2.0000      -6.573077      -178.8625
  23   2.0000      -6.572488      -178.8465
  24   2.0000      -1.449608       -39.4458
  25   2.0000      -1.415758       -38.5247
  26   2.0000      -1.354339       -36.8534
  27   2.0000      -1.339942       -36.4617
  28   2.0000      -1.237813       -33.6826
  29   2.0000      -1.157118       -31.4868
  30   2.0000      -1.120718       -30.4963
  31   2.0000      -1.042353       -28.3639
  32   2.0000      -1.035599       -28.1801
  33   2.0000      -1.014451       -27.6046
  34   2.0000      -0.995515       -27.0893
  35   2.0000      -0.983966       -26.7751
  36   2.0000      -0.921387       -25.0722
  37   2.0000      -0.895577       -24.3699
  38   2.0000      -0.846305       -23.0291
  39   2.0000      -0.837670       -22.7942
  40   2.0000      -0.833697       -22.6860
  41   2.0000      -0.816435       -22.2163
  42   2.0000      -0.752953       -20.4889
  43   2.0000      -0.733033       -19.9469
  44   2.0000      -0.721720       -19.6390
  45   2.0000      -0.695031       -18.9127
  46   2.0000      -0.688566       -18.7368
  47   2.0000      -0.679176       -18.4813
  48   2.0000      -0.671183       -18.2638
  49   2.0000      -0.655765       -17.8443
  50   2.0000      -0.647892       -17.6300
  51   2.0000      -0.639564       -17.4034
  52   2.0000      -0.632505       -17.2113
  53   2.0000      -0.613615       -16.6973
  54   2.0000      -0.606092       -16.4926
  55   2.0000      -0.600164       -16.3313
  56   2.0000      -0.598591       -16.2885
  57   2.0000      -0.576900       -15.6982
  58   2.0000      -0.570323       -15.5193
  59   2.0000      -0.568811       -15.4781
  60   2.0000      -0.559927       -15.2364
  61   2.0000      -0.543426       -14.7874
  62   2.0000      -0.535017       -14.5586
  63   2.0000      -0.525537       -14.3006
  64   2.0000      -0.522561       -14.2196
  65   2.0000      -0.512711       -13.9516
  66   2.0000      -0.501044       -13.6341
  67   2.0000      -0.497690       -13.5428
  68   2.0000      -0.482883       -13.1399
  69   2.0000      -0.462698       -12.5906
  70   2.0000      -0.455897       -12.4056
  71   2.0000      -0.445318       -12.1177
  72   2.0000      -0.352675        -9.5968
  73   2.0000      -0.349351        -9.5063
  74   2.0000      -0.327624        -8.9151
  75   2.0000      -0.320573        -8.7232
  76   2.0000      -0.317585        -8.6419
  77   0.0000       0.078039         2.1236
  78   0.0000       0.105744         2.8774
  79   0.0000       0.125029         3.4022
  80   0.0000       0.133134         3.6228
  81   0.0000       0.137767         3.7488

MULLIKEN ATOMIC CHARGES
-----------------------
   0 C :   -0.308351
   1 C :    0.031378
   2 O :   -0.351012
   3 C :    0.446635
   4 O :   -0.441716
   5 C :   -0.220858
   6 C :    0.170770
   7 C :   -0.268582
   8 N :   -0.125757
   9 C :    0.210374
  10 S :   -0.442678
  11 N :   -0.214854
  12 C :    0.059990
  13 C :    0.046373
  14 C :   -0.179958
  15 C :   -0.133087
  16 C :   -0.276870
  17 C :    0.317122
  18 O :   -0.356867
  19 C :   -0.250149
  20 H :    0.102406
  21 H :    0.094344
  22 H :    0.123504
  23 H :    0.108558
  24 H :    0.105803
  25 H :    0.129012
  26 H :    0.094632
  27 H :    0.133148
  28 H :    0.199637
  29 H :    0.200168
  30 H :    0.152629
  31 H :    0.151342
  32 H :    0.159955
  33 H :    0.129933
  34 H :    0.240444
  35 H :    0.162582
Sum of atomic charges:   -0.0000000

LOEWDIN ATOMIC CHARGES
----------------------
   0 C :    0.105552
   1 C :   -0.015735
   2 O :    0.305397
   3 C :   -0.411840
   4 O :    0.096685
   5 C :   -0.093707
   6 C :   -0.056958
   7 C :    0.130842
   8 N :    0.407007
   9 C :   -0.456675
  10 S :   -0.037180
  11 N :    0.394752
  12 C :   -0.054674
  13 C :   -0.039718
  14 C :    0.016836
  15 C :    0.038970
  16 C :   -0.000759
  17 C :   -0.189910
  18 O :    0.394978
  19 C :    0.033130
  20 H :   -0.027122
  21 H :   -0.027844
  22 H :   -0.026056
  23 H :   -0.025110
  24 H :   -0.028602
  25 H :   -0.005220
  26 H :   -0.023691
  27 H :   -0.004471
  28 H :   -0.057212
  29 H :   -0.064383
  30 H :   -0.014094
  31 H :   -0.029376
  32 H :   -0.021498
  33 H :   -0.035452
  34 H :   -0.154080
  35 H :   -0.022780

  Mayer bond orders larger than 0.100000
B(  0-C ,  1-C ) :   0.9607 B(  0-C , 20-H ) :   0.9749 B(  0-C , 21-H ) :   0.9769
B(  0-C , 22-H ) :   0.9732 B(  1-C ,  2-O ) :   0.9023 B(  1-C , 23-H ) :   0.9844
B(  1-C , 24-H ) :   0.9818 B(  2-O ,  3-C ) :   1.1618 B(  3-C ,  4-O ) :   1.9504
B(  3-C ,  5-C ) :   1.0694 B(  5-C ,  6-C ) :   1.6448 B(  5-C , 12-C ) :   0.9564
B(  6-C ,  7-C ) :   0.9648 B(  6-C ,  8-N ) :   1.1536 B(  7-C , 25-H ) :   0.9590
B(  7-C , 26-H ) :   0.9904 B(  7-C , 27-H ) :   0.9617 B(  8-N ,  9-C ) :   1.1878
B(  8-N , 28-H ) :   0.9464 B(  9-C , 10-S ) :   1.6055 B(  9-C , 11-N ) :   1.3090
B( 11-N , 12-C ) :   0.9698 B( 11-N , 29-H ) :   0.9485 B( 12-C , 13-C ) :   0.9632
B( 12-C , 30-H ) :   1.0000 B( 13-C , 14-C ) :   1.3543 B( 13-C , 19-C ) :   1.3797
B( 14-C , 15-C ) :   1.3952 B( 14-C , 31-H ) :   0.9714 B( 15-C , 16-C ) :   1.3598
B( 15-C , 32-H ) :   0.9709 B( 16-C , 17-C ) :   1.3336 B( 16-C , 33-H ) :   0.9852
B( 17-C , 18-O ) :   1.1045 B( 17-C , 19-C ) :   1.3648 B( 18-O , 34-H ) :   0.9800
B( 19-C , 35-H ) :   0.9596

MP2 TOTAL ENERGY:    -1274.342949932 Eh
FINAL SINGLE POINT ENERGY     -1274.342949932462

DIPOLE MOMENT
-------------
                                X             Y             Z
Electronic contribution:      9.52086      10.27976       8.75748
Nuclear contribution   :    -10.47187     -12.04931      -9.19962
                        -----------------------------------------
Total Dipole Moment    :     -0.95101      -1.76955      -0.44214
                        -----------------------------------------
Magnitude (a.u.)       :      2.05700
Magnitude (Debye)      :      5.22847

Rotational constants in cm-1:     0.011339     0.008640     0.005898
Rotational constants in MHz :   339.947211   259.031209   176.824706

                             ****ORCA TERMINATED NORMALLY****
TOTAL RUN TIME: 0 days 1 hours 58 minutes 1 seconds 956 msec
