                         Program Version 4.2.0 -  RELEASE  -
|  1> ! ri-mp2 cc-pvtz cc-pvtz/c TightSCF NoKeepInts
|  2>
|  3> %scf
|  4>   MaxCore 4096
|  5> end
|  6> *xyz  0  1
|  7>     C       14.5729584   14.9772239   14.4486809
|  8>     C       15.6419677   14.7809941   15.5444758
|  9>     O       16.5121332   15.9177064   15.7807746
| 10>     C       16.2065441   17.2426773   15.5929873
| 11>     O       15.4603145   17.6513462   14.7215419
| 12>     C       16.8639294   18.1202144   16.6270845
| 13>     C       16.9179053   19.4682945   16.4673037
| 14>     C       16.1639543   20.3043266   15.4534157
| 15>     N       17.7405509   20.2572058   17.2748406
| 16>     C       18.6789450   19.7649099   18.1405728
| 17>     S       19.6854256   20.7574131   18.9995143
| 18>     N       18.7566026   18.3994909   18.2443144
| 19>     C       17.8379083   17.4389201   17.6049519
| 20>     C       17.1643340   16.5163535   18.6129452
| 21>     C       17.5423568   15.1643910   18.7099518
| 22>     C       16.9175703   14.3136313   19.6373546
| 23>     C       15.9097980   14.8203473   20.4759188
| 24>     C       15.5356101   16.1682979   20.3845310
| 25>     O       14.5642600   16.6603450   21.1940220
| 26>     C       16.1588184   17.0122461   19.4599786
| 27>     H       13.8159380   15.7086491   14.7580042
| 28>     H       14.0556954   14.0310586   14.2497991
| 29>     H       15.0303914   15.3154813   13.5103260
| 30>     H       15.1231340   14.5409717   16.4819464
| 31>     H       16.2622749   13.9123671   15.2893748
| 32>     H       15.0869060   20.1006754   15.5101245
| 33>     H       16.4898206   20.0624414   14.4337279
| 34>     H       16.2996802   21.3826404   15.5973615
| 35>     H       17.7086551   21.2607295   17.1920543
| 36>     H       19.4363742   18.0665498   18.9161654
| 37>     H       18.5453503   16.8775588   16.9782108
| 38>     H       18.3188523   14.7714916   18.0589480
| 39>     H       17.2153970   13.2687189   19.7054753
| 40>     H       15.4251137   14.1678170   21.1947291
| 41>     H       14.2807586   15.9424421   21.7797744
| 42>     H       15.8607713   18.0540721   19.4068179
| 43> *
| 44>
| 45>                          ****END OF INPUT****

CARTESIAN COORDINATES (ANGSTROEM)
---------------------------------
  C     14.572958   14.977224   14.448681
  C     15.641968   14.780994   15.544476
  O     16.512133   15.917706   15.780775
  C     16.206544   17.242677   15.592987
  O     15.460315   17.651346   14.721542
  C     16.863929   18.120214   16.627084
  C     16.917905   19.468294   16.467304
  C     16.163954   20.304327   15.453416
  N     17.740551   20.257206   17.274841
  C     18.678945   19.764910   18.140573
  S     19.685426   20.757413   18.999514
  N     18.756603   18.399491   18.244314
  C     17.837908   17.438920   17.604952
  C     17.164334   16.516354   18.612945
  C     17.542357   15.164391   18.709952
  C     16.917570   14.313631   19.637355
  C     15.909798   14.820347   20.475919
  C     15.535610   16.168298   20.384531
  O     14.564260   16.660345   21.194022
  C     16.158818   17.012246   19.459979
  H     13.815938   15.708649   14.758004
  H     14.055695   14.031059   14.249799
  H     15.030391   15.315481   13.510326
  H     15.123134   14.540972   16.481946
  H     16.262275   13.912367   15.289375
  H     15.086906   20.100675   15.510124
  H     16.489821   20.062441   14.433728
  H     16.299680   21.382640   15.597361
  H     17.708655   21.260730   17.192054
  H     19.436374   18.066550   18.916165
  H     18.545350   16.877559   16.978211
  H     18.318852   14.771492   18.058948
  H     17.215397   13.268719   19.705475
  H     15.425114   14.167817   21.194729
  H     14.280759   15.942442   21.779774
  H     15.860771   18.054072   19.406818

 Total Charge           Charge          ....    0
 Multiplicity           Mult            ....    1
 Number of Electrons    NEL             ....  154
 Basis Dimension        Dim             ....  828

ORBITAL ENERGIES
----------------

  NO   OCC          E(Eh)            E(eV)
   0   2.0000     -91.888298     -2500.4077
   1   2.0000     -20.597473      -560.4857
   2   2.0000     -20.593574      -560.3796
   3   2.0000     -20.540841      -558.9447
   4   2.0000     -15.628533      -425.2740
   5   2.0000     -15.606294      -424.6689
   6   2.0000     -11.396994      -310.1280
   7   2.0000     -11.382849      -309.7431
   8   2.0000     -11.336439      -308.4802
   9   2.0000     -11.314732      -307.8895
  10   2.0000     -11.306581      -307.6677
  11   2.0000     -11.301889      -307.5400
  12   2.0000     -11.261450      -306.4396
  13   2.0000     -11.257799      -306.3403
  14   2.0000     -11.256181      -306.2962
  15   2.0000     -11.251096      -306.1579
  16   2.0000     -11.244433      -305.9766
  17   2.0000     -11.239561      -305.8440
  18   2.0000     -11.239353      -305.8383
  19   2.0000     -11.221203      -305.3444
  20   2.0000      -8.893376      -242.0011
  21   2.0000      -6.574951      -178.9135
  22   2.0000      -6.572952      -178.8591
  23   2.0000      -6.572363      -178.8431
  24   2.0000      -1.441813       -39.2337
  25   2.0000      -1.417127       -38.5620
  26   2.0000      -1.353347       -36.8265
  27   2.0000      -1.339732       -36.4560
  28   2.0000      -1.237643       -33.6780
  29   2.0000      -1.158043       -31.5120
  30   2.0000      -1.119930       -30.4748
  31   2.0000      -1.042780       -28.3755
  32   2.0000      -1.035136       -28.1675
  33   2.0000      -1.015816       -27.6418
  34   2.0000      -0.995488       -27.0886
  35   2.0000      -0.983565       -26.7642
  36   2.0000      -0.921457       -25.0741
  37   2.0000      -0.895301       -24.3624
  38   2.0000      -0.846554       -23.0359
  39   2.0000      -0.838576       -22.8188
  40   2.0000      -0.834890       -22.7185
  41   2.0000      -0.819020       -22.2867
  42   2.0000      -0.745566       -20.2879
  43   2.0000      -0.732193       -19.9240
  44   2.0000      -0.716976       -19.5099
  45   2.0000      -0.695826       -18.9344
  46   2.0000      -0.687358       -18.7040
  47   2.0000      -0.676320       -18.4036
  48   2.0000      -0.667695       -18.1689
  49   2.0000      -0.662158       -18.0182
  50   2.0000      -0.648109       -17.6360
  51   2.0000      -0.644047       -17.5254
  52   2.0000      -0.634690       -17.2708
  53   2.0000      -0.607706       -16.5365
  54   2.0000      -0.601926       -16.3792
  55   2.0000      -0.600318       -16.3355
  56   2.0000      -0.598828       -16.2949
  57   2.0000      -0.578733       -15.7481
  58   2.0000      -0.574263       -15.6265
  59   2.0000      -0.569015       -15.4837
  60   2.0000      -0.561374       -15.2758
  61   2.0000      -0.540079       -14.6963
  62   2.0000      -0.534837       -14.5536
  63   2.0000      -0.523999       -14.2588
  64   2.0000      -0.523659       -14.2495
  65   2.0000      -0.512395       -13.9430
  66   2.0000      -0.500175       -13.6105
  67   2.0000      -0.496621       -13.5137
  68   2.0000      -0.484030       -13.1711
  69   2.0000      -0.462679       -12.5901
  70   2.0000      -0.451019       -12.2728
  71   2.0000      -0.439571       -11.9613
  72   2.0000      -0.352203        -9.5839
  73   2.0000      -0.350250        -9.5308
  74   2.0000      -0.327644        -8.9156
  75   2.0000      -0.322087        -8.7644
  76   2.0000      -0.317566        -8.6414
  77   0.0000       0.076497         2.0816
  78   0.0000       0.104635         2.8473
  79   0.0000       0.124930         3.3995
  80   0.0000       0.132664         3.6100
  81   0.0000       0.137102         3.7307

MULLIKEN ATOMIC CHARGES
-----------------------
   0 C :   -0.280562
   1 C :    0.043161
   2 O :   -0.371219
   3 C :    0.441250
   4 O :   -0.428164
   5 C :   -0.226941
   6 C :    0.177740
   7 C :   -0.266584
   8 N :   -0.126517
   9 C :    0.211274
  10 S :   -0.443178
  11 N :   -0.216653
  12 C :    0.071140
  13 C :    0.041463
  14 C :   -0.187825
  15 C :   -0.131641
  16 C :   -0.278325
  17 C :    0.316667
  18 O :   -0.356425
  19 C :   -0.250506
  20 H :    0.107504
  21 H :    0.095019
  22 H :    0.108109
  23 H :    0.096841
  24 H :    0.095879
  25 H :    0.132530
  26 H :    0.129336
  27 H :    0.094445
  28 H :    0.199558
  29 H :    0.200334
  30 H :    0.151333
  31 H :    0.154468
  32 H :    0.161508
  33 H :    0.130839
  34 H :    0.240695
  35 H :    0.163448
Sum of atomic charges:   -0.0000000

LOEWDIN ATOMIC CHARGES
----------------------
   0 C :    0.102612
   1 C :   -0.011291
   2 O :    0.293135
   3 C :   -0.412501
   4 O :    0.109452
   5 C :   -0.095987
   6 C :   -0.056287
   7 C :    0.130477
   8 N :    0.407056
   9 C :   -0.456579
  10 S :   -0.037428
  11 N :    0.394462
  12 C :   -0.054812
  13 C :   -0.038684
  14 C :    0.017116
  15 C :    0.038613
  16 C :   -0.001717
  17 C :   -0.189897
  18 O :    0.395225
  19 C :    0.032505
  20 H :   -0.026500
  21 H :   -0.028482
  22 H :   -0.024272
  23 H :   -0.028972
  24 H :   -0.025764
  25 H :   -0.004780
  26 H :   -0.005100
  27 H :   -0.023875
  28 H :   -0.057318
  29 H :   -0.064638
  30 H :   -0.013636
  31 H :   -0.028972
  32 H :   -0.021210
  33 H :   -0.035400
  34 H :   -0.153841
  35 H :   -0.022709

  Mayer bond orders larger than 0.100000
B(  0-C ,  1-C ) :   0.9843 B(  0-C , 20-H ) :   0.9737 B(  0-C , 21-H ) :   0.9738
B(  0-C , 22-H ) :   0.9739 B(  1-C ,  2-O ) :   0.8969 B(  1-C , 23-H ) :   0.9719
B(  1-C , 24-H ) :   0.9799 B(  2-O ,  3-C ) :   1.1185 B(  3-C ,  4-O ) :   1.9798
B(  3-C ,  5-C ) :   1.0740 B(  5-C ,  6-C ) :   1.6371 B(  5-C , 12-C ) :   0.9586
B(  6-C ,  7-C ) :   0.9649 B(  6-C ,  8-N ) :   1.1507 B(  7-C , 25-H ) :   0.9612
B(  7-C , 26-H ) :   0.9588 B(  7-C , 27-H ) :   0.9910 B(  8-N ,  9-C ) :   1.1880
B(  8-N , 28-H ) :   0.9464 B(  9-C , 10-S ) :   1.6042 B(  9-C , 11-N ) :   1.3106
B( 11-N , 12-C ) :   0.9654 B( 11-N , 29-H ) :   0.9485 B( 12-C , 13-C ) :   0.9613
B( 12-C , 30-H ) :   1.0006 B( 13-C , 14-C ) :   1.3506 B( 13-C , 19-C ) :   1.3815
B( 14-C , 15-C ) :   1.3924 B( 14-C , 31-H ) :   0.9722 B( 15-C , 16-C ) :   1.3587
B( 15-C , 32-H ) :   0.9706 B( 16-C , 17-C ) :   1.3335 B( 16-C , 33-H ) :   0.9850
B( 17-C , 18-O ) :   1.1052 B( 17-C , 19-C ) :   1.3646 B( 18-O , 34-H ) :   0.9797
B( 19-C , 35-H ) :   0.9594

MP2 TOTAL ENERGY:    -1274.330772728 Eh
FINAL SINGLE POINT ENERGY     -1274.330772728246

DIPOLE MOMENT
-------------
                                X             Y             Z
Electronic contribution:      9.57219      10.06621       9.46276
Nuclear contribution   :    -10.60939     -11.85381      -9.72097
                        -----------------------------------------
Total Dipole Moment    :     -1.03720      -1.78760      -0.25821
                        -----------------------------------------
Magnitude (a.u.)       :      2.08278
Magnitude (Debye)      :      5.29401

Rotational constants in cm-1:     0.011223     0.008650     0.005852
Rotational constants in MHz :   336.454028   259.326005   175.436475

                             ****ORCA TERMINATED NORMALLY****
TOTAL RUN TIME: 0 days 1 hours 41 minutes 29 seconds 946 msec
