                         Program Version 4.2.0 -  RELEASE  -
|  1> ! ri-mp2 cc-pvtz cc-pvtz/c TightSCF NoKeepInts
|  2>
|  3> %scf
|  4>   MaxCore 4096
|  5> end
|  6> *xyz  0  1
|  7>     C       15.2419963   14.9928279   13.4717714
|  8>     C       14.5517740   15.6878793   14.6626193
|  9>     O       15.3820620   16.7681457   15.1289129
| 10>     C       16.4318596   16.5155635   15.9669523
| 11>     O       16.8876859   15.3957845   16.1310044
| 12>     C       16.8829565   17.6956795   16.7815244
| 13>     C       16.7991194   18.9759453   16.3309168
| 14>     C       16.0664146   19.4890435   15.1065503
| 15>     N       17.4741807   20.0085763   16.9870983
| 16>     C       18.4241768   19.8220057   17.9544710
| 17>     S       19.2648556   21.0875951   18.6080336
| 18>     N       18.6586092   18.5256674   18.3361785
| 19>     C       17.8719897   17.3542299   17.9040423
| 20>     C       17.2400108   16.5956676   19.0637914
| 21>     C       17.4851742   15.2220913   19.2412942
| 22>     C       16.9037720   14.5250052   20.3137016
| 23>     C       16.0713272   15.2078593   21.2171006
| 24>     C       15.8239153   16.5763537   21.0413751
| 25>     O       15.0175102   17.2372075   21.9099152
| 26>     C       16.4036558   17.2672656   19.9725066
| 27>     H       15.4749463   15.7174172   12.6819372
| 28>     H       14.5868915   14.2225064   13.0474095
| 29>     H       16.1752020   14.5064985   13.7815954
| 30>     H       13.5888803   16.0928512   14.3259557
| 31>     H       14.3557634   14.9679433   15.4692932
| 32>     H       14.9854532   19.3300659   15.2069149
| 33>     H       16.4037307   18.9667624   14.2024678
| 34>     H       16.2227867   20.5608483   14.9339488
| 35>     H       17.3287790   20.9637980   16.7021040
| 36>     H       19.3483739   18.4165414   19.0688869
| 37>     H       18.6625636   16.7520331   17.4330386
| 38>     H       18.1167434   14.6904548   18.5334069
| 39>     H       17.0953465   13.4606270   20.4369498
| 40>     H       15.6191385   14.6730455   22.0455878
| 41>     H       14.7359357   16.6013117   22.5845082
| 42>     H       16.2034193   18.3269014   19.8542353
| 43> *
| 44>
| 45>                          ****END OF INPUT****

CARTESIAN COORDINATES (ANGSTROEM)
---------------------------------
  C     15.241996   14.992828   13.471771
  C     14.551774   15.687879   14.662619
  O     15.382062   16.768146   15.128913
  C     16.431860   16.515563   15.966952
  O     16.887686   15.395784   16.131004
  C     16.882956   17.695680   16.781524
  C     16.799119   18.975945   16.330917
  C     16.066415   19.489044   15.106550
  N     17.474181   20.008576   16.987098
  C     18.424177   19.822006   17.954471
  S     19.264856   21.087595   18.608034
  N     18.658609   18.525667   18.336178
  C     17.871990   17.354230   17.904042
  C     17.240011   16.595668   19.063791
  C     17.485174   15.222091   19.241294
  C     16.903772   14.525005   20.313702
  C     16.071327   15.207859   21.217101
  C     15.823915   16.576354   21.041375
  O     15.017510   17.237208   21.909915
  C     16.403656   17.267266   19.972507
  H     15.474946   15.717417   12.681937
  H     14.586891   14.222506   13.047410
  H     16.175202   14.506498   13.781595
  H     13.588880   16.092851   14.325956
  H     14.355763   14.967943   15.469293
  H     14.985453   19.330066   15.206915
  H     16.403731   18.966762   14.202468
  H     16.222787   20.560848   14.933949
  H     17.328779   20.963798   16.702104
  H     19.348374   18.416541   19.068887
  H     18.662564   16.752033   17.433039
  H     18.116743   14.690455   18.533407
  H     17.095347   13.460627   20.436950
  H     15.619139   14.673045   22.045588
  H     14.735936   16.601312   22.584508
  H     16.203419   18.326901   19.854235

 Total Charge           Charge          ....    0
 Multiplicity           Mult            ....    1
 Number of Electrons    NEL             ....  154
 Basis Dimension        Dim             ....  828

ORBITAL ENERGIES
----------------

  NO   OCC          E(Eh)            E(eV)
   0   2.0000     -91.887779     -2500.3936
   1   2.0000     -20.602651      -560.6266
   2   2.0000     -20.591378      -560.3199
   3   2.0000     -20.546624      -559.1021
   4   2.0000     -15.628201      -425.2650
   5   2.0000     -15.605497      -424.6472
   6   2.0000     -11.397063      -310.1299
   7   2.0000     -11.382313      -309.7285
   8   2.0000     -11.337707      -308.5147
   9   2.0000     -11.307398      -307.6899
  10   2.0000     -11.304136      -307.6012
  11   2.0000     -11.301890      -307.5401
  12   2.0000     -11.260801      -306.4220
  13   2.0000     -11.258800      -306.3675
  14   2.0000     -11.254709      -306.2562
  15   2.0000     -11.247529      -306.0608
  16   2.0000     -11.237705      -305.7935
  17   2.0000     -11.233785      -305.6868
  18   2.0000     -11.230627      -305.6009
  19   2.0000     -11.224972      -305.4470
  20   2.0000      -8.892865      -241.9872
  21   2.0000      -6.574443      -178.8997
  22   2.0000      -6.572440      -178.8452
  23   2.0000      -6.571853      -178.8292
  24   2.0000      -1.453766       -39.5590
  25   2.0000      -1.411122       -38.3986
  26   2.0000      -1.358141       -36.9569
  27   2.0000      -1.339619       -36.4529
  28   2.0000      -1.236796       -33.6549
  29   2.0000      -1.152074       -31.3495
  30   2.0000      -1.120591       -30.4928
  31   2.0000      -1.042428       -28.3659
  32   2.0000      -1.034127       -28.1400
  33   2.0000      -1.009541       -27.4710
  34   2.0000      -0.998014       -27.1573
  35   2.0000      -0.983027       -26.7495
  36   2.0000      -0.920604       -25.0509
  37   2.0000      -0.892102       -24.2753
  38   2.0000      -0.847517       -23.0621
  39   2.0000      -0.834924       -22.7194
  40   2.0000      -0.827728       -22.5236
  41   2.0000      -0.818738       -22.2790
  42   2.0000      -0.754534       -20.5319
  43   2.0000      -0.734472       -19.9860
  44   2.0000      -0.725890       -19.7525
  45   2.0000      -0.690490       -18.7892
  46   2.0000      -0.685622       -18.6567
  47   2.0000      -0.680073       -18.5057
  48   2.0000      -0.670225       -18.2377
  49   2.0000      -0.659806       -17.9542
  50   2.0000      -0.645978       -17.5779
  51   2.0000      -0.639911       -17.4129
  52   2.0000      -0.630714       -17.1626
  53   2.0000      -0.609537       -16.5863
  54   2.0000      -0.601852       -16.3772
  55   2.0000      -0.597870       -16.2689
  56   2.0000      -0.594510       -16.1774
  57   2.0000      -0.586130       -15.9494
  58   2.0000      -0.572585       -15.5808
  59   2.0000      -0.566386       -15.4121
  60   2.0000      -0.560432       -15.2501
  61   2.0000      -0.547011       -14.8849
  62   2.0000      -0.536559       -14.6005
  63   2.0000      -0.524141       -14.2626
  64   2.0000      -0.515274       -14.0213
  65   2.0000      -0.509834       -13.8733
  66   2.0000      -0.501123       -13.6362
  67   2.0000      -0.493891       -13.4395
  68   2.0000      -0.480172       -13.0662
  69   2.0000      -0.463529       -12.6133
  70   2.0000      -0.456222       -12.4144
  71   2.0000      -0.453290       -12.3347
  72   2.0000      -0.352858        -9.6018
  73   2.0000      -0.344190        -9.3659
  74   2.0000      -0.326866        -8.8945
  75   2.0000      -0.316959        -8.6249
  76   2.0000      -0.314067        -8.5462
  77   0.0000       0.077615         2.1120
  78   0.0000       0.111988         3.0474
  79   0.0000       0.121503         3.3063
  80   0.0000       0.136130         3.7043
  81   0.0000       0.140763         3.8304

MULLIKEN ATOMIC CHARGES
-----------------------
   0 C :   -0.293078
   1 C :    0.035395
   2 O :   -0.346033
   3 C :    0.415048
   4 O :   -0.427074
   5 C :   -0.159497
   6 C :    0.162771
   7 C :   -0.281354
   8 N :   -0.129239
   9 C :    0.207592
  10 S :   -0.442840
  11 N :   -0.210863
  12 C :    0.040702
  13 C :    0.031399
  14 C :   -0.167257
  15 C :   -0.134432
  16 C :   -0.277013
  17 C :    0.314339
  18 O :   -0.358987
  19 C :   -0.250244
  20 H :    0.089252
  21 H :    0.094445
  22 H :    0.120863
  23 H :    0.106062
  24 H :    0.100044
  25 H :    0.130398
  26 H :    0.124404
  27 H :    0.101505
  28 H :    0.198844
  29 H :    0.199949
  30 H :    0.155241
  31 H :    0.158624
  32 H :    0.159766
  33 H :    0.128104
  34 H :    0.239836
  35 H :    0.163325
Sum of atomic charges:   -0.0000000

LOEWDIN ATOMIC CHARGES
----------------------
   0 C :    0.104333
   1 C :   -0.015716
   2 O :    0.303655
   3 C :   -0.413296
   4 O :    0.106324
   5 C :   -0.090617
   6 C :   -0.064498
   7 C :    0.124997
   8 N :    0.405346
   9 C :   -0.458681
  10 S :   -0.037965
  11 N :    0.396445
  12 C :   -0.048152
  13 C :   -0.040511
  14 C :    0.024621
  15 C :    0.040799
  16 C :   -0.001137
  17 C :   -0.192368
  18 O :    0.393135
  19 C :    0.029955
  20 H :   -0.031061
  21 H :   -0.027727
  22 H :   -0.024759
  23 H :   -0.025696
  24 H :   -0.026599
  25 H :   -0.009030
  26 H :   -0.009973
  27 H :   -0.021234
  28 H :   -0.058786
  29 H :   -0.063116
  30 H :   -0.008435
  31 H :   -0.024167
  32 H :   -0.021148
  33 H :   -0.036204
  34 H :   -0.154926
  35 H :   -0.023809

  Mayer bond orders larger than 0.100000
B(  0-C ,  1-C ) :   0.9663 B(  0-C , 20-H ) :   0.9771 B(  0-C , 21-H ) :   0.9766
B(  0-C , 22-H ) :   0.9730 B(  1-C ,  2-O ) :   0.9035 B(  1-C , 23-H ) :   0.9850
B(  1-C , 24-H ) :   0.9763 B(  2-O ,  3-C ) :   1.1360 B(  3-C ,  4-O ) :   1.9633
B(  3-C ,  5-C ) :   1.0566 B(  5-C ,  6-C ) :   1.6546 B(  5-C , 12-C ) :   0.9472
B(  6-C ,  7-C ) :   0.9539 B(  6-C ,  8-N ) :   1.1336 B(  7-C , 25-H ) :   0.9630
B(  7-C , 26-H ) :   0.9657 B(  7-C , 27-H ) :   0.9912 B(  8-N ,  9-C ) :   1.1861
B(  8-N , 28-H ) :   0.9469 B(  9-C , 10-S ) :   1.6077 B(  9-C , 11-N ) :   1.3061
B( 11-N , 12-C ) :   0.9760 B( 11-N , 29-H ) :   0.9484 B( 12-C , 13-C ) :   0.9744
B( 12-C , 30-H ) :   0.9971 B( 13-C , 14-C ) :   1.3755 B( 13-C , 19-C ) :   1.3671
B( 14-C , 15-C ) :   1.3971 B( 14-C , 31-H ) :   0.9641 B( 15-C , 16-C ) :   1.3588
B( 15-C , 32-H ) :   0.9712 B( 16-C , 17-C ) :   1.3333 B( 16-C , 33-H ) :   0.9860
B( 17-C , 18-O ) :   1.1033 B( 17-C , 19-C ) :   1.3674 B( 18-O , 34-H ) :   0.9807
B( 19-C , 35-H ) :   0.9601

MP2 TOTAL ENERGY:    -1274.339546215 Eh
FINAL SINGLE POINT ENERGY     -1274.339546214798

DIPOLE MOMENT
-------------
                                X             Y             Z
Electronic contribution:      8.74746       9.67826      12.75273
Nuclear contribution   :    -10.34791     -10.85217     -13.71060
                        -----------------------------------------
Total Dipole Moment    :     -1.60046      -1.17391      -0.95787
                        -----------------------------------------
Magnitude (a.u.)       :      2.20387
Magnitude (Debye)      :      5.60180

Rotational constants in cm-1:     0.009958     0.008874     0.005462
Rotational constants in MHz :   298.518389   266.038174   163.745249

                             ****ORCA TERMINATED NORMALLY****
TOTAL RUN TIME: 0 days 1 hours 34 minutes 57 seconds 184 msec
