                         Program Version 4.2.0 -  RELEASE  -
|  1> ! ri-mp2 cc-pvtz cc-pvtz/c TightSCF NoKeepInts
|  2>
|  3> %scf
|  4>   MaxCore 4096
|  5> end
|  6> *xyz  0  1
|  7>     C       14.5350530   16.3055017   16.3503501
|  8>     C       15.2857992   15.5130367   15.2613061
|  9>     O       16.7348527   15.5615930   15.3100883
| 10>     C       17.5297113   16.6772727   15.3803153
| 11>     O       18.5088278   16.7908516   14.6671851
| 12>     C       17.1888281   17.7114209   16.3935778
| 13>     C       16.9356245   18.9626098   15.9493289
| 14>     C       16.5833205   19.3255192   14.5229665
| 15>     N       17.0261613   20.0664862   16.7986510
| 16>     C       17.6195458   20.0299680   18.0332358
| 17>     S       17.8131507   21.3921164   18.9507881
| 18>     N       18.0729912   18.8046322   18.4588568
| 19>     C       17.8177758   17.5186083   17.7773519
| 20>     C       17.1782482   16.4451550   18.6464458
| 21>     C       17.5555103   15.0984180   18.4938295
| 22>     C       16.9682369   14.0974589   19.2853297
| 23>     C       15.9975303   14.4460540   20.2398120
| 24>     C       15.6208074   15.7869300   20.3961518
| 25>     O       14.6788743   16.1252347   21.3119113
| 26>     C       16.2055803   16.7817717   19.6057952
| 27>     H       14.8762794   16.0182797   17.3486865
| 28>     H       13.4643386   16.0732192   16.2991988
| 29>     H       14.6293139   17.3883846   16.2224177
| 30>     H       14.9798218   14.4608646   15.3285367
| 31>     H       14.9546070   15.8778368   14.2801993
| 32>     H       17.4854576   19.3202830   13.8962130
| 33>     H       16.1255581   20.3189077   14.4438040
| 34>     H       15.8785958   18.6041107   14.0923905
| 35>     H       16.7451207   20.9784839   16.4752786
| 36>     H       18.5098393   18.8067740   19.3721773
| 37>     H       18.8565964   17.2241979   17.5653893
| 38>     H       18.3022306   14.8253282   17.7515803
| 39>     H       17.2658702   13.0580623   19.1566119
| 40>     H       15.5413327   13.6758396   20.8530812
| 41>     H       14.4235015   15.3164676   21.7808275
| 42>     H       15.8921065   17.8123214   19.7383305
| 43> *
| 44>
| 45>                          ****END OF INPUT****

CARTESIAN COORDINATES (ANGSTROEM)
---------------------------------
  C     14.535053   16.305502   16.350350
  C     15.285799   15.513037   15.261306
  O     16.734853   15.561593   15.310088
  C     17.529711   16.677273   15.380315
  O     18.508828   16.790852   14.667185
  C     17.188828   17.711421   16.393578
  C     16.935624   18.962610   15.949329
  C     16.583320   19.325519   14.522967
  N     17.026161   20.066486   16.798651
  C     17.619546   20.029968   18.033236
  S     17.813151   21.392116   18.950788
  N     18.072991   18.804632   18.458857
  C     17.817776   17.518608   17.777352
  C     17.178248   16.445155   18.646446
  C     17.555510   15.098418   18.493830
  C     16.968237   14.097459   19.285330
  C     15.997530   14.446054   20.239812
  C     15.620807   15.786930   20.396152
  O     14.678874   16.125235   21.311911
  C     16.205580   16.781772   19.605795
  H     14.876279   16.018280   17.348686
  H     13.464339   16.073219   16.299199
  H     14.629314   17.388385   16.222418
  H     14.979822   14.460865   15.328537
  H     14.954607   15.877837   14.280199
  H     17.485458   19.320283   13.896213
  H     16.125558   20.318908   14.443804
  H     15.878596   18.604111   14.092390
  H     16.745121   20.978484   16.475279
  H     18.509839   18.806774   19.372177
  H     18.856596   17.224198   17.565389
  H     18.302231   14.825328   17.751580
  H     17.265870   13.058062   19.156612
  H     15.541333   13.675840   20.853081
  H     14.423501   15.316468   21.780828
  H     15.892107   17.812321   19.738331

 Total Charge           Charge          ....    0
 Multiplicity           Mult            ....    1
 Number of Electrons    NEL             ....  154
 Basis Dimension        Dim             ....  828

ORBITAL ENERGIES
----------------

  NO   OCC          E(Eh)            E(eV)
   0   2.0000     -91.888899     -2500.4240
   1   2.0000     -20.601176      -560.5865
   2   2.0000     -20.594065      -560.3930
   3   2.0000     -20.557175      -559.3892
   4   2.0000     -15.625169      -425.1825
   5   2.0000     -15.609906      -424.7671
   6   2.0000     -11.398908      -310.1801
   7   2.0000     -11.384501      -309.7880
   8   2.0000     -11.324354      -308.1513
   9   2.0000     -11.319142      -308.0095
  10   2.0000     -11.315257      -307.9038
  11   2.0000     -11.310446      -307.7729
  12   2.0000     -11.267909      -306.6154
  13   2.0000     -11.260820      -306.4225
  14   2.0000     -11.260657      -306.4181
  15   2.0000     -11.255739      -306.2842
  16   2.0000     -11.248453      -306.0860
  17   2.0000     -11.243682      -305.9562
  18   2.0000     -11.243487      -305.9508
  19   2.0000     -11.229948      -305.5824
  20   2.0000      -8.893983      -242.0176
  21   2.0000      -6.575563      -178.9302
  22   2.0000      -6.573555      -178.8755
  23   2.0000      -6.572972      -178.8597
  24   2.0000      -1.445716       -39.3399
  25   2.0000      -1.420941       -38.6658
  26   2.0000      -1.359860       -37.0037
  27   2.0000      -1.338251       -36.4157
  28   2.0000      -1.238075       -33.6897
  29   2.0000      -1.163112       -31.6499
  30   2.0000      -1.125541       -30.6275
  31   2.0000      -1.049060       -28.5464
  32   2.0000      -1.038379       -28.2557
  33   2.0000      -1.021412       -27.7940
  34   2.0000      -1.004104       -27.3231
  35   2.0000      -0.989795       -26.9337
  36   2.0000      -0.925979       -25.1972
  37   2.0000      -0.899453       -24.4754
  38   2.0000      -0.850092       -23.1322
  39   2.0000      -0.842668       -22.9302
  40   2.0000      -0.838500       -22.8168
  41   2.0000      -0.827027       -22.5046
  42   2.0000      -0.749300       -20.3895
  43   2.0000      -0.737102       -20.0576
  44   2.0000      -0.729889       -19.8613
  45   2.0000      -0.699145       -19.0247
  46   2.0000      -0.690072       -18.7778
  47   2.0000      -0.675222       -18.3737
  48   2.0000      -0.674237       -18.3469
  49   2.0000      -0.668397       -18.1880
  50   2.0000      -0.653189       -17.7742
  51   2.0000      -0.650288       -17.6952
  52   2.0000      -0.635968       -17.3056
  53   2.0000      -0.612550       -16.6683
  54   2.0000      -0.608449       -16.5567
  55   2.0000      -0.604591       -16.4518
  56   2.0000      -0.598977       -16.2990
  57   2.0000      -0.587564       -15.9884
  58   2.0000      -0.580330       -15.7916
  59   2.0000      -0.578181       -15.7331
  60   2.0000      -0.565129       -15.3779
  61   2.0000      -0.559995       -15.2383
  62   2.0000      -0.540990       -14.7211
  63   2.0000      -0.530721       -14.4417
  64   2.0000      -0.520267       -14.1572
  65   2.0000      -0.513367       -13.9694
  66   2.0000      -0.503196       -13.6926
  67   2.0000      -0.496416       -13.5082
  68   2.0000      -0.491487       -13.3740
  69   2.0000      -0.462451       -12.5839
  70   2.0000      -0.456930       -12.4337
  71   2.0000      -0.452982       -12.3263
  72   2.0000      -0.355062        -9.6617
  73   2.0000      -0.348085        -9.4719
  74   2.0000      -0.328352        -8.9349
  75   2.0000      -0.326805        -8.8928
  76   2.0000      -0.317756        -8.6466
  77   0.0000       0.087457         2.3798
  78   0.0000       0.103397         2.8136
  79   0.0000       0.117560         3.1990
  80   0.0000       0.128035         3.4840
  81   0.0000       0.129081         3.5125

MULLIKEN ATOMIC CHARGES
-----------------------
   0 C :   -0.328328
   1 C :    0.029982
   2 O :   -0.343907
   3 C :    0.425048
   4 O :   -0.366974
   5 C :   -0.185033
   6 C :    0.134084
   7 C :   -0.298392
   8 N :   -0.138223
   9 C :    0.218034
  10 S :   -0.443267
  11 N :   -0.242486
  12 C :    0.045596
  13 C :    0.022494
  14 C :   -0.214043
  15 C :   -0.137072
  16 C :   -0.273494
  17 C :    0.316177
  18 O :   -0.355686
  19 C :   -0.240330
  20 H :    0.125640
  21 H :    0.118358
  22 H :    0.106096
  23 H :    0.120007
  24 H :    0.097405
  25 H :    0.150201
  26 H :    0.102429
  27 H :    0.109902
  28 H :    0.196912
  29 H :    0.206816
  30 H :    0.166817
  31 H :    0.158722
  32 H :    0.164757
  33 H :    0.133433
  34 H :    0.241245
  35 H :    0.177082
Sum of atomic charges:   -0.0000000

LOEWDIN ATOMIC CHARGES
----------------------
   0 C :    0.103420
   1 C :   -0.016492
   2 O :    0.291203
   3 C :   -0.418281
   4 O :    0.135276
   5 C :   -0.084580
   6 C :   -0.091775
   7 C :    0.127768
   8 N :    0.404114
   9 C :   -0.454236
  10 S :   -0.038292
  11 N :    0.396680
  12 C :   -0.051603
  13 C :   -0.042687
  14 C :    0.018839
  15 C :    0.044027
  16 C :   -0.000688
  17 C :   -0.191751
  18 O :    0.396882
  19 C :    0.028468
  20 H :   -0.025709
  21 H :   -0.022961
  22 H :   -0.036084
  23 H :   -0.017796
  24 H :   -0.033642
  25 H :   -0.002779
  26 H :   -0.018821
  27 H :   -0.014097
  28 H :   -0.059572
  29 H :   -0.064648
  30 H :   -0.006673
  31 H :   -0.024823
  32 H :   -0.018364
  33 H :   -0.034388
  34 H :   -0.152951
  35 H :   -0.022982

  Mayer bond orders larger than 0.100000
B(  0-C ,  1-C ) :   0.9592 B(  0-C , 20-H ) :   0.9661 B(  0-C , 21-H ) :   0.9769
B(  0-C , 22-H ) :   0.9713 B(  1-C ,  2-O ) :   0.9098 B(  1-C , 23-H ) :   0.9817
B(  1-C , 24-H ) :   0.9834 B(  2-O ,  3-C ) :   1.1355 B(  3-C ,  4-O ) :   2.1264
B(  3-C ,  5-C ) :   0.9216 B(  5-C ,  6-C ) :   1.7129 B(  5-C , 12-C ) :   0.9573
B(  6-C ,  7-C ) :   0.9376 B(  6-C ,  8-N ) :   1.1029 B(  7-C , 25-H ) :   0.9604
B(  7-C , 26-H ) :   0.9861 B(  7-C , 27-H ) :   0.9779 B(  8-N ,  9-C ) :   1.2045
B(  8-N , 28-H ) :   0.9492 B(  9-C , 10-S ) :   1.6063 B(  9-C , 11-N ) :   1.2863
B( 11-N , 12-C ) :   0.9627 B( 11-N , 29-H ) :   0.9444 B( 12-C , 13-C ) :   0.9595
B( 12-C , 30-H ) :   0.9964 B( 13-C , 14-C ) :   1.3783 B( 13-C , 19-C ) :   1.3462
B( 14-C , 15-C ) :   1.4035 B( 14-C , 31-H ) :   0.9696 B( 15-C , 16-C ) :   1.3567
B( 15-C , 32-H ) :   0.9693 B( 16-C , 17-C ) :   1.3342 B( 16-C , 33-H ) :   0.9842
B( 17-C , 18-O ) :   1.1094 B( 17-C , 19-C ) :   1.3633 B( 18-O , 34-H ) :   0.9791
B( 19-C , 35-H ) :   0.9565

MP2 TOTAL ENERGY:    -1274.311843542 Eh
FINAL SINGLE POINT ENERGY     -1274.311843541624

DIPOLE MOMENT
-------------
                                X             Y             Z
Electronic contribution:      9.00099       7.08378       6.92315
Nuclear contribution   :    -10.67410      -8.76113      -7.24722
                        -----------------------------------------
Total Dipole Moment    :     -1.67311      -1.67735      -0.32407
                        -----------------------------------------
Magnitude (a.u.)       :      2.39120
Magnitude (Debye)      :      6.07794

Rotational constants in cm-1:     0.011903     0.009247     0.006265
Rotational constants in MHz :   356.853585   277.232847   187.826021

                             ****ORCA TERMINATED NORMALLY****
TOTAL RUN TIME: 0 days 2 hours 10 minutes 2 seconds 279 msec
