                         Program Version 4.2.0 -  RELEASE  -
|  1> ! ri-mp2 cc-pvtz cc-pvtz/c TightSCF NoKeepInts
|  2>
|  3> %scf
|  4>   MaxCore 4096
|  5> end
|  6> *xyz  0  1
|  7>     C       13.9060425   15.7368408   15.2000904
|  8>     C       15.2284929   15.5809602   14.4290153
|  9>     O       16.0362263   16.7354643   14.7175028
| 10>     C       17.0384656   16.6269877   15.6360853
| 11>     O       17.7091673   15.6144836   15.7490919
| 12>     C       17.1281074   17.7722167   16.6039199
| 13>     C       16.8112737   19.0491263   16.2622741
| 14>     C       16.1218171   19.5321166   15.0013630
| 15>     N       17.1620098   20.1168429   17.0924805
| 16>     C       18.0122853   20.0208364   18.1608614
| 17>     S       18.4686194   21.3486243   19.0350680
| 18>     N       18.4836741   18.7664610   18.4544463
| 19>     C       18.0348550   17.5150751   17.8136891
| 20>     C       17.4549534   16.5096089   18.7996537
| 21>     C       17.9797888   15.2078083   18.8890502
| 22>     C       17.4419940   14.2813640   19.7981500
| 23>     C       16.3707380   14.6604684   20.6252554
| 24>     C       15.8442605   15.9565072   20.5362410
| 25>     O       14.8065269   16.3235337   21.3297699
| 26>     C       16.3814652   16.8762381   19.6299514
| 27>     H       14.0891382   15.7526495   16.2821493
| 28>     H       13.2325399   14.8995440   14.9802439
| 29>     H       13.3993967   16.6684757   14.9193658
| 30>     H       15.7291914   14.6421954   14.7035244
| 31>     H       15.0125383   15.5484323   13.3533833
| 32>     H       16.6573695   19.1882343   14.1075156
| 33>     H       16.0646531   20.6256565   14.9389861
| 34>     H       15.0953453   19.1481834   14.9496215
| 35>     H       16.8420697   21.0472629   16.8760738
| 36>     H       19.0920563   18.7194225   19.2620545
| 37>     H       18.9877938   17.1508344   17.4028225
| 38>     H       18.7976959   14.9094242   18.2373738
| 39>     H       17.8522479   13.2746624   19.8538886
| 40>     H       15.9514026   13.9475562   21.3272911
| 41>     H       14.5997048   15.5701265   21.9028627
| 42>     H       15.9630933   17.8757753   19.5768836
| 43> *
| 44>
| 45>                          ****END OF INPUT****

CARTESIAN COORDINATES (ANGSTROEM)
---------------------------------
  C     13.906042   15.736841   15.200090
  C     15.228493   15.580960   14.429015
  O     16.036226   16.735464   14.717503
  C     17.038466   16.626988   15.636085
  O     17.709167   15.614484   15.749092
  C     17.128107   17.772217   16.603920
  C     16.811274   19.049126   16.262274
  C     16.121817   19.532117   15.001363
  N     17.162010   20.116843   17.092481
  C     18.012285   20.020836   18.160861
  S     18.468619   21.348624   19.035068
  N     18.483674   18.766461   18.454446
  C     18.034855   17.515075   17.813689
  C     17.454953   16.509609   18.799654
  C     17.979789   15.207808   18.889050
  C     17.441994   14.281364   19.798150
  C     16.370738   14.660468   20.625255
  C     15.844261   15.956507   20.536241
  O     14.806527   16.323534   21.329770
  C     16.381465   16.876238   19.629951
  H     14.089138   15.752650   16.282149
  H     13.232540   14.899544   14.980244
  H     13.399397   16.668476   14.919366
  H     15.729191   14.642195   14.703524
  H     15.012538   15.548432   13.353383
  H     16.657370   19.188234   14.107516
  H     16.064653   20.625657   14.938986
  H     15.095345   19.148183   14.949621
  H     16.842070   21.047263   16.876074
  H     19.092056   18.719423   19.262055
  H     18.987794   17.150834   17.402822
  H     18.797696   14.909424   18.237374
  H     17.852248   13.274662   19.853889
  H     15.951403   13.947556   21.327291
  H     14.599705   15.570127   21.902863
  H     15.963093   17.875775   19.576884

 Total Charge           Charge          ....    0
 Multiplicity           Mult            ....    1
 Number of Electrons    NEL             ....  154
 Basis Dimension        Dim             ....  828

ORBITAL ENERGIES
----------------

  NO   OCC          E(Eh)            E(eV)
   0   2.0000     -91.888395     -2500.4103
   1   2.0000     -20.597710      -560.4922
   2   2.0000     -20.592905      -560.3614
   3   2.0000     -20.547313      -559.1208
   4   2.0000     -15.628999      -425.2867
   5   2.0000     -15.606095      -424.6634
   6   2.0000     -11.395402      -310.0846
   7   2.0000     -11.383017      -309.7476
   8   2.0000     -11.338305      -308.5310
   9   2.0000     -11.308988      -307.7332
  10   2.0000     -11.304619      -307.6143
  11   2.0000     -11.299856      -307.4847
  12   2.0000     -11.260439      -306.4121
  13   2.0000     -11.259357      -306.3827
  14   2.0000     -11.256046      -306.2926
  15   2.0000     -11.248952      -306.0995
  16   2.0000     -11.239154      -305.8329
  17   2.0000     -11.235325      -305.7287
  18   2.0000     -11.231969      -305.6374
  19   2.0000     -11.231526      -305.6254
  20   2.0000      -8.893475      -242.0038
  21   2.0000      -6.575052      -178.9163
  22   2.0000      -6.573050      -178.8618
  23   2.0000      -6.572461      -178.8458
  24   2.0000      -1.453555       -39.5532
  25   2.0000      -1.412663       -38.4405
  26   2.0000      -1.357568       -36.9413
  27   2.0000      -1.340208       -36.4689
  28   2.0000      -1.237384       -33.6709
  29   2.0000      -1.153448       -31.3869
  30   2.0000      -1.121269       -30.5113
  31   2.0000      -1.043831       -28.4041
  32   2.0000      -1.035860       -28.1872
  33   2.0000      -1.010972       -27.5100
  34   2.0000      -0.999582       -27.2000
  35   2.0000      -0.984632       -26.7932
  36   2.0000      -0.921409       -25.0728
  37   2.0000      -0.891867       -24.2689
  38   2.0000      -0.847674       -23.0664
  39   2.0000      -0.835729       -22.7413
  40   2.0000      -0.829156       -22.5625
  41   2.0000      -0.816926       -22.2297
  42   2.0000      -0.759487       -20.6667
  43   2.0000      -0.736614       -20.0443
  44   2.0000      -0.726901       -19.7800
  45   2.0000      -0.691693       -18.8219
  46   2.0000      -0.685306       -18.6481
  47   2.0000      -0.679099       -18.4792
  48   2.0000      -0.672294       -18.2940
  49   2.0000      -0.660458       -17.9720
  50   2.0000      -0.650728       -17.7072
  51   2.0000      -0.644314       -17.5327
  52   2.0000      -0.633747       -17.2451
  53   2.0000      -0.604990       -16.4626
  54   2.0000      -0.599908       -16.3243
  55   2.0000      -0.596682       -16.2365
  56   2.0000      -0.594501       -16.1772
  57   2.0000      -0.583286       -15.8720
  58   2.0000      -0.574098       -15.6220
  59   2.0000      -0.562639       -15.3102
  60   2.0000      -0.561273       -15.2730
  61   2.0000      -0.556474       -15.1424
  62   2.0000      -0.541730       -14.7412
  63   2.0000      -0.525719       -14.3055
  64   2.0000      -0.516991       -14.0681
  65   2.0000      -0.509979       -13.8772
  66   2.0000      -0.500114       -13.6088
  67   2.0000      -0.494837       -13.4652
  68   2.0000      -0.481547       -13.1036
  69   2.0000      -0.463835       -12.6216
  70   2.0000      -0.458075       -12.4649
  71   2.0000      -0.452140       -12.3034
  72   2.0000      -0.353409        -9.6167
  73   2.0000      -0.345593        -9.4041
  74   2.0000      -0.327466        -8.9108
  75   2.0000      -0.317580        -8.6418
  76   2.0000      -0.315605        -8.5881
  77   0.0000       0.075548         2.0558
  78   0.0000       0.109537         2.9806
  79   0.0000       0.119953         3.2641
  80   0.0000       0.135096         3.6761
  81   0.0000       0.140281         3.8172

MULLIKEN ATOMIC CHARGES
-----------------------
   0 C :   -0.279218
   1 C :    0.019658
   2 O :   -0.356662
   3 C :    0.439041
   4 O :   -0.413976
   5 C :   -0.179938
   6 C :    0.152069
   7 C :   -0.281919
   8 N :   -0.128266
   9 C :    0.207788
  10 S :   -0.441778
  11 N :   -0.210212
  12 C :    0.042830
  13 C :    0.032772
  14 C :   -0.169117
  15 C :   -0.133940
  16 C :   -0.277801
  17 C :    0.314492
  18 O :   -0.358892
  19 C :   -0.255285
  20 H :    0.104144
  21 H :    0.100766
  22 H :    0.090436
  23 H :    0.116198
  24 H :    0.103004
  25 H :    0.126937
  26 H :    0.102167
  27 H :    0.127164
  28 H :    0.198730
  29 H :    0.199691
  30 H :    0.155740
  31 H :    0.159813
  32 H :    0.160440
  33 H :    0.128740
  34 H :    0.240138
  35 H :    0.164245
Sum of atomic charges:   -0.0000000

LOEWDIN ATOMIC CHARGES
----------------------
   0 C :    0.103444
   1 C :   -0.016215
   2 O :    0.305070
   3 C :   -0.417015
   4 O :    0.109464
   5 C :   -0.094034
   6 C :   -0.064895
   7 C :    0.125590
   8 N :    0.405573
   9 C :   -0.458325
  10 S :   -0.037285
  11 N :    0.396335
  12 C :   -0.048339
  13 C :   -0.040953
  14 C :    0.024844
  15 C :    0.041158
  16 C :   -0.001219
  17 C :   -0.193056
  18 O :    0.393120
  19 C :    0.029056
  20 H :   -0.025137
  21 H :   -0.025126
  22 H :   -0.029912
  23 H :   -0.025879
  24 H :   -0.027464
  25 H :   -0.008402
  26 H :   -0.021016
  27 H :   -0.010529
  28 H :   -0.058606
  29 H :   -0.063257
  30 H :   -0.007892
  31 H :   -0.023705
  32 H :   -0.020857
  33 H :   -0.036034
  34 H :   -0.154697
  35 H :   -0.023803

  Mayer bond orders larger than 0.100000
B(  0-C ,  1-C ) :   0.9668 B(  0-C , 20-H ) :   0.9755 B(  0-C , 21-H ) :   0.9769
B(  0-C , 22-H ) :   0.9788 B(  1-C ,  2-O ) :   0.8917 B(  1-C , 23-H ) :   0.9732
B(  1-C , 24-H ) :   0.9849 B(  2-O ,  3-C ) :   1.1184 B(  3-C ,  4-O ) :   2.0039
B(  3-C ,  5-C ) :   1.0289 B(  5-C ,  6-C ) :   1.6621 B(  5-C , 12-C ) :   0.9502
B(  6-C ,  7-C ) :   0.9559 B(  6-C ,  8-N ) :   1.1372 B(  7-C , 25-H ) :   0.9653
B(  7-C , 26-H ) :   0.9900 B(  7-C , 27-H ) :   0.9641 B(  8-N ,  9-C ) :   1.1850
B(  8-N , 28-H ) :   0.9469 B(  9-C , 10-S ) :   1.6093 B(  9-C , 11-N ) :   1.3052
B( 11-N , 12-C ) :   0.9784 B( 11-N , 29-H ) :   0.9486 B( 12-C , 13-C ) :   0.9720
B( 12-C , 30-H ) :   0.9960 B( 13-C , 14-C ) :   1.3781 B( 13-C , 19-C ) :   1.3638
B( 14-C , 15-C ) :   1.3971 B( 14-C , 31-H ) :   0.9633 B( 15-C , 16-C ) :   1.3591
B( 15-C , 32-H ) :   0.9710 B( 16-C , 17-C ) :   1.3334 B( 16-C , 33-H ) :   0.9858
B( 17-C , 18-O ) :   1.1040 B( 17-C , 19-C ) :   1.3663 B( 18-O , 34-H ) :   0.9805
B( 19-C , 35-H ) :   0.9601

MP2 TOTAL ENERGY:    -1274.335985679 Eh
FINAL SINGLE POINT ENERGY     -1274.335985678670

DIPOLE MOMENT
-------------
                                X             Y             Z
Electronic contribution:     10.62971       8.61199       9.36434
Nuclear contribution   :    -12.01006      -9.94312     -10.36520
                        -----------------------------------------
Total Dipole Moment    :     -1.38035      -1.33113      -1.00086
                        -----------------------------------------
Magnitude (a.u.)       :      2.16310
Magnitude (Debye)      :      5.49815

Rotational constants in cm-1:     0.010123     0.009305     0.005945
Rotational constants in MHz :   303.485088   278.967196   178.219197

                             ****ORCA TERMINATED NORMALLY****
TOTAL RUN TIME: 0 days 1 hours 53 minutes 28 seconds 59 msec
