                         Program Version 4.2.0 -  RELEASE  -
|  1> ! ri-mp2 cc-pvtz cc-pvtz/c TightSCF NoKeepInts
|  2>
|  3> %scf
|  4>   MaxCore 4096
|  5> end
|  6> *xyz  0  1
|  7>     C       14.5220348   16.3030166   16.3392026
|  8>     C       15.1194600   16.0618798   14.9347843
|  9>     O       16.5368706   15.7666733   14.9582588
| 10>     C       17.5716340   16.4871496   15.5088807
| 11>     O       18.7241785   16.1297254   15.3521310
| 12>     C       17.2370960   17.5930740   16.4481796
| 13>     C       16.8724600   18.7981996   15.9493934
| 14>     C       16.5041271   19.1169283   14.5148914
| 15>     N       16.8837202   19.9395542   16.7529414
| 16>     C       17.4950515   20.0080534   17.9772699
| 17>     S       17.5817177   21.4222511   18.8298489
| 18>     N       18.0566966   18.8456477   18.4463611
| 19>     C       17.9010441   17.5157359   17.8230131
| 20>     C       17.2939436   16.4468769   18.7187265
| 21>     C       17.8009570   15.1354217   18.6910565
| 22>     C       17.2318885   14.1330116   19.4939829
| 23>     C       16.1447520   14.4445160   20.3285243
| 24>     C       15.6339334   15.7495585   20.3532939
| 25>     O       14.5771967   16.0501397   21.1492453
| 26>     C       16.2020898   16.7458112   19.5528542
| 27>     H       14.9581116   15.6122025   17.0721665
| 28>     H       13.4403351   16.1227032   16.3190305
| 29>     H       14.6651049   17.3310927   16.6872361
| 30>     H       14.6076199   15.1993346   14.4882523
| 31>     H       14.9118089   16.9230172   14.2895746
| 32>     H       16.8373072   18.3429775   13.8126831
| 33>     H       16.9770077   20.0514793   14.1861783
| 34>     H       15.4194441   19.2343155   14.4043768
| 35>     H       16.5132214   20.8085688   16.4016783
| 36>     H       18.5027290   18.9217028   19.3520208
| 37>     H       18.9566989   17.2763865   17.6247431
| 38>     H       18.6343969   14.8912962   18.0350881
| 39>     H       17.6314014   13.1206346   19.4635229
| 40>     H       15.7010979   13.6724886   20.9485471
| 41>     H       14.3528193   15.2506024   21.6488739
| 42>     H       15.7870435   17.7479729   19.5811879
| 43> *
| 44>
| 45>                          ****END OF INPUT****

CARTESIAN COORDINATES (ANGSTROEM)
---------------------------------
  C     14.522035   16.303017   16.339203
  C     15.119460   16.061880   14.934784
  O     16.536871   15.766673   14.958259
  C     17.571634   16.487150   15.508881
  O     18.724178   16.129725   15.352131
  C     17.237096   17.593074   16.448180
  C     16.872460   18.798200   15.949393
  C     16.504127   19.116928   14.514891
  N     16.883720   19.939554   16.752941
  C     17.495051   20.008053   17.977270
  S     17.581718   21.422251   18.829849
  N     18.056697   18.845648   18.446361
  C     17.901044   17.515736   17.823013
  C     17.293944   16.446877   18.718726
  C     17.800957   15.135422   18.691056
  C     17.231889   14.133012   19.493983
  C     16.144752   14.444516   20.328524
  C     15.633933   15.749558   20.353294
  O     14.577197   16.050140   21.149245
  C     16.202090   16.745811   19.552854
  H     14.958112   15.612202   17.072166
  H     13.440335   16.122703   16.319031
  H     14.665105   17.331093   16.687236
  H     14.607620   15.199335   14.488252
  H     14.911809   16.923017   14.289575
  H     16.837307   18.342977   13.812683
  H     16.977008   20.051479   14.186178
  H     15.419444   19.234316   14.404377
  H     16.513221   20.808569   16.401678
  H     18.502729   18.921703   19.352021
  H     18.956699   17.276386   17.624743
  H     18.634397   14.891296   18.035088
  H     17.631401   13.120635   19.463523
  H     15.701098   13.672489   20.948547
  H     14.352819   15.250602   21.648874
  H     15.787043   17.747973   19.581188

 Total Charge           Charge          ....    0
 Multiplicity           Mult            ....    1
 Number of Electrons    NEL             ....  154
 Basis Dimension        Dim             ....  828

ORBITAL ENERGIES
----------------

  NO   OCC          E(Eh)            E(eV)
   0   2.0000     -91.889161     -2500.4312
   1   2.0000     -20.601217      -560.5876
   2   2.0000     -20.599625      -560.5443
   3   2.0000     -20.550581      -559.2097
   4   2.0000     -15.626357      -425.2148
   5   2.0000     -15.609549      -424.7574
   6   2.0000     -11.401298      -310.2451
   7   2.0000     -11.385214      -309.8074
   8   2.0000     -11.329234      -308.2841
   9   2.0000     -11.317072      -307.9532
  10   2.0000     -11.311862      -307.8114
  11   2.0000     -11.311421      -307.7994
  12   2.0000     -11.269103      -306.6479
  13   2.0000     -11.264963      -306.5352
  14   2.0000     -11.263101      -306.4846
  15   2.0000     -11.257892      -306.3428
  16   2.0000     -11.246268      -306.0265
  17   2.0000     -11.241693      -305.9020
  18   2.0000     -11.240033      -305.8568
  19   2.0000     -11.232066      -305.6401
  20   2.0000      -8.894275      -242.0255
  21   2.0000      -6.575860      -178.9383
  22   2.0000      -6.573843      -178.8834
  23   2.0000      -6.573265      -178.8676
  24   2.0000      -1.445213       -39.3262
  25   2.0000      -1.419354       -38.6226
  26   2.0000      -1.359812       -37.0024
  27   2.0000      -1.340045       -36.4645
  28   2.0000      -1.238853       -33.7109
  29   2.0000      -1.161611       -31.6091
  30   2.0000      -1.126686       -30.6587
  31   2.0000      -1.048923       -28.5427
  32   2.0000      -1.039316       -28.2812
  33   2.0000      -1.019586       -27.7443
  34   2.0000      -1.007104       -27.4047
  35   2.0000      -0.990390       -26.9499
  36   2.0000      -0.927204       -25.2305
  37   2.0000      -0.899360       -24.4728
  38   2.0000      -0.853469       -23.2241
  39   2.0000      -0.841613       -22.9014
  40   2.0000      -0.836957       -22.7748
  41   2.0000      -0.829872       -22.5820
  42   2.0000      -0.747775       -20.3480
  43   2.0000      -0.738961       -20.1081
  44   2.0000      -0.732431       -19.9305
  45   2.0000      -0.696995       -18.9662
  46   2.0000      -0.689141       -18.7525
  47   2.0000      -0.678897       -18.4737
  48   2.0000      -0.674200       -18.3459
  49   2.0000      -0.664510       -18.0822
  50   2.0000      -0.652626       -17.7589
  51   2.0000      -0.651182       -17.7196
  52   2.0000      -0.639051       -17.3895
  53   2.0000      -0.615050       -16.7364
  54   2.0000      -0.609906       -16.5964
  55   2.0000      -0.607074       -16.5193
  56   2.0000      -0.603293       -16.4164
  57   2.0000      -0.590107       -16.0576
  58   2.0000      -0.579004       -15.7555
  59   2.0000      -0.575604       -15.6630
  60   2.0000      -0.563831       -15.3426
  61   2.0000      -0.558281       -15.1916
  62   2.0000      -0.542008       -14.7488
  63   2.0000      -0.530401       -14.4330
  64   2.0000      -0.520046       -14.1512
  65   2.0000      -0.513087       -13.9618
  66   2.0000      -0.505480       -13.7548
  67   2.0000      -0.501620       -13.6498
  68   2.0000      -0.487169       -13.2566
  69   2.0000      -0.463191       -12.6041
  70   2.0000      -0.454026       -12.3547
  71   2.0000      -0.453803       -12.3486
  72   2.0000      -0.355205        -9.6656
  73   2.0000      -0.350229        -9.5302
  74   2.0000      -0.328798        -8.9470
  75   2.0000      -0.325192        -8.8489
  76   2.0000      -0.318947        -8.6790
  77   0.0000       0.089245         2.4285
  78   0.0000       0.105809         2.8792
  79   0.0000       0.113080         3.0771
  80   0.0000       0.127443         3.4679
  81   0.0000       0.129829         3.5328

MULLIKEN ATOMIC CHARGES
-----------------------
   0 C :   -0.325333
   1 C :    0.029922
   2 O :   -0.323467
   3 C :    0.423576
   4 O :   -0.381347
   5 C :   -0.207582
   6 C :    0.151235
   7 C :   -0.341000
   8 N :   -0.142532
   9 C :    0.209996
  10 S :   -0.444309
  11 N :   -0.228075
  12 C :    0.067370
  13 C :    0.015424
  14 C :   -0.219923
  15 C :   -0.131076
  16 C :   -0.277319
  17 C :    0.317523
  18 O :   -0.356362
  19 C :   -0.252860
  20 H :    0.126278
  21 H :    0.114263
  22 H :    0.108871
  23 H :    0.132402
  24 H :    0.085292
  25 H :    0.129701
  26 H :    0.134294
  27 H :    0.123699
  28 H :    0.197732
  29 H :    0.204051
  30 H :    0.170853
  31 H :    0.175008
  32 H :    0.164484
  33 H :    0.132463
  34 H :    0.241316
  35 H :    0.175432
Sum of atomic charges:   -0.0000000

LOEWDIN ATOMIC CHARGES
----------------------
   0 C :    0.101530
   1 C :   -0.015777
   2 O :    0.298611
   3 C :   -0.416264
   4 O :    0.121432
   5 C :   -0.076926
   6 C :   -0.096309
   7 C :    0.124011
   8 N :    0.402040
   9 C :   -0.456460
  10 S :   -0.039463
  11 N :    0.396769
  12 C :   -0.048472
  13 C :   -0.043675
  14 C :    0.018754
  15 C :    0.045132
  16 C :   -0.000452
  17 C :   -0.191468
  18 O :    0.395873
  19 C :    0.029707
  20 H :   -0.020155
  21 H :   -0.025104
  22 H :   -0.035689
  23 H :   -0.017504
  24 H :   -0.038358
  25 H :   -0.008127
  26 H :   -0.009593
  27 H :   -0.018161
  28 H :   -0.057874
  29 H :   -0.063727
  30 H :   -0.002938
  31 H :   -0.021436
  32 H :   -0.018273
  33 H :   -0.034678
  34 H :   -0.153208
  35 H :   -0.023767

  Mayer bond orders larger than 0.100000
B(  0-C ,  1-C ) :   0.9491 B(  0-C , 20-H ) :   0.9683 B(  0-C , 21-H ) :   0.9780
B(  0-C , 22-H ) :   0.9743 B(  1-C ,  2-O ) :   0.9089 B(  1-C , 23-H ) :   0.9822
B(  1-C , 24-H ) :   0.9743 B(  2-O ,  3-C ) :   1.1748 B(  3-C ,  4-O ) :   2.0957
B(  3-C ,  5-C ) :   0.9149 B(  5-C ,  6-C ) :   1.7306 B(  5-C , 12-C ) :   0.9364
B(  6-C ,  7-C ) :   0.9369 B(  6-C ,  8-N ) :   1.0929 B(  7-C , 25-H ) :   0.9778
B(  7-C , 26-H ) :   0.9750 B(  7-C , 27-H ) :   0.9659 B(  8-N ,  9-C ) :   1.2013
B(  8-N , 28-H ) :   0.9513 B(  9-C , 10-S ) :   1.6076 B(  9-C , 11-N ) :   1.2890
B( 11-N , 12-C ) :   0.9784 B( 11-N , 29-H ) :   0.9469 B( 12-C , 13-C ) :   0.9656
B( 12-C , 30-H ) :   0.9884 B( 13-C , 14-C ) :   1.3859 B( 13-C , 19-C ) :   1.3507
B( 14-C , 15-C ) :   1.3976 B( 14-C , 31-H ) :   0.9602 B( 15-C , 16-C ) :   1.3610
B( 15-C , 32-H ) :   0.9697 B( 16-C , 17-C ) :   1.3303 B( 16-C , 33-H ) :   0.9847
B( 17-C , 18-O ) :   1.1102 B( 17-C , 19-C ) :   1.3662 B( 18-O , 34-H ) :   0.9793
B( 19-C , 35-H ) :   0.9564

MP2 TOTAL ENERGY:    -1274.322103022 Eh
FINAL SINGLE POINT ENERGY     -1274.322103022022

DIPOLE MOMENT
-------------
                                X             Y             Z
Electronic contribution:      8.78764       6.28454       7.00874
Nuclear contribution   :    -10.44905      -7.55944      -7.58133
                        -----------------------------------------
Total Dipole Moment    :     -1.66140      -1.27490      -0.57258
                        -----------------------------------------
Magnitude (a.u.)       :      2.17105
Magnitude (Debye)      :      5.51838

Rotational constants in cm-1:     0.011625     0.009240     0.006522
Rotational constants in MHz :   348.507303   277.002077   195.510148

                             ****ORCA TERMINATED NORMALLY****
TOTAL RUN TIME: 0 days 1 hours 58 minutes 0 seconds 896 msec
