                         Program Version 4.2.0 -  RELEASE  -
|  1> ! ri-mp2 cc-pvtz cc-pvtz/c TightSCF NoKeepInts
|  2>
|  3> %scf
|  4>   MaxCore 4096
|  5> end
|  6> *xyz  0  1
|  7>     C       14.2330163   15.4416562   15.5234279
|  8>     C       15.2499919   15.6454803   14.3838316
|  9>     O       16.0358214   16.8126330   14.6821556
| 10>     C       17.0454455   16.7028018   15.5928219
| 11>     O       17.7238254   15.6937968   15.6917506
| 12>     C       17.1204001   17.8320271   16.5789609
| 13>     C       16.8157187   19.1142224   16.2483984
| 14>     C       16.1594769   19.6145158   14.9767683
| 15>     N       17.1511036   20.1686860   17.1014612
| 16>     C       17.9743833   20.0530441   18.1890986
| 17>     S       18.4140095   21.3657497   19.0941034
| 18>     N       18.4334661   18.7923234   18.4759869
| 19>     C       17.9974525   17.5523760   17.8046646
| 20>     C       17.3872817   16.5328175   18.7572586
| 21>     C       17.8983607   15.2246152   18.8311506
| 22>     C       17.3294407   14.2834849   19.7055190
| 23>     C       16.2404002   14.6541287   20.5129801
| 24>     C       15.7274127   15.9565018   20.4390836
| 25>     O       14.6721904   16.3152877   21.2130350
| 26>     C       16.2955571   16.8908149   19.5672607
| 27>     H       14.7448885   15.2227421   16.4697079
| 28>     H       13.5673488   14.6000705   15.2966157
| 29>     H       13.6172785   16.3390809   15.6611684
| 30>     H       15.8826632   14.7553716   14.2615486
| 31>     H       14.7051841   15.8064244   13.4447714
| 32>     H       15.1281826   19.2473993   14.9028181
| 33>     H       16.7067583   19.2661681   14.0918040
| 34>     H       16.1219142   20.7091726   14.9192055
| 35>     H       16.8399874   21.1034662   16.8909904
| 36>     H       19.0216539   18.7309965   19.2974712
| 37>     H       18.9586339   17.1905227   17.4112295
| 38>     H       18.7298255   14.9329178   18.1937125
| 39>     H       17.7295604   13.2721194   19.7495244
| 40>     H       15.7970094   13.9299003   21.1881553
| 41>     H       14.4449975   15.5520270   21.7649938
| 42>     H       15.8863589   17.8946574   19.5245658
| 43> *
| 44>
| 45>                          ****END OF INPUT****

CARTESIAN COORDINATES (ANGSTROEM)
---------------------------------
  C     14.233016   15.441656   15.523428
  C     15.249992   15.645480   14.383832
  O     16.035821   16.812633   14.682156
  C     17.045445   16.702802   15.592822
  O     17.723825   15.693797   15.691751
  C     17.120400   17.832027   16.578961
  C     16.815719   19.114222   16.248398
  C     16.159477   19.614516   14.976768
  N     17.151104   20.168686   17.101461
  C     17.974383   20.053044   18.189099
  S     18.414009   21.365750   19.094103
  N     18.433466   18.792323   18.475987
  C     17.997452   17.552376   17.804665
  C     17.387282   16.532818   18.757259
  C     17.898361   15.224615   18.831151
  C     17.329441   14.283485   19.705519
  C     16.240400   14.654129   20.512980
  C     15.727413   15.956502   20.439084
  O     14.672190   16.315288   21.213035
  C     16.295557   16.890815   19.567261
  H     14.744889   15.222742   16.469708
  H     13.567349   14.600070   15.296616
  H     13.617278   16.339081   15.661168
  H     15.882663   14.755372   14.261549
  H     14.705184   15.806424   13.444771
  H     15.128183   19.247399   14.902818
  H     16.706758   19.266168   14.091804
  H     16.121914   20.709173   14.919205
  H     16.839987   21.103466   16.890990
  H     19.021654   18.730996   19.297471
  H     18.958634   17.190523   17.411230
  H     18.729825   14.932918   18.193713
  H     17.729560   13.272119   19.749524
  H     15.797009   13.929900   21.188155
  H     14.444997   15.552027   21.764994
  H     15.886359   17.894657   19.524566

 Total Charge           Charge          ....    0
 Multiplicity           Mult            ....    1
 Number of Electrons    NEL             ....  154
 Basis Dimension        Dim             ....  828

ORBITAL ENERGIES
----------------

  NO   OCC          E(Eh)            E(eV)
   0   2.0000     -91.888399     -2500.4105
   1   2.0000     -20.596919      -560.4706
   2   2.0000     -20.593229      -560.3702
   3   2.0000     -20.547821      -559.1346
   4   2.0000     -15.628856      -425.2828
   5   2.0000     -15.606206      -424.6665
   6   2.0000     -11.395218      -310.0796
   7   2.0000     -11.383111      -309.7502
   8   2.0000     -11.337814      -308.5176
   9   2.0000     -11.309409      -307.7447
  10   2.0000     -11.304799      -307.6192
  11   2.0000     -11.299911      -307.4862
  12   2.0000     -11.260000      -306.4002
  13   2.0000     -11.259153      -306.3771
  14   2.0000     -11.256425      -306.3029
  15   2.0000     -11.249468      -306.1136
  16   2.0000     -11.239659      -305.8467
  17   2.0000     -11.235674      -305.7382
  18   2.0000     -11.232439      -305.6502
  19   2.0000     -11.229267      -305.5639
  20   2.0000      -8.893479      -242.0039
  21   2.0000      -6.575055      -178.9163
  22   2.0000      -6.573053      -178.8619
  23   2.0000      -6.572465      -178.8459
  24   2.0000      -1.453430       -39.5499
  25   2.0000      -1.412992       -38.4495
  26   2.0000      -1.357344       -36.9352
  27   2.0000      -1.340053       -36.4647
  28   2.0000      -1.237320       -33.6692
  29   2.0000      -1.153918       -31.3997
  30   2.0000      -1.121458       -30.5164
  31   2.0000      -1.043347       -28.3909
  32   2.0000      -1.033978       -28.1360
  33   2.0000      -1.011357       -27.5204
  34   2.0000      -0.999603       -27.2006
  35   2.0000      -0.984705       -26.7952
  36   2.0000      -0.921676       -25.0801
  37   2.0000      -0.893880       -24.3237
  38   2.0000      -0.847737       -23.0681
  39   2.0000      -0.836005       -22.7489
  40   2.0000      -0.829590       -22.5743
  41   2.0000      -0.815752       -22.1977
  42   2.0000      -0.755129       -20.5481
  43   2.0000      -0.736445       -20.0397
  44   2.0000      -0.727134       -19.7863
  45   2.0000      -0.691864       -18.8266
  46   2.0000      -0.685853       -18.6630
  47   2.0000      -0.679155       -18.4808
  48   2.0000      -0.670513       -18.2456
  49   2.0000      -0.659414       -17.9436
  50   2.0000      -0.651859       -17.7380
  51   2.0000      -0.645177       -17.5562
  52   2.0000      -0.633304       -17.2331
  53   2.0000      -0.607703       -16.5364
  54   2.0000      -0.602403       -16.3922
  55   2.0000      -0.599079       -16.3018
  56   2.0000      -0.596526       -16.2323
  57   2.0000      -0.580676       -15.8010
  58   2.0000      -0.574333       -15.6284
  59   2.0000      -0.562357       -15.3025
  60   2.0000      -0.556265       -15.1367
  61   2.0000      -0.553869       -15.0716
  62   2.0000      -0.539178       -14.6718
  63   2.0000      -0.530693       -14.4409
  64   2.0000      -0.517368       -14.0783
  65   2.0000      -0.509792       -13.8722
  66   2.0000      -0.497617       -13.5408
  67   2.0000      -0.494316       -13.4510
  68   2.0000      -0.481940       -13.1143
  69   2.0000      -0.463805       -12.6208
  70   2.0000      -0.459837       -12.5128
  71   2.0000      -0.450468       -12.2579
  72   2.0000      -0.353340        -9.6149
  73   2.0000      -0.346008        -9.4154
  74   2.0000      -0.327483        -8.9113
  75   2.0000      -0.317591        -8.6421
  76   2.0000      -0.316132        -8.6024
  77   0.0000       0.075932         2.0662
  78   0.0000       0.109374         2.9762
  79   0.0000       0.119656         3.2560
  80   0.0000       0.134570         3.6618
  81   0.0000       0.141339         3.8460

MULLIKEN ATOMIC CHARGES
-----------------------
   0 C :   -0.291890
   1 C :    0.023272
   2 O :   -0.360662
   3 C :    0.422891
   4 O :   -0.412125
   5 C :   -0.163207
   6 C :    0.147960
   7 C :   -0.281358
   8 N :   -0.128262
   9 C :    0.207995
  10 S :   -0.441740
  11 N :   -0.211194
  12 C :    0.047706
  13 C :    0.028522
  14 C :   -0.171423
  15 C :   -0.134000
  16 C :   -0.278448
  17 C :    0.314915
  18 O :   -0.358663
  19 C :   -0.253054
  20 H :    0.114639
  21 H :    0.099347
  22 H :    0.092982
  23 H :    0.115586
  24 H :    0.105842
  25 H :    0.127184
  26 H :    0.126582
  27 H :    0.101374
  28 H :    0.198591
  29 H :    0.199617
  30 H :    0.155975
  31 H :    0.160855
  32 H :    0.160657
  33 H :    0.129277
  34 H :    0.240115
  35 H :    0.164139
Sum of atomic charges:    0.0000000

LOEWDIN ATOMIC CHARGES
----------------------
   0 C :    0.105238
   1 C :   -0.019292
   2 O :    0.302055
   3 C :   -0.416888
   4 O :    0.109620
   5 C :   -0.093417
   6 C :   -0.065587
   7 C :    0.125924
   8 N :    0.405495
   9 C :   -0.457982
  10 S :   -0.037315
  11 N :    0.396260
  12 C :   -0.048142
  13 C :   -0.041442
  14 C :    0.024317
  15 C :    0.040853
  16 C :   -0.001309
  17 C :   -0.192994
  18 O :    0.393362
  19 C :    0.029492
  20 H :   -0.023315
  21 H :   -0.025466
  22 H :   -0.028847
  23 H :   -0.026941
  24 H :   -0.025814
  25 H :   -0.010132
  26 H :   -0.008441
  27 H :   -0.020968
  28 H :   -0.058586
  29 H :   -0.063374
  30 H :   -0.007777
  31 H :   -0.023597
  32 H :   -0.020746
  33 H :   -0.035921
  34 H :   -0.154647
  35 H :   -0.023674

  Mayer bond orders larger than 0.100000
B(  0-C ,  1-C ) :   0.9614 B(  0-C , 20-H ) :   0.9732 B(  0-C , 21-H ) :   0.9763
B(  0-C , 22-H ) :   0.9773 B(  1-C ,  2-O ) :   0.8964 B(  1-C , 23-H ) :   0.9770
B(  1-C , 24-H ) :   0.9846 B(  2-O ,  3-C ) :   1.1089 B(  3-C ,  4-O ) :   2.0047
B(  3-C ,  5-C ) :   1.0259 B(  5-C ,  6-C ) :   1.6622 B(  5-C , 12-C ) :   0.9494
B(  6-C ,  7-C ) :   0.9563 B(  6-C ,  8-N ) :   1.1363 B(  7-C , 25-H ) :   0.9637
B(  7-C , 26-H ) :   0.9655 B(  7-C , 27-H ) :   0.9901 B(  8-N ,  9-C ) :   1.1853
B(  8-N , 28-H ) :   0.9470 B(  9-C , 10-S ) :   1.6097 B(  9-C , 11-N ) :   1.3045
B( 11-N , 12-C ) :   0.9784 B( 11-N , 29-H ) :   0.9486 B( 12-C , 13-C ) :   0.9699
B( 12-C , 30-H ) :   0.9958 B( 13-C , 14-C ) :   1.3786 B( 13-C , 19-C ) :   1.3651
B( 14-C , 15-C ) :   1.3972 B( 14-C , 31-H ) :   0.9628 B( 15-C , 16-C ) :   1.3590
B( 15-C , 32-H ) :   0.9711 B( 16-C , 17-C ) :   1.3326 B( 16-C , 33-H ) :   0.9855
B( 17-C , 18-O ) :   1.1044 B( 17-C , 19-C ) :   1.3669 B( 18-O , 34-H ) :   0.9805
B( 19-C , 35-H ) :   0.9601

MP2 TOTAL ENERGY:    -1274.337144334 Eh
FINAL SINGLE POINT ENERGY     -1274.337144334429

DIPOLE MOMENT
-------------
                                X             Y             Z
Electronic contribution:      9.78690       9.28504       8.78151
Nuclear contribution   :    -11.14723     -10.62185      -9.79791
                        -----------------------------------------
Total Dipole Moment    :     -1.36032      -1.33681      -1.01640
                        -----------------------------------------
Magnitude (a.u.)       :      2.16116
Magnitude (Debye)      :      5.49322

Rotational constants in cm-1:     0.010579     0.009252     0.006003
Rotational constants in MHz :   317.148471   277.364690   179.965048

                             ****ORCA TERMINATED NORMALLY****
TOTAL RUN TIME: 0 days 1 hours 39 minutes 56 seconds 749 msec
