                         Program Version 4.2.0 -  RELEASE  -
|  1> ! ri-mp2 cc-pvtz cc-pvtz/c TightSCF NoKeepInts
|  2>
|  3> %scf
|  4>   MaxCore 4096
|  5> end
|  6> *xyz  0  1
|  7>     C       15.4371511   13.9481919   15.3950955
|  8>     C       14.9864453   15.4183603   15.4094240
|  9>     O       16.1593524   16.2314878   15.5663000
| 10>     C       16.0071490   17.5860604   15.5064091
| 11>     O       15.2267793   18.1075734   14.7284847
| 12>     C       16.7878893   18.3109699   16.5692341
| 13>     C       16.9474421   19.6584044   16.5168141
| 14>     C       16.2131116   20.6329562   15.6192805
| 15>     N       17.8780716   20.3052636   17.3331227
| 16>     C       18.8186653   19.6642685   18.0930432
| 17>     S       19.9540509   20.4931030   18.9646482
| 18>     N       18.7856295   18.2928875   18.0770223
| 19>     C       17.7526396   17.4691292   17.4213562
| 20>     C       17.0643439   16.5158094   18.3894555
| 21>     C       17.4008763   15.1499100   18.4058068
| 22>     C       16.7657039   14.2690534   19.2973664
| 23>     C       15.7891572   14.7595006   20.1811874
| 24>     C       15.4572212   16.1214205   20.1709597
| 25>     O       14.5162814   16.5979802   21.0244055
| 26>     C       16.0911257   16.9955733   19.2824430
| 27>     H       15.9199458   13.6819833   16.3429208
| 28>     H       16.1488349   13.7699807   14.5794230
| 29>     H       14.5761170   13.2843775   15.2512095
| 30>     H       14.4783086   15.6545544   14.4642943
| 31>     H       14.2869968   15.5928238   16.2380090
| 32>     H       15.1273126   20.5157231   15.7289291
| 33>     H       16.4577450   20.4483198   14.5654395
| 34>     H       16.4515048   21.6809868   15.8356157
| 35>     H       17.9277119   21.3115250   17.3361192
| 36>     H       19.4718166   17.8485725   18.6737649
| 37>     H       18.3707454   16.9106103   16.7039788
| 38>     H       18.1522073   14.7693030   17.7189161
| 39>     H       17.0307121   13.2131500   19.3018541
| 40>     H       15.2961321   14.0833730   20.8719551
| 41>     H       14.2247954   15.8591263   21.5794971
| 42>     H       15.8270272   18.0476869   19.2942149
| 43> *
| 44>
| 45>                          ****END OF INPUT****

CARTESIAN COORDINATES (ANGSTROEM)
---------------------------------
  C     15.437151   13.948192   15.395095
  C     14.986445   15.418360   15.409424
  O     16.159352   16.231488   15.566300
  C     16.007149   17.586060   15.506409
  O     15.226779   18.107573   14.728485
  C     16.787889   18.310970   16.569234
  C     16.947442   19.658404   16.516814
  C     16.213112   20.632956   15.619281
  N     17.878072   20.305264   17.333123
  C     18.818665   19.664268   18.093043
  S     19.954051   20.493103   18.964648
  N     18.785629   18.292887   18.077022
  C     17.752640   17.469129   17.421356
  C     17.064344   16.515809   18.389456
  C     17.400876   15.149910   18.405807
  C     16.765704   14.269053   19.297366
  C     15.789157   14.759501   20.181187
  C     15.457221   16.121420   20.170960
  O     14.516281   16.597980   21.024406
  C     16.091126   16.995573   19.282443
  H     15.919946   13.681983   16.342921
  H     16.148835   13.769981   14.579423
  H     14.576117   13.284377   15.251209
  H     14.478309   15.654554   14.464294
  H     14.286997   15.592824   16.238009
  H     15.127313   20.515723   15.728929
  H     16.457745   20.448320   14.565439
  H     16.451505   21.680987   15.835616
  H     17.927712   21.311525   17.336119
  H     19.471817   17.848572   18.673765
  H     18.370745   16.910610   16.703979
  H     18.152207   14.769303   17.718916
  H     17.030712   13.213150   19.301854
  H     15.296132   14.083373   20.871955
  H     14.224795   15.859126   21.579497
  H     15.827027   18.047687   19.294215

 Total Charge           Charge          ....    0
 Multiplicity           Mult            ....    1
 Number of Electrons    NEL             ....  154
 Basis Dimension        Dim             ....  828

ORBITAL ENERGIES
----------------

  NO   OCC          E(Eh)            E(eV)
   0   2.0000     -91.889664     -2500.4449
   1   2.0000     -20.598962      -560.5262
   2   2.0000     -20.593750      -560.3844
   3   2.0000     -20.542471      -558.9891
   4   2.0000     -15.630137      -425.3177
   5   2.0000     -15.607803      -424.7099
   6   2.0000     -11.392641      -310.0095
   7   2.0000     -11.384351      -309.7839
   8   2.0000     -11.338242      -308.5293
   9   2.0000     -11.316403      -307.9350
  10   2.0000     -11.308541      -307.7210
  11   2.0000     -11.294582      -307.3412
  12   2.0000     -11.263205      -306.4874
  13   2.0000     -11.258615      -306.3625
  14   2.0000     -11.257846      -306.3416
  15   2.0000     -11.252257      -306.1895
  16   2.0000     -11.246144      -306.0231
  17   2.0000     -11.241195      -305.8885
  18   2.0000     -11.240954      -305.8819
  19   2.0000     -11.227510      -305.5161
  20   2.0000      -8.894726      -242.0378
  21   2.0000      -6.576295      -178.9501
  22   2.0000      -6.574300      -178.8958
  23   2.0000      -6.573707      -178.8797
  24   2.0000      -1.450784       -39.4778
  25   2.0000      -1.418628       -38.6028
  26   2.0000      -1.353528       -36.8314
  27   2.0000      -1.341176       -36.4952
  28   2.0000      -1.239139       -33.7187
  29   2.0000      -1.159942       -31.5636
  30   2.0000      -1.121994       -30.5310
  31   2.0000      -1.044645       -28.4262
  32   2.0000      -1.037836       -28.2409
  33   2.0000      -1.017722       -27.6936
  34   2.0000      -0.997214       -27.1356
  35   2.0000      -0.985597       -26.8195
  36   2.0000      -0.923120       -25.1194
  37   2.0000      -0.884114       -24.0580
  38   2.0000      -0.847343       -23.0574
  39   2.0000      -0.839707       -22.8496
  40   2.0000      -0.836355       -22.7584
  41   2.0000      -0.820626       -22.3304
  42   2.0000      -0.764264       -20.7967
  43   2.0000      -0.735486       -20.0136
  44   2.0000      -0.722098       -19.6493
  45   2.0000      -0.697641       -18.9838
  46   2.0000      -0.687046       -18.6955
  47   2.0000      -0.678589       -18.4653
  48   2.0000      -0.676284       -18.4026
  49   2.0000      -0.661374       -17.9969
  50   2.0000      -0.647959       -17.6319
  51   2.0000      -0.641222       -17.4485
  52   2.0000      -0.634472       -17.2649
  53   2.0000      -0.609580       -16.5875
  54   2.0000      -0.606203       -16.4956
  55   2.0000      -0.602359       -16.3910
  56   2.0000      -0.600421       -16.3383
  57   2.0000      -0.579203       -15.7609
  58   2.0000      -0.570731       -15.5304
  59   2.0000      -0.565805       -15.3963
  60   2.0000      -0.556637       -15.1469
  61   2.0000      -0.542158       -14.7529
  62   2.0000      -0.541320       -14.7301
  63   2.0000      -0.526407       -14.3243
  64   2.0000      -0.519168       -14.1273
  65   2.0000      -0.513782       -13.9807
  66   2.0000      -0.506472       -13.7818
  67   2.0000      -0.499016       -13.5789
  68   2.0000      -0.486244       -13.2314
  69   2.0000      -0.465337       -12.6625
  70   2.0000      -0.456924       -12.4335
  71   2.0000      -0.445277       -12.1166
  72   2.0000      -0.354144        -9.6368
  73   2.0000      -0.351861        -9.5746
  74   2.0000      -0.328967        -8.9516
  75   2.0000      -0.323510        -8.8032
  76   2.0000      -0.319068        -8.6823
  77   0.0000       0.074423         2.0251
  78   0.0000       0.101796         2.7700
  79   0.0000       0.124322         3.3830
  80   0.0000       0.131492         3.5781
  81   0.0000       0.134840         3.6692

MULLIKEN ATOMIC CHARGES
-----------------------
   0 C :   -0.274176
   1 C :    0.033666
   2 O :   -0.354644
   3 C :    0.448595
   4 O :   -0.425416
   5 C :   -0.259251
   6 C :    0.181089
   7 C :   -0.266613
   8 N :   -0.126577
   9 C :    0.212967
  10 S :   -0.441143
  11 N :   -0.217956
  12 C :    0.072349
  13 C :    0.046665
  14 C :   -0.203318
  15 C :   -0.124137
  16 C :   -0.279239
  17 C :    0.317070
  18 O :   -0.356214
  19 C :   -0.251197
  20 H :    0.094211
  21 H :    0.097976
  22 H :    0.094067
  23 H :    0.118993
  24 H :    0.090679
  25 H :    0.133571
  26 H :    0.129749
  27 H :    0.094695
  28 H :    0.199546
  29 H :    0.201012
  30 H :    0.151218
  31 H :    0.158657
  32 H :    0.165981
  33 H :    0.131861
  34 H :    0.241094
  35 H :    0.164168
Sum of atomic charges:    0.0000000

LOEWDIN ATOMIC CHARGES
----------------------
   0 C :    0.108250
   1 C :   -0.018618
   2 O :    0.304097
   3 C :   -0.416781
   4 O :    0.102217
   5 C :   -0.098081
   6 C :   -0.055302
   7 C :    0.131667
   8 N :    0.407518
   9 C :   -0.455696
  10 S :   -0.035709
  11 N :    0.394212
  12 C :   -0.054527
  13 C :   -0.038549
  14 C :    0.017215
  15 C :    0.040130
  16 C :   -0.000885
  17 C :   -0.189853
  18 O :    0.395485
  19 C :    0.032711
  20 H :   -0.030594
  21 H :   -0.026826
  22 H :   -0.025066
  23 H :   -0.027738
  24 H :   -0.030833
  25 H :   -0.004178
  26 H :   -0.004545
  27 H :   -0.023550
  28 H :   -0.056992
  29 H :   -0.064691
  30 H :   -0.012947
  31 H :   -0.029081
  32 H :   -0.020987
  33 H :   -0.034958
  34 H :   -0.153517
  35 H :   -0.022999

  Mayer bond orders larger than 0.100000
B(  0-C ,  1-C ) :   0.9740 B(  0-C , 20-H ) :   0.9757 B(  0-C , 21-H ) :   0.9772
B(  0-C , 22-H ) :   0.9782 B(  1-C ,  2-O ) :   0.8932 B(  1-C , 23-H ) :   0.9812
B(  1-C , 24-H ) :   0.9707 B(  2-O ,  3-C ) :   1.1401 B(  3-C ,  4-O ) :   1.9885
B(  3-C ,  5-C ) :   1.0666 B(  5-C ,  6-C ) :   1.6288 B(  5-C , 12-C ) :   0.9557
B(  6-C ,  7-C ) :   0.9656 B(  6-C ,  8-N ) :   1.1577 B(  7-C , 25-H ) :   0.9608
B(  7-C , 26-H ) :   0.9586 B(  7-C , 27-H ) :   0.9904 B(  8-N ,  9-C ) :   1.1862
B(  8-N , 28-H ) :   0.9464 B(  9-C , 10-S ) :   1.6048 B(  9-C , 11-N ) :   1.3110
B( 11-N , 12-C ) :   0.9636 B( 11-N , 29-H ) :   0.9484 B( 12-C , 13-C ) :   0.9636
B( 12-C , 30-H ) :   1.0010 B( 13-C , 14-C ) :   1.3496 B( 13-C , 19-C ) :   1.3763
B( 14-C , 15-C ) :   1.3847 B( 14-C , 31-H ) :   0.9702 B( 15-C , 16-C ) :   1.3614
B( 15-C , 32-H ) :   0.9688 B( 16-C , 17-C ) :   1.3322 B( 16-C , 33-H ) :   0.9844
B( 17-C , 18-O ) :   1.1054 B( 17-C , 19-C ) :   1.3655 B( 18-O , 34-H ) :   0.9794
B( 19-C , 35-H ) :   0.9597

MP2 TOTAL ENERGY:    -1274.339540277 Eh
FINAL SINGLE POINT ENERGY     -1274.339540276639

DIPOLE MOMENT
-------------
                                X             Y             Z
Electronic contribution:      8.47773      11.30434       7.31268
Nuclear contribution   :     -9.59717     -12.89321      -7.46082
                        -----------------------------------------
Total Dipole Moment    :     -1.11943      -1.58887      -0.14813
                        -----------------------------------------
Magnitude (a.u.)       :      1.94925
Magnitude (Debye)      :      4.95460

Rotational constants in cm-1:     0.012114     0.008264     0.006022
Rotational constants in MHz :   363.179290   247.735815   180.533200

                             ****ORCA TERMINATED NORMALLY****
TOTAL RUN TIME: 0 days 1 hours 40 minutes 37 seconds 620 msec
