                         Program Version 4.2.0 -  RELEASE  -
|  1> ! ri-mp2 cc-pvtz cc-pvtz/c TightSCF NoKeepInts
|  2>
|  3> %scf
|  4>   MaxCore 4096
|  5> end
|  6> *xyz  0  1
|  7>     C       14.1147717   15.4660100   13.9094034
|  8>     C       15.0338572   15.3927414   15.1400611
|  9>     O       16.1113189   16.3155161   14.9281723
| 10>     C       17.0943117   16.3315964   15.8683582
| 11>     O       17.7184790   15.3245993   16.1546237
| 12>     C       17.1848483   17.6025299   16.6625342
| 13>     C       16.9263372   18.8211042   16.1193390
| 14>     C       16.3063628   19.1238201   14.7693375
| 15>     N       17.2823437   19.9918969   16.7935138
| 16>     C       18.0906159   20.0341723   17.8975220
| 17>     S       18.5606346   21.4652119   18.5804728
| 18>     N       18.5083757   18.8255541   18.3945370
| 19>     C       18.0381955   17.5049727   17.9327249
| 20>     C       17.3900661   16.6768472   19.0343162
| 21>     C       17.8551801   15.3820235   19.3262198
| 22>     C       17.2551270   14.6191940   20.3420780
| 23>     C       16.1813994   15.1563542   21.0727976
| 24>     C       15.7144125   16.4456309   20.7822272
| 25>     O       14.6744426   16.9647473   21.4823488
| 26>     C       16.3131428   17.2020614   19.7696466
| 27>     H       14.6670583   15.1995886   12.9994440
| 28>     H       13.7107060   16.4783579   13.7862990
| 29>     H       13.2735062   14.7703182   14.0158012
| 30>     H       14.4756337   15.6552193   16.0487846
| 31>     H       15.4213660   14.3701926   15.2494878
| 32>     H       16.8551594   18.6175254   13.9650552
| 33>     H       16.3070397   20.1944539   14.5309787
| 34>     H       15.2646684   18.7816176   14.7346917
| 35>     H       17.0035351   20.8877240   16.4263877
| 36>     H       19.0874415   18.8839735   19.2227728
| 37>     H       18.9917995   17.0551636   17.6195796
| 38>     H       18.6757140   14.9602409   18.7502651
| 39>     H       17.6199312   13.6158916   20.5548644
| 40>     H       15.7143970   14.5700037   21.8570950
| 41>     H       14.4244036   16.3137942   22.1551759
| 42>     H       15.9404174   18.1993512   19.5610832
| 43> *
| 44>
| 45>                          ****END OF INPUT****

CARTESIAN COORDINATES (ANGSTROEM)
---------------------------------
  C     14.114772   15.466010   13.909403
  C     15.033857   15.392741   15.140061
  O     16.111319   16.315516   14.928172
  C     17.094312   16.331596   15.868358
  O     17.718479   15.324599   16.154624
  C     17.184848   17.602530   16.662534
  C     16.926337   18.821104   16.119339
  C     16.306363   19.123820   14.769338
  N     17.282344   19.991897   16.793514
  C     18.090616   20.034172   17.897522
  S     18.560635   21.465212   18.580473
  N     18.508376   18.825554   18.394537
  C     18.038196   17.504973   17.932725
  C     17.390066   16.676847   19.034316
  C     17.855180   15.382024   19.326220
  C     17.255127   14.619194   20.342078
  C     16.181399   15.156354   21.072798
  C     15.714412   16.445631   20.782227
  O     14.674443   16.964747   21.482349
  C     16.313143   17.202061   19.769647
  H     14.667058   15.199589   12.999444
  H     13.710706   16.478358   13.786299
  H     13.273506   14.770318   14.015801
  H     14.475634   15.655219   16.048785
  H     15.421366   14.370193   15.249488
  H     16.855159   18.617525   13.965055
  H     16.307040   20.194454   14.530979
  H     15.264668   18.781618   14.734692
  H     17.003535   20.887724   16.426388
  H     19.087442   18.883973   19.222773
  H     18.991799   17.055164   17.619580
  H     18.675714   14.960241   18.750265
  H     17.619931   13.615892   20.554864
  H     15.714397   14.570004   21.857095
  H     14.424404   16.313794   22.155176
  H     15.940417   18.199351   19.561083

 Total Charge           Charge          ....    0
 Multiplicity           Mult            ....    1
 Number of Electrons    NEL             ....  154
 Basis Dimension        Dim             ....  828

ORBITAL ENERGIES
----------------

  NO   OCC          E(Eh)            E(eV)
   0   2.0000     -91.889211     -2500.4326
   1   2.0000     -20.593282      -560.3717
   2   2.0000     -20.591347      -560.3190
   3   2.0000     -20.550143      -559.1978
   4   2.0000     -15.630224      -425.3200
   5   2.0000     -15.606680      -424.6794
   6   2.0000     -11.393412      -310.0305
   7   2.0000     -11.383851      -309.7703
   8   2.0000     -11.339740      -308.5700
   9   2.0000     -11.309317      -307.7422
  10   2.0000     -11.304876      -307.6213
  11   2.0000     -11.301822      -307.5382
  12   2.0000     -11.260726      -306.4199
  13   2.0000     -11.260309      -306.4086
  14   2.0000     -11.256490      -306.3047
  15   2.0000     -11.249221      -306.1069
  16   2.0000     -11.239434      -305.8405
  17   2.0000     -11.235699      -305.7389
  18   2.0000     -11.235185      -305.7249
  19   2.0000     -11.232209      -305.6440
  20   2.0000      -8.894286      -242.0258
  21   2.0000      -6.575860      -178.9382
  22   2.0000      -6.573859      -178.8838
  23   2.0000      -6.573268      -178.8677
  24   2.0000      -1.454424       -39.5769
  25   2.0000      -1.413030       -38.4505
  26   2.0000      -1.358283       -36.9608
  27   2.0000      -1.341137       -36.4942
  28   2.0000      -1.238107       -33.6906
  29   2.0000      -1.153830       -31.3973
  30   2.0000      -1.121877       -30.5278
  31   2.0000      -1.044717       -28.4282
  32   2.0000      -1.037395       -28.2290
  33   2.0000      -1.011403       -27.5217
  34   2.0000      -1.000145       -27.2153
  35   2.0000      -0.985316       -26.8118
  36   2.0000      -0.921824       -25.0841
  37   2.0000      -0.883705       -24.0468
  38   2.0000      -0.848799       -23.0970
  39   2.0000      -0.837225       -22.7820
  40   2.0000      -0.829504       -22.5720
  41   2.0000      -0.826126       -22.4800
  42   2.0000      -0.761096       -20.7105
  43   2.0000      -0.736612       -20.0442
  44   2.0000      -0.727502       -19.7963
  45   2.0000      -0.691096       -18.8057
  46   2.0000      -0.687394       -18.7049
  47   2.0000      -0.681032       -18.5318
  48   2.0000      -0.674508       -18.3543
  49   2.0000      -0.653346       -17.7784
  50   2.0000      -0.651973       -17.7411
  51   2.0000      -0.640506       -17.4291
  52   2.0000      -0.631055       -17.1719
  53   2.0000      -0.620601       -16.8874
  54   2.0000      -0.604458       -16.4481
  55   2.0000      -0.600101       -16.3296
  56   2.0000      -0.596605       -16.2344
  57   2.0000      -0.577320       -15.7097
  58   2.0000      -0.574394       -15.6301
  59   2.0000      -0.563774       -15.3411
  60   2.0000      -0.560057       -15.2399
  61   2.0000      -0.548534       -14.9264
  62   2.0000      -0.539466       -14.6796
  63   2.0000      -0.525577       -14.3017
  64   2.0000      -0.517613       -14.0850
  65   2.0000      -0.510911       -13.9026
  66   2.0000      -0.505908       -13.7664
  67   2.0000      -0.495320       -13.4783
  68   2.0000      -0.480902       -13.0860
  69   2.0000      -0.463038       -12.5999
  70   2.0000      -0.461774       -12.5655
  71   2.0000      -0.451917       -12.2973
  72   2.0000      -0.354368        -9.6428
  73   2.0000      -0.345953        -9.4139
  74   2.0000      -0.328219        -8.9313
  75   2.0000      -0.318381        -8.6636
  76   2.0000      -0.315965        -8.5979
  77   0.0000       0.072485         1.9724
  78   0.0000       0.109255         2.9730
  79   0.0000       0.120146         3.2693
  80   0.0000       0.134669         3.6645
  81   0.0000       0.137793         3.7495

MULLIKEN ATOMIC CHARGES
-----------------------
   0 C :   -0.269597
   1 C :    0.036251
   2 O :   -0.362040
   3 C :    0.454661
   4 O :   -0.400597
   5 C :   -0.203008
   6 C :    0.152248
   7 C :   -0.283415
   8 N :   -0.127564
   9 C :    0.206957
  10 S :   -0.440484
  11 N :   -0.210599
  12 C :    0.041519
  13 C :    0.034210
  14 C :   -0.171465
  15 C :   -0.133561
  16 C :   -0.277495
  17 C :    0.313546
  18 O :   -0.359057
  19 C :   -0.254631
  20 H :    0.102394
  21 H :    0.090343
  22 H :    0.095423
  23 H :    0.087055
  24 H :    0.112160
  25 H :    0.128957
  26 H :    0.104310
  27 H :    0.123771
  28 H :    0.198995
  29 H :    0.199863
  30 H :    0.156197
  31 H :    0.160674
  32 H :    0.160717
  33 H :    0.128755
  34 H :    0.240266
  35 H :    0.164244
Sum of atomic charges:   -0.0000000

LOEWDIN ATOMIC CHARGES
----------------------
   0 C :    0.109289
   1 C :   -0.021398
   2 O :    0.300163
   3 C :   -0.420349
   4 O :    0.119243
   5 C :   -0.096395
   6 C :   -0.064373
   7 C :    0.125827
   8 N :    0.405894
   9 C :   -0.458340
  10 S :   -0.036232
  11 N :    0.396240
  12 C :   -0.048539
  13 C :   -0.041100
  14 C :    0.024868
  15 C :    0.041488
  16 C :   -0.001157
  17 C :   -0.193056
  18 O :    0.392973
  19 C :    0.028431
  20 H :   -0.023978
  21 H :   -0.030354
  22 H :   -0.023562
  23 H :   -0.032735
  24 H :   -0.025828
  25 H :   -0.007481
  26 H :   -0.020664
  27 H :   -0.010902
  28 H :   -0.058359
  29 H :   -0.063208
  30 H :   -0.007633
  31 H :   -0.023540
  32 H :   -0.020668
  33 H :   -0.035979
  34 H :   -0.154568
  35 H :   -0.024017

  Mayer bond orders larger than 0.100000
B(  0-C ,  1-C ) :   0.9756 B(  0-C , 20-H ) :   0.9768 B(  0-C , 21-H ) :   0.9791
B(  0-C , 22-H ) :   0.9764 B(  1-C ,  2-O ) :   0.9025 B(  1-C , 23-H ) :   0.9705
B(  1-C , 24-H ) :   0.9784 B(  2-O ,  3-C ) :   1.0834 B(  3-C ,  4-O ) :   2.0307
B(  3-C ,  5-C ) :   1.0331 B(  5-C ,  6-C ) :   1.6573 B(  5-C , 12-C ) :   0.9508
B(  6-C ,  7-C ) :   0.9535 B(  6-C ,  8-N ) :   1.1397 B(  7-C , 25-H ) :   0.9649
B(  7-C , 26-H ) :   0.9906 B(  7-C , 27-H ) :   0.9648 B(  8-N ,  9-C ) :   1.1836
B(  8-N , 28-H ) :   0.9470 B(  9-C , 10-S ) :   1.6106 B(  9-C , 11-N ) :   1.3054
B( 11-N , 12-C ) :   0.9780 B( 11-N , 29-H ) :   0.9485 B( 12-C , 13-C ) :   0.9718
B( 12-C , 30-H ) :   0.9963 B( 13-C , 14-C ) :   1.3787 B( 13-C , 19-C ) :   1.3629
B( 14-C , 15-C ) :   1.3975 B( 14-C , 31-H ) :   0.9630 B( 15-C , 16-C ) :   1.3591
B( 15-C , 32-H ) :   0.9709 B( 16-C , 17-C ) :   1.3331 B( 16-C , 33-H ) :   0.9858
B( 17-C , 18-O ) :   1.1040 B( 17-C , 19-C ) :   1.3674 B( 18-O , 34-H ) :   0.9804
B( 19-C , 35-H ) :   0.9601

MP2 TOTAL ENERGY:    -1274.330349645 Eh
FINAL SINGLE POINT ENERGY     -1274.330349645326

DIPOLE MOMENT
-------------
                                X             Y             Z
Electronic contribution:     10.55343       9.37875      11.05336
Nuclear contribution   :    -12.01254     -10.67150     -11.79405
                        -----------------------------------------
Total Dipole Moment    :     -1.45911      -1.29275      -0.74068
                        -----------------------------------------
Magnitude (a.u.)       :      2.08538
Magnitude (Debye)      :      5.30062

Rotational constants in cm-1:     0.009607     0.009325     0.005721
Rotational constants in MHz :   288.004829   279.550748   171.516146

                             ****ORCA TERMINATED NORMALLY****
TOTAL RUN TIME: 0 days 1 hours 39 minutes 52 seconds 585 msec
