                         Program Version 4.2.0 -  RELEASE  -
|  1> ! ri-mp2 cc-pvtz cc-pvtz/c TightSCF NoKeepInts
|  2>
|  3> %scf
|  4>   MaxCore 4096
|  5> end
|  6> *xyz  0  1
|  7>     C       14.6796739   14.6514022   15.0185087
|  8>     C       14.6250773   16.1916863   15.0590799
|  9>     O       15.9118463   16.7493016   14.7311799
| 10>     C       16.9310360   16.6053045   15.6245362
| 11>     O       17.5509591   15.5620230   15.7341374
| 12>     C       17.1334282   17.7752263   16.5426854
| 13>     C       16.9445553   19.0597344   16.1424403
| 14>     C       16.3172843   19.5466335   14.8510940
| 15>     N       17.3963375   20.1238231   16.9270236
| 16>     C       18.2311554   19.9915314   18.0040003
| 17>     S       18.8115605   21.3052446   18.8239421
| 18>     N       18.5773068   18.7109327   18.3545634
| 19>     C       18.0097422   17.4824198   17.7654304
| 20>     C       17.3295105   16.5788742   18.7852655
| 21>     C       17.6897541   15.2237899   18.8946799
| 22>     C       17.0559652   14.3890161   19.8302255
| 23>     C       16.0535141   14.9141199   20.6636999
| 24>     C       15.6904486   16.2635413   20.5545574
| 25>     O       14.7181993   16.7717088   21.3530498
| 26>     C       16.3223125   17.0916947   19.6213224
| 27>     H       15.2752453   14.2534902   15.8497976
| 28>     H       15.1241654   14.3036974   14.0774655
| 29>     H       13.6705872   14.2295608   15.0978267
| 30>     H       13.8894936   16.5382749   14.3218262
| 31>     H       14.2977664   16.5311819   16.0511781
| 32>     H       16.7964209   19.0765826   13.9826782
| 33>     H       16.4107933   20.6312209   14.7162159
| 34>     H       15.2482963   19.3036587   14.8206773
| 35>     H       17.1720746   21.0710287   16.6669942
| 36>     H       19.1799149   18.6399456   19.1648587
| 37>     H       18.9227668   17.0088209   17.3754451
| 38>     H       18.4540484   14.8133318   18.2384989
| 39>     H       17.3395656   13.3404384   19.9016955
| 40>     H       15.5606113   14.2723874   21.3863980
| 41>     H       14.4360896   16.0642788   21.9522399
| 42>     H       16.0294933   18.1340927   19.5527823
| 43> *
| 44>
| 45>                          ****END OF INPUT****

CARTESIAN COORDINATES (ANGSTROEM)
---------------------------------
  C     14.679674   14.651402   15.018509
  C     14.625077   16.191686   15.059080
  O     15.911846   16.749302   14.731180
  C     16.931036   16.605304   15.624536
  O     17.550959   15.562023   15.734137
  C     17.133428   17.775226   16.542685
  C     16.944555   19.059734   16.142440
  C     16.317284   19.546633   14.851094
  N     17.396338   20.123823   16.927024
  C     18.231155   19.991531   18.004000
  S     18.811560   21.305245   18.823942
  N     18.577307   18.710933   18.354563
  C     18.009742   17.482420   17.765430
  C     17.329511   16.578874   18.785266
  C     17.689754   15.223790   18.894680
  C     17.055965   14.389016   19.830226
  C     16.053514   14.914120   20.663700
  C     15.690449   16.263541   20.554557
  O     14.718199   16.771709   21.353050
  C     16.322312   17.091695   19.621322
  H     15.275245   14.253490   15.849798
  H     15.124165   14.303697   14.077465
  H     13.670587   14.229561   15.097827
  H     13.889494   16.538275   14.321826
  H     14.297766   16.531182   16.051178
  H     16.796421   19.076583   13.982678
  H     16.410793   20.631221   14.716216
  H     15.248296   19.303659   14.820677
  H     17.172075   21.071029   16.666994
  H     19.179915   18.639946   19.164859
  H     18.922767   17.008821   17.375445
  H     18.454048   14.813332   18.238499
  H     17.339566   13.340438   19.901695
  H     15.560611   14.272387   21.386398
  H     14.436090   16.064279   21.952240
  H     16.029493   18.134093   19.552782

 Total Charge           Charge          ....    0
 Multiplicity           Mult            ....    1
 Number of Electrons    NEL             ....  154
 Basis Dimension        Dim             ....  828

ORBITAL ENERGIES
----------------

  NO   OCC          E(Eh)            E(eV)
   0   2.0000     -91.889648     -2500.4444
   1   2.0000     -20.594791      -560.4128
   2   2.0000     -20.587683      -560.2193
   3   2.0000     -20.552740      -559.2685
   4   2.0000     -15.630536      -425.3285
   5   2.0000     -15.607270      -424.6954
   6   2.0000     -11.394944      -310.0722
   7   2.0000     -11.384379      -309.7847
   8   2.0000     -11.339953      -308.5758
   9   2.0000     -11.311076      -307.7900
  10   2.0000     -11.306490      -307.6652
  11   2.0000     -11.305309      -307.6331
  12   2.0000     -11.261262      -306.4345
  13   2.0000     -11.260272      -306.4076
  14   2.0000     -11.258195      -306.3511
  15   2.0000     -11.251059      -306.1569
  16   2.0000     -11.241084      -305.8855
  17   2.0000     -11.237346      -305.7837
  18   2.0000     -11.233843      -305.6884
  19   2.0000     -11.223144      -305.3973
  20   2.0000      -8.894723      -242.0377
  21   2.0000      -6.576296      -178.9501
  22   2.0000      -6.574296      -178.8957
  23   2.0000      -6.573704      -178.8796
  24   2.0000      -1.450712       -39.4759
  25   2.0000      -1.414544       -38.4917
  26   2.0000      -1.359333       -36.9893
  27   2.0000      -1.341504       -36.5042
  28   2.0000      -1.238573       -33.7033
  29   2.0000      -1.155421       -31.4406
  30   2.0000      -1.122298       -30.5393
  31   2.0000      -1.043904       -28.4061
  32   2.0000      -1.032652       -28.0999
  33   2.0000      -1.013042       -27.5663
  34   2.0000      -1.000906       -27.2360
  35   2.0000      -0.985657       -26.8211
  36   2.0000      -0.922946       -25.1146
  37   2.0000      -0.888077       -24.1658
  38   2.0000      -0.850929       -23.1550
  39   2.0000      -0.838844       -22.8261
  40   2.0000      -0.831242       -22.6192
  41   2.0000      -0.827414       -22.5151
  42   2.0000      -0.748816       -20.3763
  43   2.0000      -0.732367       -19.9287
  44   2.0000      -0.728694       -19.8288
  45   2.0000      -0.692970       -18.8567
  46   2.0000      -0.685916       -18.6647
  47   2.0000      -0.680674       -18.5221
  48   2.0000      -0.674210       -18.3462
  49   2.0000      -0.666844       -18.1458
  50   2.0000      -0.648629       -17.6501
  51   2.0000      -0.644609       -17.5407
  52   2.0000      -0.635602       -17.2956
  53   2.0000      -0.607418       -16.5287
  54   2.0000      -0.603028       -16.4092
  55   2.0000      -0.600888       -16.3510
  56   2.0000      -0.598199       -16.2778
  57   2.0000      -0.576891       -15.6980
  58   2.0000      -0.573852       -15.6153
  59   2.0000      -0.572579       -15.5807
  60   2.0000      -0.559726       -15.2309
  61   2.0000      -0.551498       -15.0070
  62   2.0000      -0.538648       -14.6574
  63   2.0000      -0.523698       -14.2505
  64   2.0000      -0.518583       -14.1114
  65   2.0000      -0.511650       -13.9227
  66   2.0000      -0.498628       -13.5683
  67   2.0000      -0.494398       -13.4533
  68   2.0000      -0.480883       -13.0855
  69   2.0000      -0.464925       -12.6512
  70   2.0000      -0.459231       -12.4963
  71   2.0000      -0.449347       -12.2273
  72   2.0000      -0.354867        -9.6564
  73   2.0000      -0.347511        -9.4563
  74   2.0000      -0.328698        -8.9443
  75   2.0000      -0.318949        -8.6790
  76   2.0000      -0.317805        -8.6479
  77   0.0000       0.071951         1.9579
  78   0.0000       0.106926         2.9096
  79   0.0000       0.120221         3.2714
  80   0.0000       0.133588         3.6351
  81   0.0000       0.138610         3.7718

MULLIKEN ATOMIC CHARGES
-----------------------
   0 C :   -0.269465
   1 C :    0.026611
   2 O :   -0.376910
   3 C :    0.465764
   4 O :   -0.392260
   5 C :   -0.219518
   6 C :    0.161390
   7 C :   -0.284166
   8 N :   -0.128039
   9 C :    0.206206
  10 S :   -0.440092
  11 N :   -0.212192
  12 C :    0.046805
  13 C :    0.033221
  14 C :   -0.182134
  15 C :   -0.132918
  16 C :   -0.277617
  17 C :    0.314278
  18 O :   -0.358519
  19 C :   -0.256751
  20 H :    0.109659
  21 H :    0.103023
  22 H :    0.091213
  23 H :    0.104882
  24 H :    0.089998
  25 H :    0.131918
  26 H :    0.105239
  27 H :    0.121710
  28 H :    0.198928
  29 H :    0.199858
  30 H :    0.157451
  31 H :    0.164613
  32 H :    0.161936
  33 H :    0.129588
  34 H :    0.240530
  35 H :    0.165760
Sum of atomic charges:   -0.0000000

LOEWDIN ATOMIC CHARGES
----------------------
   0 C :    0.107960
   1 C :   -0.023583
   2 O :    0.292653
   3 C :   -0.418372
   4 O :    0.128194
   5 C :   -0.097927
   6 C :   -0.065072
   7 C :    0.126221
   8 N :    0.405812
   9 C :   -0.458267
  10 S :   -0.035995
  11 N :    0.396187
  12 C :   -0.049024
  13 C :   -0.041864
  14 C :    0.023680
  15 C :    0.041211
  16 C :   -0.000974
  17 C :   -0.193008
  18 O :    0.393271
  19 C :    0.028123
  20 H :   -0.025944
  21 H :   -0.022774
  22 H :   -0.029005
  23 H :   -0.023805
  24 H :   -0.033778
  25 H :   -0.006554
  26 H :   -0.020264
  27 H :   -0.010743
  28 H :   -0.058259
  29 H :   -0.063329
  30 H :   -0.007460
  31 H :   -0.023196
  32 H :   -0.020324
  33 H :   -0.035709
  34 H :   -0.154257
  35 H :   -0.023827

  Mayer bond orders larger than 0.100000
B(  0-C ,  1-C ) :   0.9842 B(  0-C , 20-H ) :   0.9716 B(  0-C , 21-H ) :   0.9752
B(  0-C , 22-H ) :   0.9746 B(  1-C ,  2-O ) :   0.9029 B(  1-C , 23-H ) :   0.9801
B(  1-C , 24-H ) :   0.9710 B(  2-O ,  3-C ) :   1.0631 B(  3-C ,  4-O ) :   2.0382
B(  3-C ,  5-C ) :   1.0207 B(  5-C ,  6-C ) :   1.6635 B(  5-C , 12-C ) :   0.9540
B(  6-C ,  7-C ) :   0.9515 B(  6-C ,  8-N ) :   1.1389 B(  7-C , 25-H ) :   0.9645
B(  7-C , 26-H ) :   0.9896 B(  7-C , 27-H ) :   0.9671 B(  8-N ,  9-C ) :   1.1842
B(  8-N , 28-H ) :   0.9470 B(  9-C , 10-S ) :   1.6115 B(  9-C , 11-N ) :   1.3039
B( 11-N , 12-C ) :   0.9794 B( 11-N , 29-H ) :   0.9486 B( 12-C , 13-C ) :   0.9690
B( 12-C , 30-H ) :   0.9955 B( 13-C , 14-C ) :   1.3786 B( 13-C , 19-C ) :   1.3623
B( 14-C , 15-C ) :   1.3959 B( 14-C , 31-H ) :   0.9619 B( 15-C , 16-C ) :   1.3598
B( 15-C , 32-H ) :   0.9705 B( 16-C , 17-C ) :   1.3328 B( 16-C , 33-H ) :   0.9855
B( 17-C , 18-O ) :   1.1050 B( 17-C , 19-C ) :   1.3662 B( 18-O , 34-H ) :   0.9801
B( 19-C , 35-H ) :   0.9597

MP2 TOTAL ENERGY:    -1274.326651036 Eh
FINAL SINGLE POINT ENERGY     -1274.326651036094

DIPOLE MOMENT
-------------
                                X             Y             Z
Electronic contribution:     10.06791      10.05133       8.75877
Nuclear contribution   :    -11.67144     -11.10814      -9.39398
                        -----------------------------------------
Total Dipole Moment    :     -1.60353      -1.05682      -0.63521
                        -----------------------------------------
Magnitude (a.u.)       :      2.02279
Magnitude (Debye)      :      5.14152

Rotational constants in cm-1:     0.010664     0.009184     0.005918
Rotational constants in MHz :   319.688010   275.329699   177.416540

                             ****ORCA TERMINATED NORMALLY****
TOTAL RUN TIME: 0 days 1 hours 37 minutes 45 seconds 443 msec
