                         Program Version 4.2.0 -  RELEASE  -
|  1> ! ri-mp2 cc-pvtz cc-pvtz/c TightSCF NoKeepInts
|  2>
|  3> %scf
|  4>   MaxCore 4096
|  5> end
|  6> *xyz  0  1
|  7>     C       14.1309200   15.1165688   14.5116608
|  8>     C       14.8875075   16.0713520   15.4493179
|  9>     O       16.1759826   16.3168671   14.8622080
| 10>     C       17.2291965   16.4152808   15.7190204
| 11>     O       18.0377837   15.5134403   15.8409381
| 12>     C       17.2349992   17.6464461   16.5733013
| 13>     C       16.9417157   18.8702341   16.0644882
| 14>     C       16.3921623   19.1876104   14.6875981
| 15>     N       17.2161282   20.0290381   16.7945252
| 16>     C       17.9842623   20.0633250   17.9278172
| 17>     S       18.3595096   21.4855011   18.6835234
| 18>     N       18.4444058   18.8559989   18.3914169
| 19>     C       18.0530919   17.5345813   17.8621680
| 20>     C       17.4060053   16.6225629   18.8950212
| 21>     C       17.8629062   15.3039661   19.0688342
| 22>     C       17.2572565   14.4563836   20.0114234
| 23>     C       16.1847641   14.9313328   20.7857194
| 24>     C       15.7244090   16.2436209   20.6110182
| 25>     O       14.6834918   16.7022924   21.3505717
| 26>     C       16.3282836   17.0845816   19.6706634
| 27>     H       14.6852717   14.1771313   14.3902097
| 28>     H       13.9987226   15.5697361   13.5213188
| 29>     H       13.1399845   14.8803013   14.9180238
| 30>     H       14.3317472   17.0083185   15.5810677
| 31>     H       14.9947830   15.5879830   16.4312066
| 32>     H       16.9211252   18.6194709   13.9115266
| 33>     H       16.5012607   20.2476032   14.4265609
| 34>     H       15.3267201   18.9398081   14.6199796
| 35>     H       16.9107192   20.9255516   16.4503516
| 36>     H       18.9983209   18.9079880   19.2372588
| 37>     H       19.0360238   17.1417405   17.5622580
| 38>     H       18.6829343   14.9309965   18.4587338
| 39>     H       17.6171548   13.4362410   20.1342326
| 40>     H       15.7134779   14.2792369   21.5136562
| 41>     H       14.4355442   15.9994244   21.9700843
| 42>     H       15.9584279   18.0974844   19.5502962
| 43> *
| 44>
| 45>                          ****END OF INPUT****

CARTESIAN COORDINATES (ANGSTROEM)
---------------------------------
  C     14.130920   15.116569   14.511661
  C     14.887507   16.071352   15.449318
  O     16.175983   16.316867   14.862208
  C     17.229197   16.415281   15.719020
  O     18.037784   15.513440   15.840938
  C     17.234999   17.646446   16.573301
  C     16.941716   18.870234   16.064488
  C     16.392162   19.187610   14.687598
  N     17.216128   20.029038   16.794525
  C     17.984262   20.063325   17.927817
  S     18.359510   21.485501   18.683523
  N     18.444406   18.855999   18.391417
  C     18.053092   17.534581   17.862168
  C     17.406005   16.622563   18.895021
  C     17.862906   15.303966   19.068834
  C     17.257257   14.456384   20.011423
  C     16.184764   14.931333   20.785719
  C     15.724409   16.243621   20.611018
  O     14.683492   16.702292   21.350572
  C     16.328284   17.084582   19.670663
  H     14.685272   14.177131   14.390210
  H     13.998723   15.569736   13.521319
  H     13.139985   14.880301   14.918024
  H     14.331747   17.008319   15.581068
  H     14.994783   15.587983   16.431207
  H     16.921125   18.619471   13.911527
  H     16.501261   20.247603   14.426561
  H     15.326720   18.939808   14.619980
  H     16.910719   20.925552   16.450352
  H     18.998321   18.907988   19.237259
  H     19.036024   17.141740   17.562258
  H     18.682934   14.930996   18.458734
  H     17.617155   13.436241   20.134233
  H     15.713478   14.279237   21.513656
  H     14.435544   15.999424   21.970084
  H     15.958428   18.097484   19.550296

 Total Charge           Charge          ....    0
 Multiplicity           Mult            ....    1
 Number of Electrons    NEL             ....  154
 Basis Dimension        Dim             ....  828

ORBITAL ENERGIES
----------------

  NO   OCC          E(Eh)            E(eV)
   0   2.0000     -91.890200     -2500.4595
   1   2.0000     -20.596291      -560.4536
   2   2.0000     -20.590784      -560.3037
   3   2.0000     -20.554079      -559.3049
   4   2.0000     -15.630621      -425.3308
   5   2.0000     -15.608164      -424.7197
   6   2.0000     -11.394581      -310.0623
   7   2.0000     -11.385271      -309.8090
   8   2.0000     -11.339386      -308.5604
   9   2.0000     -11.312799      -307.8369
  10   2.0000     -11.307186      -307.6842
  11   2.0000     -11.306475      -307.6648
  12   2.0000     -11.263971      -306.5082
  13   2.0000     -11.260796      -306.4218
  14   2.0000     -11.260000      -306.4002
  15   2.0000     -11.252748      -306.2028
  16   2.0000     -11.242624      -305.9274
  17   2.0000     -11.238818      -305.8238
  18   2.0000     -11.235299      -305.7280
  19   2.0000     -11.233228      -305.6717
  20   2.0000      -8.895281      -242.0529
  21   2.0000      -6.576856      -178.9653
  22   2.0000      -6.574853      -178.9108
  23   2.0000      -6.574263      -178.8948
  24   2.0000      -1.453077       -39.5402
  25   2.0000      -1.416037       -38.5323
  26   2.0000      -1.362163       -37.0663
  27   2.0000      -1.341881       -36.5144
  28   2.0000      -1.239137       -33.7186
  29   2.0000      -1.157212       -31.4893
  30   2.0000      -1.123813       -30.5805
  31   2.0000      -1.045914       -28.4608
  32   2.0000      -1.038517       -28.2595
  33   2.0000      -1.014876       -27.6162
  34   2.0000      -1.002938       -27.2913
  35   2.0000      -0.987552       -26.8727
  36   2.0000      -0.924154       -25.1475
  37   2.0000      -0.879783       -23.9401
  38   2.0000      -0.853748       -23.2317
  39   2.0000      -0.841892       -22.9091
  40   2.0000      -0.834231       -22.7006
  41   2.0000      -0.832411       -22.6511
  42   2.0000      -0.759423       -20.6649
  43   2.0000      -0.737535       -20.0694
  44   2.0000      -0.730098       -19.8670
  45   2.0000      -0.694095       -18.8873
  46   2.0000      -0.688469       -18.7342
  47   2.0000      -0.682297       -18.5662
  48   2.0000      -0.673924       -18.3384
  49   2.0000      -0.661690       -18.0055
  50   2.0000      -0.651915       -17.7395
  51   2.0000      -0.646693       -17.5974
  52   2.0000      -0.638409       -17.3720
  53   2.0000      -0.610705       -16.6181
  54   2.0000      -0.603297       -16.4165
  55   2.0000      -0.603156       -16.4127
  56   2.0000      -0.599466       -16.3123
  57   2.0000      -0.581796       -15.8315
  58   2.0000      -0.576801       -15.6956
  59   2.0000      -0.564179       -15.3521
  60   2.0000      -0.563592       -15.3361
  61   2.0000      -0.556833       -15.1522
  62   2.0000      -0.543866       -14.7993
  63   2.0000      -0.521700       -14.1962
  64   2.0000      -0.517219       -14.0742
  65   2.0000      -0.512904       -13.9568
  66   2.0000      -0.502169       -13.6647
  67   2.0000      -0.497790       -13.5456
  68   2.0000      -0.487106       -13.2548
  69   2.0000      -0.469077       -12.7642
  70   2.0000      -0.460439       -12.5292
  71   2.0000      -0.453181       -12.3317
  72   2.0000      -0.356041        -9.6884
  73   2.0000      -0.348889        -9.4937
  74   2.0000      -0.329332        -8.9616
  75   2.0000      -0.320218        -8.7136
  76   2.0000      -0.319332        -8.6895
  77   0.0000       0.074330         2.0226
  78   0.0000       0.106376         2.8946
  79   0.0000       0.117776         3.2049
  80   0.0000       0.132458         3.6044
  81   0.0000       0.136883         3.7248

MULLIKEN ATOMIC CHARGES
-----------------------
   0 C :   -0.254988
   1 C :    0.025878
   2 O :   -0.354815
   3 C :    0.441336
   4 O :   -0.377671
   5 C :   -0.224764
   6 C :    0.154841
   7 C :   -0.296346
   8 N :   -0.130646
   9 C :    0.206030
  10 S :   -0.439917
  11 N :   -0.214461
  12 C :    0.056911
  13 C :    0.025134
  14 C :   -0.191477
  15 C :   -0.131243
  16 C :   -0.278093
  17 C :    0.313622
  18 O :   -0.357827
  19 C :   -0.251990
  20 H :    0.108623
  21 H :    0.094462
  22 H :    0.088602
  23 H :    0.090108
  24 H :    0.103854
  25 H :    0.135768
  26 H :    0.111003
  27 H :    0.119853
  28 H :    0.198132
  29 H :    0.200350
  30 H :    0.159464
  31 H :    0.168845
  32 H :    0.162709
  33 H :    0.130427
  34 H :    0.240768
  35 H :    0.167518
Sum of atomic charges:   -0.0000000

LOEWDIN ATOMIC CHARGES
----------------------
   0 C :    0.111178
   1 C :   -0.023715
   2 O :    0.299968
   3 C :   -0.425842
   4 O :    0.127949
   5 C :   -0.095455
   6 C :   -0.070764
   7 C :    0.127688
   8 N :    0.405045
   9 C :   -0.457855
  10 S :   -0.035920
  11 N :    0.396026
  12 C :   -0.049297
  13 C :   -0.043035
  14 C :    0.022794
  15 C :    0.042269
  16 C :   -0.000917
  17 C :   -0.193086
  18 O :    0.393629
  19 C :    0.027602
  20 H :   -0.020562
  21 H :   -0.027165
  22 H :   -0.025767
  23 H :   -0.038232
  24 H :   -0.025248
  25 H :   -0.006098
  26 H :   -0.017999
  27 H :   -0.014177
  28 H :   -0.058161
  29 H :   -0.063404
  30 H :   -0.006425
  31 H :   -0.022301
  32 H :   -0.019734
  33 H :   -0.035423
  34 H :   -0.153872
  35 H :   -0.023695

  Mayer bond orders larger than 0.100000
B(  0-C ,  1-C ) :   0.9818 B(  0-C , 20-H ) :   0.9767 B(  0-C , 21-H ) :   0.9785
B(  0-C , 22-H ) :   0.9757 B(  1-C ,  2-O ) :   0.8933 B(  1-C , 23-H ) :   0.9733
B(  1-C , 24-H ) :   0.9722 B(  2-O ,  3-C ) :   1.1094 B(  3-C ,  4-O ) :   2.0799
B(  3-C ,  5-C ) :   0.9799 B(  5-C ,  6-C ) :   1.6819 B(  5-C , 12-C ) :   0.9463
B(  6-C ,  7-C ) :   0.9448 B(  6-C ,  8-N ) :   1.1317 B(  7-C , 25-H ) :   0.9662
B(  7-C , 26-H ) :   0.9877 B(  7-C , 27-H ) :   0.9675 B(  8-N ,  9-C ) :   1.1863
B(  8-N , 28-H ) :   0.9479 B(  9-C , 10-S ) :   1.6124 B(  9-C , 11-N ) :   1.2999
B( 11-N , 12-C ) :   0.9827 B( 11-N , 29-H ) :   0.9486 B( 12-C , 13-C ) :   0.9708
B( 12-C , 30-H ) :   0.9928 B( 13-C , 14-C ) :   1.3822 B( 13-C , 19-C ) :   1.3598
B( 14-C , 15-C ) :   1.3951 B( 14-C , 31-H ) :   0.9604 B( 15-C , 16-C ) :   1.3605
B( 15-C , 32-H ) :   0.9704 B( 16-C , 17-C ) :   1.3316 B( 16-C , 33-H ) :   0.9852
B( 17-C , 18-O ) :   1.1063 B( 17-C , 19-C ) :   1.3671 B( 18-O , 34-H ) :   0.9799
B( 19-C , 35-H ) :   0.9588

MP2 TOTAL ENERGY:    -1274.327562585 Eh
FINAL SINGLE POINT ENERGY     -1274.327562584929

DIPOLE MOMENT
-------------
                                X             Y             Z
Electronic contribution:     10.58067       9.27342       9.52048
Nuclear contribution   :    -12.13305     -10.39162     -10.00231
                        -----------------------------------------
Total Dipole Moment    :     -1.55238      -1.11820      -0.48184
                        -----------------------------------------
Magnitude (a.u.)       :      1.97292
Magnitude (Debye)      :      5.01476

Rotational constants in cm-1:     0.010165     0.009294     0.005981
Rotational constants in MHz :   304.728270   278.621798   179.320439

                             ****ORCA TERMINATED NORMALLY****
TOTAL RUN TIME: 0 days 1 hours 37 minutes 41 seconds 964 msec
