                         Program Version 4.2.0 -  RELEASE  -
|  1> ! ri-mp2 cc-pvtz cc-pvtz/c TightSCF NoKeepInts
|  2>
|  3> %scf
|  4>   MaxCore 4096
|  5> end
|  6> *xyz  0  1
|  7>     C       14.4116214   15.6387488   13.2606245
|  8>     C       14.9210532   15.3331042   14.6791694
|  9>     O       15.7054533   16.4614591   15.1032107
| 10>     C       16.6754718   16.2895698   16.0480570
| 11>     O       17.1244073   15.1905386   16.3294543
| 12>     C       17.0551689   17.5356119   16.7988964
| 13>     C       16.9838120   18.7782138   16.2506438
| 14>     C       16.3237497   19.1895027   14.9488122
| 15>     N       17.5995221   19.8679798   16.8718960
| 16>     C       18.4840584   19.7700502   17.9116193
| 17>     S       19.2612692   21.0952296   18.5243390
| 18>     N       18.7092133   18.5096560   18.4033015
| 19>     C       17.9702375   17.2953131   18.0071438
| 20>     C       17.2713712   16.6123227   19.1754608
| 21>     C       17.5274466   15.2621057   19.4749065
| 22>     C       16.8843066   14.6352264   20.5553824
| 23>     C       15.9785877   15.3654230   21.3439737
| 24>     C       15.7203331   16.7106849   21.0465908
| 25>     O       14.8434882   17.4169388   21.8040359
| 26>     C       16.3616913   17.3316494   19.9700251
| 27>     H       13.7898113   16.5425317   13.2588058
| 28>     H       13.8077605   14.8053091   12.8814301
| 29>     H       15.2524610   15.7937650   12.5730660
| 30>     H       14.0845971   15.1644196   15.3699884
| 31>     H       15.5308265   14.4199208   14.6388005
| 32>     H       15.2429937   19.0038670   14.9866231
| 33>     H       16.7360134   18.6211357   14.1056473
| 34>     H       16.4626275   20.2524970   14.7170587
| 35>     H       17.4611085   20.7970355   16.5078857
| 36>     H       19.3487411   18.4671910   19.1867314
| 37>     H       18.7991862   16.6752324   17.6358923
| 38>     H       18.2164305   14.6928843   18.8553353
| 39>     H       17.0852568   13.5878873   20.7733185
| 40>     H       15.4786394   14.8847522   22.1781816
| 41>     H       14.5262757   16.8277359   22.5047120
| 42>     H       16.1520081   18.3745071   19.7569799
| 43> *
| 44>
| 45>                          ****END OF INPUT****

CARTESIAN COORDINATES (ANGSTROEM)
---------------------------------
  C     14.411621   15.638749   13.260625
  C     14.921053   15.333104   14.679169
  O     15.705453   16.461459   15.103211
  C     16.675472   16.289570   16.048057
  O     17.124407   15.190539   16.329454
  C     17.055169   17.535612   16.798896
  C     16.983812   18.778214   16.250644
  C     16.323750   19.189503   14.948812
  N     17.599522   19.867980   16.871896
  C     18.484058   19.770050   17.911619
  S     19.261269   21.095230   18.524339
  N     18.709213   18.509656   18.403302
  C     17.970237   17.295313   18.007144
  C     17.271371   16.612323   19.175461
  C     17.527447   15.262106   19.474906
  C     16.884307   14.635226   20.555382
  C     15.978588   15.365423   21.343974
  C     15.720333   16.710685   21.046591
  O     14.843488   17.416939   21.804036
  C     16.361691   17.331649   19.970025
  H     13.789811   16.542532   13.258806
  H     13.807761   14.805309   12.881430
  H     15.252461   15.793765   12.573066
  H     14.084597   15.164420   15.369988
  H     15.530826   14.419921   14.638801
  H     15.242994   19.003867   14.986623
  H     16.736013   18.621136   14.105647
  H     16.462627   20.252497   14.717059
  H     17.461109   20.797035   16.507886
  H     19.348741   18.467191   19.186731
  H     18.799186   16.675232   17.635892
  H     18.216430   14.692884   18.855335
  H     17.085257   13.587887   20.773318
  H     15.478639   14.884752   22.178182
  H     14.526276   16.827736   22.504712
  H     16.152008   18.374507   19.756980

 Total Charge           Charge          ....    0
 Multiplicity           Mult            ....    1
 Number of Electrons    NEL             ....  154
 Basis Dimension        Dim             ....  828

ORBITAL ENERGIES
----------------

  NO   OCC          E(Eh)            E(eV)
   0   2.0000     -91.887793     -2500.3940
   1   2.0000     -20.603192      -560.6414
   2   2.0000     -20.591187      -560.3147
   3   2.0000     -20.545266      -559.0651
   4   2.0000     -15.628361      -425.2693
   5   2.0000     -15.605388      -424.6442
   6   2.0000     -11.395542      -310.0885
   7   2.0000     -11.382296      -309.7280
   8   2.0000     -11.338097      -308.5253
   9   2.0000     -11.307118      -307.6823
  10   2.0000     -11.303866      -307.5938
  11   2.0000     -11.299007      -307.4616
  12   2.0000     -11.260810      -306.4222
  13   2.0000     -11.259021      -306.3735
  14   2.0000     -11.254389      -306.2475
  15   2.0000     -11.247169      -306.0510
  16   2.0000     -11.237408      -305.7854
  17   2.0000     -11.234667      -305.7108
  18   2.0000     -11.233537      -305.6801
  19   2.0000     -11.230273      -305.5913
  20   2.0000      -8.892878      -241.9875
  21   2.0000      -6.574456      -178.9000
  22   2.0000      -6.572453      -178.8455
  23   2.0000      -6.571865      -178.8295
  24   2.0000      -1.454446       -39.5775
  25   2.0000      -1.410930       -38.3934
  26   2.0000      -1.357400       -36.9367
  27   2.0000      -1.339684       -36.4546
  28   2.0000      -1.236794       -33.6549
  29   2.0000      -1.151802       -31.3421
  30   2.0000      -1.120495       -30.4902
  31   2.0000      -1.045033       -28.4368
  32   2.0000      -1.036742       -28.2112
  33   2.0000      -1.009332       -27.4653
  34   2.0000      -0.998438       -27.1689
  35   2.0000      -0.983575       -26.7644
  36   2.0000      -0.920270       -25.0418
  37   2.0000      -0.888186       -24.1688
  38   2.0000      -0.846871       -23.0445
  39   2.0000      -0.834370       -22.7044
  40   2.0000      -0.827410       -22.5150
  41   2.0000      -0.818573       -22.2745
  42   2.0000      -0.762233       -20.7414
  43   2.0000      -0.736118       -20.0308
  44   2.0000      -0.725659       -19.7462
  45   2.0000      -0.689420       -18.7601
  46   2.0000      -0.684444       -18.6247
  47   2.0000      -0.680473       -18.5166
  48   2.0000      -0.675535       -18.3822
  49   2.0000      -0.655583       -17.8393
  50   2.0000      -0.651297       -17.7227
  51   2.0000      -0.640109       -17.4183
  52   2.0000      -0.632055       -17.1991
  53   2.0000      -0.606406       -16.5011
  54   2.0000      -0.602844       -16.4042
  55   2.0000      -0.597794       -16.2668
  56   2.0000      -0.594494       -16.1770
  57   2.0000      -0.578865       -15.7517
  58   2.0000      -0.572491       -15.5783
  59   2.0000      -0.562911       -15.3176
  60   2.0000      -0.562617       -15.3096
  61   2.0000      -0.546635       -14.8747
  62   2.0000      -0.544042       -14.8041
  63   2.0000      -0.527607       -14.3569
  64   2.0000      -0.515288       -14.0217
  65   2.0000      -0.508398       -13.8342
  66   2.0000      -0.500933       -13.6311
  67   2.0000      -0.493570       -13.4307
  68   2.0000      -0.481433       -13.1005
  69   2.0000      -0.463735       -12.6189
  70   2.0000      -0.462251       -12.5785
  71   2.0000      -0.451327       -12.2812
  72   2.0000      -0.352953        -9.6043
  73   2.0000      -0.343965        -9.3598
  74   2.0000      -0.326864        -8.8944
  75   2.0000      -0.316963        -8.6250
  76   2.0000      -0.313736        -8.5372
  77   0.0000       0.077180         2.1002
  78   0.0000       0.112224         3.0538
  79   0.0000       0.120633         3.2826
  80   0.0000       0.135769         3.6945
  81   0.0000       0.138546         3.7700

MULLIKEN ATOMIC CHARGES
-----------------------
   0 C :   -0.270732
   1 C :    0.031423
   2 O :   -0.341912
   3 C :    0.427683
   4 O :   -0.421941
   5 C :   -0.176841
   6 C :    0.158590
   7 C :   -0.285446
   8 N :   -0.129024
   9 C :    0.207627
  10 S :   -0.442735
  11 N :   -0.210731
  12 C :    0.041141
  13 C :    0.032119
  14 C :   -0.166124
  15 C :   -0.134279
  16 C :   -0.277048
  17 C :    0.314117
  18 O :   -0.359207
  19 C :   -0.251024
  20 H :    0.092096
  21 H :    0.098045
  22 H :    0.097145
  23 H :    0.092053
  24 H :    0.113384
  25 H :    0.129647
  26 H :    0.125260
  27 H :    0.103937
  28 H :    0.198771
  29 H :    0.199967
  30 H :    0.155116
  31 H :    0.158327
  32 H :    0.159668
  33 H :    0.127990
  34 H :    0.239848
  35 H :    0.163087
Sum of atomic charges:   -0.0000000

LOEWDIN ATOMIC CHARGES
----------------------
   0 C :    0.105750
   1 C :   -0.013868
   2 O :    0.305791
   3 C :   -0.414527
   4 O :    0.104632
   5 C :   -0.091546
   6 C :   -0.064252
   7 C :    0.124965
   8 N :    0.405410
   9 C :   -0.458703
  10 S :   -0.037880
  11 N :    0.396501
  12 C :   -0.048279
  13 C :   -0.040458
  14 C :    0.025206
  15 C :    0.041022
  16 C :   -0.001171
  17 C :   -0.192521
  18 O :    0.392991
  19 C :    0.029685
  20 H :   -0.029885
  21 H :   -0.023628
  22 H :   -0.026357
  23 H :   -0.030337
  24 H :   -0.027254
  25 H :   -0.009785
  26 H :   -0.009738
  27 H :   -0.021189
  28 H :   -0.058804
  29 H :   -0.063079
  30 H :   -0.008363
  31 H :   -0.024058
  32 H :   -0.021126
  33 H :   -0.036239
  34 H :   -0.154954
  35 H :   -0.023952

  Mayer bond orders larger than 0.100000
B(  0-C ,  1-C ) :   0.9728 B(  0-C , 20-H ) :   0.9790 B(  0-C , 21-H ) :   0.9775
B(  0-C , 22-H ) :   0.9775 B(  1-C ,  2-O ) :   0.8993 B(  1-C , 23-H ) :   0.9768
B(  1-C , 24-H ) :   0.9758 B(  2-O ,  3-C ) :   1.1484 B(  3-C ,  4-O ) :   1.9905
B(  3-C ,  5-C ) :   1.0421 B(  5-C ,  6-C ) :   1.6548 B(  5-C , 12-C ) :   0.9498
B(  6-C ,  7-C ) :   0.9534 B(  6-C ,  8-N ) :   1.1346 B(  7-C , 25-H ) :   0.9630
B(  7-C , 26-H ) :   0.9652 B(  7-C , 27-H ) :   0.9923 B(  8-N ,  9-C ) :   1.1852
B(  8-N , 28-H ) :   0.9469 B(  9-C , 10-S ) :   1.6078 B(  9-C , 11-N ) :   1.3068
B( 11-N , 12-C ) :   0.9762 B( 11-N , 29-H ) :   0.9485 B( 12-C , 13-C ) :   0.9744
B( 12-C , 30-H ) :   0.9972 B( 13-C , 14-C ) :   1.3765 B( 13-C , 19-C ) :   1.3660
B( 14-C , 15-C ) :   1.3974 B( 14-C , 31-H ) :   0.9639 B( 15-C , 16-C ) :   1.3587
B( 15-C , 32-H ) :   0.9712 B( 16-C , 17-C ) :   1.3334 B( 16-C , 33-H ) :   0.9861
B( 17-C , 18-O ) :   1.1032 B( 17-C , 19-C ) :   1.3677 B( 18-O , 34-H ) :   0.9807
B( 19-C , 35-H ) :   0.9603

MP2 TOTAL ENERGY:    -1274.340317909 Eh
FINAL SINGLE POINT ENERGY     -1274.340317909145

DIPOLE MOMENT
-------------
                                X             Y             Z
Electronic contribution:     10.27871       8.55431      13.18496
Nuclear contribution   :    -11.83235      -9.78750     -14.19816
                        -----------------------------------------
Total Dipole Moment    :     -1.55363      -1.23319      -1.01320
                        -----------------------------------------
Magnitude (a.u.)       :      2.22735
Magnitude (Debye)      :      5.66149

Rotational constants in cm-1:     0.009970     0.008626     0.005409
Rotational constants in MHz :   298.888974   258.605442   162.147168

                             ****ORCA TERMINATED NORMALLY****
TOTAL RUN TIME: 0 days 1 hours 39 minutes 21 seconds 640 msec
