                         Program Version 4.2.0 -  RELEASE  -
|  1> ! ri-mp2 cc-pvtz cc-pvtz/c TightSCF NoKeepInts
|  2>
|  3> %scf
|  4>   MaxCore 4096
|  5> end
|  6> *xyz  0  1
|  7>     C       15.5835311   14.3158819   14.3497780
|  8>     C       14.8358584   15.3092543   15.2548941
|  9>     O       15.8230415   16.1761080   15.8428122
| 10>     C       15.6824305   17.5356448   15.7939557
| 11>     O       14.8589113   18.0823208   15.0800114
| 12>     C       16.6187439   18.2451429   16.7361844
| 13>     C       16.8213398   19.5844514   16.6371064
| 14>     C       16.0127501   20.5768075   15.8269704
| 15>     N       17.8746143   20.2054026   17.3124478
| 16>     C       18.8836680   19.5388408   17.9529686
| 17>     S       20.1550191   20.3346598   18.6501802
| 18>     N       18.7974478   18.1698978   17.9680828
| 19>     C       17.6549284   17.3787714   17.4730924
| 20>     C       17.0618294   16.4734308   18.5449740
| 21>     C       17.2021345   15.0757912   18.4616745
| 22>     C       16.6557942   14.2435220   19.4531799
| 23>     C       15.9672258   14.8141631   20.5375440
| 24>     C       15.8300077   16.2066181   20.6243993
| 25>     O       15.1668231   16.7600445   21.6708150
| 26>     C       16.3745632   17.0322329   19.6357957
| 27>     H       14.8799899   13.6132517   13.8868857
| 28>     H       16.3152282   13.7391509   14.9289173
| 29>     H       16.1137312   14.8473533   13.5495813
| 30>     H       14.1021030   15.8611860   14.6522670
| 31>     H       14.2957373   14.7705328   16.0442292
| 32>     H       14.9449810   20.4911296   16.0663160
| 33>     H       16.1247036   20.3819202   14.7527829
| 34>     H       16.3039781   21.6182934   16.0071393
| 35>     H       17.9613924   21.2088549   17.2897430
| 36>     H       19.5396094   17.7068186   18.4771740
| 37>     H       18.1536838   16.7835267   16.6950857
| 38>     H       17.7291055   14.6340226   17.6201768
| 39>     H       16.7663202   13.1631083   19.3794176
| 40>     H       15.5438195   14.1757446   21.3059097
| 41>     H       14.8875926   16.0380458   22.2534959
| 42>     H       16.2643622   18.1080742   19.7220118
| 43> *
| 44>
| 45>                          ****END OF INPUT****

CARTESIAN COORDINATES (ANGSTROEM)
---------------------------------
  C     15.583531   14.315882   14.349778
  C     14.835858   15.309254   15.254894
  O     15.823042   16.176108   15.842812
  C     15.682430   17.535645   15.793956
  O     14.858911   18.082321   15.080011
  C     16.618744   18.245143   16.736184
  C     16.821340   19.584451   16.637106
  C     16.012750   20.576807   15.826970
  N     17.874614   20.205403   17.312448
  C     18.883668   19.538841   17.952969
  S     20.155019   20.334660   18.650180
  N     18.797448   18.169898   17.968083
  C     17.654928   17.378771   17.473092
  C     17.061829   16.473431   18.544974
  C     17.202134   15.075791   18.461674
  C     16.655794   14.243522   19.453180
  C     15.967226   14.814163   20.537544
  C     15.830008   16.206618   20.624399
  O     15.166823   16.760044   21.670815
  C     16.374563   17.032233   19.635796
  H     14.879990   13.613252   13.886886
  H     16.315228   13.739151   14.928917
  H     16.113731   14.847353   13.549581
  H     14.102103   15.861186   14.652267
  H     14.295737   14.770533   16.044229
  H     14.944981   20.491130   16.066316
  H     16.124704   20.381920   14.752783
  H     16.303978   21.618293   16.007139
  H     17.961392   21.208855   17.289743
  H     19.539609   17.706819   18.477174
  H     18.153684   16.783527   16.695086
  H     17.729105   14.634023   17.620177
  H     16.766320   13.163108   19.379418
  H     15.543819   14.175745   21.305910
  H     14.887593   16.038046   22.253496
  H     16.264362   18.108074   19.722012

 Total Charge           Charge          ....    0
 Multiplicity           Mult            ....    1
 Number of Electrons    NEL             ....  154
 Basis Dimension        Dim             ....  828

ORBITAL ENERGIES
----------------

  NO   OCC          E(Eh)            E(eV)
   0   2.0000     -91.888779     -2500.4208
   1   2.0000     -20.600979      -560.5811
   2   2.0000     -20.595941      -560.4440
   3   2.0000     -20.540894      -558.9461
   4   2.0000     -15.629108      -425.2896
   5   2.0000     -15.606901      -424.6854
   6   2.0000     -11.395506      -310.0875
   7   2.0000     -11.383392      -309.7579
   8   2.0000     -11.337330      -308.5044
   9   2.0000     -11.313082      -307.8446
  10   2.0000     -11.307401      -307.6900
  11   2.0000     -11.295299      -307.3607
  12   2.0000     -11.260285      -306.4079
  13   2.0000     -11.259204      -306.3785
  14   2.0000     -11.254591      -306.2530
  15   2.0000     -11.251461      -306.1678
  16   2.0000     -11.243023      -305.9382
  17   2.0000     -11.238422      -305.8130
  18   2.0000     -11.238294      -305.8095
  19   2.0000     -11.230003      -305.5839
  20   2.0000      -8.893850      -242.0140
  21   2.0000      -6.575423      -178.9263
  22   2.0000      -6.573424      -178.8720
  23   2.0000      -6.572834      -178.8559
  24   2.0000      -1.450676       -39.4749
  25   2.0000      -1.415605       -38.5206
  26   2.0000      -1.354546       -36.8591
  27   2.0000      -1.340298       -36.4714
  28   2.0000      -1.238154       -33.6919
  29   2.0000      -1.157067       -31.4854
  30   2.0000      -1.120909       -30.5015
  31   2.0000      -1.043074       -28.3835
  32   2.0000      -1.039924       -28.2978
  33   2.0000      -1.014471       -27.6052
  34   2.0000      -0.996268       -27.1098
  35   2.0000      -0.984504       -26.7897
  36   2.0000      -0.921557       -25.0769
  37   2.0000      -0.889755       -24.2115
  38   2.0000      -0.846231       -23.0271
  39   2.0000      -0.837481       -22.7890
  40   2.0000      -0.833662       -22.6851
  41   2.0000      -0.817462       -22.2443
  42   2.0000      -0.764498       -20.8031
  43   2.0000      -0.733194       -19.9512
  44   2.0000      -0.721475       -19.6323
  45   2.0000      -0.694697       -18.9037
  46   2.0000      -0.686935       -18.6925
  47   2.0000      -0.679712       -18.4959
  48   2.0000      -0.674610       -18.3571
  49   2.0000      -0.658371       -17.9152
  50   2.0000      -0.646886       -17.6027
  51   2.0000      -0.640105       -17.4181
  52   2.0000      -0.630993       -17.1702
  53   2.0000      -0.608040       -16.5456
  54   2.0000      -0.606072       -16.4921
  55   2.0000      -0.599749       -16.3200
  56   2.0000      -0.598498       -16.2860
  57   2.0000      -0.577413       -15.7122
  58   2.0000      -0.569665       -15.5014
  59   2.0000      -0.567208       -15.4345
  60   2.0000      -0.562721       -15.3124
  61   2.0000      -0.542166       -14.7531
  62   2.0000      -0.540816       -14.7164
  63   2.0000      -0.529589       -14.4109
  64   2.0000      -0.523710       -14.2509
  65   2.0000      -0.512966       -13.9585
  66   2.0000      -0.500500       -13.6193
  67   2.0000      -0.496138       -13.5006
  68   2.0000      -0.484945       -13.1960
  69   2.0000      -0.463436       -12.6107
  70   2.0000      -0.456150       -12.4125
  71   2.0000      -0.447965       -12.1898
  72   2.0000      -0.352967        -9.6047
  73   2.0000      -0.349287        -9.5046
  74   2.0000      -0.327904        -8.9227
  75   2.0000      -0.320545        -8.7225
  76   2.0000      -0.317941        -8.6516
  77   0.0000       0.077407         2.1063
  78   0.0000       0.105505         2.8709
  79   0.0000       0.123740         3.3671
  80   0.0000       0.132600         3.6082
  81   0.0000       0.135431         3.6853

MULLIKEN ATOMIC CHARGES
-----------------------
   0 C :   -0.264900
   1 C :    0.009849
   2 O :   -0.345680
   3 C :    0.447844
   4 O :   -0.437088
   5 C :   -0.226980
   6 C :    0.170864
   7 C :   -0.268826
   8 N :   -0.126014
   9 C :    0.209712
  10 S :   -0.441918
  11 N :   -0.214505
  12 C :    0.054250
  13 C :    0.046394
  14 C :   -0.180712
  15 C :   -0.135027
  16 C :   -0.276007
  17 C :    0.316650
  18 O :   -0.356880
  19 C :   -0.247706
  20 H :    0.091737
  21 H :    0.090306
  22 H :    0.097101
  23 H :    0.128603
  24 H :    0.103325
  25 H :    0.133814
  26 H :    0.128828
  27 H :    0.094353
  28 H :    0.199919
  29 H :    0.200391
  30 H :    0.152948
  31 H :    0.152728
  32 H :    0.160071
  33 H :    0.129708
  34 H :    0.240425
  35 H :    0.162424
Sum of atomic charges:   -0.0000000

LOEWDIN ATOMIC CHARGES
----------------------
   0 C :    0.104384
   1 C :   -0.011548
   2 O :    0.311479
   3 C :   -0.414158
   4 O :    0.094426
   5 C :   -0.094993
   6 C :   -0.056234
   7 C :    0.131010
   8 N :    0.407169
   9 C :   -0.456835
  10 S :   -0.036558
  11 N :    0.394746
  12 C :   -0.054891
  13 C :   -0.039453
  14 C :    0.016713
  15 C :    0.038714
  16 C :   -0.000677
  17 C :   -0.189610
  18 O :    0.394980
  19 C :    0.033407
  20 H :   -0.025615
  21 H :   -0.030624
  22 H :   -0.026047
  23 H :   -0.028036
  24 H :   -0.029298
  25 H :   -0.004166
  26 H :   -0.005168
  27 H :   -0.023717
  28 H :   -0.057147
  29 H :   -0.064277
  30 H :   -0.014047
  31 H :   -0.030081
  32 H :   -0.021538
  33 H :   -0.035520
  34 H :   -0.154075
  35 H :   -0.022716

  Mayer bond orders larger than 0.100000
B(  0-C ,  1-C ) :   0.9726 B(  0-C , 20-H ) :   0.9760 B(  0-C , 21-H ) :   0.9797
B(  0-C , 22-H ) :   0.9786 B(  1-C ,  2-O ) :   0.8854 B(  1-C , 23-H ) :   0.9741
B(  1-C , 24-H ) :   0.9781 B(  2-O ,  3-C ) :   1.1714 B(  3-C ,  4-O ) :   1.9663
B(  3-C ,  5-C ) :   1.0660 B(  5-C ,  6-C ) :   1.6416 B(  5-C , 12-C ) :   0.9551
B(  6-C ,  7-C ) :   0.9655 B(  6-C ,  8-N ) :   1.1533 B(  7-C , 25-H ) :   0.9613
B(  7-C , 26-H ) :   0.9588 B(  7-C , 27-H ) :   0.9905 B(  8-N ,  9-C ) :   1.1877
B(  8-N , 28-H ) :   0.9464 B(  9-C , 10-S ) :   1.6063 B(  9-C , 11-N ) :   1.3089
B( 11-N , 12-C ) :   0.9700 B( 11-N , 29-H ) :   0.9484 B( 12-C , 13-C ) :   0.9631
B( 12-C , 30-H ) :   1.0016 B( 13-C , 14-C ) :   1.3539 B( 13-C , 19-C ) :   1.3809
B( 14-C , 15-C ) :   1.3944 B( 14-C , 31-H ) :   0.9708 B( 15-C , 16-C ) :   1.3597
B( 15-C , 32-H ) :   0.9709 B( 16-C , 17-C ) :   1.3343 B( 16-C , 33-H ) :   0.9852
B( 17-C , 18-O ) :   1.1043 B( 17-C , 19-C ) :   1.3646 B( 18-O , 34-H ) :   0.9800
B( 19-C , 35-H ) :   0.9596

MP2 TOTAL ENERGY:    -1274.342608768 Eh
FINAL SINGLE POINT ENERGY     -1274.342608768329

DIPOLE MOMENT
-------------
                                X             Y             Z
Electronic contribution:      8.32754      10.40454       9.79942
Nuclear contribution   :     -9.53246     -12.01377     -10.14756
                        -----------------------------------------
Total Dipole Moment    :     -1.20492      -1.60924      -0.34813
                        -----------------------------------------
Magnitude (a.u.)       :      2.04026
Magnitude (Debye)      :      5.18593

Rotational constants in cm-1:     0.010717     0.008593     0.005872
Rotational constants in MHz :   321.289972   257.604251   176.033919

                             ****ORCA TERMINATED NORMALLY****
TOTAL RUN TIME: 0 days 1 hours 41 minutes 45 seconds 360 msec
