                         Program Version 4.2.0 -  RELEASE  -
|  1> ! ri-mp2 cc-pvtz cc-pvtz/c TightSCF NoKeepInts
|  2>
|  3> %scf
|  4>   MaxCore 4096
|  5> end
|  6> *xyz  0  1
|  7>     C       14.5749075   14.7230549   14.9481325
|  8>     C       15.0343752   15.9027891   14.0608869
|  9>     O       15.7300851   16.9293564   14.8062522
| 10>     C       16.6824925   16.6716928   15.7540094
| 11>     O       17.2393490   15.5917352   15.8575152
| 12>     C       16.9945587   17.8239439   16.6699255
| 13>     C       16.8288018   19.1266084   16.3146634
| 14>     C       16.1121778   19.6838031   15.0999681
| 15>     N       17.3810940   20.1519282   17.0871230
| 16>     C       18.2851977   19.9627874   18.0968357
| 17>     S       18.9796386   21.2334539   18.8961115
| 18>     N       18.6011657   18.6622949   18.3957430
| 19>     C       17.9424865   17.4717991   17.8245873
| 20>     C       17.3064465   16.5767760   18.8803703
| 21>     C       17.6540066   15.2169695   18.9723418
| 22>     C       17.0662243   14.3932764   19.9470215
| 23>     C       16.1239426   14.9345776   20.8383413
| 24>     C       15.7745469   16.2890397   20.7477356
| 25>     O       14.8618090   16.8131790   21.6042215
| 26>     C       16.3609703   17.1061766   19.7759873
| 27>     H       15.4072072   14.0550198   15.2002008
| 28>     H       13.8262623   14.1221076   14.4181543
| 29>     H       14.1213070   15.0858485   15.8789280
| 30>     H       15.6921252   15.5133544   13.2726091
| 31>     H       14.1600200   16.3518358   13.5726438
| 32>     H       16.5571667   19.2982660   14.1741815
| 33>     H       16.1544138   20.7783819   15.0442308
| 34>     H       15.0520885   19.4011840   15.1119297
| 35>     H       17.1754169   21.1128956   16.8658501
| 36>     H       19.2532642   18.5484379   19.1614422
| 37>     H       18.8064595   16.9725761   17.3621598
| 38>     H       18.3709416   14.7944872   18.2722370
| 39>     H       17.3378339   13.3407804   20.0038616
| 40>     H       15.6663549   14.3016460   21.5912600
| 41>     H       14.5915635   16.1052139   22.2079339
| 42>     H       16.0802987   18.1527228   19.7226046
| 43> *
| 44>
| 45>                          ****END OF INPUT****

CARTESIAN COORDINATES (ANGSTROEM)
---------------------------------
  C     14.574908   14.723055   14.948132
  C     15.034375   15.902789   14.060887
  O     15.730085   16.929356   14.806252
  C     16.682492   16.671693   15.754009
  O     17.239349   15.591735   15.857515
  C     16.994559   17.823944   16.669926
  C     16.828802   19.126608   16.314663
  C     16.112178   19.683803   15.099968
  N     17.381094   20.151928   17.087123
  C     18.285198   19.962787   18.096836
  S     18.979639   21.233454   18.896111
  N     18.601166   18.662295   18.395743
  C     17.942487   17.471799   17.824587
  C     17.306446   16.576776   18.880370
  C     17.654007   15.216969   18.972342
  C     17.066224   14.393276   19.947022
  C     16.123943   14.934578   20.838341
  C     15.774547   16.289040   20.747736
  O     14.861809   16.813179   21.604222
  C     16.360970   17.106177   19.775987
  H     15.407207   14.055020   15.200201
  H     13.826262   14.122108   14.418154
  H     14.121307   15.085849   15.878928
  H     15.692125   15.513354   13.272609
  H     14.160020   16.351836   13.572644
  H     16.557167   19.298266   14.174181
  H     16.154414   20.778382   15.044231
  H     15.052088   19.401184   15.111930
  H     17.175417   21.112896   16.865850
  H     19.253264   18.548438   19.161442
  H     18.806459   16.972576   17.362160
  H     18.370942   14.794487   18.272237
  H     17.337834   13.340780   20.003862
  H     15.666355   14.301646   21.591260
  H     14.591563   16.105214   22.207934
  H     16.080299   18.152723   19.722605

 Total Charge           Charge          ....    0
 Multiplicity           Mult            ....    1
 Number of Electrons    NEL             ....  154
 Basis Dimension        Dim             ....  828

ORBITAL ENERGIES
----------------

  NO   OCC          E(Eh)            E(eV)
   0   2.0000     -91.887324     -2500.3812
   1   2.0000     -20.601299      -560.5899
   2   2.0000     -20.591421      -560.3210
   3   2.0000     -20.544525      -559.0449
   4   2.0000     -15.627665      -425.2504
   5   2.0000     -15.605078      -424.6358
   6   2.0000     -11.397426      -310.1397
   7   2.0000     -11.381782      -309.7140
   8   2.0000     -11.337334      -308.5045
   9   2.0000     -11.307393      -307.6898
  10   2.0000     -11.305015      -307.6251
  11   2.0000     -11.303532      -307.5847
  12   2.0000     -11.260841      -306.4230
  13   2.0000     -11.258002      -306.3458
  14   2.0000     -11.254562      -306.2522
  15   2.0000     -11.247485      -306.0596
  16   2.0000     -11.237684      -305.7929
  17   2.0000     -11.233764      -305.6862
  18   2.0000     -11.230504      -305.5975
  19   2.0000     -11.225344      -305.4571
  20   2.0000      -8.892414      -241.9749
  21   2.0000      -6.573994      -178.8875
  22   2.0000      -6.571989      -178.8329
  23   2.0000      -6.571403      -178.8170
  24   2.0000      -1.449581       -39.4451
  25   2.0000      -1.411171       -38.3999
  26   2.0000      -1.356520       -36.9128
  27   2.0000      -1.339159       -36.4404
  28   2.0000      -1.236399       -33.6441
  29   2.0000      -1.151879       -31.3442
  30   2.0000      -1.119665       -30.4676
  31   2.0000      -1.041883       -28.3511
  32   2.0000      -1.033544       -28.1242
  33   2.0000      -1.009437       -27.4682
  34   2.0000      -0.997825       -27.1522
  35   2.0000      -0.982617       -26.7384
  36   2.0000      -0.920524       -25.0487
  37   2.0000      -0.896763       -24.4022
  38   2.0000      -0.847349       -23.0575
  39   2.0000      -0.834720       -22.7139
  40   2.0000      -0.827672       -22.5221
  41   2.0000      -0.816498       -22.2180
  42   2.0000      -0.746229       -20.3059
  43   2.0000      -0.732904       -19.9433
  44   2.0000      -0.725434       -19.7401
  45   2.0000      -0.689558       -18.7638
  46   2.0000      -0.684989       -18.6395
  47   2.0000      -0.678446       -18.4615
  48   2.0000      -0.669694       -18.2233
  49   2.0000      -0.658604       -17.9215
  50   2.0000      -0.650455       -17.6998
  51   2.0000      -0.643161       -17.5013
  52   2.0000      -0.630478       -17.1562
  53   2.0000      -0.615040       -16.7361
  54   2.0000      -0.602477       -16.3942
  55   2.0000      -0.597773       -16.2662
  56   2.0000      -0.594734       -16.1835
  57   2.0000      -0.577713       -15.7204
  58   2.0000      -0.573217       -15.5980
  59   2.0000      -0.565252       -15.3813
  60   2.0000      -0.557514       -15.1707
  61   2.0000      -0.544318       -14.8116
  62   2.0000      -0.537902       -14.6371
  63   2.0000      -0.524597       -14.2750
  64   2.0000      -0.514632       -14.0038
  65   2.0000      -0.509756       -13.8712
  66   2.0000      -0.500508       -13.6195
  67   2.0000      -0.493614       -13.4319
  68   2.0000      -0.479617       -13.0510
  69   2.0000      -0.464096       -12.6287
  70   2.0000      -0.456492       -12.4218
  71   2.0000      -0.448515       -12.2047
  72   2.0000      -0.352282        -9.5861
  73   2.0000      -0.344161        -9.3651
  74   2.0000      -0.326458        -8.8834
  75   2.0000      -0.316463        -8.6114
  76   2.0000      -0.313980        -8.5438
  77   0.0000       0.078100         2.1252
  78   0.0000       0.112002         3.0477
  79   0.0000       0.122182         3.3247
  80   0.0000       0.136222         3.7068
  81   0.0000       0.141333         3.8459

MULLIKEN ATOMIC CHARGES
-----------------------
   0 C :   -0.309126
   1 C :    0.047840
   2 O :   -0.352150
   3 C :    0.431883
   4 O :   -0.427387
   5 C :   -0.174685
   6 C :    0.159177
   7 C :   -0.279298
   8 N :   -0.128440
   9 C :    0.207730
  10 S :   -0.443605
  11 N :   -0.210986
  12 C :    0.043619
  13 C :    0.032307
  14 C :   -0.169040
  15 C :   -0.134233
  16 C :   -0.277188
  17 C :    0.314534
  18 O :   -0.359043
  19 C :   -0.252468
  20 H :    0.129541
  21 H :    0.096323
  22 H :    0.098756
  23 H :    0.093390
  24 H :    0.103109
  25 H :    0.125056
  26 H :    0.101240
  27 H :    0.128528
  28 H :    0.198675
  29 H :    0.199876
  30 H :    0.155753
  31 H :    0.159123
  32 H :    0.159728
  33 H :    0.128100
  34 H :    0.239846
  35 H :    0.163514
Sum of atomic charges:   -0.0000000

LOEWDIN ATOMIC CHARGES
----------------------
   0 C :    0.105301
   1 C :   -0.011289
   2 O :    0.297223
   3 C :   -0.414004
   4 O :    0.108253
   5 C :   -0.090848
   6 C :   -0.063990
   7 C :    0.124593
   8 N :    0.405283
   9 C :   -0.458871
  10 S :   -0.038574
  11 N :    0.396630
  12 C :   -0.048276
  13 C :   -0.040489
  14 C :    0.024702
  15 C :    0.040609
  16 C :   -0.001287
  17 C :   -0.192583
  18 O :    0.393062
  19 C :    0.029683
  20 H :   -0.024691
  21 H :   -0.027485
  22 H :   -0.026766
  23 H :   -0.029509
  24 H :   -0.025016
  25 H :   -0.009468
  26 H :   -0.021636
  27 H :   -0.009521
  28 H :   -0.058939
  29 H :   -0.063124
  30 H :   -0.008656
  31 H :   -0.024116
  32 H :   -0.021202
  33 H :   -0.036237
  34 H :   -0.154948
  35 H :   -0.023812

  Mayer bond orders larger than 0.100000
B(  0-C ,  1-C ) :   0.9624 B(  0-C , 20-H ) :   0.9719 B(  0-C , 21-H ) :   0.9762
B(  0-C , 22-H ) :   0.9748 B(  1-C ,  2-O ) :   0.9032 B(  1-C , 23-H ) :   0.9815
B(  1-C , 24-H ) :   0.9832 B(  2-O ,  3-C ) :   1.1465 B(  3-C ,  4-O ) :   1.9740
B(  3-C ,  5-C ) :   1.0419 B(  5-C ,  6-C ) :   1.6543 B(  5-C , 12-C ) :   0.9510
B(  6-C ,  7-C ) :   0.9546 B(  6-C ,  8-N ) :   1.1373 B(  7-C , 25-H ) :   0.9649
B(  7-C , 26-H ) :   0.9915 B(  7-C , 27-H ) :   0.9637 B(  8-N ,  9-C ) :   1.1857
B(  8-N , 28-H ) :   0.9470 B(  9-C , 10-S ) :   1.6069 B(  9-C , 11-N ) :   1.3068
B( 11-N , 12-C ) :   0.9768 B( 11-N , 29-H ) :   0.9485 B( 12-C , 13-C ) :   0.9724
B( 12-C , 30-H ) :   0.9977 B( 13-C , 14-C ) :   1.3761 B( 13-C , 19-C ) :   1.3664
B( 14-C , 15-C ) :   1.3970 B( 14-C , 31-H ) :   0.9636 B( 15-C , 16-C ) :   1.3587
B( 15-C , 32-H ) :   0.9712 B( 16-C , 17-C ) :   1.3335 B( 16-C , 33-H ) :   0.9860
B( 17-C , 18-O ) :   1.1033 B( 17-C , 19-C ) :   1.3671 B( 18-O , 34-H ) :   0.9807
B( 19-C , 35-H ) :   0.9600

MP2 TOTAL ENERGY:    -1274.336649921 Eh
FINAL SINGLE POINT ENERGY     -1274.336649921403

DIPOLE MOMENT
-------------
                                X             Y             Z
Electronic contribution:      9.60670      10.24805      10.36145
Nuclear contribution   :    -11.11398     -11.49485     -11.52550
                        -----------------------------------------
Total Dipole Moment    :     -1.50728      -1.24680      -1.16404
                        -----------------------------------------
Magnitude (a.u.)       :      2.27627
Magnitude (Debye)      :      5.78581

Rotational constants in cm-1:     0.010038     0.009242     0.005637
Rotational constants in MHz :   300.943587   277.081417   169.001304

                             ****ORCA TERMINATED NORMALLY****
TOTAL RUN TIME: 0 days 1 hours 38 minutes 44 seconds 81 msec
