                         Program Version 4.2.0 -  RELEASE  -
|  1> ! ri-mp2 cc-pvtz cc-pvtz/c TightSCF NoKeepInts
|  2>
|  3> %scf
|  4>   MaxCore 4096
|  5> end
|  6> *xyz  0  1
|  7>     C       14.1947021   14.9940257   15.0707096
|  8>     C       15.0898085   15.9089171   14.2035735
|  9>     O       16.0367602   16.0711546   15.2730375
| 10>     C       17.1958341   16.7117113   15.4920941
| 11>     O       18.1564509   15.9385651   15.5197717
| 12>     C       17.0978008   17.6763144   16.6433679
| 13>     C       16.7706802   19.0021685   16.3527678
| 14>     C       15.9326514   19.5694326   15.2385773
| 15>     N       17.2541198   20.0311195   17.1581470
| 16>     C       18.2260358   19.9290468   18.1115085
| 17>     S       18.8738275   21.2269349   18.9008286
| 18>     N       18.6565312   18.6549601   18.3705941
| 19>     C       18.1060483   17.4424459   17.7688408
| 20>     C       17.4537477   16.5900826   18.8443009
| 21>     C       17.9289990   15.2969897   19.0711514
| 22>     C       17.2921658   14.4538424   19.9987065
| 23>     C       16.1649463   14.9271719   20.6955290
| 24>     C       15.6929159   16.2241294   20.4734987
| 25>     O       14.5909434   16.6761112   21.1252076
| 26>     C       16.3330484   17.0638696   19.5527354
| 27>     H       14.8165011   14.4246075   15.7922314
| 28>     H       13.7499193   14.2033048   14.4668890
| 29>     H       13.4501273   15.5243526   15.6696955
| 30>     H       15.3755926   15.3975820   13.2674711
| 31>     H       14.5662799   16.8518494   13.9572498
| 32>     H       15.4958298   18.8218769   14.5760052
| 33>     H       16.5108292   20.2793001   14.6266669
| 34>     H       15.0936132   20.1484199   15.6624930
| 35>     H       16.9930540   20.9913204   16.9462880
| 36>     H       19.3583660   18.5790144   19.0915601
| 37>     H       18.9912026   16.9245208   17.3771822
| 38>     H       18.7793719   14.9258480   18.5014152
| 39>     H       17.6598410   13.4438785   20.1501371
| 40>     H       15.6573594   14.2714115   21.3965405
| 41>     H       14.2952738   15.9649856   21.7126249
| 42>     H       15.9458214   18.0587345   19.3786020
| 43> *
| 44>
| 45>                          ****END OF INPUT****

CARTESIAN COORDINATES (ANGSTROEM)
---------------------------------
  C     14.194702   14.994026   15.070710
  C     15.089809   15.908917   14.203573
  O     16.036760   16.071155   15.273037
  C     17.195834   16.711711   15.492094
  O     18.156451   15.938565   15.519772
  C     17.097801   17.676314   16.643368
  C     16.770680   19.002168   16.352768
  C     15.932651   19.569433   15.238577
  N     17.254120   20.031119   17.158147
  C     18.226036   19.929047   18.111508
  S     18.873828   21.226935   18.900829
  N     18.656531   18.654960   18.370594
  C     18.106048   17.442446   17.768841
  C     17.453748   16.590083   18.844301
  C     17.928999   15.296990   19.071151
  C     17.292166   14.453842   19.998707
  C     16.164946   14.927172   20.695529
  C     15.692916   16.224129   20.473499
  O     14.590943   16.676111   21.125208
  C     16.333048   17.063870   19.552735
  H     14.816501   14.424607   15.792231
  H     13.749919   14.203305   14.466889
  H     13.450127   15.524353   15.669695
  H     15.375593   15.397582   13.267471
  H     14.566280   16.851849   13.957250
  H     15.495830   18.821877   14.576005
  H     16.510829   20.279300   14.626667
  H     15.093613   20.148420   15.662493
  H     16.993054   20.991320   16.946288
  H     19.358366   18.579014   19.091560
  H     18.991203   16.924521   17.377182
  H     18.779372   14.925848   18.501415
  H     17.659841   13.443879   20.150137
  H     15.657359   14.271411   21.396541
  H     14.295274   15.964986   21.712625
  H     15.945821   18.058734   19.378602

 Total Charge           Charge          ....    0
 Multiplicity           Mult            ....    1
 Number of Electrons    NEL             ....  154
 Basis Dimension        Dim             ....  828

ORBITAL ENERGIES
----------------

  NO   OCC          E(Eh)            E(eV)
   0   2.0000     -91.887542     -2500.3871
   1   2.0000     -20.591747      -560.3299
   2   2.0000     -20.584848      -560.1422
   3   2.0000     -20.544748      -559.0510
   4   2.0000     -15.629372      -425.2968
   5   2.0000     -15.601388      -424.5353
   6   2.0000     -11.390456      -309.9501
   7   2.0000     -11.380884      -309.6896
   8   2.0000     -11.341912      -308.6291
   9   2.0000     -11.314980      -307.8963
  10   2.0000     -11.307385      -307.6896
  11   2.0000     -11.296011      -307.3801
  12   2.0000     -11.273384      -306.7644
  13   2.0000     -11.263670      -306.5000
  14   2.0000     -11.249938      -306.1264
  15   2.0000     -11.248183      -306.0786
  16   2.0000     -11.236940      -305.7727
  17   2.0000     -11.232133      -305.6419
  18   2.0000     -11.228908      -305.5541
  19   2.0000     -11.223509      -305.4072
  20   2.0000      -8.892690      -241.9824
  21   2.0000      -6.574290      -178.8955
  22   2.0000      -6.572250      -178.8400
  23   2.0000      -6.571678      -178.8244
  24   2.0000      -1.454015       -39.5657
  25   2.0000      -1.411256       -38.4022
  26   2.0000      -1.345791       -36.6208
  27   2.0000      -1.340843       -36.4862
  28   2.0000      -1.238751       -33.7081
  29   2.0000      -1.152766       -31.3683
  30   2.0000      -1.117762       -30.4159
  31   2.0000      -1.046370       -28.4732
  32   2.0000      -1.042562       -28.3695
  33   2.0000      -1.009844       -27.4793
  34   2.0000      -1.001700       -27.2576
  35   2.0000      -0.983218       -26.7547
  36   2.0000      -0.919153       -25.0114
  37   2.0000      -0.881835       -23.9960
  38   2.0000      -0.854068       -23.2404
  39   2.0000      -0.834304       -22.7026
  40   2.0000      -0.829636       -22.5755
  41   2.0000      -0.822128       -22.3712
  42   2.0000      -0.765108       -20.8196
  43   2.0000      -0.730340       -19.8736
  44   2.0000      -0.723191       -19.6790
  45   2.0000      -0.691342       -18.8124
  46   2.0000      -0.686568       -18.6825
  47   2.0000      -0.678984       -18.4761
  48   2.0000      -0.668475       -18.1901
  49   2.0000      -0.663461       -18.0537
  50   2.0000      -0.647633       -17.6230
  51   2.0000      -0.638423       -17.3724
  52   2.0000      -0.632246       -17.2043
  53   2.0000      -0.617192       -16.7946
  54   2.0000      -0.606366       -16.5001
  55   2.0000      -0.601128       -16.3575
  56   2.0000      -0.594211       -16.1693
  57   2.0000      -0.591731       -16.1018
  58   2.0000      -0.574577       -15.6350
  59   2.0000      -0.561468       -15.2783
  60   2.0000      -0.544789       -14.8244
  61   2.0000      -0.540589       -14.7102
  62   2.0000      -0.524683       -14.2774
  63   2.0000      -0.521328       -14.1860
  64   2.0000      -0.512597       -13.9485
  65   2.0000      -0.511383       -13.9154
  66   2.0000      -0.493097       -13.4178
  67   2.0000      -0.486610       -13.2413
  68   2.0000      -0.478184       -13.0121
  69   2.0000      -0.469267       -12.7694
  70   2.0000      -0.446909       -12.1610
  71   2.0000      -0.437471       -11.9042
  72   2.0000      -0.347518        -9.4564
  73   2.0000      -0.342707        -9.3255
  74   2.0000      -0.326954        -8.8969
  75   2.0000      -0.316017        -8.5993
  76   2.0000      -0.313327        -8.5261
  77   0.0000       0.070867         1.9284
  78   0.0000       0.099173         2.6986
  79   0.0000       0.112107         3.0506
  80   0.0000       0.127075         3.4579
  81   0.0000       0.136226         3.7069

MULLIKEN ATOMIC CHARGES
-----------------------
   0 C :   -0.264815
   1 C :    0.019608
   2 O :   -0.283669
   3 C :    0.338642
   4 O :   -0.378664
   5 C :   -0.111333
   6 C :    0.105087
   7 C :   -0.300459
   8 N :   -0.120968
   9 C :    0.201992
  10 S :   -0.443705
  11 N :   -0.192555
  12 C :    0.014201
  13 C :    0.069802
  14 C :   -0.182144
  15 C :   -0.130706
  16 C :   -0.279100
  17 C :    0.313679
  18 O :   -0.359906
  19 C :   -0.263540
  20 H :    0.116678
  21 H :    0.073738
  22 H :    0.098986
  23 H :    0.111096
  24 H :    0.080435
  25 H :    0.116111
  26 H :    0.125958
  27 H :    0.121304
  28 H :    0.193671
  29 H :    0.196415
  30 H :    0.171457
  31 H :    0.154875
  32 H :    0.161832
  33 H :    0.126815
  34 H :    0.239255
  35 H :    0.159928
Sum of atomic charges:   -0.0000000

LOEWDIN ATOMIC CHARGES
----------------------
   0 C :    0.092714
   1 C :   -0.008562
   2 O :    0.351240
   3 C :   -0.442863
   4 O :    0.114495
   5 C :   -0.080005
   6 C :   -0.077119
   7 C :    0.119312
   8 N :    0.399431
   9 C :   -0.464769
  10 S :   -0.035553
  11 N :    0.403007
  12 C :   -0.057726
  13 C :   -0.040947
  14 C :    0.015063
  15 C :    0.046255
  16 C :   -0.003158
  17 C :   -0.191131
  18 O :    0.393023
  19 C :    0.035495
  20 H :   -0.010812
  21 H :   -0.041033
  22 H :   -0.032032
  23 H :   -0.027202
  24 H :   -0.038569
  25 H :   -0.018520
  26 H :   -0.008664
  27 H :   -0.005249
  28 H :   -0.047471
  29 H :   -0.064075
  30 H :   -0.009717
  31 H :   -0.023409
  32 H :   -0.022685
  33 H :   -0.035902
  34 H :   -0.155890
  35 H :   -0.026971

  Mayer bond orders larger than 0.100000
B(  0-C ,  1-C ) :   0.9588 B(  0-C , 20-H ) :   0.9758 B(  0-C , 21-H ) :   0.9817
B(  0-C , 22-H ) :   0.9844 B(  1-C ,  2-O ) :   0.9163 B(  1-C , 23-H ) :   0.9805
B(  1-C , 24-H ) :   0.9726 B(  2-O ,  3-C ) :   1.0969 B(  3-C ,  4-O ) :   2.0262
B(  3-C ,  5-C ) :   0.9772 B(  5-C ,  6-C ) :   1.6433 B(  5-C , 12-C ) :   0.9481
B(  6-C ,  7-C ) :   0.9549 B(  6-C ,  8-N ) :   1.1249 B(  7-C , 25-H ) :   0.9840
B(  7-C , 26-H ) :   0.9667 B(  7-C , 27-H ) :   0.9654 B(  8-N ,  9-C ) :   1.1854
B(  8-N , 28-H ) :   0.9517 B(  9-C , 10-S ) :   1.6093 B(  9-C , 11-N ) :   1.3117
B( 11-N , 12-C ) :   0.9706 B( 11-N , 29-H ) :   0.9514 B( 12-C , 13-C ) :   0.9554
B( 12-C , 30-H ) :   0.9934 B( 13-C , 14-C ) :   1.3775 B( 13-C , 19-C ) :   1.3693
B( 14-C , 15-C ) :   1.3817 B( 14-C , 31-H ) :   0.9677 B( 15-C , 16-C ) :   1.3720
B( 15-C , 32-H ) :   0.9705 B( 16-C , 17-C ) :   1.3248 B( 16-C , 33-H ) :   0.9862
B( 17-C , 18-O ) :   1.1042 B( 17-C , 19-C ) :   1.3806 B( 18-O , 34-H ) :   0.9814
B( 19-C , 35-H ) :   0.9597

MP2 TOTAL ENERGY:    -1274.248725542 Eh
FINAL SINGLE POINT ENERGY     -1274.248725542182

DIPOLE MOMENT
-------------
                                X             Y             Z
Electronic contribution:     11.59779       9.11521       9.17599
Nuclear contribution   :    -13.45306     -10.03409     -10.39617
                        -----------------------------------------
Total Dipole Moment    :     -1.85527      -0.91887      -1.22018
                        -----------------------------------------
Magnitude (a.u.)       :      2.40316
Magnitude (Debye)      :      6.10834

Rotational constants in cm-1:     0.010360     0.009087     0.006066
Rotational constants in MHz :   310.598706   272.425800   181.845985

                             ****ORCA TERMINATED NORMALLY****
TOTAL RUN TIME: 0 days 1 hours 39 minutes 59 seconds 468 msec
