                         Program Version 4.2.0 -  RELEASE  -
|  1> ! ri-mp2 cc-pvtz cc-pvtz/c TightSCF NoKeepInts
|  2>
|  3> %scf
|  4>   MaxCore 4096
|  5> end
|  6> *xyz  0  1
|  7>     C       14.3317855   16.5918552   16.0744331
|  8>     C       15.2048788   15.6605323   15.2056880
|  9>     O       16.3863509   16.2876666   14.6502066
| 10>     C       17.4486845   16.6292592   15.4424024
| 11>     O       18.4907176   16.0010621   15.4040408
| 12>     C       17.1937561   17.6948042   16.4542491
| 13>     C       16.7825483   18.9180404   16.0426505
| 14>     C       16.3782648   19.2996823   14.6318000
| 15>     N       16.8370245   20.0161680   16.9036634
| 16>     C       17.5077383   20.0220569   18.0985643
| 17>     S       17.6309398   21.3882896   19.0220393
| 18>     N       18.0973231   18.8403647   18.4767771
| 19>     C       17.9266558   17.5452272   17.7878556
| 20>     C       17.3606660   16.4290994   18.6542275
| 21>     C       17.9023084   15.1332480   18.5808962
| 22>     C       17.3711687   14.0915438   19.3594680
| 23>     C       16.2872513   14.3475162   20.2166756
| 24>     C       15.7425335   15.6369701   20.2884174
| 25>     O       14.6897753   15.8849003   21.1074208
| 26>     C       16.2731078   16.6720515   19.5118122
| 27>     H       14.8116688   16.8328314   17.0285902
| 28>     H       13.3866790   16.0896194   16.3148357
| 29>     H       14.0829348   17.5192771   15.5489740
| 30>     H       15.4989854   14.7824849   15.7970838
| 31>     H       14.5893813   15.2970343   14.3725902
| 32>     H       15.4619452   18.7891428   14.3186380
| 33>     H       17.1662036   19.0254601   13.9183369
| 34>     H       16.2065829   20.3772332   14.5199723
| 35>     H       16.4436604   20.8997544   16.6210142
| 36>     H       18.5832826   18.8714040   19.3643513
| 37>     H       18.9732068   17.3259736   17.5284314
| 38>     H       18.7342861   14.9319962   17.9088047
| 39>     H       17.7986350   13.0923242   19.2939225
| 40>     H       15.8733433   13.5454493   20.8189332
| 41>     H       14.4987524   15.0674875   21.5917804
| 42>     H       15.8339733   17.6621895   19.5784532
| 43> *
| 44>
| 45>                          ****END OF INPUT****

CARTESIAN COORDINATES (ANGSTROEM)
---------------------------------
  C     14.331785   16.591855   16.074433
  C     15.204879   15.660532   15.205688
  O     16.386351   16.287667   14.650207
  C     17.448684   16.629259   15.442402
  O     18.490718   16.001062   15.404041
  C     17.193756   17.694804   16.454249
  C     16.782548   18.918040   16.042651
  C     16.378265   19.299682   14.631800
  N     16.837024   20.016168   16.903663
  C     17.507738   20.022057   18.098564
  S     17.630940   21.388290   19.022039
  N     18.097323   18.840365   18.476777
  C     17.926656   17.545227   17.787856
  C     17.360666   16.429099   18.654228
  C     17.902308   15.133248   18.580896
  C     17.371169   14.091544   19.359468
  C     16.287251   14.347516   20.216676
  C     15.742534   15.636970   20.288417
  O     14.689775   15.884900   21.107421
  C     16.273108   16.672051   19.511812
  H     14.811669   16.832831   17.028590
  H     13.386679   16.089619   16.314836
  H     14.082935   17.519277   15.548974
  H     15.498985   14.782485   15.797084
  H     14.589381   15.297034   14.372590
  H     15.461945   18.789143   14.318638
  H     17.166204   19.025460   13.918337
  H     16.206583   20.377233   14.519972
  H     16.443660   20.899754   16.621014
  H     18.583283   18.871404   19.364351
  H     18.973207   17.325974   17.528431
  H     18.734286   14.931996   17.908805
  H     17.798635   13.092324   19.293923
  H     15.873343   13.545449   20.818933
  H     14.498752   15.067487   21.591780
  H     15.833973   17.662189   19.578453

 Total Charge           Charge          ....    0
 Multiplicity           Mult            ....    1
 Number of Electrons    NEL             ....  154
 Basis Dimension        Dim             ....  828

ORBITAL ENERGIES
----------------

  NO   OCC          E(Eh)            E(eV)
   0   2.0000     -91.890103     -2500.4568
   1   2.0000     -20.599355      -560.5369
   2   2.0000     -20.589111      -560.2582
   3   2.0000     -20.554985      -559.3296
   4   2.0000     -15.628883      -425.2835
   5   2.0000     -15.609183      -424.7475
   6   2.0000     -11.395713      -310.0931
   7   2.0000     -11.385514      -309.8156
   8   2.0000     -11.333384      -308.3971
   9   2.0000     -11.316651      -307.9417
  10   2.0000     -11.308946      -307.7321
  11   2.0000     -11.308646      -307.7239
  12   2.0000     -11.264317      -306.5177
  13   2.0000     -11.262073      -306.4566
  14   2.0000     -11.257549      -306.3335
  15   2.0000     -11.256990      -306.3183
  16   2.0000     -11.245791      -306.0135
  17   2.0000     -11.241799      -305.9049
  18   2.0000     -11.238746      -305.8218
  19   2.0000     -11.232914      -305.6631
  20   2.0000      -8.895188      -242.0504
  21   2.0000      -6.576764      -178.9628
  22   2.0000      -6.574760      -178.9083
  23   2.0000      -6.574171      -178.8923
  24   2.0000      -1.446711       -39.3670
  25   2.0000      -1.419095       -38.6155
  26   2.0000      -1.358721       -36.9727
  27   2.0000      -1.340603       -36.4797
  28   2.0000      -1.238790       -33.7092
  29   2.0000      -1.160607       -31.5817
  30   2.0000      -1.125254       -30.6197
  31   2.0000      -1.047713       -28.5097
  32   2.0000      -1.036426       -28.2026
  33   2.0000      -1.018438       -27.7131
  34   2.0000      -1.003584       -27.3089
  35   2.0000      -0.990105       -26.9421
  36   2.0000      -0.925767       -25.1914
  37   2.0000      -0.894047       -24.3283
  38   2.0000      -0.850874       -23.1535
  39   2.0000      -0.841551       -22.8998
  40   2.0000      -0.836400       -22.7596
  41   2.0000      -0.827146       -22.5078
  42   2.0000      -0.753258       -20.4972
  43   2.0000      -0.736309       -20.0360
  44   2.0000      -0.729624       -19.8541
  45   2.0000      -0.697068       -18.9682
  46   2.0000      -0.688517       -18.7355
  47   2.0000      -0.677282       -18.4298
  48   2.0000      -0.674491       -18.3538
  49   2.0000      -0.664090       -18.0708
  50   2.0000      -0.653248       -17.7758
  51   2.0000      -0.647104       -17.6086
  52   2.0000      -0.638047       -17.3621
  53   2.0000      -0.612671       -16.6716
  54   2.0000      -0.603919       -16.4335
  55   2.0000      -0.602980       -16.4079
  56   2.0000      -0.597079       -16.2473
  57   2.0000      -0.592517       -16.1232
  58   2.0000      -0.577745       -15.7212
  59   2.0000      -0.576317       -15.6824
  60   2.0000      -0.563719       -15.3396
  61   2.0000      -0.556200       -15.1350
  62   2.0000      -0.545299       -14.8384
  63   2.0000      -0.528368       -14.3776
  64   2.0000      -0.522001       -14.2044
  65   2.0000      -0.512672       -13.9505
  66   2.0000      -0.501510       -13.6468
  67   2.0000      -0.490929       -13.3588
  68   2.0000      -0.488624       -13.2961
  69   2.0000      -0.466001       -12.6805
  70   2.0000      -0.459177       -12.4948
  71   2.0000      -0.452521       -12.3137
  72   2.0000      -0.354199        -9.6382
  73   2.0000      -0.350134        -9.5276
  74   2.0000      -0.329418        -8.9639
  75   2.0000      -0.324210        -8.8222
  76   2.0000      -0.319300        -8.6886
  77   0.0000       0.076936         2.0935
  78   0.0000       0.103082         2.8050
  79   0.0000       0.120290         3.2733
  80   0.0000       0.126211         3.4344
  81   0.0000       0.130427         3.5491

MULLIKEN ATOMIC CHARGES
-----------------------
   0 C :   -0.327697
   1 C :    0.040986
   2 O :   -0.365596
   3 C :    0.443356
   4 O :   -0.375504
   5 C :   -0.251216
   6 C :    0.169426
   7 C :   -0.289654
   8 N :   -0.137583
   9 C :    0.209288
  10 S :   -0.440522
  11 N :   -0.227424
  12 C :    0.089199
  13 C :    0.027971
  14 C :   -0.227548
  15 C :   -0.129667
  16 C :   -0.277871
  17 C :    0.324839
  18 O :   -0.356269
  19 C :   -0.276515
  20 H :    0.120622
  21 H :    0.122854
  22 H :    0.096116
  23 H :    0.099521
  24 H :    0.116074
  25 H :    0.126856
  26 H :    0.130655
  27 H :    0.104377
  28 H :    0.197623
  29 H :    0.202867
  30 H :    0.164977
  31 H :    0.178612
  32 H :    0.165021
  33 H :    0.131895
  34 H :    0.241084
  35 H :    0.178848
Sum of atomic charges:    0.0000000

LOEWDIN ATOMIC CHARGES
----------------------
   0 C :    0.103723
   1 C :   -0.012887
   2 O :    0.283206
   3 C :   -0.417559
   4 O :    0.129349
   5 C :   -0.089959
   6 C :   -0.076074
   7 C :    0.129105
   8 N :    0.404812
   9 C :   -0.456450
  10 S :   -0.036744
  11 N :    0.396035
  12 C :   -0.049263
  13 C :   -0.043426
  14 C :    0.019939
  15 C :    0.043050
  16 C :   -0.000927
  17 C :   -0.192031
  18 O :    0.395284
  19 C :    0.027680
  20 H :   -0.033164
  21 H :   -0.021872
  22 H :   -0.033283
  23 H :   -0.027379
  24 H :   -0.019835
  25 H :   -0.016709
  26 H :   -0.005363
  27 H :   -0.018633
  28 H :   -0.059140
  29 H :   -0.064027
  30 H :   -0.004948
  31 H :   -0.021637
  32 H :   -0.018885
  33 H :   -0.034996
  34 H :   -0.153289
  35 H :   -0.023702

  Mayer bond orders larger than 0.100000
B(  0-C ,  1-C ) :   0.9610 B(  0-C , 20-H ) :   0.9667 B(  0-C , 21-H ) :   0.9783
B(  0-C , 22-H ) :   0.9772 B(  1-C ,  2-O ) :   0.9013 B(  1-C , 23-H ) :   0.9789
B(  1-C , 24-H ) :   0.9833 B(  2-O ,  3-C ) :   1.1093 B(  3-C ,  4-O ) :   2.0897
B(  3-C ,  5-C ) :   0.9556 B(  5-C ,  6-C ) :   1.6953 B(  5-C , 12-C ) :   0.9247
B(  6-C ,  7-C ) :   0.9416 B(  6-C ,  8-N ) :   1.1198 B(  7-C , 25-H ) :   0.9666
B(  7-C , 26-H ) :   0.9678 B(  7-C , 27-H ) :   0.9881 B(  8-N ,  9-C ) :   1.1927
B(  8-N , 28-H ) :   0.9479 B(  9-C , 10-S ) :   1.6106 B(  9-C , 11-N ) :   1.2921
B( 11-N , 12-C ) :   0.9764 B( 11-N , 29-H ) :   0.9477 B( 12-C , 13-C ) :   0.9687
B( 12-C , 30-H ) :   0.9912 B( 13-C , 14-C ) :   1.3865 B( 13-C , 19-C ) :   1.3442
B( 14-C , 15-C ) :   1.3953 B( 14-C , 31-H ) :   0.9579 B( 15-C , 16-C ) :   1.3600
B( 15-C , 32-H ) :   0.9698 B( 16-C , 17-C ) :   1.3321 B( 16-C , 33-H ) :   0.9847
B( 17-C , 18-O ) :   1.1088 B( 17-C , 19-C ) :   1.3601 B( 18-O , 34-H ) :   0.9796
B( 19-C , 35-H ) :   0.9561

MP2 TOTAL ENERGY:    -1274.320729989 Eh
FINAL SINGLE POINT ENERGY     -1274.320729988539

DIPOLE MOMENT
-------------
                                X             Y             Z
Electronic contribution:      8.94002       6.75735       6.96351
Nuclear contribution   :    -10.37773      -8.17089      -7.43078
                        -----------------------------------------
Total Dipole Moment    :     -1.43771      -1.41354      -0.46727
                        -----------------------------------------
Magnitude (a.u.)       :      2.06965
Magnitude (Debye)      :      5.26063

Rotational constants in cm-1:     0.011524     0.009250     0.006506
Rotational constants in MHz :   345.485305   277.320751   195.053902

                             ****ORCA TERMINATED NORMALLY****
TOTAL RUN TIME: 0 days 1 hours 48 minutes 3 seconds 893 msec
