                         Program Version 4.2.0 -  RELEASE  -
|  1> ! ri-mp2 cc-pvtz cc-pvtz/c TightSCF NoKeepInts
|  2>
|  3> %scf
|  4>   MaxCore 4096
|  5> end
|  6> *xyz  0  1
|  7>     C       15.5424043   14.9499552   13.8187269
|  8>     C       14.9329871   15.1823004   15.2133944
|  9>     O       15.8138916   16.0483819   15.9505696
| 10>     C       15.6554884   17.4057298   15.8865014
| 11>     O       14.8308759   17.9304000   15.1568059
| 12>     C       16.5921651   18.1419674   16.8074739
| 13>     C       16.7805711   19.4810730   16.6811617
| 14>     C       15.9543392   20.4502253   15.8607981
| 15>     N       17.8337541   20.1250263   17.3347179
| 16>     C       18.8552013   19.4806341   17.9782254
| 17>     S       20.1253223   20.3018518   18.6476797
| 18>     N       18.7825003   18.1114807   18.0202667
| 19>     C       17.6432453   17.3000455   17.5513003
| 20>     C       17.0691655   16.4103878   18.6462408
| 21>     C       17.2312700   15.0136218   18.5944758
| 22>     C       16.7044260   14.1962108   19.6086899
| 23>     C       16.0133785   14.7809968   20.6839086
| 24>     C       15.8544558   16.1727369   20.7392663
| 25>     O       15.1891611   16.7398970   21.7769710
| 26>     C       16.3800112   16.9835731   19.7284085
| 27>     H       15.5962464   15.8917705   13.2579876
| 28>     H       14.9277408   14.2467694   13.2438494
| 29>     H       16.5546522   14.5353410   13.9006572
| 30>     H       13.9207775   15.6029687   15.1367481
| 31>     H       14.8603538   14.2178396   15.7322115
| 32>     H       14.8890475   20.3534737   16.1069026
| 33>     H       16.0636322   20.2411246   14.7890269
| 34>     H       16.2319199   21.4981395   16.0244732
| 35>     H       17.9104223   21.1286504   17.2920885
| 36>     H       19.5335254   17.6654724   18.5315969
| 37>     H       18.1409337   16.6947786   16.7804275
| 38>     H       17.7606310   14.5606883   17.7604848
| 39>     H       16.8317031   13.1162536   19.5593960
| 40>     H       15.6048013   14.1540332   21.4695264
| 41>     H       14.9223398   16.0269331   22.3763401
| 42>     H       16.2536588   18.0592677   19.7907005
| 43> *
| 44>
| 45>                          ****END OF INPUT****

CARTESIAN COORDINATES (ANGSTROEM)
---------------------------------
  C     15.542404   14.949955   13.818727
  C     14.932987   15.182300   15.213394
  O     15.813892   16.048382   15.950570
  C     15.655488   17.405730   15.886501
  O     14.830876   17.930400   15.156806
  C     16.592165   18.141967   16.807474
  C     16.780571   19.481073   16.681162
  C     15.954339   20.450225   15.860798
  N     17.833754   20.125026   17.334718
  C     18.855201   19.480634   17.978225
  S     20.125322   20.301852   18.647680
  N     18.782500   18.111481   18.020267
  C     17.643245   17.300045   17.551300
  C     17.069166   16.410388   18.646241
  C     17.231270   15.013622   18.594476
  C     16.704426   14.196211   19.608690
  C     16.013379   14.780997   20.683909
  C     15.854456   16.172737   20.739266
  O     15.189161   16.739897   21.776971
  C     16.380011   16.983573   19.728409
  H     15.596246   15.891770   13.257988
  H     14.927741   14.246769   13.243849
  H     16.554652   14.535341   13.900657
  H     13.920777   15.602969   15.136748
  H     14.860354   14.217840   15.732212
  H     14.889047   20.353474   16.106903
  H     16.063632   20.241125   14.789027
  H     16.231920   21.498140   16.024473
  H     17.910422   21.128650   17.292088
  H     19.533525   17.665472   18.531597
  H     18.140934   16.694779   16.780427
  H     17.760631   14.560688   17.760485
  H     16.831703   13.116254   19.559396
  H     15.604801   14.154033   21.469526
  H     14.922340   16.026933   22.376340
  H     16.253659   18.059268   19.790700

 Total Charge           Charge          ....    0
 Multiplicity           Mult            ....    1
 Number of Electrons    NEL             ....  154
 Basis Dimension        Dim             ....  828

ORBITAL ENERGIES
----------------

  NO   OCC          E(Eh)            E(eV)
   0   2.0000     -91.888685     -2500.4182
   1   2.0000     -20.601826      -560.6042
   2   2.0000     -20.595417      -560.4298
   3   2.0000     -20.541567      -558.9645
   4   2.0000     -15.629076      -425.2888
   5   2.0000     -15.606798      -424.6826
   6   2.0000     -11.396004      -310.1010
   7   2.0000     -11.383306      -309.7555
   8   2.0000     -11.337405      -308.5065
   9   2.0000     -11.312472      -307.8280
  10   2.0000     -11.307287      -307.6869
  11   2.0000     -11.297011      -307.4073
  12   2.0000     -11.259734      -306.3929
  13   2.0000     -11.259615      -306.3897
  14   2.0000     -11.253949      -306.2355
  15   2.0000     -11.251652      -306.1730
  16   2.0000     -11.242430      -305.9221
  17   2.0000     -11.237866      -305.7979
  18   2.0000     -11.237748      -305.7947
  19   2.0000     -11.226628      -305.4921
  20   2.0000      -8.893757      -242.0114
  21   2.0000      -6.575331      -178.9238
  22   2.0000      -6.573332      -178.8695
  23   2.0000      -6.572742      -178.8534
  24   2.0000      -1.451811       -39.5058
  25   2.0000      -1.415076       -38.5062
  26   2.0000      -1.354785       -36.8656
  27   2.0000      -1.340281       -36.4709
  28   2.0000      -1.238095       -33.6903
  29   2.0000      -1.156594       -31.4725
  30   2.0000      -1.120912       -30.5016
  31   2.0000      -1.042362       -28.3641
  32   2.0000      -1.037882       -28.2422
  33   2.0000      -1.013850       -27.5883
  34   2.0000      -0.996040       -27.1036
  35   2.0000      -0.984262       -26.7831
  36   2.0000      -0.921408       -25.0728
  37   2.0000      -0.893370       -24.3098
  38   2.0000      -0.846382       -23.0312
  39   2.0000      -0.837156       -22.7802
  40   2.0000      -0.833105       -22.6699
  41   2.0000      -0.817029       -22.2325
  42   2.0000      -0.759684       -20.6720
  43   2.0000      -0.732663       -19.9368
  44   2.0000      -0.722209       -19.6523
  45   2.0000      -0.694499       -18.8983
  46   2.0000      -0.687959       -18.7203
  47   2.0000      -0.680236       -18.5101
  48   2.0000      -0.672075       -18.2881
  49   2.0000      -0.655238       -17.8299
  50   2.0000      -0.646442       -17.5906
  51   2.0000      -0.641661       -17.4605
  52   2.0000      -0.629142       -17.1198
  53   2.0000      -0.612605       -16.6698
  54   2.0000      -0.605525       -16.4772
  55   2.0000      -0.599750       -16.3200
  56   2.0000      -0.598055       -16.2739
  57   2.0000      -0.578070       -15.7301
  58   2.0000      -0.570572       -15.5261
  59   2.0000      -0.568954       -15.4820
  60   2.0000      -0.563204       -15.3256
  61   2.0000      -0.540847       -14.7172
  62   2.0000      -0.535397       -14.5689
  63   2.0000      -0.532246       -14.4831
  64   2.0000      -0.523169       -14.2361
  65   2.0000      -0.512720       -13.9518
  66   2.0000      -0.499902       -13.6030
  67   2.0000      -0.496289       -13.5047
  68   2.0000      -0.484677       -13.1887
  69   2.0000      -0.462873       -12.5954
  70   2.0000      -0.454938       -12.3795
  71   2.0000      -0.448705       -12.2099
  72   2.0000      -0.353006        -9.6058
  73   2.0000      -0.348794        -9.4912
  74   2.0000      -0.327796        -8.9198
  75   2.0000      -0.319974        -8.7069
  76   2.0000      -0.317793        -8.6476
  77   0.0000       0.077878         2.1192
  78   0.0000       0.106269         2.8917
  79   0.0000       0.123029         3.3478
  80   0.0000       0.133213         3.6249
  81   0.0000       0.135872         3.6973

MULLIKEN ATOMIC CHARGES
-----------------------
   0 C :   -0.284039
   1 C :    0.027210
   2 O :   -0.343372
   3 C :    0.441029
   4 O :   -0.440584
   5 C :   -0.218538
   6 C :    0.171567
   7 C :   -0.269284
   8 N :   -0.126014
   9 C :    0.209982
  10 S :   -0.442183
  11 N :   -0.214359
  12 C :    0.051107
  13 C :    0.048321
  14 C :   -0.174692
  15 C :   -0.135234
  16 C :   -0.275250
  17 C :    0.316434
  18 O :   -0.357126
  19 C :   -0.247182
  20 H :    0.108498
  21 H :    0.094260
  22 H :    0.091690
  23 H :    0.109101
  24 H :    0.108227
  25 H :    0.133704
  26 H :    0.128504
  27 H :    0.094676
  28 H :    0.199805
  29 H :    0.200391
  30 H :    0.153279
  31 H :    0.148749
  32 H :    0.159583
  33 H :    0.129298
  34 H :    0.240385
  35 H :    0.162056
Sum of atomic charges:   -0.0000000

LOEWDIN ATOMIC CHARGES
----------------------
   0 C :    0.104157
   1 C :   -0.015988
   2 O :    0.311386
   3 C :   -0.413232
   4 O :    0.093390
   5 C :   -0.093933
   6 C :   -0.056466
   7 C :    0.130925
   8 N :    0.407119
   9 C :   -0.456846
  10 S :   -0.036756
  11 N :    0.394788
  12 C :   -0.055002
  13 C :   -0.039429
  14 C :    0.017019
  15 C :    0.039140
  16 C :   -0.000329
  17 C :   -0.189541
  18 O :    0.394867
  19 C :    0.033425
  20 H :   -0.025182
  21 H :   -0.026635
  22 H :   -0.030115
  23 H :   -0.027432
  24 H :   -0.026422
  25 H :   -0.004184
  26 H :   -0.005389
  27 H :   -0.023637
  28 H :   -0.057156
  29 H :   -0.064257
  30 H :   -0.014402
  31 H :   -0.029707
  32 H :   -0.021596
  33 H :   -0.035556
  34 H :   -0.154135
  35 H :   -0.022891

  Mayer bond orders larger than 0.100000
B(  0-C ,  1-C ) :   0.9653 B(  0-C , 20-H ) :   0.9768 B(  0-C , 21-H ) :   0.9762
B(  0-C , 22-H ) :   0.9780 B(  1-C ,  2-O ) :   0.8962 B(  1-C , 23-H ) :   0.9754
B(  1-C , 24-H ) :   0.9830 B(  2-O ,  3-C ) :   1.1710 B(  3-C ,  4-O ) :   1.9447
B(  3-C ,  5-C ) :   1.0822 B(  5-C ,  6-C ) :   1.6415 B(  5-C , 12-C ) :   0.9546
B(  6-C ,  7-C ) :   0.9657 B(  6-C ,  8-N ) :   1.1532 B(  7-C , 25-H ) :   0.9615
B(  7-C , 26-H ) :   0.9586 B(  7-C , 27-H ) :   0.9907 B(  8-N ,  9-C ) :   1.1876
B(  8-N , 28-H ) :   0.9463 B(  9-C , 10-S ) :   1.6060 B(  9-C , 11-N ) :   1.3090
B( 11-N , 12-C ) :   0.9685 B( 11-N , 29-H ) :   0.9483 B( 12-C , 13-C ) :   0.9661
B( 12-C , 30-H ) :   1.0009 B( 13-C , 14-C ) :   1.3546 B( 13-C , 19-C ) :   1.3811
B( 14-C , 15-C ) :   1.3965 B( 14-C , 31-H ) :   0.9723 B( 15-C , 16-C ) :   1.3603
B( 15-C , 32-H ) :   0.9710 B( 16-C , 17-C ) :   1.3340 B( 16-C , 33-H ) :   0.9853
B( 17-C , 18-O ) :   1.1038 B( 17-C , 19-C ) :   1.3652 B( 18-O , 34-H ) :   0.9801
B( 19-C , 35-H ) :   0.9596

MP2 TOTAL ENERGY:    -1274.343981470 Eh
FINAL SINGLE POINT ENERGY     -1274.343981470238

DIPOLE MOMENT
-------------
                                X             Y             Z
Electronic contribution:      8.21866       9.01945      11.14584
Nuclear contribution   :     -9.37834     -10.62620     -11.52916
                        -----------------------------------------
Total Dipole Moment    :     -1.15968      -1.60674      -0.38333
                        -----------------------------------------
Magnitude (a.u.)       :      2.01828
Magnitude (Debye)      :      5.13005

Rotational constants in cm-1:     0.010187     0.008947     0.005824
Rotational constants in MHz :   305.406647   268.210265   174.594353

                             ****ORCA TERMINATED NORMALLY****
TOTAL RUN TIME: 0 days 1 hours 46 minutes 20 seconds 383 msec
