                         Program Version 4.2.0 -  RELEASE  -
|  1> ! ri-mp2 cc-pvtz cc-pvtz/c TightSCF NoKeepInts
|  2>
|  3> %scf
|  4>   MaxCore 4096
|  5> end
|  6> *xyz  0  1
|  7>     C       13.7164036   15.9170243   14.6619762
|  8>     C       15.1923209   15.5045198   14.5312490
|  9>     O       15.9873351   16.6731989   14.7937441
| 10>     C       16.9997243   16.5842074   15.7019607
| 11>     O       17.6779008   15.5764829   15.8131335
| 12>     C       17.0976878   17.7409490   16.6559273
| 13>     C       16.7462297   19.0087426   16.3130893
| 14>     C       16.0037843   19.4679117   15.0734191
| 15>     N       17.1051185   20.0909365   17.1208183
| 16>     C       17.9937462   20.0217067   18.1595408
| 17>     S       18.4557594   21.3666782   19.0039752
| 18>     N       18.4982401   18.7793121   18.4485330
| 19>     C       18.0496249   17.5133238   17.8370677
| 20>     C       17.5250626   16.5087971   18.8546114
| 21>     C       18.0777430   15.2182339   18.9395865
| 22>     C       17.5929150   14.2936484   19.8798446
| 23>     C       16.5472966   14.6634232   20.7431818
| 24>     C       15.9933804   15.9483115   20.6590776
| 25>     O       14.9807120   16.3064585   21.4882690
| 26>     C       16.4777754   16.8661655   19.7216278
| 27>     H       13.5056882   16.2845391   15.6741554
| 28>     H       13.0596603   15.0609364   14.4647422
| 29>     H       13.4709130   16.7104698   13.9452414
| 30>     H       15.4051883   14.7023522   15.2519967
| 31>     H       15.3982518   15.1264418   13.5214518
| 32>     H       16.5203856   19.1363636   14.1638815
| 33>     H       15.9132727   20.5591405   15.0101805
| 34>     H       14.9874174   19.0551404   15.0550954
| 35>     H       16.7607832   21.0131289   16.9066594
| 36>     H       19.1350708   18.7517329   19.2348420
| 37>     H       18.9944492   17.1622129   17.3970772
| 38>     H       18.8759421   14.9268741   18.2608701
| 39>     H       18.0241297   13.2955509   19.9319161
| 40>     H       16.1689447   13.9519620   21.4695474
| 41>     H       14.8089928   15.5559065   22.0764831
| 42>     H       16.0391495   17.8572158   19.6732267
| 43> *
| 44>
| 45>                          ****END OF INPUT****

CARTESIAN COORDINATES (ANGSTROEM)
---------------------------------
  C     13.716404   15.917024   14.661976
  C     15.192321   15.504520   14.531249
  O     15.987335   16.673199   14.793744
  C     16.999724   16.584207   15.701961
  O     17.677901   15.576483   15.813133
  C     17.097688   17.740949   16.655927
  C     16.746230   19.008743   16.313089
  C     16.003784   19.467912   15.073419
  N     17.105118   20.090937   17.120818
  C     17.993746   20.021707   18.159541
  S     18.455759   21.366678   19.003975
  N     18.498240   18.779312   18.448533
  C     18.049625   17.513324   17.837068
  C     17.525063   16.508797   18.854611
  C     18.077743   15.218234   18.939586
  C     17.592915   14.293648   19.879845
  C     16.547297   14.663423   20.743182
  C     15.993380   15.948311   20.659078
  O     14.980712   16.306459   21.488269
  C     16.477775   16.866166   19.721628
  H     13.505688   16.284539   15.674155
  H     13.059660   15.060936   14.464742
  H     13.470913   16.710470   13.945241
  H     15.405188   14.702352   15.251997
  H     15.398252   15.126442   13.521452
  H     16.520386   19.136364   14.163882
  H     15.913273   20.559141   15.010180
  H     14.987417   19.055140   15.055095
  H     16.760783   21.013129   16.906659
  H     19.135071   18.751733   19.234842
  H     18.994449   17.162213   17.397077
  H     18.875942   14.926874   18.260870
  H     18.024130   13.295551   19.931916
  H     16.168945   13.951962   21.469547
  H     14.808993   15.555907   22.076483
  H     16.039150   17.857216   19.673227

 Total Charge           Charge          ....    0
 Multiplicity           Mult            ....    1
 Number of Electrons    NEL             ....  154
 Basis Dimension        Dim             ....  828

ORBITAL ENERGIES
----------------

  NO   OCC          E(Eh)            E(eV)
   0   2.0000     -91.888417     -2500.4109
   1   2.0000     -20.597973      -560.4993
   2   2.0000     -20.592539      -560.3515
   3   2.0000     -20.546757      -559.1057
   4   2.0000     -15.629124      -425.2901
   5   2.0000     -15.606039      -424.6619
   6   2.0000     -11.394787      -310.0679
   7   2.0000     -11.382986      -309.7468
   8   2.0000     -11.338646      -308.5402
   9   2.0000     -11.308525      -307.7206
  10   2.0000     -11.304537      -307.6121
  11   2.0000     -11.300689      -307.5074
  12   2.0000     -11.260776      -306.4213
  13   2.0000     -11.259407      -306.3840
  14   2.0000     -11.255682      -306.2827
  15   2.0000     -11.248517      -306.0877
  16   2.0000     -11.238738      -305.8216
  17   2.0000     -11.234914      -305.7176
  18   2.0000     -11.234137      -305.6964
  19   2.0000     -11.231557      -305.6262
  20   2.0000      -8.893497      -242.0044
  21   2.0000      -6.575073      -178.9168
  22   2.0000      -6.573071      -178.8624
  23   2.0000      -6.572482      -178.8463
  24   2.0000      -1.454137       -39.5691
  25   2.0000      -1.412288       -38.4303
  26   2.0000      -1.357156       -36.9301
  27   2.0000      -1.340312       -36.4717
  28   2.0000      -1.237425       -33.6720
  29   2.0000      -1.153053       -31.3762
  30   2.0000      -1.121182       -30.5089
  31   2.0000      -1.044583       -28.4245
  32   2.0000      -1.036992       -28.2180
  33   2.0000      -1.010605       -27.5000
  34   2.0000      -0.999451       -27.1964
  35   2.0000      -0.984586       -26.7919
  36   2.0000      -0.921162       -25.0661
  37   2.0000      -0.889287       -24.1987
  38   2.0000      -0.847534       -23.0626
  39   2.0000      -0.835538       -22.7361
  40   2.0000      -0.828740       -22.5512
  41   2.0000      -0.819132       -22.2897
  42   2.0000      -0.761895       -20.7322
  43   2.0000      -0.736405       -20.0386
  44   2.0000      -0.726672       -19.7737
  45   2.0000      -0.691291       -18.8110
  46   2.0000      -0.684506       -18.6263
  47   2.0000      -0.680252       -18.5106
  48   2.0000      -0.675351       -18.3772
  49   2.0000      -0.660178       -17.9644
  50   2.0000      -0.650312       -17.6959
  51   2.0000      -0.642875       -17.4935
  52   2.0000      -0.633998       -17.2520
  53   2.0000      -0.604149       -16.4397
  54   2.0000      -0.599416       -16.3109
  55   2.0000      -0.596026       -16.2187
  56   2.0000      -0.594385       -16.1740
  57   2.0000      -0.580078       -15.7847
  58   2.0000      -0.573741       -15.6123
  59   2.0000      -0.566982       -15.4284
  60   2.0000      -0.560191       -15.2436
  61   2.0000      -0.557889       -15.1809
  62   2.0000      -0.543075       -14.7778
  63   2.0000      -0.521023       -14.1777
  64   2.0000      -0.516621       -14.0580
  65   2.0000      -0.510377       -13.8881
  66   2.0000      -0.502776       -13.6812
  67   2.0000      -0.494733       -13.4624
  68   2.0000      -0.480964       -13.0877
  69   2.0000      -0.464338       -12.6353
  70   2.0000      -0.457459       -12.4481
  71   2.0000      -0.454825       -12.3764
  72   2.0000      -0.353450        -9.6179
  73   2.0000      -0.345229        -9.3941
  74   2.0000      -0.327472        -8.9110
  75   2.0000      -0.317570        -8.6415
  76   2.0000      -0.315133        -8.5752
  77   0.0000       0.075470         2.0536
  78   0.0000       0.110201         2.9987
  79   0.0000       0.120288         3.2732
  80   0.0000       0.135387         3.6841
  81   0.0000       0.139001         3.7824

MULLIKEN ATOMIC CHARGES
-----------------------
   0 C :   -0.279802
   1 C :    0.036273
   2 O :   -0.350757
   3 C :    0.430677
   4 O :   -0.412006
   5 C :   -0.183433
   6 C :    0.155915
   7 C :   -0.282835
   8 N :   -0.128294
   9 C :    0.207433
  10 S :   -0.441796
  11 N :   -0.210379
  12 C :    0.042333
  13 C :    0.031851
  14 C :   -0.168107
  15 C :   -0.134569
  16 C :   -0.277431
  17 C :    0.313856
  18 O :   -0.359131
  19 C :   -0.252766
  20 H :    0.099295
  21 H :    0.104411
  22 H :    0.092776
  23 H :    0.100662
  24 H :    0.101182
  25 H :    0.127482
  26 H :    0.103938
  27 H :    0.126896
  28 H :    0.198879
  29 H :    0.199904
  30 H :    0.155507
  31 H :    0.159428
  32 H :    0.160437
  33 H :    0.128496
  34 H :    0.240082
  35 H :    0.163590
Sum of atomic charges:   -0.0000000

LOEWDIN ATOMIC CHARGES
----------------------
   0 C :    0.103817
   1 C :   -0.014305
   2 O :    0.305050
   3 C :   -0.418939
   4 O :    0.109409
   5 C :   -0.094219
   6 C :   -0.064412
   7 C :    0.125451
   8 N :    0.405622
   9 C :   -0.458518
  10 S :   -0.037209
  11 N :    0.396374
  12 C :   -0.048329
  13 C :   -0.040734
  14 C :    0.024978
  15 C :    0.040999
  16 C :   -0.001276
  17 C :   -0.192830
  18 O :    0.392974
  19 C :    0.029009
  20 H :   -0.026462
  21 H :   -0.023805
  22 H :   -0.029816
  23 H :   -0.024987
  24 H :   -0.028977
  25 H :   -0.008502
  26 H :   -0.021043
  27 H :   -0.010089
  28 H :   -0.058616
  29 H :   -0.063164
  30 H :   -0.007961
  31 H :   -0.023748
  32 H :   -0.020904
  33 H :   -0.036111
  34 H :   -0.154774
  35 H :   -0.023955

  Mayer bond orders larger than 0.100000
B(  0-C ,  1-C ) :   0.9707 B(  0-C , 20-H ) :   0.9762 B(  0-C , 21-H ) :   0.9783
B(  0-C , 22-H ) :   0.9782 B(  1-C ,  2-O ) :   0.8984 B(  1-C , 23-H ) :   0.9719
B(  1-C , 24-H ) :   0.9838 B(  2-O ,  3-C ) :   1.1230 B(  3-C ,  4-O ) :   2.0064
B(  3-C ,  5-C ) :   1.0359 B(  5-C ,  6-C ) :   1.6576 B(  5-C , 12-C ) :   0.9490
B(  6-C ,  7-C ) :   0.9557 B(  6-C ,  8-N ) :   1.1378 B(  7-C , 25-H ) :   0.9649
B(  7-C , 26-H ) :   0.9903 B(  7-C , 27-H ) :   0.9646 B(  8-N ,  9-C ) :   1.1848
B(  8-N , 28-H ) :   0.9468 B(  9-C , 10-S ) :   1.6089 B(  9-C , 11-N ) :   1.3061
B( 11-N , 12-C ) :   0.9770 B( 11-N , 29-H ) :   0.9486 B( 12-C , 13-C ) :   0.9717
B( 12-C , 30-H ) :   0.9964 B( 13-C , 14-C ) :   1.3768 B( 13-C , 19-C ) :   1.3651
B( 14-C , 15-C ) :   1.3974 B( 14-C , 31-H ) :   0.9636 B( 15-C , 16-C ) :   1.3587
B( 15-C , 32-H ) :   0.9710 B( 16-C , 17-C ) :   1.3333 B( 16-C , 33-H ) :   0.9859
B( 17-C , 18-O ) :   1.1036 B( 17-C , 19-C ) :   1.3673 B( 18-O , 34-H ) :   0.9805
B( 19-C , 35-H ) :   0.9603

MP2 TOTAL ENERGY:    -1274.335554052 Eh
FINAL SINGLE POINT ENERGY     -1274.335554052207

DIPOLE MOMENT
-------------
                                X             Y             Z
Electronic contribution:     11.06088       8.32514      10.37538
Nuclear contribution   :    -12.45843      -9.66561     -11.34892
                        -----------------------------------------
Total Dipole Moment    :     -1.39755      -1.34047      -0.97354
                        -----------------------------------------
Magnitude (a.u.)       :      2.16744
Magnitude (Debye)      :      5.50919

Rotational constants in cm-1:     0.009649     0.009378     0.005818
Rotational constants in MHz :   289.262168   281.160338   174.425540

                             ****ORCA TERMINATED NORMALLY****
TOTAL RUN TIME: 0 days 1 hours 41 minutes 34 seconds 595 msec
