                         Program Version 4.2.0 -  RELEASE  -
|  1> ! ri-mp2 cc-pvtz cc-pvtz/c TightSCF NoKeepInts
|  2>
|  3> %scf
|  4>   MaxCore 4096
|  5> end
|  6> *xyz  0  1
|  7>     C       14.9531577   15.1013065   13.8752693
|  8>     C       15.3397099   14.8687267   15.3526287
|  9>     O       16.1353098   15.9323996   15.9297935
| 10>     C       15.9180575   17.2777627   15.7691765
| 11>     O       15.1159698   17.7445847   14.9805151
| 12>     C       16.7288567   18.0976851   16.7397894
| 13>     C       16.8612766   19.4400298   16.5763029
| 14>     C       16.0713835   20.3349187   15.6431175
| 15>     N       17.8139439   20.1634588   17.2976263
| 16>     C       18.8014143   19.6000204   18.0589833
| 17>     S       19.9590379   20.5131238   18.8086669
| 18>     N       18.7950480   18.2315885   18.1503473
| 19>     C       17.7478649   17.3429560   17.6123237
| 20>     C       17.1212895   16.4637452   18.6869801
| 21>     C       17.3932265   15.0838849   18.7326951
| 22>     C       16.8167779   14.2757279   19.7271619
| 23>     C       15.9649093   14.8531455   20.6845137
| 24>     C       15.6965753   16.2285077   20.6433592
| 25>     O       14.8762598   16.7887091   21.5676704
| 26>     C       16.2718376   17.0301441   19.6524530
| 27>     H       14.1198074   15.8086648   13.7846749
| 28>     H       14.6306572   14.1591688   13.4161407
| 29>     H       15.8061609   15.4846267   13.3016788
| 30>     H       14.4190909   14.7473778   15.9384248
| 31>     H       15.9037569   13.9306983   15.4323255
| 32>     H       14.9935766   20.2052624   15.8053486
| 33>     H       16.2781812   20.0806653   14.5957755
| 34>     H       16.2946368   21.4000516   15.7756680
| 35>     H       17.8426462   21.1675762   17.2212759
| 36>     H       19.5159572   17.8463379   18.7471849
| 37>     H       18.3458871   16.7380903   16.9161092
| 38>     H       18.0485198   14.6364875   17.9902293
| 39>     H       17.0306788   13.2087278   19.7542941
| 40>     H       15.5177395   14.2334576   21.4547613
| 41>     H       14.5991107   16.0865850   22.1750895
| 42>     H       16.0586864   18.0937967   19.6396452
| 43> *
| 44>
| 45>                          ****END OF INPUT****

CARTESIAN COORDINATES (ANGSTROEM)
---------------------------------
  C     14.953158   15.101306   13.875269
  C     15.339710   14.868727   15.352629
  O     16.135310   15.932400   15.929793
  C     15.918057   17.277763   15.769177
  O     15.115970   17.744585   14.980515
  C     16.728857   18.097685   16.739789
  C     16.861277   19.440030   16.576303
  C     16.071383   20.334919   15.643118
  N     17.813944   20.163459   17.297626
  C     18.801414   19.600020   18.058983
  S     19.959038   20.513124   18.808667
  N     18.795048   18.231589   18.150347
  C     17.747865   17.342956   17.612324
  C     17.121289   16.463745   18.686980
  C     17.393227   15.083885   18.732695
  C     16.816778   14.275728   19.727162
  C     15.964909   14.853146   20.684514
  C     15.696575   16.228508   20.643359
  O     14.876260   16.788709   21.567670
  C     16.271838   17.030144   19.652453
  H     14.119807   15.808665   13.784675
  H     14.630657   14.159169   13.416141
  H     15.806161   15.484627   13.301679
  H     14.419091   14.747378   15.938425
  H     15.903757   13.930698   15.432325
  H     14.993577   20.205262   15.805349
  H     16.278181   20.080665   14.595775
  H     16.294637   21.400052   15.775668
  H     17.842646   21.167576   17.221276
  H     19.515957   17.846338   18.747185
  H     18.345887   16.738090   16.916109
  H     18.048520   14.636487   17.990229
  H     17.030679   13.208728   19.754294
  H     15.517739   14.233458   21.454761
  H     14.599111   16.086585   22.175089
  H     16.058686   18.093797   19.639645

 Total Charge           Charge          ....    0
 Multiplicity           Mult            ....    1
 Number of Electrons    NEL             ....  154
 Basis Dimension        Dim             ....  828

ORBITAL ENERGIES
----------------

  NO   OCC          E(Eh)            E(eV)
   0   2.0000     -91.888003     -2500.3997
   1   2.0000     -20.598482      -560.5132
   2   2.0000     -20.595594      -560.4346
   3   2.0000     -20.540458      -558.9343
   4   2.0000     -15.628252      -425.2664
   5   2.0000     -15.605961      -424.6598
   6   2.0000     -11.397303      -310.1364
   7   2.0000     -11.382521      -309.7342
   8   2.0000     -11.336404      -308.4792
   9   2.0000     -11.312623      -307.8321
  10   2.0000     -11.306286      -307.6597
  11   2.0000     -11.302363      -307.5529
  12   2.0000     -11.259692      -306.3918
  13   2.0000     -11.258570      -306.3613
  14   2.0000     -11.254161      -306.2413
  15   2.0000     -11.250977      -306.1546
  16   2.0000     -11.242415      -305.9217
  17   2.0000     -11.237685      -305.7930
  18   2.0000     -11.237642      -305.7918
  19   2.0000     -11.221920      -305.3640
  20   2.0000      -8.893084      -241.9931
  21   2.0000      -6.574659      -178.9056
  22   2.0000      -6.572659      -178.8511
  23   2.0000      -6.572071      -178.8351
  24   2.0000      -1.444799       -39.3150
  25   2.0000      -1.415239       -38.5106
  26   2.0000      -1.354451       -36.8565
  27   2.0000      -1.339535       -36.4506
  28   2.0000      -1.237352       -33.6700
  29   2.0000      -1.156334       -31.4654
  30   2.0000      -1.119719       -30.4691
  31   2.0000      -1.041671       -28.3453
  32   2.0000      -1.036129       -28.1945
  33   2.0000      -1.013864       -27.5886
  34   2.0000      -0.995072       -27.0773
  35   2.0000      -0.983180       -26.7537
  36   2.0000      -0.920775       -25.0556
  37   2.0000      -0.896323       -24.3902
  38   2.0000      -0.846090       -23.0233
  39   2.0000      -0.837152       -22.7801
  40   2.0000      -0.833084       -22.6694
  41   2.0000      -0.818082       -22.2611
  42   2.0000      -0.748068       -20.3560
  43   2.0000      -0.731262       -19.8987
  44   2.0000      -0.718868       -19.5614
  45   2.0000      -0.694478       -18.8977
  46   2.0000      -0.687749       -18.7146
  47   2.0000      -0.678234       -18.4557
  48   2.0000      -0.668524       -18.1915
  49   2.0000      -0.655041       -17.8246
  50   2.0000      -0.648600       -17.6493
  51   2.0000      -0.644550       -17.5391
  52   2.0000      -0.633541       -17.2395
  53   2.0000      -0.606384       -16.5006
  54   2.0000      -0.602525       -16.3955
  55   2.0000      -0.598383       -16.2828
  56   2.0000      -0.597518       -16.2593
  57   2.0000      -0.581342       -15.8191
  58   2.0000      -0.574036       -15.6203
  59   2.0000      -0.569090       -15.4857
  60   2.0000      -0.561605       -15.2820
  61   2.0000      -0.539355       -14.6766
  62   2.0000      -0.536053       -14.5868
  63   2.0000      -0.523473       -14.2444
  64   2.0000      -0.521023       -14.1777
  65   2.0000      -0.511751       -13.9255
  66   2.0000      -0.502620       -13.6770
  67   2.0000      -0.496989       -13.5238
  68   2.0000      -0.482704       -13.1350
  69   2.0000      -0.462512       -12.5856
  70   2.0000      -0.454210       -12.3597
  71   2.0000      -0.439614       -11.9625
  72   2.0000      -0.351979        -9.5778
  73   2.0000      -0.348633        -9.4868
  74   2.0000      -0.327209        -8.9038
  75   2.0000      -0.320025        -8.7083
  76   2.0000      -0.317207        -8.6316
  77   0.0000       0.078275         2.1300
  78   0.0000       0.106715         2.9039
  79   0.0000       0.124418         3.3856
  80   0.0000       0.133546         3.6340
  81   0.0000       0.136771         3.7217

MULLIKEN ATOMIC CHARGES
-----------------------
   0 C :   -0.290124
   1 C :    0.051289
   2 O :   -0.355756
   3 C :    0.439823
   4 O :   -0.436767
   5 C :   -0.214375
   6 C :    0.172129
   7 C :   -0.268202
   8 N :   -0.125558
   9 C :    0.211051
  10 S :   -0.443505
  11 N :   -0.215220
  12 C :    0.057632
  13 C :    0.052652
  14 C :   -0.182991
  15 C :   -0.132524
  16 C :   -0.276478
  17 C :    0.316961
  18 O :   -0.357058
  19 C :   -0.250021
  20 H :    0.123070
  21 H :    0.094182
  22 H :    0.095709
  23 H :    0.087679
  24 H :    0.098002
  25 H :    0.133621
  26 H :    0.127810
  27 H :    0.094523
  28 H :    0.199501
  29 H :    0.200254
  30 H :    0.150696
  31 H :    0.150272
  32 H :    0.159649
  33 H :    0.129448
  34 H :    0.240414
  35 H :    0.162212
Sum of atomic charges:   -0.0000000

LOEWDIN ATOMIC CHARGES
----------------------
   0 C :    0.102621
   1 C :   -0.009275
   2 O :    0.298458
   3 C :   -0.412891
   4 O :    0.104901
   5 C :   -0.093631
   6 C :   -0.056735
   7 C :    0.130294
   8 N :    0.406963
   9 C :   -0.456911
  10 S :   -0.037718
  11 N :    0.394586
  12 C :   -0.054996
  13 C :   -0.038536
  14 C :    0.016424
  15 C :    0.038987
  16 C :   -0.001012
  17 C :   -0.189546
  18 O :    0.394910
  19 C :    0.033146
  20 H :   -0.025695
  21 H :   -0.029401
  22 H :   -0.026834
  23 H :   -0.028539
  24 H :   -0.025123
  25 H :   -0.004508
  26 H :   -0.005585
  27 H :   -0.023871
  28 H :   -0.057360
  29 H :   -0.064512
  30 H :   -0.014375
  31 H :   -0.029860
  32 H :   -0.021602
  33 H :   -0.035668
  34 H :   -0.154149
  35 H :   -0.022955

  Mayer bond orders larger than 0.100000
B(  0-C ,  1-C ) :   0.9735 B(  0-C , 20-H ) :   0.9720 B(  0-C , 21-H ) :   0.9768
B(  0-C , 22-H ) :   0.9756 B(  1-C ,  2-O ) :   0.9026 B(  1-C , 23-H ) :   0.9768
B(  1-C , 24-H ) :   0.9831 B(  2-O ,  3-C ) :   1.1527 B(  3-C ,  4-O ) :   1.9584
B(  3-C ,  5-C ) :   1.0797 B(  5-C ,  6-C ) :   1.6387 B(  5-C , 12-C ) :   0.9545
B(  6-C ,  7-C ) :   0.9659 B(  6-C ,  8-N ) :   1.1526 B(  7-C , 25-H ) :   0.9611
B(  7-C , 26-H ) :   0.9589 B(  7-C , 27-H ) :   0.9911 B(  8-N ,  9-C ) :   1.1880
B(  8-N , 28-H ) :   0.9465 B(  9-C , 10-S ) :   1.6042 B(  9-C , 11-N ) :   1.3102
B( 11-N , 12-C ) :   0.9657 B( 11-N , 29-H ) :   0.9484 B( 12-C , 13-C ) :   0.9659
B( 12-C , 30-H ) :   1.0008 B( 13-C , 14-C ) :   1.3519 B( 13-C , 19-C ) :   1.3817
B( 14-C , 15-C ) :   1.3950 B( 14-C , 31-H ) :   0.9721 B( 15-C , 16-C ) :   1.3603
B( 15-C , 32-H ) :   0.9710 B( 16-C , 17-C ) :   1.3342 B( 16-C , 33-H ) :   0.9853
B( 17-C , 18-O ) :   1.1040 B( 17-C , 19-C ) :   1.3648 B( 18-O , 34-H ) :   0.9800
B( 19-C , 35-H ) :   0.9598

MP2 TOTAL ENERGY:    -1274.334955004 Eh
FINAL SINGLE POINT ENERGY     -1274.334955004075

DIPOLE MOMENT
-------------
                                X             Y             Z
Electronic contribution:      9.06819       9.33544      10.94097
Nuclear contribution   :    -10.15563     -11.06701     -11.33641
                        -----------------------------------------
Total Dipole Moment    :     -1.08744      -1.73157      -0.39543
                        -----------------------------------------
Magnitude (a.u.)       :      2.08260
Magnitude (Debye)      :      5.29356

Rotational constants in cm-1:     0.010427     0.008874     0.005760
Rotational constants in MHz :   312.598016   266.034478   172.675012

                             ****ORCA TERMINATED NORMALLY****
TOTAL RUN TIME: 0 days 1 hours 35 minutes 34 seconds 136 msec
