                         Program Version 4.2.0 -  RELEASE  -
|  1> ! ri-mp2 cc-pvtz cc-pvtz/c TightSCF NoKeepInts
|  2>
|  3> %scf
|  4>   MaxCore 4096
|  5> end
|  6> *xyz  0  1
|  7>     C       14.4255183   15.9977387   16.0158422
|  8>     C       15.1751489   15.7240425   14.6943589
|  9>     O       16.2857143   16.6281479   14.5402014
| 10>     C       17.2598428   16.6227242   15.4922451
| 11>     O       18.0115478   15.6727712   15.6222089
| 12>     C       17.1823510   17.7474282   16.4832240
| 13>     C       16.8192222   19.0048025   16.1206033
| 14>     C       16.2377816   19.4532356   14.7945215
| 15>     N       17.0167452   20.0815573   16.9883853
| 16>     C       17.7664772   20.0247645   18.1325698
| 17>     S       18.0483618   21.3660683   19.0580360
| 18>     N       18.2900625   18.7991756   18.4595440
| 19>     C       17.9851394   17.5300414   17.7702119
| 20>     C       17.3752731   16.4749975   18.6831881
| 21>     C       17.9340549   15.1870244   18.7642198
| 22>     C       17.3616494   14.2108664   19.5968295
| 23>     C       16.2205952   14.5255663   20.3546524
| 24>     C       15.6601951   15.8077163   20.2736932
| 25>     O       14.5534974   16.1119844   20.9972558
| 26>     C       16.2320398   16.7771139   19.4436734
| 27>     H       15.0378884   15.7225022   16.8838762
| 28>     H       13.5053458   15.4025184   16.0597237
| 29>     H       14.1496724   17.0558968   16.1009391
| 30>     H       15.5323801   14.6850931   14.6813643
| 31>     H       14.4850098   15.8544132   13.8509133
| 32>     H       15.2317272   19.0407253   14.6507459
| 33>     H       16.8637512   19.1145316   13.9591434
| 34>     H       16.1600791   20.5442359   14.7120388
| 35>     H       16.6605299   20.9929177   16.7483546
| 36>     H       18.8244347   18.7808434   19.3190990
| 37>     H       18.9940826   17.2315823   17.4495694
| 38>     H       18.8065220   14.9379477   18.1642880
| 39>     H       17.7996592   13.2155114   19.6466206
| 40>     H       15.7742340   13.7737245   20.9969723
| 41>     H       14.3361229   15.3356667   21.5349879
| 42>     H       15.7843430   17.7641228   19.3938990
| 43> *
| 44>
| 45>                          ****END OF INPUT****

CARTESIAN COORDINATES (ANGSTROEM)
---------------------------------
  C     14.425518   15.997739   16.015842
  C     15.175149   15.724042   14.694359
  O     16.285714   16.628148   14.540201
  C     17.259843   16.622724   15.492245
  O     18.011548   15.672771   15.622209
  C     17.182351   17.747428   16.483224
  C     16.819222   19.004802   16.120603
  C     16.237782   19.453236   14.794522
  N     17.016745   20.081557   16.988385
  C     17.766477   20.024764   18.132570
  S     18.048362   21.366068   19.058036
  N     18.290063   18.799176   18.459544
  C     17.985139   17.530041   17.770212
  C     17.375273   16.474998   18.683188
  C     17.934055   15.187024   18.764220
  C     17.361649   14.210866   19.596829
  C     16.220595   14.525566   20.354652
  C     15.660195   15.807716   20.273693
  O     14.553497   16.111984   20.997256
  C     16.232040   16.777114   19.443673
  H     15.037888   15.722502   16.883876
  H     13.505346   15.402518   16.059724
  H     14.149672   17.055897   16.100939
  H     15.532380   14.685093   14.681364
  H     14.485010   15.854413   13.850913
  H     15.231727   19.040725   14.650746
  H     16.863751   19.114532   13.959143
  H     16.160079   20.544236   14.712039
  H     16.660530   20.992918   16.748355
  H     18.824435   18.780843   19.319099
  H     18.994083   17.231582   17.449569
  H     18.806522   14.937948   18.164288
  H     17.799659   13.215511   19.646621
  H     15.774234   13.773725   20.996972
  H     14.336123   15.335667   21.534988
  H     15.784343   17.764123   19.393899

 Total Charge           Charge          ....    0
 Multiplicity           Mult            ....    1
 Number of Electrons    NEL             ....  154
 Basis Dimension        Dim             ....  828

ORBITAL ENERGIES
----------------

  NO   OCC          E(Eh)            E(eV)
   0   2.0000     -91.889698     -2500.4458
   1   2.0000     -20.595358      -560.4282
   2   2.0000     -20.586327      -560.1824
   3   2.0000     -20.551783      -559.2425
   4   2.0000     -15.630263      -425.3211
   5   2.0000     -15.607433      -424.6998
   6   2.0000     -11.393781      -310.0406
   7   2.0000     -11.384460      -309.7869
   8   2.0000     -11.338825      -308.5451
   9   2.0000     -11.311687      -307.8066
  10   2.0000     -11.306002      -307.6520
  11   2.0000     -11.304497      -307.6110
  12   2.0000     -11.260987      -306.4270
  13   2.0000     -11.259865      -306.3965
  14   2.0000     -11.258569      -306.3612
  15   2.0000     -11.251719      -306.1748
  16   2.0000     -11.241881      -305.9071
  17   2.0000     -11.237732      -305.7942
  18   2.0000     -11.234440      -305.7047
  19   2.0000     -11.230778      -305.6050
  20   2.0000      -8.894771      -242.0390
  21   2.0000      -6.576345      -178.9514
  22   2.0000      -6.574345      -178.8970
  23   2.0000      -6.573753      -178.8809
  24   2.0000      -1.450581       -39.4723
  25   2.0000      -1.415156       -38.5084
  26   2.0000      -1.357070       -36.9277
  27   2.0000      -1.341408       -36.5016
  28   2.0000      -1.238617       -33.7045
  29   2.0000      -1.156102       -31.4591
  30   2.0000      -1.122536       -30.5457
  31   2.0000      -1.044414       -28.4200
  32   2.0000      -1.033228       -28.1156
  33   2.0000      -1.013647       -27.5827
  34   2.0000      -1.002019       -27.2663
  35   2.0000      -0.987294       -26.8656
  36   2.0000      -0.923514       -25.1301
  37   2.0000      -0.895472       -24.3670
  38   2.0000      -0.849384       -23.1129
  39   2.0000      -0.838214       -22.8089
  40   2.0000      -0.831810       -22.6347
  41   2.0000      -0.818996       -22.2860
  42   2.0000      -0.751736       -20.4558
  43   2.0000      -0.735524       -20.0146
  44   2.0000      -0.728512       -19.8238
  45   2.0000      -0.693422       -18.8690
  46   2.0000      -0.686658       -18.6849
  47   2.0000      -0.677970       -18.4485
  48   2.0000      -0.671977       -18.2854
  49   2.0000      -0.662663       -18.0320
  50   2.0000      -0.653302       -17.7773
  51   2.0000      -0.646579       -17.5943
  52   2.0000      -0.636020       -17.3070
  53   2.0000      -0.612689       -16.6721
  54   2.0000      -0.603952       -16.4344
  55   2.0000      -0.601413       -16.3653
  56   2.0000      -0.599045       -16.3008
  57   2.0000      -0.582108       -15.8400
  58   2.0000      -0.575503       -15.6602
  59   2.0000      -0.563120       -15.3233
  60   2.0000      -0.559316       -15.2198
  61   2.0000      -0.550018       -14.9668
  62   2.0000      -0.545334       -14.8393
  63   2.0000      -0.528707       -14.3868
  64   2.0000      -0.519659       -14.1407
  65   2.0000      -0.511836       -13.9278
  66   2.0000      -0.498618       -13.5681
  67   2.0000      -0.493909       -13.4400
  68   2.0000      -0.482121       -13.1192
  69   2.0000      -0.464257       -12.6331
  70   2.0000      -0.457837       -12.4584
  71   2.0000      -0.451438       -12.2842
  72   2.0000      -0.354554        -9.6479
  73   2.0000      -0.347683        -9.4609
  74   2.0000      -0.328765        -8.9461
  75   2.0000      -0.319312        -8.6889
  76   2.0000      -0.318460        -8.6657
  77   0.0000       0.072789         1.9807
  78   0.0000       0.107098         2.9143
  79   0.0000       0.118885         3.2350
  80   0.0000       0.132926         3.6171
  81   0.0000       0.137913         3.7528

MULLIKEN ATOMIC CHARGES
-----------------------
   0 C :   -0.326132
   1 C :    0.037740
   2 O :   -0.376934
   3 C :    0.455620
   4 O :   -0.394761
   5 C :   -0.216453
   6 C :    0.151415
   7 C :   -0.282728
   8 N :   -0.127267
   9 C :    0.206505
  10 S :   -0.439974
  11 N :   -0.211575
  12 C :    0.060721
  13 C :    0.016927
  14 C :   -0.170833
  15 C :   -0.135747
  16 C :   -0.277151
  17 C :    0.320285
  18 O :   -0.359368
  19 C :   -0.261066
  20 H :    0.123814
  21 H :    0.114824
  22 H :    0.097259
  23 H :    0.109578
  24 H :    0.109675
  25 H :    0.120838
  26 H :    0.130901
  27 H :    0.104176
  28 H :    0.197922
  29 H :    0.199343
  30 H :    0.156775
  31 H :    0.165224
  32 H :    0.161817
  33 H :    0.130713
  34 H :    0.240550
  35 H :    0.167366
Sum of atomic charges:    0.0000000

LOEWDIN ATOMIC CHARGES
----------------------
   0 C :    0.104059
   1 C :   -0.020067
   2 O :    0.291511
   3 C :   -0.420871
   4 O :    0.122554
   5 C :   -0.095109
   6 C :   -0.067254
   7 C :    0.126237
   8 N :    0.406024
   9 C :   -0.458169
  10 S :   -0.036026
  11 N :    0.396263
  12 C :   -0.048253
  13 C :   -0.043388
  14 C :    0.024100
  15 C :    0.041955
  16 C :   -0.001003
  17 C :   -0.194030
  18 O :    0.393810
  19 C :    0.029654
  20 H :   -0.023962
  21 H :   -0.023756
  22 H :   -0.030561
  23 H :   -0.025985
  24 H :   -0.023287
  25 H :   -0.012463
  26 H :   -0.006651
  27 H :   -0.020324
  28 H :   -0.058422
  29 H :   -0.063379
  30 H :   -0.006903
  31 H :   -0.022751
  32 H :   -0.020042
  33 H :   -0.035493
  34 H :   -0.154179
  35 H :   -0.023840

  Mayer bond orders larger than 0.100000
B(  0-C ,  1-C ) :   0.9595 B(  0-C , 20-H ) :   0.9664 B(  0-C , 21-H ) :   0.9775
B(  0-C , 22-H ) :   0.9734 B(  1-C ,  2-O ) :   0.9013 B(  1-C , 23-H ) :   0.9836
B(  1-C , 24-H ) :   0.9831 B(  2-O ,  3-C ) :   1.0775 B(  3-C ,  4-O ) :   2.0391
B(  3-C ,  5-C ) :   1.0121 B(  5-C ,  6-C ) :   1.6786 B(  5-C , 12-C ) :   0.9453
B(  6-C ,  7-C ) :   0.9534 B(  6-C ,  8-N ) :   1.1388 B(  7-C , 25-H ) :   0.9649
B(  7-C , 26-H ) :   0.9652 B(  7-C , 27-H ) :   0.9898 B(  8-N ,  9-C ) :   1.1843
B(  8-N , 28-H ) :   0.9471 B(  9-C , 10-S ) :   1.6125 B(  9-C , 11-N ) :   1.3019
B( 11-N , 12-C ) :   0.9810 B( 11-N , 29-H ) :   0.9488 B( 12-C , 13-C ) :   0.9646
B( 12-C , 30-H ) :   0.9954 B( 13-C , 14-C ) :   1.3833 B( 13-C , 19-C ) :   1.3592
B( 14-C , 15-C ) :   1.3975 B( 14-C , 31-H ) :   0.9606 B( 15-C , 16-C ) :   1.3600
B( 15-C , 32-H ) :   0.9709 B( 16-C , 17-C ) :   1.3321 B( 16-C , 33-H ) :   0.9849
B( 17-C , 18-O ) :   1.1057 B( 17-C , 19-C ) :   1.3622 B( 18-O , 34-H ) :   0.9801
B( 19-C , 35-H ) :   0.9607

MP2 TOTAL ENERGY:    -1274.328323159 Eh
FINAL SINGLE POINT ENERGY     -1274.328323159421

DIPOLE MOMENT
-------------
                                X             Y             Z
Electronic contribution:      9.33288       7.91884       7.27737
Nuclear contribution   :    -10.71676      -9.18408      -8.03491
                        -----------------------------------------
Total Dipole Moment    :     -1.38388      -1.26523      -0.75754
                        -----------------------------------------
Magnitude (a.u.)       :      2.02233
Magnitude (Debye)      :      5.14034

Rotational constants in cm-1:     0.011162     0.009351     0.006352
Rotational constants in MHz :   334.614664   280.323385   190.414982

                             ****ORCA TERMINATED NORMALLY****
TOTAL RUN TIME: 0 days 1 hours 47 minutes 49 seconds 458 msec
