                         Program Version 4.2.0 -  RELEASE  -
|  1> ! ri-mp2 cc-pvtz cc-pvtz/c TightSCF NoKeepInts
|  2>
|  3> %scf
|  4>   MaxCore 4096
|  5> end
|  6> *xyz  0  1
|  7>     C       15.3954418   14.1032499   14.7093549
|  8>     C       14.8625567   15.3237233   15.4780713
|  9>     O       15.9815076   16.1915073   15.7280965
| 10>     C       15.8169861   17.5464099   15.6716923
| 11>     O       14.9838795   18.0693063   14.9513953
| 12>     C       16.6953068   18.2757609   16.6528984
| 13>     C       16.8666205   19.6200289   16.5665931
| 14>     C       16.0695518   20.5924076   15.7217321
| 15>     N       17.8726117   20.2653080   17.2895058
| 16>     C       18.8684074   19.6222271   17.9735553
| 17>     S       20.0854348   20.4477201   18.7305863
| 18>     N       18.8171110   18.2513380   17.9812452
| 19>     C       17.7198411   17.4327916   17.4315326
| 20>     C       17.1011613   16.5066418   18.4708357
| 21>     C       17.2855337   15.1139428   18.3904046
| 22>     C       16.7107041   14.2615623   19.3480604
| 23>     C       15.9491503   14.8071105   20.3959003
| 24>     C       15.7682101   16.1947129   20.4803964
| 25>     O       15.0340681   16.7239382   21.4912869
| 26>     C       16.3406078   17.0402982   19.5249477
| 27>     H       14.5818299   13.4007641   14.4916279
| 28>     H       16.1562831   13.5770248   15.2989025
| 29>     H       15.8453108   14.4131973   13.7577906
| 30>     H       14.0966328   15.8164147   14.8637738
| 31>     H       14.4025935   15.0159356   16.4263026
| 32>     H       14.9957927   20.4895184   15.9247186
| 33>     H       16.2217647   20.3920166   14.6534943
| 34>     H       16.3367870   21.6400381   15.9034720
| 35>     H       17.9344448   21.2707558   17.2733756
| 36>     H       19.5478466   17.8056243   18.5214408
| 37>     H       18.2676253   16.8543019   16.6740375
| 38>     H       17.8690324   14.6914583   17.5766371
| 39>     H       16.8563067   13.1850865   19.2768332
| 40>     H       15.5039078   14.1531651   21.1384958
| 41>     H       14.7513750   15.9925658   22.0605266
| 42>     H       16.1947747   18.1121470   19.6084798
| 43> *
| 44>
| 45>                          ****END OF INPUT****

CARTESIAN COORDINATES (ANGSTROEM)
---------------------------------
  C     15.395442   14.103250   14.709355
  C     14.862557   15.323723   15.478071
  O     15.981508   16.191507   15.728096
  C     15.816986   17.546410   15.671692
  O     14.983880   18.069306   14.951395
  C     16.695307   18.275761   16.652898
  C     16.866620   19.620029   16.566593
  C     16.069552   20.592408   15.721732
  N     17.872612   20.265308   17.289506
  C     18.868407   19.622227   17.973555
  S     20.085435   20.447720   18.730586
  N     18.817111   18.251338   17.981245
  C     17.719841   17.432792   17.431533
  C     17.101161   16.506642   18.470836
  C     17.285534   15.113943   18.390405
  C     16.710704   14.261562   19.348060
  C     15.949150   14.807111   20.395900
  C     15.768210   16.194713   20.480396
  O     15.034068   16.723938   21.491287
  C     16.340608   17.040298   19.524948
  H     14.581830   13.400764   14.491628
  H     16.156283   13.577025   15.298903
  H     15.845311   14.413197   13.757791
  H     14.096633   15.816415   14.863774
  H     14.402593   15.015936   16.426303
  H     14.995793   20.489518   15.924719
  H     16.221765   20.392017   14.653494
  H     16.336787   21.640038   15.903472
  H     17.934445   21.270756   17.273376
  H     19.547847   17.805624   18.521441
  H     18.267625   16.854302   16.674038
  H     17.869032   14.691458   17.576637
  H     16.856307   13.185087   19.276833
  H     15.503908   14.153165   21.138496
  H     14.751375   15.992566   22.060527
  H     16.194775   18.112147   19.608480

 Total Charge           Charge          ....    0
 Multiplicity           Mult            ....    1
 Number of Electrons    NEL             ....  154
 Basis Dimension        Dim             ....  828

ORBITAL ENERGIES
----------------

  NO   OCC          E(Eh)            E(eV)
   0   2.0000     -91.889295     -2500.4348
   1   2.0000     -20.597256      -560.4798
   2   2.0000     -20.596937      -560.4711
   3   2.0000     -20.541872      -558.9728
   4   2.0000     -15.629663      -425.3048
   5   2.0000     -15.607412      -424.6993
   6   2.0000     -11.394319      -310.0552
   7   2.0000     -11.383940      -309.7727
   8   2.0000     -11.337708      -308.5147
   9   2.0000     -11.314584      -307.8855
  10   2.0000     -11.307952      -307.7050
  11   2.0000     -11.294752      -307.3458
  12   2.0000     -11.261604      -306.4438
  13   2.0000     -11.258706      -306.3650
  14   2.0000     -11.256048      -306.2926
  15   2.0000     -11.251882      -306.1793
  16   2.0000     -11.244451      -305.9771
  17   2.0000     -11.239816      -305.8509
  18   2.0000     -11.239526      -305.8430
  19   2.0000     -11.229021      -305.5572
  20   2.0000      -8.894360      -242.0278
  21   2.0000      -6.575931      -178.9402
  22   2.0000      -6.573935      -178.8859
  23   2.0000      -6.573342      -178.8697
  24   2.0000      -1.450388       -39.4671
  25   2.0000      -1.416929       -38.5566
  26   2.0000      -1.354215       -36.8501
  27   2.0000      -1.340736       -36.4833
  28   2.0000      -1.238629       -33.7048
  29   2.0000      -1.158349       -31.5203
  30   2.0000      -1.121416       -30.5153
  31   2.0000      -1.043612       -28.3981
  32   2.0000      -1.039322       -28.2814
  33   2.0000      -1.015898       -27.6440
  34   2.0000      -0.996602       -27.1189
  35   2.0000      -0.985025       -26.8039
  36   2.0000      -0.922274       -25.0963
  37   2.0000      -0.886789       -24.1307
  38   2.0000      -0.846755       -23.0414
  39   2.0000      -0.838556       -22.8183
  40   2.0000      -0.834992       -22.7213
  41   2.0000      -0.819608       -22.3027
  42   2.0000      -0.764427       -20.8011
  43   2.0000      -0.734353       -19.9828
  44   2.0000      -0.722246       -19.6533
  45   2.0000      -0.695885       -18.9360
  46   2.0000      -0.687696       -18.7131
  47   2.0000      -0.679186       -18.4816
  48   2.0000      -0.674482       -18.3536
  49   2.0000      -0.656716       -17.8701
  50   2.0000      -0.647921       -17.6308
  51   2.0000      -0.640195       -17.4206
  52   2.0000      -0.630653       -17.1609
  53   2.0000      -0.612762       -16.6741
  54   2.0000      -0.607420       -16.5287
  55   2.0000      -0.600743       -16.3471
  56   2.0000      -0.599528       -16.3140
  57   2.0000      -0.578132       -15.7318
  58   2.0000      -0.570133       -15.5141
  59   2.0000      -0.565749       -15.3948
  60   2.0000      -0.561979       -15.2922
  61   2.0000      -0.542131       -14.7521
  62   2.0000      -0.537076       -14.6146
  63   2.0000      -0.527453       -14.3527
  64   2.0000      -0.524806       -14.2807
  65   2.0000      -0.513651       -13.9771
  66   2.0000      -0.501247       -13.6396
  67   2.0000      -0.496416       -13.5082
  68   2.0000      -0.486145       -13.2287
  69   2.0000      -0.464610       -12.6427
  70   2.0000      -0.456984       -12.4352
  71   2.0000      -0.446683       -12.1549
  72   2.0000      -0.353318        -9.6143
  73   2.0000      -0.350570        -9.5395
  74   2.0000      -0.328443        -8.9374
  75   2.0000      -0.322006        -8.7622
  76   2.0000      -0.318490        -8.6665
  77   0.0000       0.075383         2.0513
  78   0.0000       0.103862         2.8262
  79   0.0000       0.124570         3.3897
  80   0.0000       0.131783         3.5860
  81   0.0000       0.135264         3.6807

MULLIKEN ATOMIC CHARGES
-----------------------
   0 C :   -0.263824
   1 C :    0.010671
   2 O :   -0.356157
   3 C :    0.454333
   4 O :   -0.431475
   5 C :   -0.237820
   6 C :    0.171824
   7 C :   -0.267685
   8 N :   -0.125886
   9 C :    0.209821
  10 S :   -0.440993
  11 N :   -0.215257
  12 C :    0.062392
  13 C :    0.039647
  14 C :   -0.184747
  15 C :   -0.133422
  16 C :   -0.276882
  17 C :    0.316179
  18 O :   -0.356385
  19 C :   -0.248340
  20 H :    0.090113
  21 H :    0.089575
  22 H :    0.099041
  23 H :    0.127476
  24 H :    0.106248
  25 H :    0.133866
  26 H :    0.129234
  27 H :    0.094539
  28 H :    0.199902
  29 H :    0.200479
  30 H :    0.152926
  31 H :    0.154606
  32 H :    0.161342
  33 H :    0.130761
  34 H :    0.240622
  35 H :    0.163274
Sum of atomic charges:   -0.0000000

LOEWDIN ATOMIC CHARGES
----------------------
   0 C :    0.105975
   1 C :   -0.014309
   2 O :    0.308522
   3 C :   -0.415355
   4 O :    0.098132
   5 C :   -0.096757
   6 C :   -0.055743
   7 C :    0.131427
   8 N :    0.407318
   9 C :   -0.456588
  10 S :   -0.035865
  11 N :    0.394621
  12 C :   -0.054670
  13 C :   -0.039619
  14 C :    0.017210
  15 C :    0.038322
  16 C :   -0.001072
  17 C :   -0.189813
  18 O :    0.395219
  19 C :    0.033069
  20 H :   -0.025682
  21 H :   -0.031086
  22 H :   -0.025189
  23 H :   -0.027713
  24 H :   -0.030440
  25 H :   -0.004144
  26 H :   -0.004849
  27 H :   -0.023628
  28 H :   -0.057085
  29 H :   -0.064311
  30 H :   -0.013337
  31 H :   -0.029616
  32 H :   -0.021286
  33 H :   -0.035320
  34 H :   -0.153852
  35 H :   -0.022486

  Mayer bond orders larger than 0.100000
B(  0-C ,  1-C ) :   0.9753 B(  0-C , 20-H ) :   0.9763 B(  0-C , 21-H ) :   0.9799
B(  0-C , 22-H ) :   0.9782 B(  1-C ,  2-O ) :   0.8823 B(  1-C , 23-H ) :   0.9752
B(  1-C , 24-H ) :   0.9732 B(  2-O ,  3-C ) :   1.1485 B(  3-C ,  4-O ) :   1.9806
B(  3-C ,  5-C ) :   1.0662 B(  5-C ,  6-C ) :   1.6362 B(  5-C , 12-C ) :   0.9558
B(  6-C ,  7-C ) :   0.9653 B(  6-C ,  8-N ) :   1.1539 B(  7-C , 25-H ) :   0.9608
B(  7-C , 26-H ) :   0.9589 B(  7-C , 27-H ) :   0.9906 B(  8-N ,  9-C ) :   1.1870
B(  8-N , 28-H ) :   0.9464 B(  9-C , 10-S ) :   1.6073 B(  9-C , 11-N ) :   1.3088
B( 11-N , 12-C ) :   0.9697 B( 11-N , 29-H ) :   0.9484 B( 12-C , 13-C ) :   0.9606
B( 12-C , 30-H ) :   1.0013 B( 13-C , 14-C ) :   1.3547 B( 13-C , 19-C ) :   1.3803
B( 14-C , 15-C ) :   1.3916 B( 14-C , 31-H ) :   0.9710 B( 15-C , 16-C ) :   1.3594
B( 15-C , 32-H ) :   0.9704 B( 16-C , 17-C ) :   1.3342 B( 16-C , 33-H ) :   0.9849
B( 17-C , 18-O ) :   1.1054 B( 17-C , 19-C ) :   1.3645 B( 18-O , 34-H ) :   0.9798
B( 19-C , 35-H ) :   0.9594

MP2 TOTAL ENERGY:    -1274.340258422 Eh
FINAL SINGLE POINT ENERGY     -1274.340258422043

DIPOLE MOMENT
-------------
                                X             Y             Z
Electronic contribution:      8.84314      11.03430       8.69984
Nuclear contribution   :    -10.03663     -12.63881      -8.91983
                        -----------------------------------------
Total Dipole Moment    :     -1.19349      -1.60451      -0.21999
                        -----------------------------------------
Magnitude (a.u.)       :      2.01178
Magnitude (Debye)      :      5.11355

Rotational constants in cm-1:     0.011321     0.008425     0.005897
Rotational constants in MHz :   339.389380   252.586698   176.782829

                             ****ORCA TERMINATED NORMALLY****
TOTAL RUN TIME: 0 days 1 hours 43 minutes 42 seconds 37 msec
