                         Program Version 4.2.0 -  RELEASE  -
|  1> ! ri-mp2 cc-pvtz cc-pvtz/c TightSCF NoKeepInts
|  2>
|  3> %scf
|  4>   MaxCore 4096
|  5> end
|  6> *xyz  0  1
|  7>     C       14.6087056   14.6507105   14.6117971
|  8>     C       14.6310921   16.0853067   15.1709768
|  9>     O       15.8763975   16.7029769   14.8059832
| 10>     C       16.9135406   16.5764466   15.6791609
| 11>     O       17.5119875   15.5240287   15.8156157
| 12>     C       17.1258186   17.7596458   16.5776846
| 13>     C       16.9373571   19.0370010   16.1551916
| 14>     C       16.2997268   19.5006233   14.8603778
| 15>     N       17.3997110   20.1142640   16.9151921
| 16>     C       18.2458329   19.9995218   17.9853385
| 17>     S       18.8394510   21.3264285   18.7739782
| 18>     N       18.5922082   18.7245786   18.3558386
| 19>     C       18.0135927   17.4870862   17.7969708
| 20>     C       17.3425411   16.6060292   18.8422060
| 21>     C       17.7049966   15.2540840   18.9794398
| 22>     C       17.0809882   14.4408198   19.9401935
| 23>     C       16.0863056   14.9844878   20.7710815
| 24>     C       15.7211259   16.3308143   20.6343330
| 25>     O       14.7564849   16.8568302   21.4304890
| 26>     C       16.3432238   17.1374983   19.6760652
| 27>     H       15.3883797   14.0360583   15.0793476
| 28>     H       14.7776493   14.6546944   13.5278085
| 29>     H       13.6396754   14.1760684   14.8073570
| 30>     H       13.8026641   16.6502110   14.7246205
| 31>     H       14.4945265   16.0784404   16.2615147
| 32>     H       16.7693877   19.0124649   13.9968150
| 33>     H       16.3943652   20.5821850   14.7038243
| 34>     H       15.2299126   19.2595095   14.8445255
| 35>     H       17.1750127   21.0570726   16.6399728
| 36>     H       19.2031795   18.6669551   19.1609232
| 37>     H       18.9209313   17.0032087   17.4063967
| 38>     H       18.4632485   14.8290283   18.3255921
| 39>     H       17.3660203   13.3943127   20.0330731
| 40>     H       15.6009881   14.3593511   21.5131996
| 41>     H       14.4806652   16.1632483   22.0485004
| 42>     H       16.0493063   18.1780088   19.5866151
| 43> *
| 44>
| 45>                          ****END OF INPUT****

CARTESIAN COORDINATES (ANGSTROEM)
---------------------------------
  C     14.608706   14.650711   14.611797
  C     14.631092   16.085307   15.170977
  O     15.876397   16.702977   14.805983
  C     16.913541   16.576447   15.679161
  O     17.511988   15.524029   15.815616
  C     17.125819   17.759646   16.577685
  C     16.937357   19.037001   16.155192
  C     16.299727   19.500623   14.860378
  N     17.399711   20.114264   16.915192
  C     18.245833   19.999522   17.985339
  S     18.839451   21.326428   18.773978
  N     18.592208   18.724579   18.355839
  C     18.013593   17.487086   17.796971
  C     17.342541   16.606029   18.842206
  C     17.704997   15.254084   18.979440
  C     17.080988   14.440820   19.940193
  C     16.086306   14.984488   20.771082
  C     15.721126   16.330814   20.634333
  O     14.756485   16.856830   21.430489
  C     16.343224   17.137498   19.676065
  H     15.388380   14.036058   15.079348
  H     14.777649   14.654694   13.527809
  H     13.639675   14.176068   14.807357
  H     13.802664   16.650211   14.724621
  H     14.494526   16.078440   16.261515
  H     16.769388   19.012465   13.996815
  H     16.394365   20.582185   14.703824
  H     15.229913   19.259509   14.844525
  H     17.175013   21.057073   16.639973
  H     19.203180   18.666955   19.160923
  H     18.920931   17.003209   17.406397
  H     18.463248   14.829028   18.325592
  H     17.366020   13.394313   20.033073
  H     15.600988   14.359351   21.513200
  H     14.480665   16.163248   22.048500
  H     16.049306   18.178009   19.586615

 Total Charge           Charge          ....    0
 Multiplicity           Mult            ....    1
 Number of Electrons    NEL             ....  154
 Basis Dimension        Dim             ....  828

ORBITAL ENERGIES
----------------

  NO   OCC          E(Eh)            E(eV)
   0   2.0000     -91.889764     -2500.4476
   1   2.0000     -20.594612      -560.4079
   2   2.0000     -20.587293      -560.2087
   3   2.0000     -20.553312      -559.2840
   4   2.0000     -15.630736      -425.3339
   5   2.0000     -15.607346      -424.6975
   6   2.0000     -11.395001      -310.0737
   7   2.0000     -11.384490      -309.7877
   8   2.0000     -11.340160      -308.5814
   9   2.0000     -11.310867      -307.7843
  10   2.0000     -11.305465      -307.6374
  11   2.0000     -11.305366      -307.6346
  12   2.0000     -11.261344      -306.4367
  13   2.0000     -11.260322      -306.4089
  14   2.0000     -11.258001      -306.3458
  15   2.0000     -11.250777      -306.1492
  16   2.0000     -11.240885      -305.8800
  17   2.0000     -11.237164      -305.7788
  18   2.0000     -11.233643      -305.6830
  19   2.0000     -11.222760      -305.3868
  20   2.0000      -8.894837      -242.0408
  21   2.0000      -6.576410      -178.9532
  22   2.0000      -6.574410      -178.8988
  23   2.0000      -6.573818      -178.8827
  24   2.0000      -1.452631       -39.5281
  25   2.0000      -1.414368       -38.4869
  26   2.0000      -1.359817       -37.0025
  27   2.0000      -1.341656       -36.5083
  28   2.0000      -1.238679       -33.7062
  29   2.0000      -1.155262       -31.4363
  30   2.0000      -1.122504       -30.5449
  31   2.0000      -1.043989       -28.4084
  32   2.0000      -1.032967       -28.1084
  33   2.0000      -1.012837       -27.5607
  34   2.0000      -1.000796       -27.2330
  35   2.0000      -0.985609       -26.8198
  36   2.0000      -0.922842       -25.1118
  37   2.0000      -0.884540       -24.0696
  38   2.0000      -0.850927       -23.1549
  39   2.0000      -0.839048       -22.8317
  40   2.0000      -0.831077       -22.6147
  41   2.0000      -0.828497       -22.5446
  42   2.0000      -0.753235       -20.4966
  43   2.0000      -0.734537       -19.9878
  44   2.0000      -0.728658       -19.8278
  45   2.0000      -0.693017       -18.8580
  46   2.0000      -0.686911       -18.6918
  47   2.0000      -0.680435       -18.5156
  48   2.0000      -0.671925       -18.2840
  49   2.0000      -0.665877       -18.1194
  50   2.0000      -0.648053       -17.6344
  51   2.0000      -0.644733       -17.5441
  52   2.0000      -0.635687       -17.2979
  53   2.0000      -0.606646       -16.5077
  54   2.0000      -0.601240       -16.3606
  55   2.0000      -0.598151       -16.2765
  56   2.0000      -0.593440       -16.1483
  57   2.0000      -0.585449       -15.9309
  58   2.0000      -0.575779       -15.6677
  59   2.0000      -0.571065       -15.5395
  60   2.0000      -0.561635       -15.2829
  61   2.0000      -0.551526       -15.0078
  62   2.0000      -0.538422       -14.6512
  63   2.0000      -0.519216       -14.1286
  64   2.0000      -0.517835       -14.0910
  65   2.0000      -0.511688       -13.9237
  66   2.0000      -0.501619       -13.6497
  67   2.0000      -0.496089       -13.4993
  68   2.0000      -0.481509       -13.1025
  69   2.0000      -0.464664       -12.6442
  70   2.0000      -0.457260       -12.4427
  71   2.0000      -0.450828       -12.2676
  72   2.0000      -0.355048        -9.6613
  73   2.0000      -0.347354        -9.4520
  74   2.0000      -0.328788        -8.9468
  75   2.0000      -0.319047        -8.6817
  76   2.0000      -0.317595        -8.6422
  77   0.0000       0.071849         1.9551
  78   0.0000       0.107700         2.9307
  79   0.0000       0.120328         3.2743
  80   0.0000       0.133829         3.6417
  81   0.0000       0.138701         3.7742

MULLIKEN ATOMIC CHARGES
-----------------------
   0 C :   -0.264385
   1 C :    0.035593
   2 O :   -0.374867
   3 C :    0.452250
   4 O :   -0.395073
   5 C :   -0.202517
   6 C :    0.154056
   7 C :   -0.281212
   8 N :   -0.127620
   9 C :    0.206351
  10 S :   -0.439840
  11 N :   -0.211515
  12 C :    0.045593
  13 C :    0.033718
  14 C :   -0.178295
  15 C :   -0.132690
  16 C :   -0.277782
  17 C :    0.314474
  18 O :   -0.358528
  19 C :   -0.257155
  20 H :    0.114680
  21 H :    0.094500
  22 H :    0.087133
  23 H :    0.098642
  24 H :    0.091291
  25 H :    0.130176
  26 H :    0.104173
  27 H :    0.122808
  28 H :    0.199007
  29 H :    0.199833
  30 H :    0.157142
  31 H :    0.163134
  32 H :    0.161414
  33 H :    0.129487
  34 H :    0.240483
  35 H :    0.165542
Sum of atomic charges:   -0.0000000

LOEWDIN ATOMIC CHARGES
----------------------
   0 C :    0.107480
   1 C :   -0.021118
   2 O :    0.295343
   3 C :   -0.421389
   4 O :    0.126388
   5 C :   -0.097574
   6 C :   -0.064673
   7 C :    0.126372
   8 N :    0.405914
   9 C :   -0.458257
  10 S :   -0.035761
  11 N :    0.396162
  12 C :   -0.048886
  13 C :   -0.041817
  14 C :    0.023902
  15 C :    0.041594
  16 C :   -0.001030
  17 C :   -0.193225
  18 O :    0.393238
  19 C :    0.028024
  20 H :   -0.023886
  21 H :   -0.026264
  22 H :   -0.029834
  23 H :   -0.027131
  24 H :   -0.029547
  25 H :   -0.006838
  26 H :   -0.020289
  27 H :   -0.010381
  28 H :   -0.058192
  29 H :   -0.063285
  30 H :   -0.007497
  31 H :   -0.023300
  32 H :   -0.020385
  33 H :   -0.035739
  34 H :   -0.154291
  35 H :   -0.023828

  Mayer bond orders larger than 0.100000
B(  0-C ,  1-C ) :   0.9849 B(  0-C , 20-H ) :   0.9724 B(  0-C , 21-H ) :   0.9768
B(  0-C , 22-H ) :   0.9754 B(  1-C ,  2-O ) :   0.8944 B(  1-C , 23-H ) :   0.9811
B(  1-C , 24-H ) :   0.9700 B(  2-O ,  3-C ) :   1.0610 B(  3-C ,  4-O ) :   2.0290
B(  3-C ,  5-C ) :   1.0311 B(  5-C ,  6-C ) :   1.6658 B(  5-C , 12-C ) :   0.9501
B(  6-C ,  7-C ) :   0.9515 B(  6-C ,  8-N ) :   1.1390 B(  7-C , 25-H ) :   0.9650
B(  7-C , 26-H ) :   0.9898 B(  7-C , 27-H ) :   0.9660 B(  8-N ,  9-C ) :   1.1839
B(  8-N , 28-H ) :   0.9470 B(  9-C , 10-S ) :   1.6116 B(  9-C , 11-N ) :   1.3040
B( 11-N , 12-C ) :   0.9794 B( 11-N , 29-H ) :   0.9485 B( 12-C , 13-C ) :   0.9697
B( 12-C , 30-H ) :   0.9958 B( 13-C , 14-C ) :   1.3801 B( 13-C , 19-C ) :   1.3616
B( 14-C , 15-C ) :   1.3966 B( 14-C , 31-H ) :   0.9622 B( 15-C , 16-C ) :   1.3596
B( 15-C , 32-H ) :   0.9707 B( 16-C , 17-C ) :   1.3329 B( 16-C , 33-H ) :   0.9855
B( 17-C , 18-O ) :   1.1050 B( 17-C , 19-C ) :   1.3661 B( 18-O , 34-H ) :   0.9802
B( 19-C , 35-H ) :   0.9597

MP2 TOTAL ENERGY:    -1274.326401461 Eh
FINAL SINGLE POINT ENERGY     -1274.326401461020

DIPOLE MOMENT
-------------
                                X             Y             Z
Electronic contribution:     10.20347      10.23480       9.51959
Nuclear contribution   :    -11.77325     -11.29837     -10.13126
                        -----------------------------------------
Total Dipole Moment    :     -1.56978      -1.06358      -0.61167
                        -----------------------------------------
Magnitude (a.u.)       :      1.99237
Magnitude (Debye)      :      5.06421

Rotational constants in cm-1:     0.010390     0.009184     0.005823
Rotational constants in MHz :   311.496790   275.330778   174.568268

                             ****ORCA TERMINATED NORMALLY****
TOTAL RUN TIME: 0 days 1 hours 36 minutes 55 seconds 358 msec
