                         Program Version 4.2.0 -  RELEASE  -
|  1> ! ri-mp2 cc-pvtz cc-pvtz/c TightSCF NoKeepInts
|  2>
|  3> %scf
|  4>   MaxCore 4096
|  5> end
|  6> *xyz  0  1
|  7>     C       15.0399028   14.1836307   16.4572183
|  8>     C       15.1625416   15.5843528   15.8343995
|  9>     O       16.5270876   15.7810163   15.4281922
| 10>     C       16.8933091   17.0475191   15.0864490
| 11>     O       16.9726076   17.3531038   13.9110837
| 12>     C       17.0922078   18.0011877   16.2353158
| 13>     C       17.1546016   19.3350964   15.9834476
| 14>     C       16.6563888   20.0561086   14.7474950
| 15>     N       17.6951942   20.2254458   16.9127715
| 16>     C       18.4219012   19.8463092   18.0074528
| 17>     S       19.1507353   20.9480542   19.0024715
| 18>     N       18.5386884   18.4966965   18.2202994
| 19>     C       17.8118840   17.4473225   17.4805492
| 20>     C       17.0066957   16.5643796   18.4210772
| 21>     C       17.5315343   15.3368839   18.8656843
| 22>     C       16.8220557   14.5504691   19.7895139
| 23>     C       15.5794934   14.9963686   20.2720634
| 24>     C       15.0631659   16.2266378   19.8425883
| 25>     O       13.8679649   16.6640981   20.3117366
| 26>     C       15.7765521   17.0123393   18.9319831
| 27>     H       15.2589725   13.4121916   15.7086728
| 28>     H       14.0234405   14.0176934   16.8337175
| 29>     H       15.7375967   14.0563224   17.2894174
| 30>     H       14.4965281   15.6679457   14.9651249
| 31>     H       14.8572713   16.3382289   16.5695048
| 32>     H       17.3936442   19.9833477   13.9371996
| 33>     H       16.4564790   21.1191246   14.9271365
| 34>     H       15.7233928   19.6101111   14.3807803
| 35>     H       17.6498425   21.2174717   16.7419677
| 36>     H       19.0620722   18.2475637   19.0502650
| 37>     H       18.6701152   16.8889413   17.0796915
| 38>     H       18.4935305   14.9917177   18.4954922
| 39>     H       17.2340543   13.6003946   20.1261052
| 40>     H       15.0262457   14.3903670   20.9822388
| 41>     H       13.5641520   16.0268308   20.9761147
| 42>     H       15.3751507   17.9747280   18.6327787
| 43> *
| 44>
| 45>                          ****END OF INPUT****

CARTESIAN COORDINATES (ANGSTROEM)
---------------------------------
  C     15.039903   14.183631   16.457218
  C     15.162542   15.584353   15.834399
  O     16.527088   15.781016   15.428192
  C     16.893309   17.047519   15.086449
  O     16.972608   17.353104   13.911084
  C     17.092208   18.001188   16.235316
  C     17.154602   19.335096   15.983448
  C     16.656389   20.056109   14.747495
  N     17.695194   20.225446   16.912772
  C     18.421901   19.846309   18.007453
  S     19.150735   20.948054   19.002471
  N     18.538688   18.496696   18.220299
  C     17.811884   17.447322   17.480549
  C     17.006696   16.564380   18.421077
  C     17.531534   15.336884   18.865684
  C     16.822056   14.550469   19.789514
  C     15.579493   14.996369   20.272063
  C     15.063166   16.226638   19.842588
  O     13.867965   16.664098   20.311737
  C     15.776552   17.012339   18.931983
  H     15.258972   13.412192   15.708673
  H     14.023440   14.017693   16.833717
  H     15.737597   14.056322   17.289417
  H     14.496528   15.667946   14.965125
  H     14.857271   16.338229   16.569505
  H     17.393644   19.983348   13.937200
  H     16.456479   21.119125   14.927136
  H     15.723393   19.610111   14.380780
  H     17.649842   21.217472   16.741968
  H     19.062072   18.247564   19.050265
  H     18.670115   16.888941   17.079691
  H     18.493530   14.991718   18.495492
  H     17.234054   13.600395   20.126105
  H     15.026246   14.390367   20.982239
  H     13.564152   16.026831   20.976115
  H     15.375151   17.974728   18.632779

 Total Charge           Charge          ....    0
 Multiplicity           Mult            ....    1
 Number of Electrons    NEL             ....  154
 Basis Dimension        Dim             ....  828

ORBITAL ENERGIES
----------------

  NO   OCC          E(Eh)            E(eV)
   0   2.0000     -91.891389     -2500.4918
   1   2.0000     -20.604625      -560.6804
   2   2.0000     -20.583674      -560.1102
   3   2.0000     -20.548784      -559.1608
   4   2.0000     -15.630972      -425.3404
   5   2.0000     -15.609973      -424.7690
   6   2.0000     -11.391188      -309.9700
   7   2.0000     -11.385704      -309.8208
   8   2.0000     -11.338614      -308.5394
   9   2.0000     -11.322325      -308.0961
  10   2.0000     -11.314239      -307.8761
  11   2.0000     -11.296036      -307.3808
  12   2.0000     -11.268749      -306.6383
  13   2.0000     -11.262838      -306.4774
  14   2.0000     -11.259516      -306.3870
  15   2.0000     -11.254170      -306.2415
  16   2.0000     -11.251766      -306.1761
  17   2.0000     -11.246854      -306.0425
  18   2.0000     -11.246811      -306.0413
  19   2.0000     -11.223185      -305.3984
  20   2.0000      -8.896435      -242.0843
  21   2.0000      -6.578000      -178.9965
  22   2.0000      -6.576008      -178.9423
  23   2.0000      -6.575411      -178.9260
  24   2.0000      -1.447752       -39.3953
  25   2.0000      -1.424337       -38.7582
  26   2.0000      -1.354877       -36.8681
  27   2.0000      -1.343416       -36.5562
  28   2.0000      -1.241960       -33.7954
  29   2.0000      -1.165137       -31.7050
  30   2.0000      -1.123635       -30.5757
  31   2.0000      -1.049135       -28.5484
  32   2.0000      -1.032516       -28.0962
  33   2.0000      -1.023534       -27.8518
  34   2.0000      -1.001422       -27.2501
  35   2.0000      -0.988084       -26.8871
  36   2.0000      -0.926684       -25.2163
  37   2.0000      -0.875360       -23.8198
  38   2.0000      -0.851529       -23.1713
  39   2.0000      -0.844960       -22.9925
  40   2.0000      -0.841448       -22.8970
  41   2.0000      -0.833418       -22.6785
  42   2.0000      -0.762392       -20.7458
  43   2.0000      -0.739644       -20.1267
  44   2.0000      -0.725566       -19.7437
  45   2.0000      -0.703172       -19.1343
  46   2.0000      -0.691449       -18.8153
  47   2.0000      -0.680594       -18.5199
  48   2.0000      -0.674167       -18.3450
  49   2.0000      -0.658715       -17.9245
  50   2.0000      -0.648926       -17.6582
  51   2.0000      -0.643015       -17.4973
  52   2.0000      -0.630693       -17.1620
  53   2.0000      -0.623075       -16.9547
  54   2.0000      -0.614487       -16.7211
  55   2.0000      -0.606326       -16.4990
  56   2.0000      -0.603210       -16.4142
  57   2.0000      -0.583623       -15.8812
  58   2.0000      -0.574029       -15.6201
  59   2.0000      -0.567697       -15.4478
  60   2.0000      -0.552741       -15.0408
  61   2.0000      -0.543383       -14.7862
  62   2.0000      -0.534247       -14.5376
  63   2.0000      -0.530709       -14.4413
  64   2.0000      -0.522137       -14.2081
  65   2.0000      -0.516075       -14.0431
  66   2.0000      -0.506125       -13.7724
  67   2.0000      -0.499391       -13.5891
  68   2.0000      -0.484795       -13.1919
  69   2.0000      -0.464618       -12.6429
  70   2.0000      -0.460672       -12.5355
  71   2.0000      -0.446976       -12.1628
  72   2.0000      -0.357751        -9.7349
  73   2.0000      -0.354705        -9.6520
  74   2.0000      -0.331965        -9.0332
  75   2.0000      -0.328481        -8.9384
  76   2.0000      -0.321524        -8.7491
  77   0.0000       0.073206         1.9920
  78   0.0000       0.096453         2.6246
  79   0.0000       0.119717         3.2577
  80   0.0000       0.126677         3.4471
  81   0.0000       0.127804         3.4777

MULLIKEN ATOMIC CHARGES
-----------------------
   0 C :   -0.281888
   1 C :    0.017515
   2 O :   -0.354993
   3 C :    0.458783
   4 O :   -0.380046
   5 C :   -0.301693
   6 C :    0.181504
   7 C :   -0.268338
   8 N :   -0.129311
   9 C :    0.212041
  10 S :   -0.439250
  11 N :   -0.216021
  12 C :    0.059844
  13 C :    0.029288
  14 C :   -0.190904
  15 C :   -0.131185
  16 C :   -0.272104
  17 C :    0.320565
  18 O :   -0.357793
  19 C :   -0.252855
  20 H :    0.108564
  21 H :    0.088601
  22 H :    0.109018
  23 H :    0.112369
  24 H :    0.099714
  25 H :    0.138313
  26 H :    0.094515
  27 H :    0.123320
  28 H :    0.199751
  29 H :    0.201844
  30 H :    0.150638
  31 H :    0.153835
  32 H :    0.166438
  33 H :    0.134253
  34 H :    0.242675
  35 H :    0.172995
Sum of atomic charges:   -0.0000000

LOEWDIN ATOMIC CHARGES
----------------------
   0 C :    0.112690
   1 C :   -0.024826
   2 O :    0.295915
   3 C :   -0.425953
   4 O :    0.126555
   5 C :   -0.105405
   6 C :   -0.057987
   7 C :    0.129568
   8 N :    0.407845
   9 C :   -0.456711
  10 S :   -0.033583
  11 N :    0.395055
  12 C :   -0.054325
  13 C :   -0.038890
  14 C :    0.016812
  15 C :    0.044072
  16 C :    0.002780
  17 C :   -0.190652
  18 O :    0.396321
  19 C :    0.035366
  20 H :   -0.026438
  21 H :   -0.025795
  22 H :   -0.028740
  23 H :   -0.031274
  24 H :   -0.040642
  25 H :   -0.003989
  26 H :   -0.022713
  27 H :   -0.006623
  28 H :   -0.056105
  29 H :   -0.064050
  30 H :   -0.011684
  31 H :   -0.027872
  32 H :   -0.019406
  33 H :   -0.033700
  34 H :   -0.151920
  35 H :   -0.023696

  Mayer bond orders larger than 0.100000
B(  0-C ,  1-C ) :   0.9771 B(  0-C , 20-H ) :   0.9801 B(  0-C , 21-H ) :   0.9758
B(  0-C , 22-H ) :   0.9719 B(  1-C ,  2-O ) :   0.8932 B(  1-C , 23-H ) :   0.9792
B(  1-C , 24-H ) :   0.9647 B(  2-O ,  3-C ) :   1.1234 B(  3-C ,  4-O ) :   2.0869
B(  3-C ,  5-C ) :   1.0160 B(  5-C ,  6-C ) :   1.6348 B(  5-C , 12-C ) :   0.9654
B(  6-C ,  7-C ) :   0.9630 B(  6-C ,  8-N ) :   1.1566 B(  7-C , 25-H ) :   0.9540
B(  7-C , 26-H ) :   0.9866 B(  7-C , 27-H ) :   0.9695 B(  8-N ,  9-C ) :   1.1883
B(  8-N , 28-H ) :   0.9476 B(  9-C , 10-S ) :   1.6072 B(  9-C , 11-N ) :   1.3072
B( 11-N , 12-C ) :   0.9577 B( 11-N , 29-H ) :   0.9476 B( 12-C , 13-C ) :   0.9714
B( 12-C , 30-H ) :   1.0060 B( 13-C , 14-C ) :   1.3568 B( 13-C , 19-C ) :   1.3494
B( 14-C , 15-C ) :   1.3808 B( 14-C , 31-H ) :   0.9744 B( 15-C , 16-C ) :   1.3638
B( 15-C , 32-H ) :   0.9702 B( 16-C , 17-C ) :   1.3315 B( 16-C , 33-H ) :   0.9838
B( 17-C , 18-O ) :   1.1070 B( 17-C , 19-C ) :   1.3618 B( 18-O , 34-H ) :   0.9783
B( 19-C , 35-H ) :   0.9599

MP2 TOTAL ENERGY:    -1274.325188788 Eh
FINAL SINGLE POINT ENERGY     -1274.325188788309

DIPOLE MOMENT
-------------
                                X             Y             Z
Electronic contribution:      8.71374      10.53394       4.31901
Nuclear contribution   :    -10.07376     -11.86092      -3.83228
                        -----------------------------------------
Total Dipole Moment    :     -1.36002      -1.32698       0.48673
                        -----------------------------------------
Magnitude (a.u.)       :      1.96149
Magnitude (Debye)      :      4.98570

Rotational constants in cm-1:     0.012662     0.008638     0.006118
Rotational constants in MHz :   379.593596   258.955147   183.415619

                             ****ORCA TERMINATED NORMALLY****
TOTAL RUN TIME: 0 days 1 hours 48 minutes 6 seconds 930 msec
