                         Program Version 4.2.0 -  RELEASE  -
|  1> ! ri-mp2 cc-pvtz cc-pvtz/c TightSCF NoKeepInts
|  2>
|  3> %scf
|  4>   MaxCore 4096
|  5> end
|  6> *xyz  0  1
|  7>     C       14.1565529   15.2205842   15.3249826
|  8>     C       15.3218815   15.6583486   16.2272082
|  9>     O       16.4534514   15.9009134   15.3687775
| 10>     C       17.0051208   17.1434368   15.2124978
| 11>     O       17.4358860   17.4951392   14.1299079
| 12>     C       17.0436316   18.0230832   16.4270089
| 13>     C       16.8656050   19.3556023   16.2579296
| 14>     C       16.2318119   20.0246377   15.0566971
| 15>     N       17.2684854   20.2726402   17.2297495
| 16>     C       18.0830486   19.9605232   18.2848002
| 17>     S       18.6297279   21.1100141   19.3404183
| 18>     N       18.4437404   18.6415861   18.4078300
| 19>     C       17.8982660   17.5282005   17.6066625
| 20>     C       17.3092081   16.4175068   18.4611288
| 21>     C       17.8476404   15.1183700   18.4157599
| 22>     C       17.3020716   14.0936092   19.2071830
| 23>     C       16.2145634   14.3721816   20.0530563
| 24>     C       15.6838955   15.6683633   20.1072177
| 25>     O       14.6324945   15.9399395   20.9198482
| 26>     C       16.2276961   16.6863760   19.3174619
| 27>     H       13.8990416   16.0137147   14.6119032
| 28>     H       13.2671782   14.9951564   15.9258939
| 29>     H       14.4252147   14.3206719   14.7574323
| 30>     H       15.0238193   16.5482913   16.7953494
| 31>     H       15.5507856   14.8492951   16.9321756
| 32>     H       15.4459117   19.3956921   14.6202600
| 33>     H       16.9834553   20.1949513   14.2744631
| 34>     H       15.7752828   20.9899415   15.3058850
| 35>     H       17.0483357   21.2500613   17.1211050
| 36>     H       19.0356725   18.4396068   19.2041113
| 37>     H       18.8294631   17.1751348   17.1398892
| 38>     H       18.6854455   14.8994286   17.7580289
| 39>     H       17.7217998   13.0896490   19.1631558
| 40>     H       15.7902903   13.5830129   20.6655722
| 41>     H       14.4410502   15.1380935   21.4300046
| 42>     H       15.8094745   17.6862428   19.3766447
| 43> *
| 44>
| 45>                          ****END OF INPUT****

CARTESIAN COORDINATES (ANGSTROEM)
---------------------------------
  C     14.156553   15.220584   15.324983
  C     15.321881   15.658349   16.227208
  O     16.453451   15.900913   15.368777
  C     17.005121   17.143437   15.212498
  O     17.435886   17.495139   14.129908
  C     17.043632   18.023083   16.427009
  C     16.865605   19.355602   16.257930
  C     16.231812   20.024638   15.056697
  N     17.268485   20.272640   17.229749
  C     18.083049   19.960523   18.284800
  S     18.629728   21.110014   19.340418
  N     18.443740   18.641586   18.407830
  C     17.898266   17.528201   17.606662
  C     17.309208   16.417507   18.461129
  C     17.847640   15.118370   18.415760
  C     17.302072   14.093609   19.207183
  C     16.214563   14.372182   20.053056
  C     15.683896   15.668363   20.107218
  O     14.632494   15.939939   20.919848
  C     16.227696   16.686376   19.317462
  H     13.899042   16.013715   14.611903
  H     13.267178   14.995156   15.925894
  H     14.425215   14.320672   14.757432
  H     15.023819   16.548291   16.795349
  H     15.550786   14.849295   16.932176
  H     15.445912   19.395692   14.620260
  H     16.983455   20.194951   14.274463
  H     15.775283   20.989942   15.305885
  H     17.048336   21.250061   17.121105
  H     19.035672   18.439607   19.204111
  H     18.829463   17.175135   17.139889
  H     18.685446   14.899429   17.758029
  H     17.721800   13.089649   19.163156
  H     15.790290   13.583013   20.665572
  H     14.441050   15.138094   21.430005
  H     15.809474   17.686243   19.376645

 Total Charge           Charge          ....    0
 Multiplicity           Mult            ....    1
 Number of Electrons    NEL             ....  154
 Basis Dimension        Dim             ....  828

ORBITAL ENERGIES
----------------

  NO   OCC          E(Eh)            E(eV)
   0   2.0000     -91.890876     -2500.4779
   1   2.0000     -20.605448      -560.7028
   2   2.0000     -20.595403      -560.4294
   3   2.0000     -20.548049      -559.1408
   4   2.0000     -15.628528      -425.2739
   5   2.0000     -15.611107      -424.7998
   6   2.0000     -11.394501      -310.0601
   7   2.0000     -11.385944      -309.8273
   8   2.0000     -11.332326      -308.3683
   9   2.0000     -11.323768      -308.1354
  10   2.0000     -11.316871      -307.9477
  11   2.0000     -11.296494      -307.3932
  12   2.0000     -11.269726      -306.6648
  13   2.0000     -11.264722      -306.5287
  14   2.0000     -11.258186      -306.3508
  15   2.0000     -11.255756      -306.2847
  16   2.0000     -11.254154      -306.2411
  17   2.0000     -11.248502      -306.0873
  18   2.0000     -11.248164      -306.0781
  19   2.0000     -11.227148      -305.5062
  20   2.0000      -8.895941      -242.0709
  21   2.0000      -6.577511      -178.9832
  22   2.0000      -6.575513      -178.9288
  23   2.0000      -6.574921      -178.9127
  24   2.0000      -1.445841       -39.3433
  25   2.0000      -1.425237       -38.7827
  26   2.0000      -1.357885       -36.9499
  27   2.0000      -1.341495       -36.5039
  28   2.0000      -1.241036       -33.7703
  29   2.0000      -1.166940       -31.7541
  30   2.0000      -1.124870       -30.6093
  31   2.0000      -1.051227       -28.6054
  32   2.0000      -1.034571       -28.1521
  33   2.0000      -1.025026       -27.8924
  34   2.0000      -1.002899       -27.2903
  35   2.0000      -0.989256       -26.9190
  36   2.0000      -0.927490       -25.2383
  37   2.0000      -0.880776       -23.9671
  38   2.0000      -0.852666       -23.2022
  39   2.0000      -0.845065       -22.9954
  40   2.0000      -0.843936       -22.9647
  41   2.0000      -0.836723       -22.7684
  42   2.0000      -0.759375       -20.6636
  43   2.0000      -0.740197       -20.1418
  44   2.0000      -0.722562       -19.6619
  45   2.0000      -0.704250       -19.1636
  46   2.0000      -0.693107       -18.8604
  47   2.0000      -0.676800       -18.4167
  48   2.0000      -0.674587       -18.3564
  49   2.0000      -0.671840       -18.2817
  50   2.0000      -0.650385       -17.6979
  51   2.0000      -0.647877       -17.6296
  52   2.0000      -0.636947       -17.3322
  53   2.0000      -0.615118       -16.7382
  54   2.0000      -0.609386       -16.5822
  55   2.0000      -0.604144       -16.4396
  56   2.0000      -0.592399       -16.1200
  57   2.0000      -0.584281       -15.8991
  58   2.0000      -0.577172       -15.7056
  59   2.0000      -0.570441       -15.5225
  60   2.0000      -0.561667       -15.2837
  61   2.0000      -0.553372       -15.0580
  62   2.0000      -0.546053       -14.8589
  63   2.0000      -0.531129       -14.4528
  64   2.0000      -0.523145       -14.2355
  65   2.0000      -0.516982       -14.0678
  66   2.0000      -0.505680       -13.7603
  67   2.0000      -0.501502       -13.6466
  68   2.0000      -0.488403       -13.2901
  69   2.0000      -0.468487       -12.7482
  70   2.0000      -0.453103       -12.3296
  71   2.0000      -0.446708       -12.1555
  72   2.0000      -0.359328        -9.7778
  73   2.0000      -0.352610        -9.5950
  74   2.0000      -0.333004        -9.0615
  75   2.0000      -0.329242        -8.9591
  76   2.0000      -0.320785        -8.7290
  77   0.0000       0.080228         2.1831
  78   0.0000       0.093508         2.5445
  79   0.0000       0.118072         3.2129
  80   0.0000       0.125960         3.4276
  81   0.0000       0.128550         3.4980

MULLIKEN ATOMIC CHARGES
-----------------------
   0 C :   -0.253351
   1 C :    0.009520
   2 O :   -0.320767
   3 C :    0.406425
   4 O :   -0.374841
   5 C :   -0.245786
   6 C :    0.161944
   7 C :   -0.275334
   8 N :   -0.131356
   9 C :    0.210298
  10 S :   -0.439201
  11 N :   -0.208744
  12 C :    0.032576
  13 C :   -0.012122
  14 C :   -0.169446
  15 C :   -0.143316
  16 C :   -0.269012
  17 C :    0.300992
  18 O :   -0.354701
  19 C :   -0.208732
  20 H :    0.092058
  21 H :    0.088985
  22 H :    0.102818
  23 H :    0.100546
  24 H :    0.115037
  25 H :    0.116475
  26 H :    0.142606
  27 H :    0.097233
  28 H :    0.198964
  29 H :    0.199895
  30 H :    0.158115
  31 H :    0.154514
  32 H :    0.166035
  33 H :    0.135887
  34 H :    0.242135
  35 H :    0.173651
Sum of atomic charges:   -0.0000000

LOEWDIN ATOMIC CHARGES
----------------------
   0 C :    0.106476
   1 C :   -0.026286
   2 O :    0.308771
   3 C :   -0.423651
   4 O :    0.123450
   5 C :   -0.101158
   6 C :   -0.074238
   7 C :    0.129253
   8 N :    0.405856
   9 C :   -0.455805
  10 S :   -0.034559
  11 N :    0.395325
  12 C :   -0.054499
  13 C :   -0.044123
  14 C :    0.019421
  15 C :    0.042663
  16 C :    0.001901
  17 C :   -0.191872
  18 O :    0.396980
  19 C :    0.035659
  20 H :   -0.028521
  21 H :   -0.027185
  22 H :   -0.024471
  23 H :   -0.037639
  24 H :   -0.025815
  25 H :   -0.008956
  26 H :   -0.003669
  27 H :   -0.021412
  28 H :   -0.056818
  29 H :   -0.063611
  30 H :   -0.010352
  31 H :   -0.026203
  32 H :   -0.018515
  33 H :   -0.033079
  34 H :   -0.151957
  35 H :   -0.021360

  Mayer bond orders larger than 0.100000
B(  0-C ,  1-C ) :   0.9804 B(  0-C , 20-H ) :   0.9784 B(  0-C , 21-H ) :   0.9776
B(  0-C , 22-H ) :   0.9804 B(  1-C ,  2-O ) :   0.8852 B(  1-C , 23-H ) :   0.9594
B(  1-C , 24-H ) :   0.9743 B(  2-O ,  3-C ) :   1.1845 B(  3-C ,  4-O ) :   2.1114
B(  3-C ,  5-C ) :   0.9507 B(  5-C ,  6-C ) :   1.6773 B(  5-C , 12-C ) :   0.9591
B(  6-C ,  7-C ) :   0.9510 B(  6-C ,  8-N ) :   1.1378 B(  7-C , 25-H ) :   0.9753
B(  7-C , 26-H ) :   0.9553 B(  7-C , 27-H ) :   0.9847 B(  8-N ,  9-C ) :   1.1943
B(  8-N , 28-H ) :   0.9487 B(  9-C , 10-S ) :   1.6133 B(  9-C , 11-N ) :   1.2928
B( 11-N , 12-C ) :   0.9779 B( 11-N , 29-H ) :   0.9476 B( 12-C , 13-C ) :   0.9631
B( 12-C , 30-H ) :   1.0077 B( 13-C , 14-C ) :   1.3648 B( 13-C , 19-C ) :   1.3537
B( 14-C , 15-C ) :   1.3954 B( 14-C , 31-H ) :   0.9721 B( 15-C , 16-C ) :   1.3628
B( 15-C , 32-H ) :   0.9698 B( 16-C , 17-C ) :   1.3276 B( 16-C , 33-H ) :   0.9830
B( 17-C , 18-O ) :   1.1109 B( 17-C , 19-C ) :   1.3674 B( 18-O , 34-H ) :   0.9784
B( 19-C , 35-H ) :   0.9581

MP2 TOTAL ENERGY:    -1274.325781570 Eh
FINAL SINGLE POINT ENERGY     -1274.325781570233

DIPOLE MOMENT
-------------
                                X             Y             Z
Electronic contribution:     10.23623       8.79490       7.20112
Nuclear contribution   :    -11.63111     -10.42013      -6.81382
                        -----------------------------------------
Total Dipole Moment    :     -1.39489      -1.62523       0.38731
                        -----------------------------------------
Magnitude (a.u.)       :      2.17649
Magnitude (Debye)      :      5.53219

Rotational constants in cm-1:     0.011902     0.008888     0.006087
Rotational constants in MHz :   356.822750   266.455065   182.477345

                             ****ORCA TERMINATED NORMALLY****
TOTAL RUN TIME: 0 days 2 hours 6 minutes 43 seconds 618 msec
