                         Program Version 4.2.0 -  RELEASE  -
|  1> ! ri-mp2 cc-pvtz cc-pvtz/c TightSCF NoKeepInts
|  2>
|  3> %scf
|  4>   MaxCore 4096
|  5> end
|  6> *xyz  0  1
|  7>     C       14.5213722   16.1724680   15.9466418
|  8>     C       15.6478908   15.1118694   15.9523355
|  9>     O       16.9371345   15.6043430   15.5021566
| 10>     C       17.1879587   16.9110568   15.1910169
| 11>     O       17.4125872   17.2325716   14.0386463
| 12>     C       17.1156903   17.8763135   16.3424582
| 13>     C       16.9276148   19.1962505   16.0904264
| 14>     C       16.3835382   19.8058075   14.8152874
| 15>     N       17.2163159   20.1664944   17.0515569
| 16>     C       17.9224944   19.9249508   18.1985502
| 17>     S       18.3399015   21.1370698   19.2432471
| 18>     N       18.2886400   18.6221821   18.4256402
| 19>     C       17.8464779   17.4590945   17.6321771
| 20>     C       17.1801063   16.3937087   18.4889381
| 21>     C       17.7768787   15.1294302   18.6504035
| 22>     C       17.1673401   14.1511112   19.4539781
| 23>     C       15.9568837   14.4425419   20.1063722
| 24>     C       15.3692788   15.7065974   19.9591223
| 25>     O       14.2018337   15.9917715   20.5881292
| 26>     C       15.9787320   16.6785844   19.1597373
| 27>     H       14.6735371   16.9410378   16.7113043
| 28>     H       13.5591867   15.6914299   16.1608216
| 29>     H       14.4380299   16.6554241   14.9646872
| 30>     H       15.7370977   14.6857246   16.9581885
| 31>     H       15.3491589   14.2896980   15.2892186
| 32>     H       15.6116915   19.1654095   14.3705073
| 33>     H       17.1837101   19.9155685   14.0715884
| 34>     H       15.9325667   20.7920837   14.9765564
| 35>     H       16.9886826   21.1319134   16.8739918
| 36>     H       18.7931979   18.4718460   19.2904081
| 37>     H       18.8261054   17.0969776   17.2884513
| 38>     H       18.7108025   14.9009018   18.1428316
| 39>     H       17.6329680   13.1734756   19.5690859
| 40>     H       15.4825667   13.6896206   20.7276151
| 41>     H       13.9722310   15.2286174   21.1399303
| 42>     H       15.5167977   17.6560540   19.0659926
| 43> *
| 44>
| 45>                          ****END OF INPUT****

CARTESIAN COORDINATES (ANGSTROEM)
---------------------------------
  C     14.521372   16.172468   15.946642
  C     15.647891   15.111869   15.952336
  O     16.937134   15.604343   15.502157
  C     17.187959   16.911057   15.191017
  O     17.412587   17.232572   14.038646
  C     17.115690   17.876313   16.342458
  C     16.927615   19.196250   16.090426
  C     16.383538   19.805808   14.815287
  N     17.216316   20.166494   17.051557
  C     17.922494   19.924951   18.198550
  S     18.339901   21.137070   19.243247
  N     18.288640   18.622182   18.425640
  C     17.846478   17.459094   17.632177
  C     17.180106   16.393709   18.488938
  C     17.776879   15.129430   18.650403
  C     17.167340   14.151111   19.453978
  C     15.956884   14.442542   20.106372
  C     15.369279   15.706597   19.959122
  O     14.201834   15.991771   20.588129
  C     15.978732   16.678584   19.159737
  H     14.673537   16.941038   16.711304
  H     13.559187   15.691430   16.160822
  H     14.438030   16.655424   14.964687
  H     15.737098   14.685725   16.958188
  H     15.349159   14.289698   15.289219
  H     15.611691   19.165409   14.370507
  H     17.183710   19.915568   14.071588
  H     15.932567   20.792084   14.976556
  H     16.988683   21.131913   16.873992
  H     18.793198   18.471846   19.290408
  H     18.826105   17.096978   17.288451
  H     18.710802   14.900902   18.142832
  H     17.632968   13.173476   19.569086
  H     15.482567   13.689621   20.727615
  H     13.972231   15.228617   21.139930
  H     15.516798   17.656054   19.065993

 Total Charge           Charge          ....    0
 Multiplicity           Mult            ....    1
 Number of Electrons    NEL             ....  154
 Basis Dimension        Dim             ....  828

ORBITAL ENERGIES
----------------

  NO   OCC          E(Eh)            E(eV)
   0   2.0000     -91.890840     -2500.4769
   1   2.0000     -20.604324      -560.6722
   2   2.0000     -20.582131      -560.0683
   3   2.0000     -20.549091      -559.1692
   4   2.0000     -15.629199      -425.2921
   5   2.0000     -15.610096      -424.7723
   6   2.0000     -11.393207      -310.0249
   7   2.0000     -11.385470      -309.8144
   8   2.0000     -11.334218      -308.4197
   9   2.0000     -11.322297      -308.0954
  10   2.0000     -11.314344      -307.8790
  11   2.0000     -11.300590      -307.5047
  12   2.0000     -11.268236      -306.6243
  13   2.0000     -11.262799      -306.4763
  14   2.0000     -11.257215      -306.3244
  15   2.0000     -11.253891      -306.2339
  16   2.0000     -11.252391      -306.1931
  17   2.0000     -11.247354      -306.0561
  18   2.0000     -11.246310      -306.0276
  19   2.0000     -11.232640      -305.6557
  20   2.0000      -8.895899      -242.0697
  21   2.0000      -6.577468      -178.9820
  22   2.0000      -6.575473      -178.9277
  23   2.0000      -6.574878      -178.9115
  24   2.0000      -1.441076       -39.2137
  25   2.0000      -1.424100       -38.7517
  26   2.0000      -1.351977       -36.7892
  27   2.0000      -1.341808       -36.5124
  28   2.0000      -1.240864       -33.7656
  29   2.0000      -1.165210       -31.7070
  30   2.0000      -1.123106       -30.5613
  31   2.0000      -1.049223       -28.5508
  32   2.0000      -1.032551       -28.0971
  33   2.0000      -1.023239       -27.8437
  34   2.0000      -1.002698       -27.2848
  35   2.0000      -0.988633       -26.9021
  36   2.0000      -0.926226       -25.2039
  37   2.0000      -0.898309       -24.4442
  38   2.0000      -0.849817       -23.1247
  39   2.0000      -0.844499       -22.9800
  40   2.0000      -0.842307       -22.9204
  41   2.0000      -0.823496       -22.4085
  42   2.0000      -0.746940       -20.3253
  43   2.0000      -0.738912       -20.1068
  44   2.0000      -0.719313       -19.5735
  45   2.0000      -0.702359       -19.1122
  46   2.0000      -0.689952       -18.7746
  47   2.0000      -0.677215       -18.4279
  48   2.0000      -0.673224       -18.3193
  49   2.0000      -0.659411       -17.9435
  50   2.0000      -0.656489       -17.8640
  51   2.0000      -0.646298       -17.5867
  52   2.0000      -0.639712       -17.4074
  53   2.0000      -0.623406       -16.9637
  54   2.0000      -0.613893       -16.7049
  55   2.0000      -0.606546       -16.5049
  56   2.0000      -0.602387       -16.3918
  57   2.0000      -0.582693       -15.8559
  58   2.0000      -0.574669       -15.6375
  59   2.0000      -0.566654       -15.4194
  60   2.0000      -0.550681       -14.9848
  61   2.0000      -0.549403       -14.9500
  62   2.0000      -0.542140       -14.7524
  63   2.0000      -0.533550       -14.5186
  64   2.0000      -0.529942       -14.4205
  65   2.0000      -0.516308       -14.0495
  66   2.0000      -0.504681       -13.7331
  67   2.0000      -0.492935       -13.4134
  68   2.0000      -0.481359       -13.0984
  69   2.0000      -0.470793       -12.8109
  70   2.0000      -0.450720       -12.2647
  71   2.0000      -0.446912       -12.1611
  72   2.0000      -0.358593        -9.7578
  73   2.0000      -0.351826        -9.5737
  74   2.0000      -0.331520        -9.0211
  75   2.0000      -0.328594        -8.9415
  76   2.0000      -0.320565        -8.7230
  77   0.0000       0.075134         2.0445
  78   0.0000       0.097649         2.6572
  79   0.0000       0.120624         3.2823
  80   0.0000       0.126739         3.4487
  81   0.0000       0.129891         3.5345

MULLIKEN ATOMIC CHARGES
-----------------------
   0 C :   -0.335280
   1 C :    0.029417
   2 O :   -0.364026
   3 C :    0.444747
   4 O :   -0.375789
   5 C :   -0.277397
   6 C :    0.174511
   7 C :   -0.274709
   8 N :   -0.128127
   9 C :    0.207258
  10 S :   -0.439038
  11 N :   -0.209682
  12 C :    0.061036
  13 C :    0.006591
  14 C :   -0.156805
  15 C :   -0.134757
  16 C :   -0.274895
  17 C :    0.315993
  18 O :   -0.356791
  19 C :   -0.267886
  20 H :    0.112805
  21 H :    0.118073
  22 H :    0.110669
  23 H :    0.109405
  24 H :    0.123414
  25 H :    0.121849
  26 H :    0.141310
  27 H :    0.095096
  28 H :    0.198626
  29 H :    0.200134
  30 H :    0.151754
  31 H :    0.153164
  32 H :    0.164870
  33 H :    0.134867
  34 H :    0.242134
  35 H :    0.177457
Sum of atomic charges:    0.0000000

LOEWDIN ATOMIC CHARGES
----------------------
   0 C :    0.103689
   1 C :   -0.009963
   2 O :    0.285730
   3 C :   -0.427791
   4 O :    0.126774
   5 C :   -0.098546
   6 C :   -0.065072
   7 C :    0.129333
   8 N :    0.406807
   9 C :   -0.456917
  10 S :   -0.034412
  11 N :    0.395294
  12 C :   -0.054529
  13 C :   -0.043181
  14 C :    0.021046
  15 C :    0.041618
  16 C :    0.000390
  17 C :   -0.192235
  18 O :    0.396612
  19 C :    0.034886
  20 H :   -0.036285
  21 H :   -0.020627
  22 H :   -0.027893
  23 H :   -0.030076
  24 H :   -0.025265
  25 H :   -0.008704
  26 H :   -0.003920
  27 H :   -0.022465
  28 H :   -0.056748
  29 H :   -0.063694
  30 H :   -0.010825
  31 H :   -0.026165
  32 H :   -0.019004
  33 H :   -0.033533
  34 H :   -0.152260
  35 H :   -0.022069

  Mayer bond orders larger than 0.100000
B(  0-C ,  1-C ) :   0.9618 B(  0-C , 20-H ) :   0.9667 B(  0-C , 21-H ) :   0.9753
B(  0-C , 22-H ) :   0.9743 B(  1-C ,  2-O ) :   0.8977 B(  1-C , 23-H ) :   0.9698
B(  1-C , 24-H ) :   0.9851 B(  2-O ,  3-C ) :   1.1317 B(  3-C ,  4-O ) :   2.0948
B(  3-C ,  5-C ) :   0.9847 B(  5-C ,  6-C ) :   1.6521 B(  5-C , 12-C ) :   0.9603
B(  6-C ,  7-C ) :   0.9556 B(  6-C ,  8-N ) :   1.1438 B(  7-C , 25-H ) :   0.9716
B(  7-C , 26-H ) :   0.9552 B(  7-C , 27-H ) :   0.9859 B(  8-N ,  9-C ) :   1.1915
B(  8-N , 28-H ) :   0.9484 B(  9-C , 10-S ) :   1.6130 B(  9-C , 11-N ) :   1.2975
B( 11-N , 12-C ) :   0.9755 B( 11-N , 29-H ) :   0.9481 B( 12-C , 13-C ) :   0.9597
B( 12-C , 30-H ) :   1.0037 B( 13-C , 14-C ) :   1.3578 B( 13-C , 19-C ) :   1.3588
B( 14-C , 15-C ) :   1.3970 B( 14-C , 31-H ) :   0.9716 B( 15-C , 16-C ) :   1.3578
B( 15-C , 32-H ) :   0.9702 B( 16-C , 17-C ) :   1.3313 B( 16-C , 33-H ) :   0.9836
B( 17-C , 18-O ) :   1.1090 B( 17-C , 19-C ) :   1.3609 B( 18-O , 34-H ) :   0.9786
B( 19-C , 35-H ) :   0.9547

MP2 TOTAL ENERGY:    -1274.319609133 Eh
FINAL SINGLE POINT ENERGY     -1274.319609133108

DIPOLE MOMENT
-------------
                                X             Y             Z
Electronic contribution:      8.98266       7.31954       6.14334
Nuclear contribution   :    -10.29242      -8.96103      -5.85900
                        -----------------------------------------
Total Dipole Moment    :     -1.30975      -1.64148       0.28434
                        -----------------------------------------
Magnitude (a.u.)       :      2.11914
Magnitude (Debye)      :      5.38644

Rotational constants in cm-1:     0.012396     0.009069     0.006389
Rotational constants in MHz :   371.630737   271.873718   191.547395

                             ****ORCA TERMINATED NORMALLY****
TOTAL RUN TIME: 0 days 2 hours 9 minutes 33 seconds 265 msec
