                         Program Version 4.2.0 -  RELEASE  -
|  1> ! ri-mp2 cc-pvtz cc-pvtz/c TightSCF NoKeepInts
|  2>
|  3> %scf
|  4>   MaxCore 4096
|  5> end
|  6> *xyz  0  1
|  7>     C       14.3774678   15.3767244   15.0216259
|  8>     C       15.4783710   15.3260714   16.0987501
|  9>     O       16.7118203   15.8172963   15.5363829
| 10>     C       16.8188380   17.1471470   15.2567209
| 11>     O       16.7177436   17.5429578   14.1098946
| 12>     C       17.0103107   18.0289914   16.4635672
| 13>     C       16.8956040   19.3759917   16.3310831
| 14>     C       16.2215785   20.1284208   15.2021495
| 15>     N       17.4026742   20.2455818   17.2985893
| 16>     C       18.2487498   19.8683900   18.3052115
| 17>     S       18.9162882   20.9648062   19.3478127
| 18>     N       18.5348203   18.5296318   18.3894990
| 19>     C       17.8834859   17.4649327   17.6025354
| 20>     C       17.2443774   16.4077866   18.4907538
| 21>     C       17.7345387   15.0888627   18.5041605
| 22>     C       17.1412063   14.1164918   19.3265982
| 23>     C       16.0557785   14.4683658   20.1473535
| 24>     C       15.5746275   15.7849038   20.1452878
| 25>     O       14.5268754   16.1275645   20.9356572
| 26>     C       16.1651653   16.7500829   19.3234849
| 27>     H       14.1504617   16.4109548   14.7342273
| 28>     H       13.4540297   14.9177523   15.3948704
| 29>     H       14.6924047   14.8313661   14.1229041
| 30>     H       15.1649607   15.9207903   16.9645666
| 31>     H       15.6166179   14.2879479   16.4275947
| 32>     H       15.3081738   19.6138861   14.8781350
| 33>     H       16.8871525   20.1916592   14.3313360
| 34>     H       15.9348454   21.1489497   15.4822215
| 35>     H       17.2297810   21.2353683   17.2224824
| 36>     H       19.1472424   18.2784754   19.1555890
| 37>     H       18.7689969   17.0510168   17.0989891
| 38>     H       18.5708858   14.8142730   17.8659626
| 39>     H       17.5236387   13.0968900   19.3273141
| 40>     H       15.5953216   13.7205248   20.7849812
| 41>     H       14.2976198   15.3527970   21.4711727
| 42>     H       15.7845459   17.7663467   19.3385353
| 43> *
| 44>
| 45>                          ****END OF INPUT****

CARTESIAN COORDINATES (ANGSTROEM)
---------------------------------
  C     14.377468   15.376724   15.021626
  C     15.478371   15.326071   16.098750
  O     16.711820   15.817296   15.536383
  C     16.818838   17.147147   15.256721
  O     16.717744   17.542958   14.109895
  C     17.010311   18.028991   16.463567
  C     16.895604   19.375992   16.331083
  C     16.221578   20.128421   15.202149
  N     17.402674   20.245582   17.298589
  C     18.248750   19.868390   18.305211
  S     18.916288   20.964806   19.347813
  N     18.534820   18.529632   18.389499
  C     17.883486   17.464933   17.602535
  C     17.244377   16.407787   18.490754
  C     17.734539   15.088863   18.504160
  C     17.141206   14.116492   19.326598
  C     16.055778   14.468366   20.147354
  C     15.574627   15.784904   20.145288
  O     14.526875   16.127564   20.935657
  C     16.165165   16.750083   19.323485
  H     14.150462   16.410955   14.734227
  H     13.454030   14.917752   15.394870
  H     14.692405   14.831366   14.122904
  H     15.164961   15.920790   16.964567
  H     15.616618   14.287948   16.427595
  H     15.308174   19.613886   14.878135
  H     16.887152   20.191659   14.331336
  H     15.934845   21.148950   15.482221
  H     17.229781   21.235368   17.222482
  H     19.147242   18.278475   19.155589
  H     18.768997   17.051017   17.098989
  H     18.570886   14.814273   17.865963
  H     17.523639   13.096890   19.327314
  H     15.595322   13.720525   20.784981
  H     14.297620   15.352797   21.471173
  H     15.784546   17.766347   19.338535

 Total Charge           Charge          ....    0
 Multiplicity           Mult            ....    1
 Number of Electrons    NEL             ....  154
 Basis Dimension        Dim             ....  828

ORBITAL ENERGIES
----------------

  NO   OCC          E(Eh)            E(eV)
   0   2.0000     -91.891584     -2500.4971
   1   2.0000     -20.602716      -560.6284
   2   2.0000     -20.583260      -560.0990
   3   2.0000     -20.548791      -559.1610
   4   2.0000     -15.631207      -425.3468
   5   2.0000     -15.610147      -424.7737
   6   2.0000     -11.392581      -310.0079
   7   2.0000     -11.385952      -309.8275
   8   2.0000     -11.338647      -308.5403
   9   2.0000     -11.320620      -308.0497
  10   2.0000     -11.313621      -307.8593
  11   2.0000     -11.296995      -307.4069
  12   2.0000     -11.266753      -306.5839
  13   2.0000     -11.261597      -306.4436
  14   2.0000     -11.259367      -306.3829
  15   2.0000     -11.254400      -306.2478
  16   2.0000     -11.250641      -306.1455
  17   2.0000     -11.245174      -305.9967
  18   2.0000     -11.244732      -305.9847
  19   2.0000     -11.223074      -305.3954
  20   2.0000      -8.896632      -242.0897
  21   2.0000      -6.578197      -179.0018
  22   2.0000      -6.576205      -178.9476
  23   2.0000      -6.575607      -178.9313
  24   2.0000      -1.446285       -39.3554
  25   2.0000      -1.422482       -38.7077
  26   2.0000      -1.354815       -36.8664
  27   2.0000      -1.343283       -36.5526
  28   2.0000      -1.241680       -33.7878
  29   2.0000      -1.163645       -31.6644
  30   2.0000      -1.123223       -30.5644
  31   2.0000      -1.048129       -28.5211
  32   2.0000      -1.030798       -28.0494
  33   2.0000      -1.021664       -27.8009
  34   2.0000      -1.000722       -27.2310
  35   2.0000      -0.988164       -26.8893
  36   2.0000      -0.926042       -25.1989
  37   2.0000      -0.885622       -24.0990
  38   2.0000      -0.850975       -23.1562
  39   2.0000      -0.843698       -22.9582
  40   2.0000      -0.840723       -22.8772
  41   2.0000      -0.830728       -22.6053
  42   2.0000      -0.754107       -20.5203
  43   2.0000      -0.737685       -20.0734
  44   2.0000      -0.718012       -19.5381
  45   2.0000      -0.700934       -19.0734
  46   2.0000      -0.690514       -18.7898
  47   2.0000      -0.679555       -18.4916
  48   2.0000      -0.669617       -18.2212
  49   2.0000      -0.669202       -18.2099
  50   2.0000      -0.650230       -17.6937
  51   2.0000      -0.647318       -17.6144
  52   2.0000      -0.637596       -17.3499
  53   2.0000      -0.612699       -16.6724
  54   2.0000      -0.609237       -16.5782
  55   2.0000      -0.603013       -16.4088
  56   2.0000      -0.601517       -16.3681
  57   2.0000      -0.581522       -15.8240
  58   2.0000      -0.573956       -15.6181
  59   2.0000      -0.569225       -15.4894
  60   2.0000      -0.558714       -15.2034
  61   2.0000      -0.546343       -14.8668
  62   2.0000      -0.540183       -14.6991
  63   2.0000      -0.528563       -14.3829
  64   2.0000      -0.523255       -14.2385
  65   2.0000      -0.516785       -14.0624
  66   2.0000      -0.503929       -13.7126
  67   2.0000      -0.496192       -13.5021
  68   2.0000      -0.480763       -13.0822
  69   2.0000      -0.466596       -12.6967
  70   2.0000      -0.457493       -12.4490
  71   2.0000      -0.445707       -12.1283
  72   2.0000      -0.356750        -9.7077
  73   2.0000      -0.353771        -9.6266
  74   2.0000      -0.331037        -9.0080
  75   2.0000      -0.327901        -8.9226
  76   2.0000      -0.321435        -8.7467
  77   0.0000       0.072442         1.9712
  78   0.0000       0.096784         2.6336
  79   0.0000       0.121651         3.3103
  80   0.0000       0.128053         3.4845
  81   0.0000       0.130060         3.5391

MULLIKEN ATOMIC CHARGES
-----------------------
   0 C :   -0.265591
   1 C :    0.015068
   2 O :   -0.367773
   3 C :    0.457135
   4 O :   -0.384251
   5 C :   -0.261605
   6 C :    0.166385
   7 C :   -0.268665
   8 N :   -0.127848
   9 C :    0.208256
  10 S :   -0.437176
  11 N :   -0.208375
  12 C :    0.046006
  13 C :   -0.006908
  14 C :   -0.147893
  15 C :   -0.146755
  16 C :   -0.270060
  17 C :    0.308004
  18 O :   -0.355966
  19 C :   -0.237120
  20 H :    0.090744
  21 H :    0.093941
  22 H :    0.106809
  23 H :    0.103012
  24 H :    0.115845
  25 H :    0.124203
  26 H :    0.137788
  27 H :    0.094752
  28 H :    0.200010
  29 H :    0.200117
  30 H :    0.152709
  31 H :    0.152299
  32 H :    0.166091
  33 H :    0.134752
  34 H :    0.241588
  35 H :    0.170471
Sum of atomic charges:   -0.0000000

LOEWDIN ATOMIC CHARGES
----------------------
   0 C :    0.106695
   1 C :   -0.024821
   2 O :    0.293487
   3 C :   -0.425855
   4 O :    0.124837
   5 C :   -0.105022
   6 C :   -0.057503
   7 C :    0.130013
   8 N :    0.407598
   9 C :   -0.457987
  10 S :   -0.032867
  11 N :    0.395336
  12 C :   -0.053485
  13 C :   -0.043026
  14 C :    0.022005
  15 C :    0.042218
  16 C :    0.000412
  17 C :   -0.192219
  18 O :    0.396298
  19 C :    0.032078
  20 H :   -0.030052
  21 H :   -0.028077
  22 H :   -0.022568
  23 H :   -0.036290
  24 H :   -0.021996
  25 H :   -0.006855
  26 H :   -0.003906
  27 H :   -0.022739
  28 H :   -0.056278
  29 H :   -0.063371
  30 H :   -0.011383
  31 H :   -0.026470
  32 H :   -0.019437
  33 H :   -0.033960
  34 H :   -0.152553
  35 H :   -0.022255

  Mayer bond orders larger than 0.100000
B(  0-C ,  1-C ) :   0.9833 B(  0-C , 20-H ) :   0.9741 B(  0-C , 21-H ) :   0.9767
B(  0-C , 22-H ) :   0.9780 B(  1-C ,  2-O ) :   0.8841 B(  1-C , 23-H ) :   0.9622
B(  1-C , 24-H ) :   0.9780 B(  2-O ,  3-C ) :   1.1134 B(  3-C ,  4-O ) :   2.0698
B(  3-C ,  5-C ) :   1.0179 B(  5-C ,  6-C ) :   1.6428 B(  5-C , 12-C ) :   0.9575
B(  6-C ,  7-C ) :   0.9643 B(  6-C ,  8-N ) :   1.1514 B(  7-C , 25-H ) :   0.9691
B(  7-C , 26-H ) :   0.9541 B(  7-C , 27-H ) :   0.9867 B(  8-N ,  9-C ) :   1.1867
B(  8-N , 28-H ) :   0.9473 B(  9-C , 10-S ) :   1.6139 B(  9-C , 11-N ) :   1.3015
B( 11-N , 12-C ) :   0.9751 B( 11-N , 29-H ) :   0.9483 B( 12-C , 13-C ) :   0.9665
B( 12-C , 30-H ) :   1.0045 B( 13-C , 14-C ) :   1.3537 B( 13-C , 19-C ) :   1.3637
B( 14-C , 15-C ) :   1.3948 B( 14-C , 31-H ) :   0.9741 B( 15-C , 16-C ) :   1.3598
B( 15-C , 32-H ) :   0.9695 B( 16-C , 17-C ) :   1.3311 B( 16-C , 33-H ) :   0.9832
B( 17-C , 18-O ) :   1.1085 B( 17-C , 19-C ) :   1.3646 B( 18-O , 34-H ) :   0.9789
B( 19-C , 35-H ) :   0.9593

MP2 TOTAL ENERGY:    -1274.324435172 Eh
FINAL SINGLE POINT ENERGY     -1274.324435172131

DIPOLE MOMENT
-------------
                                X             Y             Z
Electronic contribution:     10.04539       8.60520       7.84179
Nuclear contribution   :    -11.25588     -10.17621      -7.58113
                        -----------------------------------------
Total Dipole Moment    :     -1.21049      -1.57101       0.26065
                        -----------------------------------------
Magnitude (a.u.)       :      2.00032
Magnitude (Debye)      :      5.08442

Rotational constants in cm-1:     0.011714     0.009051     0.006060
Rotational constants in MHz :   351.173616   271.337022   181.689129

                             ****ORCA TERMINATED NORMALLY****
TOTAL RUN TIME: 0 days 1 hours 43 minutes 30 seconds 997 msec
