                         Program Version 4.2.0 -  RELEASE  -
|  1> ! ri-mp2 cc-pvtz cc-pvtz/c TightSCF NoKeepInts
|  2>
|  3> %scf
|  4>   MaxCore 4096
|  5> end
|  6> *xyz  0  1
|  7>     C       13.7023750   15.8858368   14.0805097
|  8>     C       15.0278377   15.4593174   14.7333629
|  9>     O       15.8126412   16.6450057   14.9301648
| 10>     C       16.8786393   16.5643575   15.7745627
| 11>     O       17.5526313   15.5514827   15.8618139
| 12>     C       17.0361453   17.7308546   16.7081881
| 13>     C       16.6751591   18.9966253   16.3679402
| 14>     C       15.8702896   19.4445013   15.1635430
| 15>     N       17.0856348   20.0866922   17.1396933
| 16>     C       18.0308987   20.0245510   18.1276594
| 17>     S       18.5490360   21.3770736   18.9262023
| 18>     N       18.5426322   18.7823391   18.4046227
| 19>     C       18.0512229   17.5116966   17.8372332
| 20>     C       17.5788247   16.5244490   18.8964115
| 21>     C       18.1242855   15.2298241   18.9648175
| 22>     C       17.6882326   14.3213718   19.9438857
| 23>     C       16.6992260   14.7115476   20.8631361
| 24>     C       16.1526039   16.0005437   20.7958507
| 25>     O       15.1945285   16.3784449   21.6793619
| 26>     C       16.5882269   16.9022491   19.8195826
| 27>     H       13.1608763   16.5883228   14.7261196
| 28>     H       13.0607271   15.0130345   13.9085245
| 29>     H       13.8864535   16.3722503   13.1144815
| 30>     H       14.8197239   14.9739598   15.6969821
| 31>     H       15.5642498   14.7469469   14.0920341
| 32>     H       16.3334479   19.0944353   14.2323989
| 33>     H       15.7862010   20.5355025   15.0885773
| 34>     H       14.8508148   19.0412840   15.2066140
| 35>     H       16.7359176   21.0084944   16.9326459
| 36>     H       19.2226695   18.7604678   19.1540782
| 37>     H       18.9673836   17.1477830   17.3496034
| 38>     H       18.8782785   14.9227218   18.2438003
| 39>     H       18.1131176   13.3199684   19.9829886
| 40>     H       16.3586895   14.0126512   21.6197886
| 41>     H       15.0511883   15.6366359   22.2859745
| 42>     H       16.1561902   17.8967774   19.7848461
| 43> *
| 44>
| 45>                          ****END OF INPUT****

CARTESIAN COORDINATES (ANGSTROEM)
---------------------------------
  C     13.702375   15.885837   14.080510
  C     15.027838   15.459317   14.733363
  O     15.812641   16.645006   14.930165
  C     16.878639   16.564357   15.774563
  O     17.552631   15.551483   15.861814
  C     17.036145   17.730855   16.708188
  C     16.675159   18.996625   16.367940
  C     15.870290   19.444501   15.163543
  N     17.085635   20.086692   17.139693
  C     18.030899   20.024551   18.127659
  S     18.549036   21.377074   18.926202
  N     18.542632   18.782339   18.404623
  C     18.051223   17.511697   17.837233
  C     17.578825   16.524449   18.896411
  C     18.124285   15.229824   18.964817
  C     17.688233   14.321372   19.943886
  C     16.699226   14.711548   20.863136
  C     16.152604   16.000544   20.795851
  O     15.194529   16.378445   21.679362
  C     16.588227   16.902249   19.819583
  H     13.160876   16.588323   14.726120
  H     13.060727   15.013034   13.908524
  H     13.886453   16.372250   13.114481
  H     14.819724   14.973960   15.696982
  H     15.564250   14.746947   14.092034
  H     16.333448   19.094435   14.232399
  H     15.786201   20.535502   15.088577
  H     14.850815   19.041284   15.206614
  H     16.735918   21.008494   16.932646
  H     19.222669   18.760468   19.154078
  H     18.967384   17.147783   17.349603
  H     18.878279   14.922722   18.243800
  H     18.113118   13.319968   19.982989
  H     16.358690   14.012651   21.619789
  H     15.051188   15.636636   22.285974
  H     16.156190   17.896777   19.784846

 Total Charge           Charge          ....    0
 Multiplicity           Mult            ....    1
 Number of Electrons    NEL             ....  154
 Basis Dimension        Dim             ....  828

ORBITAL ENERGIES
----------------

  NO   OCC          E(Eh)            E(eV)
   0   2.0000     -91.888382     -2500.4100
   1   2.0000     -20.598177      -560.5049
   2   2.0000     -20.592223      -560.3429
   3   2.0000     -20.547147      -559.1163
   4   2.0000     -15.629107      -425.2896
   5   2.0000     -15.605963      -424.6599
   6   2.0000     -11.394074      -310.0485
   7   2.0000     -11.382951      -309.7458
   8   2.0000     -11.338631      -308.5398
   9   2.0000     -11.308188      -307.7114
  10   2.0000     -11.304429      -307.6091
  11   2.0000     -11.300660      -307.5066
  12   2.0000     -11.260590      -306.4162
  13   2.0000     -11.259485      -306.3862
  14   2.0000     -11.255401      -306.2750
  15   2.0000     -11.248180      -306.0785
  16   2.0000     -11.238427      -305.8131
  17   2.0000     -11.235679      -305.7384
  18   2.0000     -11.234589      -305.7087
  19   2.0000     -11.231239      -305.6175
  20   2.0000      -8.893463      -242.0034
  21   2.0000      -6.575039      -178.9159
  22   2.0000      -6.573037      -178.8614
  23   2.0000      -6.572448      -178.8454
  24   2.0000      -1.455240       -39.5991
  25   2.0000      -1.411970       -38.4217
  26   2.0000      -1.357342       -36.9352
  27   2.0000      -1.340259       -36.4703
  28   2.0000      -1.237345       -33.6699
  29   2.0000      -1.152780       -31.3687
  30   2.0000      -1.121156       -30.5082
  31   2.0000      -1.044947       -28.4344
  32   2.0000      -1.037149       -28.2223
  33   2.0000      -1.010318       -27.4922
  34   2.0000      -0.999230       -27.1904
  35   2.0000      -0.984431       -26.7877
  36   2.0000      -0.920957       -25.0605
  37   2.0000      -0.886983       -24.1360
  38   2.0000      -0.847406       -23.0591
  39   2.0000      -0.835420       -22.7329
  40   2.0000      -0.828422       -22.5425
  41   2.0000      -0.820985       -22.3401
  42   2.0000      -0.761851       -20.7310
  43   2.0000      -0.736249       -20.0343
  44   2.0000      -0.726494       -19.7689
  45   2.0000      -0.690405       -18.7869
  46   2.0000      -0.684031       -18.6134
  47   2.0000      -0.682296       -18.5662
  48   2.0000      -0.676142       -18.3988
  49   2.0000      -0.658079       -17.9072
  50   2.0000      -0.650831       -17.7100
  51   2.0000      -0.641389       -17.4531
  52   2.0000      -0.633531       -17.2393
  53   2.0000      -0.604758       -16.4563
  54   2.0000      -0.603430       -16.4202
  55   2.0000      -0.598932       -16.2978
  56   2.0000      -0.595561       -16.2061
  57   2.0000      -0.576171       -15.6784
  58   2.0000      -0.573473       -15.6050
  59   2.0000      -0.564639       -15.3646
  60   2.0000      -0.560857       -15.2617
  61   2.0000      -0.552958       -15.0467
  62   2.0000      -0.544071       -14.8049
  63   2.0000      -0.518231       -14.1018
  64   2.0000      -0.516378       -14.0514
  65   2.0000      -0.512117       -13.9354
  66   2.0000      -0.506466       -13.7816
  67   2.0000      -0.494565       -13.4578
  68   2.0000      -0.480811       -13.0835
  69   2.0000      -0.463376       -12.6091
  70   2.0000      -0.461048       -12.5458
  71   2.0000      -0.452982       -12.3263
  72   2.0000      -0.353421        -9.6171
  73   2.0000      -0.344933        -9.3861
  74   2.0000      -0.327429        -8.9098
  75   2.0000      -0.317531        -8.6405
  76   2.0000      -0.314809        -8.5664
  77   0.0000       0.075305         2.0491
  78   0.0000       0.110868         3.0169
  79   0.0000       0.120561         3.2806
  80   0.0000       0.135344         3.6829
  81   0.0000       0.138087         3.7575

MULLIKEN ATOMIC CHARGES
-----------------------
   0 C :   -0.277995
   1 C :    0.049554
   2 O :   -0.345168
   3 C :    0.417362
   4 O :   -0.410267
   5 C :   -0.174793
   6 C :    0.154864
   7 C :   -0.283379
   8 N :   -0.128416
   9 C :    0.207356
  10 S :   -0.441783
  11 N :   -0.210602
  12 C :    0.042275
  13 C :    0.032191
  14 C :   -0.167762
  15 C :   -0.134431
  16 C :   -0.277435
  17 C :    0.313665
  18 O :   -0.359135
  19 C :   -0.252314
  20 H :    0.093675
  21 H :    0.101910
  22 H :    0.097699
  23 H :    0.085866
  24 H :    0.102755
  25 H :    0.127127
  26 H :    0.103905
  27 H :    0.127436
  28 H :    0.198900
  29 H :    0.199947
  30 H :    0.155556
  31 H :    0.159203
  32 H :    0.160268
  33 H :    0.128403
  34 H :    0.240019
  35 H :    0.163545
Sum of atomic charges:    0.0000000

LOEWDIN ATOMIC CHARGES
----------------------
   0 C :    0.107440
   1 C :   -0.018680
   2 O :    0.303284
   3 C :   -0.418187
   4 O :    0.110552
   5 C :   -0.093668
   6 C :   -0.064374
   7 C :    0.125580
   8 N :    0.405607
   9 C :   -0.458485
  10 S :   -0.037184
  11 N :    0.396357
  12 C :   -0.048276
  13 C :   -0.040743
  14 C :    0.025112
  15 C :    0.041061
  16 C :   -0.001292
  17 C :   -0.192817
  18 O :    0.392974
  19 C :    0.029164
  20 H :   -0.028593
  21 H :   -0.022764
  22 H :   -0.026924
  23 H :   -0.027887
  24 H :   -0.028000
  25 H :   -0.008720
  26 H :   -0.021009
  27 H :   -0.010140
  28 H :   -0.058614
  29 H :   -0.063151
  30 H :   -0.007989
  31 H :   -0.023799
  32 H :   -0.020925
  33 H :   -0.036139
  34 H :   -0.154814
  35 H :   -0.023957

  Mayer bond orders larger than 0.100000
B(  0-C ,  1-C ) :   0.9711 B(  0-C , 20-H ) :   0.9777 B(  0-C , 21-H ) :   0.9784
B(  0-C , 22-H ) :   0.9769 B(  1-C ,  2-O ) :   0.9102 B(  1-C , 23-H ) :   0.9729
B(  1-C , 24-H ) :   0.9804 B(  2-O ,  3-C ) :   1.1191 B(  3-C ,  4-O ) :   2.0094
B(  3-C ,  5-C ) :   1.0342 B(  5-C ,  6-C ) :   1.6558 B(  5-C , 12-C ) :   0.9498
B(  6-C ,  7-C ) :   0.9544 B(  6-C ,  8-N ) :   1.1351 B(  7-C , 25-H ) :   0.9649
B(  7-C , 26-H ) :   0.9914 B(  7-C , 27-H ) :   0.9634 B(  8-N ,  9-C ) :   1.1849
B(  8-N , 28-H ) :   0.9468 B(  9-C , 10-S ) :   1.6090 B(  9-C , 11-N ) :   1.3062
B( 11-N , 12-C ) :   0.9765 B( 11-N , 29-H ) :   0.9485 B( 12-C , 13-C ) :   0.9727
B( 12-C , 30-H ) :   0.9968 B( 13-C , 14-C ) :   1.3769 B( 13-C , 19-C ) :   1.3646
B( 14-C , 15-C ) :   1.3976 B( 14-C , 31-H ) :   0.9636 B( 15-C , 16-C ) :   1.3586
B( 15-C , 32-H ) :   0.9711 B( 16-C , 17-C ) :   1.3333 B( 16-C , 33-H ) :   0.9859
B( 17-C , 18-O ) :   1.1036 B( 17-C , 19-C ) :   1.3677 B( 18-O , 34-H ) :   0.9806
B( 19-C , 35-H ) :   0.9603

MP2 TOTAL ENERGY:    -1274.336594167 Eh
FINAL SINGLE POINT ENERGY     -1274.336594167179

DIPOLE MOMENT
-------------
                                X             Y             Z
Electronic contribution:     11.28068       8.46162      11.34074
Nuclear contribution   :    -12.72731      -9.79851     -12.26504
                        -----------------------------------------
Total Dipole Moment    :     -1.44663      -1.33689      -0.92430
                        -----------------------------------------
Magnitude (a.u.)       :      2.17586
Magnitude (Debye)      :      5.53059

Rotational constants in cm-1:     0.009629     0.009146     0.005646
Rotational constants in MHz :   288.666205   274.200570   169.250733

                             ****ORCA TERMINATED NORMALLY****
TOTAL RUN TIME: 0 days 1 hours 34 minutes 23 seconds 256 msec
