                         Program Version 4.2.0 -  RELEASE  -
|  1> ! ri-mp2 cc-pvtz cc-pvtz/c TightSCF NoKeepInts
|  2>
|  3> %scf
|  4>   MaxCore 4096
|  5> end
|  6> *xyz  0  1
|  7>     C       14.4909181   16.4569918   16.0929841
|  8>     C       15.4678222   15.2665162   15.9546228
|  9>     O       16.7448338   15.5861441   15.3403178
| 10>     C       17.3797837   16.7997687   15.2445304
| 11>     O       18.1029200   17.0434182   14.2963811
| 12>     C       17.1460768   17.7931284   16.3357204
| 13>     C       16.9224833   19.0834287   15.9927895
| 14>     C       16.5006456   19.5769911   14.6254112
| 15>     N       17.0934686   20.1193140   16.9122418
| 16>     C       17.7269594   19.9740027   18.1177879
| 17>     S       18.0072861   21.2588944   19.1203640
| 18>     N       18.1413187   18.7053022   18.4418791
| 19>     C       17.8155249   17.4816943   17.6825891
| 20>     C       17.1798967   16.3880367   18.5268296
| 21>     C       17.7411392   15.0978820   18.5566308
| 22>     C       17.1614946   14.0860646   19.3404030
| 23>     C       16.0160948   14.3686472   20.1044010
| 24>     C       15.4628974   15.6563806   20.0859456
| 25>     O       14.3572121   15.9323692   20.8215388
| 26>     C       16.0423524   16.6617631   19.3055801
| 27>     H       14.7449392   17.1144252   16.9297038
| 28>     H       13.4790045   16.0803021   16.2861327
| 29>     H       14.4525096   17.0450859   15.1681792
| 30>     H       15.6282586   14.8260534   16.9452404
| 31>     H       14.9874035   14.4905236   15.3447560
| 32>     H       15.8721035   18.8408051   14.1100028
| 33>     H       17.3832516   19.7470077   13.9946072
| 34>     H       15.9320091   20.5131445   14.6761037
| 35>     H       16.8388643   21.0617306   16.6621848
| 36>     H       18.5985999   18.6269801   19.3418192
| 37>     H       18.8337482   17.1681027   17.4091608
| 38>     H       18.6240452   14.8755686   17.9618687
| 39>     H       17.5999270   13.0892933   19.3537671
| 40>     H       15.5650253   13.5898012   20.7108520
| 41>     H       14.1414756   15.1394165   21.3356367
| 42>     H       15.6047062   17.6550213   19.3090366
| 43> *
| 44>
| 45>                          ****END OF INPUT****

CARTESIAN COORDINATES (ANGSTROEM)
---------------------------------
  C     14.490918   16.456992   16.092984
  C     15.467822   15.266516   15.954623
  O     16.744834   15.586144   15.340318
  C     17.379784   16.799769   15.244530
  O     18.102920   17.043418   14.296381
  C     17.146077   17.793128   16.335720
  C     16.922483   19.083429   15.992789
  C     16.500646   19.576991   14.625411
  N     17.093469   20.119314   16.912242
  C     17.726959   19.974003   18.117788
  S     18.007286   21.258894   19.120364
  N     18.141319   18.705302   18.441879
  C     17.815525   17.481694   17.682589
  C     17.179897   16.388037   18.526830
  C     17.741139   15.097882   18.556631
  C     17.161495   14.086065   19.340403
  C     16.016095   14.368647   20.104401
  C     15.462897   15.656381   20.085946
  O     14.357212   15.932369   20.821539
  C     16.042352   16.661763   19.305580
  H     14.744939   17.114425   16.929704
  H     13.479004   16.080302   16.286133
  H     14.452510   17.045086   15.168179
  H     15.628259   14.826053   16.945240
  H     14.987403   14.490524   15.344756
  H     15.872103   18.840805   14.110003
  H     17.383252   19.747008   13.994607
  H     15.932009   20.513144   14.676104
  H     16.838864   21.061731   16.662185
  H     18.598600   18.626980   19.341819
  H     18.833748   17.168103   17.409161
  H     18.624045   14.875569   17.961869
  H     17.599927   13.089293   19.353767
  H     15.565025   13.589801   20.710852
  H     14.141476   15.139416   21.335637
  H     15.604706   17.655021   19.309037

 Total Charge           Charge          ....    0
 Multiplicity           Mult            ....    1
 Number of Electrons    NEL             ....  154
 Basis Dimension        Dim             ....  828

ORBITAL ENERGIES
----------------

  NO   OCC          E(Eh)            E(eV)
   0   2.0000     -91.889859     -2500.4502
   1   2.0000     -20.605741      -560.7107
   2   2.0000     -20.592651      -560.3545
   3   2.0000     -20.549172      -559.1714
   4   2.0000     -15.626235      -425.2115
   5   2.0000     -15.610790      -424.7912
   6   2.0000     -11.396469      -310.1137
   7   2.0000     -11.385200      -309.8070
   8   2.0000     -11.326977      -308.2227
   9   2.0000     -11.324247      -308.1484
  10   2.0000     -11.316620      -307.9409
  11   2.0000     -11.303517      -307.5843
  12   2.0000     -11.270969      -306.6987
  13   2.0000     -11.264817      -306.5312
  14   2.0000     -11.255748      -306.2845
  15   2.0000     -11.255703      -306.2833
  16   2.0000     -11.254242      -306.2435
  17   2.0000     -11.249280      -306.1085
  18   2.0000     -11.248592      -306.0898
  19   2.0000     -11.233956      -305.6915
  20   2.0000      -8.894940      -242.0436
  21   2.0000      -6.576515      -178.9561
  22   2.0000      -6.574513      -178.9016
  23   2.0000      -6.573925      -178.8856
  24   2.0000      -1.440436       -39.1963
  25   2.0000      -1.425528       -38.7906
  26   2.0000      -1.354546       -36.8591
  27   2.0000      -1.339600       -36.4524
  28   2.0000      -1.239713       -33.7343
  29   2.0000      -1.167397       -31.7665
  30   2.0000      -1.124547       -30.6005
  31   2.0000      -1.051390       -28.6098
  32   2.0000      -1.035221       -28.1698
  33   2.0000      -1.025620       -27.9086
  34   2.0000      -1.003962       -27.3192
  35   2.0000      -0.989498       -26.9256
  36   2.0000      -0.927124       -25.2283
  37   2.0000      -0.900014       -24.4906
  38   2.0000      -0.850914       -23.1545
  39   2.0000      -0.844681       -22.9849
  40   2.0000      -0.844196       -22.9717
  41   2.0000      -0.827060       -22.5054
  42   2.0000      -0.749176       -20.3861
  43   2.0000      -0.740040       -20.1375
  44   2.0000      -0.720363       -19.6021
  45   2.0000      -0.704231       -19.1631
  46   2.0000      -0.690832       -18.7985
  47   2.0000      -0.677576       -18.4378
  48   2.0000      -0.675918       -18.3927
  49   2.0000      -0.660493       -17.9729
  50   2.0000      -0.655961       -17.8496
  51   2.0000      -0.649386       -17.6707
  52   2.0000      -0.639114       -17.3912
  53   2.0000      -0.618208       -16.8223
  54   2.0000      -0.613941       -16.7062
  55   2.0000      -0.607805       -16.5392
  56   2.0000      -0.603692       -16.4273
  57   2.0000      -0.584465       -15.9041
  58   2.0000      -0.577371       -15.7111
  59   2.0000      -0.566794       -15.4233
  60   2.0000      -0.565170       -15.3791
  61   2.0000      -0.552804       -15.0426
  62   2.0000      -0.540847       -14.7172
  63   2.0000      -0.533796       -14.5253
  64   2.0000      -0.527854       -14.3636
  65   2.0000      -0.516491       -14.0544
  66   2.0000      -0.505416       -13.7531
  67   2.0000      -0.497728       -13.5439
  68   2.0000      -0.489027       -13.3071
  69   2.0000      -0.466692       -12.6993
  70   2.0000      -0.451918       -12.2973
  71   2.0000      -0.446153       -12.1404
  72   2.0000      -0.360091        -9.7986
  73   2.0000      -0.349642        -9.5142
  74   2.0000      -0.332695        -9.0531
  75   2.0000      -0.328663        -8.9434
  76   2.0000      -0.319098        -8.6831
  77   0.0000       0.082805         2.2532
  78   0.0000       0.096058         2.6139
  79   0.0000       0.120295         3.2734
  80   0.0000       0.126854         3.4519
  81   0.0000       0.128195         3.4884

MULLIKEN ATOMIC CHARGES
-----------------------
   0 C :   -0.327737
   1 C :    0.032745
   2 O :   -0.331164
   3 C :    0.407841
   4 O :   -0.372093
   5 C :   -0.243252
   6 C :    0.160096
   7 C :   -0.286957
   8 N :   -0.132314
   9 C :    0.211526
  10 S :   -0.441192
  11 N :   -0.216494
  12 C :    0.058287
  13 C :   -0.003189
  14 C :   -0.187420
  15 C :   -0.132507
  16 C :   -0.274199
  17 C :    0.317795
  18 O :   -0.354456
  19 C :   -0.252981
  20 H :    0.116391
  21 H :    0.119913
  22 H :    0.101407
  23 H :    0.103683
  24 H :    0.125801
  25 H :    0.114865
  26 H :    0.146453
  27 H :    0.098423
  28 H :    0.197543
  29 H :    0.201011
  30 H :    0.160985
  31 H :    0.156772
  32 H :    0.165674
  33 H :    0.135589
  34 H :    0.242168
  35 H :    0.180985
Sum of atomic charges:   -0.0000000

LOEWDIN ATOMIC CHARGES
----------------------
   0 C :    0.101970
   1 C :   -0.010522
   2 O :    0.292652
   3 C :   -0.422285
   4 O :    0.126590
   5 C :   -0.091473
   6 C :   -0.079845
   7 C :    0.128744
   8 N :    0.405182
   9 C :   -0.455212
  10 S :   -0.036657
  11 N :    0.395530
  12 C :   -0.055050
  13 C :   -0.044623
  14 C :    0.020282
  15 C :    0.042989
  16 C :    0.001471
  17 C :   -0.191614
  18 O :    0.397367
  19 C :    0.033519
  20 H :   -0.035745
  21 H :   -0.021627
  22 H :   -0.030833
  23 H :   -0.031205
  24 H :   -0.022490
  25 H :   -0.012237
  26 H :   -0.003381
  27 H :   -0.020808
  28 H :   -0.057651
  29 H :   -0.064040
  30 H :   -0.008904
  31 H :   -0.025339
  32 H :   -0.018283
  33 H :   -0.033081
  34 H :   -0.152013
  35 H :   -0.021377

  Mayer bond orders larger than 0.100000
B(  0-C ,  1-C ) :   0.9588 B(  0-C , 20-H ) :   0.9685 B(  0-C , 21-H ) :   0.9759
B(  0-C , 22-H ) :   0.9747 B(  1-C ,  2-O ) :   0.9050 B(  1-C , 23-H ) :   0.9686
B(  1-C , 24-H ) :   0.9832 B(  2-O ,  3-C ) :   1.1808 B(  3-C ,  4-O ) :   2.1175
B(  3-C ,  5-C ) :   0.9285 B(  5-C ,  6-C ) :   1.6947 B(  5-C , 12-C ) :   0.9483
B(  6-C ,  7-C ) :   0.9465 B(  6-C ,  8-N ) :   1.1302 B(  7-C , 25-H ) :   0.9766
B(  7-C , 26-H ) :   0.9572 B(  7-C , 27-H ) :   0.9836 B(  8-N ,  9-C ) :   1.1992
B(  8-N , 28-H ) :   0.9498 B(  9-C , 10-S ) :   1.6118 B(  9-C , 11-N ) :   1.2863
B( 11-N , 12-C ) :   0.9796 B( 11-N , 29-H ) :   0.9470 B( 12-C , 13-C ) :   0.9504
B( 12-C , 30-H ) :   1.0044 B( 13-C , 14-C ) :   1.3673 B( 13-C , 19-C ) :   1.3531
B( 14-C , 15-C ) :   1.3992 B( 14-C , 31-H ) :   0.9710 B( 15-C , 16-C ) :   1.3590
B( 15-C , 32-H ) :   0.9699 B( 16-C , 17-C ) :   1.3300 B( 16-C , 33-H ) :   0.9833
B( 17-C , 18-O ) :   1.1120 B( 17-C , 19-C ) :   1.3599 B( 18-O , 34-H ) :   0.9784
B( 19-C , 35-H ) :   0.9532

MP2 TOTAL ENERGY:    -1274.317739690 Eh
FINAL SINGLE POINT ENERGY     -1274.317739689588

DIPOLE MOMENT
-------------
                                X             Y             Z
Electronic contribution:      8.72081       6.74425       6.11819
Nuclear contribution   :    -10.22210      -8.47513      -5.87289
                        -----------------------------------------
Total Dipole Moment    :     -1.50129      -1.73088       0.24530
                        -----------------------------------------
Magnitude (a.u.)       :      2.30434
Magnitude (Debye)      :      5.85716

Rotational constants in cm-1:     0.012453     0.009051     0.006404
Rotational constants in MHz :   373.333507   271.338844   191.973283

                             ****ORCA TERMINATED NORMALLY****
TOTAL RUN TIME: 0 days 1 hours 51 minutes 22 seconds 698 msec
