                         Program Version 4.2.0 -  RELEASE  -
|  1> ! ri-mp2 cc-pvtz cc-pvtz/c TightSCF NoKeepInts
|  2>
|  3> %scf
|  4>   MaxCore 4096
|  5> end
|  6> *xyz  0  1
|  7>     C       14.5283856   16.3007025   16.0174175
|  8>     C       15.5824811   15.1703389   15.9523850
|  9>     O       16.8891265   15.5775751   15.4654181
| 10>     C       17.2838686   16.8625747   15.2076608
| 11>     O       17.7152891   17.1638566   14.1100339
| 12>     C       17.1303450   17.8421099   16.3342770
| 13>     C       16.9252994   19.1502024   16.0434162
| 14>     C       16.4338365   19.7109621   14.7256068
| 15>     N       17.1541410   20.1488590   16.9912277
| 16>     C       17.8222566   19.9488251   18.1691303
| 17>     S       18.1706167   21.1928430   19.2015107
| 18>     N       18.2108307   18.6602592   18.4391003
| 19>     C       17.8260870   17.4699138   17.6555641
| 20>     C       17.1726852   16.3896249   18.5041781
| 21>     C       17.7521624   15.1107397   18.6007024
| 22>     C       17.1574868   14.1165857   19.3958456
| 23>     C       15.9793619   14.4063235   20.1055083
| 24>     C       15.4092354   15.6841339   20.0229655
| 25>     O       14.2730439   15.9676975   20.7074583
| 26>     C       16.0039760   16.6718818   19.2317703
| 27>     H       14.7219757   17.0057270   16.8314760
| 28>     H       13.5367735   15.8689633   16.2002623
| 29>     H       14.4785469   16.8499795   15.0690406
| 30>     H       15.6776895   14.7122358   16.9437479
| 31>     H       15.2042220   14.3871640   15.2826827
| 32>     H       15.7335940   19.0219369   14.2376645
| 33>     H       17.2757268   19.8596242   14.0366440
| 34>     H       15.9165493   20.6705057   14.8433720
| 35>     H       16.9134024   21.1047284   16.7819450
| 36>     H       18.6893712   18.5410039   19.3233376
| 37>     H       18.8262814   17.1310883   17.3489203
| 38>     H       18.6607017   14.8830914   18.0484019
| 39>     H       17.6096374   13.1279998   19.4600432
| 40>     H       15.5165578   13.6412054   20.7205052
| 41>     H       14.0503512   15.1897106   21.2410622
| 42>     H       15.5551036   17.6590264   19.1877176
| 43> *
| 44>
| 45>                          ****END OF INPUT****

CARTESIAN COORDINATES (ANGSTROEM)
---------------------------------
  C     14.528386   16.300702   16.017418
  C     15.582481   15.170339   15.952385
  O     16.889126   15.577575   15.465418
  C     17.283869   16.862575   15.207661
  O     17.715289   17.163857   14.110034
  C     17.130345   17.842110   16.334277
  C     16.925299   19.150202   16.043416
  C     16.433837   19.710962   14.725607
  N     17.154141   20.148859   16.991228
  C     17.822257   19.948825   18.169130
  S     18.170617   21.192843   19.201511
  N     18.210831   18.660259   18.439100
  C     17.826087   17.469914   17.655564
  C     17.172685   16.389625   18.504178
  C     17.752162   15.110740   18.600702
  C     17.157487   14.116586   19.395846
  C     15.979362   14.406323   20.105508
  C     15.409235   15.684134   20.022966
  O     14.273044   15.967697   20.707458
  C     16.003976   16.671882   19.231770
  H     14.721976   17.005727   16.831476
  H     13.536774   15.868963   16.200262
  H     14.478547   16.849979   15.069041
  H     15.677689   14.712236   16.943748
  H     15.204222   14.387164   15.282683
  H     15.733594   19.021937   14.237664
  H     17.275727   19.859624   14.036644
  H     15.916549   20.670506   14.843372
  H     16.913402   21.104728   16.781945
  H     18.689371   18.541004   19.323338
  H     18.826281   17.131088   17.348920
  H     18.660702   14.883091   18.048402
  H     17.609637   13.128000   19.460043
  H     15.516558   13.641205   20.720505
  H     14.050351   15.189711   21.241062
  H     15.555104   17.659026   19.187718

 Total Charge           Charge          ....    0
 Multiplicity           Mult            ....    1
 Number of Electrons    NEL             ....  154
 Basis Dimension        Dim             ....  828

ORBITAL ENERGIES
----------------

  NO   OCC          E(Eh)            E(eV)
   0   2.0000     -91.890538     -2500.4687
   1   2.0000     -20.604646      -560.6809
   2   2.0000     -20.586004      -560.1737
   3   2.0000     -20.549555      -559.1818
   4   2.0000     -15.628051      -425.2609
   5   2.0000     -15.610427      -424.7813
   6   2.0000     -11.394264      -310.0537
   7   2.0000     -11.385428      -309.8132
   8   2.0000     -11.331383      -308.3426
   9   2.0000     -11.322776      -308.1084
  10   2.0000     -11.315372      -307.9069
  11   2.0000     -11.302161      -307.5474
  12   2.0000     -11.269114      -306.6482
  13   2.0000     -11.263204      -306.4874
  14   2.0000     -11.256491      -306.3047
  15   2.0000     -11.254413      -306.2481
  16   2.0000     -11.252933      -306.2079
  17   2.0000     -11.248049      -306.0750
  18   2.0000     -11.246932      -306.0446
  19   2.0000     -11.233841      -305.6884
  20   2.0000      -8.895605      -242.0617
  21   2.0000      -6.577175      -178.9740
  22   2.0000      -6.575178      -178.9197
  23   2.0000      -6.574586      -178.9036
  24   2.0000      -1.440721       -39.2040
  25   2.0000      -1.424443       -38.7611
  26   2.0000      -1.353057       -36.8186
  27   2.0000      -1.340967       -36.4896
  28   2.0000      -1.240458       -33.7546
  29   2.0000      -1.165791       -31.7228
  30   2.0000      -1.123456       -30.5708
  31   2.0000      -1.049857       -28.5680
  32   2.0000      -1.033883       -28.1334
  33   2.0000      -1.023947       -27.8630
  34   2.0000      -1.003216       -27.2989
  35   2.0000      -0.988940       -26.9104
  36   2.0000      -0.926465       -25.2104
  37   2.0000      -0.899418       -24.4744
  38   2.0000      -0.850058       -23.1312
  39   2.0000      -0.844375       -22.9766
  40   2.0000      -0.843016       -22.9396
  41   2.0000      -0.824621       -22.4391
  42   2.0000      -0.747592       -20.3430
  43   2.0000      -0.739263       -20.1164
  44   2.0000      -0.719749       -19.5854
  45   2.0000      -0.702805       -19.1243
  46   2.0000      -0.689904       -18.7732
  47   2.0000      -0.677267       -18.4294
  48   2.0000      -0.674314       -18.3490
  49   2.0000      -0.659387       -17.9428
  50   2.0000      -0.657370       -17.8879
  51   2.0000      -0.647432       -17.6175
  52   2.0000      -0.639940       -17.4137
  53   2.0000      -0.621092       -16.9008
  54   2.0000      -0.613968       -16.7069
  55   2.0000      -0.606960       -16.5162
  56   2.0000      -0.602535       -16.3958
  57   2.0000      -0.583105       -15.8671
  58   2.0000      -0.575879       -15.6705
  59   2.0000      -0.566403       -15.4126
  60   2.0000      -0.556922       -15.1546
  61   2.0000      -0.551102       -14.9963
  62   2.0000      -0.541862       -14.7448
  63   2.0000      -0.533153       -14.5078
  64   2.0000      -0.529309       -14.4032
  65   2.0000      -0.516371       -14.0512
  66   2.0000      -0.504946       -13.7403
  67   2.0000      -0.493821       -13.4376
  68   2.0000      -0.483794       -13.1647
  69   2.0000      -0.470281       -12.7970
  70   2.0000      -0.450171       -12.2498
  71   2.0000      -0.448022       -12.1913
  72   2.0000      -0.359224        -9.7750
  73   2.0000      -0.350554        -9.5390
  74   2.0000      -0.331538        -9.0216
  75   2.0000      -0.328736        -8.9453
  76   2.0000      -0.320147        -8.7116
  77   0.0000       0.077897         2.1197
  78   0.0000       0.097015         2.6399
  79   0.0000       0.120526         3.2797
  80   0.0000       0.126728         3.4484
  81   0.0000       0.129281         3.5179

MULLIKEN ATOMIC CHARGES
-----------------------
   0 C :   -0.331330
   1 C :    0.028497
   2 O :   -0.351780
   3 C :    0.421954
   4 O :   -0.369439
   5 C :   -0.259966
   6 C :    0.168550
   7 C :   -0.279447
   8 N :   -0.129430
   9 C :    0.208219
  10 S :   -0.439602
  11 N :   -0.211106
  12 C :    0.061178
  13 C :    0.002341
  14 C :   -0.169212
  15 C :   -0.134269
  16 C :   -0.275030
  17 C :    0.316982
  18 O :   -0.355822
  19 C :   -0.261217
  20 H :    0.115381
  21 H :    0.119881
  22 H :    0.104655
  23 H :    0.108650
  24 H :    0.124530
  25 H :    0.119369
  26 H :    0.143294
  27 H :    0.096154
  28 H :    0.198188
  29 H :    0.200262
  30 H :    0.154124
  31 H :    0.154169
  32 H :    0.165277
  33 H :    0.135141
  34 H :    0.242061
  35 H :    0.178791
Sum of atomic charges:    0.0000000

LOEWDIN ATOMIC CHARGES
----------------------
   0 C :    0.103119
   1 C :   -0.010106
   2 O :    0.288180
   3 C :   -0.426733
   4 O :    0.127845
   5 C :   -0.095806
   6 C :   -0.070328
   7 C :    0.128983
   8 N :    0.406209
   9 C :   -0.456364
  10 S :   -0.035115
  11 N :    0.395383
  12 C :   -0.054519
  13 C :   -0.043765
  14 C :    0.021565
  15 C :    0.041766
  16 C :    0.000761
  17 C :   -0.192259
  18 O :    0.396792
  19 C :    0.034261
  20 H :   -0.036101
  21 H :   -0.020745
  22 H :   -0.029554
  23 H :   -0.029740
  24 H :   -0.024549
  25 H :   -0.010479
  26 H :   -0.003798
  27 H :   -0.021897
  28 H :   -0.057012
  29 H :   -0.063730
  30 H :   -0.010312
  31 H :   -0.025817
  32 H :   -0.018820
  33 H :   -0.033388
  34 H :   -0.152229
  35 H :   -0.021699

  Mayer bond orders larger than 0.100000
B(  0-C ,  1-C ) :   0.9614 B(  0-C , 20-H ) :   0.9672 B(  0-C , 21-H ) :   0.9752
B(  0-C , 22-H ) :   0.9746 B(  1-C ,  2-O ) :   0.9007 B(  1-C , 23-H ) :   0.9698
B(  1-C , 24-H ) :   0.9843 B(  2-O ,  3-C ) :   1.1478 B(  3-C ,  4-O ) :   2.1102
B(  3-C ,  5-C ) :   0.9597 B(  5-C ,  6-C ) :   1.6674 B(  5-C , 12-C ) :   0.9558
B(  6-C ,  7-C ) :   0.9521 B(  6-C ,  8-N ) :   1.1391 B(  7-C , 25-H ) :   0.9737
B(  7-C , 26-H ) :   0.9558 B(  7-C , 27-H ) :   0.9847 B(  8-N ,  9-C ) :   1.1943
B(  8-N , 28-H ) :   0.9491 B(  9-C , 10-S ) :   1.6132 B(  9-C , 11-N ) :   1.2923
B( 11-N , 12-C ) :   0.9793 B( 11-N , 29-H ) :   0.9477 B( 12-C , 13-C ) :   0.9559
B( 12-C , 30-H ) :   1.0041 B( 13-C , 14-C ) :   1.3622 B( 13-C , 19-C ) :   1.3561
B( 14-C , 15-C ) :   1.3978 B( 14-C , 31-H ) :   0.9712 B( 15-C , 16-C ) :   1.3576
B( 15-C , 32-H ) :   0.9701 B( 16-C , 17-C ) :   1.3311 B( 16-C , 33-H ) :   0.9835
B( 17-C , 18-O ) :   1.1103 B( 17-C , 19-C ) :   1.3601 B( 18-O , 34-H ) :   0.9786
B( 19-C , 35-H ) :   0.9542

MP2 TOTAL ENERGY:    -1274.318480677 Eh
FINAL SINGLE POINT ENERGY     -1274.318480677442

DIPOLE MOMENT
-------------
                                X             Y             Z
Electronic contribution:      8.83311       7.06993       6.16337
Nuclear contribution   :    -10.22432      -8.74638      -5.90622
                        -----------------------------------------
Total Dipole Moment    :     -1.39121      -1.67646       0.25715
                        -----------------------------------------
Magnitude (a.u.)       :      2.19365
Magnitude (Debye)      :      5.57581

Rotational constants in cm-1:     0.012427     0.009079     0.006386
Rotational constants in MHz :   372.563123   272.188132   191.455949

                             ****ORCA TERMINATED NORMALLY****
TOTAL RUN TIME: 0 days 2 hours 5 minutes 49 seconds 989 msec
