                         Program Version 4.2.0 -  RELEASE  -
|  1> ! ri-mp2 cc-pvtz cc-pvtz/c TightSCF NoKeepInts
|  2>
|  3> %scf
|  4>   MaxCore 4096
|  5> end
|  6> *xyz  0  1
|  7>     C       14.3463881   14.9959968   15.1756227
|  8>     C       15.8780132   14.8038758   15.0994998
|  9>     O       16.6065582   15.8912432   15.7130776
| 10>     C       16.3004785   17.2146404   15.5354031
| 11>     O       15.6153347   17.6146119   14.6102345
| 12>     C       16.9331919   18.0940593   16.5815744
| 13>     C       17.0144760   19.4386076   16.4081117
| 14>     C       16.3103846   20.2720430   15.3571695
| 15>     N       17.8191393   20.2241104   17.2367063
| 16>     C       18.7138008   19.7269695   18.1451404
| 17>     S       19.7026680   20.7134981   19.0310064
| 18>     N       18.7630499   18.3617383   18.2693285
| 19>     C       17.8552237   17.4080831   17.6041741
| 20>     C       17.1222464   16.5110069   18.5932683
| 21>     C       17.4428314   15.1447494   18.6955578
| 22>     C       16.7634659   14.3188037   19.6069090
| 23>     C       15.7582402   14.8646580   20.4236808
| 24>     C       15.4404347   16.2265424   20.3262079
| 25>     O       14.4710915   16.7561661   21.1141816
| 26>     C       16.1183823   17.0459584   19.4182702
| 27>     H       14.0425413   15.3094762   16.1823175
| 28>     H       13.8366826   14.0524703   14.9467685
| 29>     H       13.9921319   15.7402535   14.4525538
| 30>     H       16.1520729   13.8674211   15.6019854
| 31>     H       16.1699877   14.7155029   14.0447605
| 32>     H       16.6782163   20.0209219   14.3541459
| 33>     H       16.4468152   21.3504000   15.5001717
| 34>     H       15.2305516   20.0756791   15.3688983
| 35>     H       17.8080536   21.2268747   17.1404023
| 36>     H       19.4089763   18.0259783   18.9724597
| 37>     H       18.5778157   16.8267234   17.0141360
| 38>     H       18.2161294   14.7212683   18.0602939
| 39>     H       17.0160519   13.2623420   19.6781115
| 40>     H       15.2308584   14.2310249   21.1291138
| 41>     H       14.1411772   16.0474154   21.6865667
| 42>     H       15.8635386   18.0988859   19.3601899
| 43> *
| 44>
| 45>                          ****END OF INPUT****

CARTESIAN COORDINATES (ANGSTROEM)
---------------------------------
  C     14.346388   14.995997   15.175623
  C     15.878013   14.803876   15.099500
  O     16.606558   15.891243   15.713078
  C     16.300479   17.214640   15.535403
  O     15.615335   17.614612   14.610234
  C     16.933192   18.094059   16.581574
  C     17.014476   19.438608   16.408112
  C     16.310385   20.272043   15.357169
  N     17.819139   20.224110   17.236706
  C     18.713801   19.726969   18.145140
  S     19.702668   20.713498   19.031006
  N     18.763050   18.361738   18.269328
  C     17.855224   17.408083   17.604174
  C     17.122246   16.511007   18.593268
  C     17.442831   15.144749   18.695558
  C     16.763466   14.318804   19.606909
  C     15.758240   14.864658   20.423681
  C     15.440435   16.226542   20.326208
  O     14.471091   16.756166   21.114182
  C     16.118382   17.045958   19.418270
  H     14.042541   15.309476   16.182317
  H     13.836683   14.052470   14.946768
  H     13.992132   15.740253   14.452554
  H     16.152073   13.867421   15.601985
  H     16.169988   14.715503   14.044760
  H     16.678216   20.020922   14.354146
  H     16.446815   21.350400   15.500172
  H     15.230552   20.075679   15.368898
  H     17.808054   21.226875   17.140402
  H     19.408976   18.025978   18.972460
  H     18.577816   16.826723   17.014136
  H     18.216129   14.721268   18.060294
  H     17.016052   13.262342   19.678111
  H     15.230858   14.231025   21.129114
  H     14.141177   16.047415   21.686567
  H     15.863539   18.098886   19.360190

 Total Charge           Charge          ....    0
 Multiplicity           Mult            ....    1
 Number of Electrons    NEL             ....  154
 Basis Dimension        Dim             ....  828

ORBITAL ENERGIES
----------------

  NO   OCC          E(Eh)            E(eV)
   0   2.0000     -91.888329     -2500.4086
   1   2.0000     -20.597683      -560.4914
   2   2.0000     -20.596646      -560.4632
   3   2.0000     -20.540819      -558.9441
   4   2.0000     -15.628625      -425.2765
   5   2.0000     -15.606449      -424.6731
   6   2.0000     -11.396136      -310.1046
   7   2.0000     -11.382983      -309.7467
   8   2.0000     -11.336680      -308.4868
   9   2.0000     -11.313801      -307.8642
  10   2.0000     -11.306730      -307.6718
  11   2.0000     -11.300990      -307.5156
  12   2.0000     -11.260684      -306.4188
  13   2.0000     -11.258863      -306.3692
  14   2.0000     -11.255241      -306.2707
  15   2.0000     -11.251225      -306.1614
  16   2.0000     -11.243617      -305.9544
  17   2.0000     -11.238891      -305.8258
  18   2.0000     -11.238696      -305.8205
  19   2.0000     -11.222720      -305.3857
  20   2.0000      -8.893406      -242.0019
  21   2.0000      -6.574980      -178.9143
  22   2.0000      -6.572980      -178.8599
  23   2.0000      -6.572392      -178.8439
  24   2.0000      -1.446522       -39.3619
  25   2.0000      -1.416315       -38.5399
  26   2.0000      -1.353452       -36.8293
  27   2.0000      -1.339792       -36.4576
  28   2.0000      -1.237691       -33.6793
  29   2.0000      -1.157478       -31.4966
  30   2.0000      -1.120450       -30.4890
  31   2.0000      -1.042497       -28.3678
  32   2.0000      -1.035333       -28.1728
  33   2.0000      -1.014986       -27.6192
  34   2.0000      -0.995621       -27.0922
  35   2.0000      -0.983903       -26.7734
  36   2.0000      -0.921397       -25.0725
  37   2.0000      -0.897201       -24.4141
  38   2.0000      -0.846333       -23.0299
  39   2.0000      -0.838020       -22.8037
  40   2.0000      -0.834167       -22.6988
  41   2.0000      -0.816694       -22.2234
  42   2.0000      -0.748324       -20.3629
  43   2.0000      -0.732982       -19.9455
  44   2.0000      -0.720713       -19.6116
  45   2.0000      -0.695298       -18.9200
  46   2.0000      -0.688087       -18.7238
  47   2.0000      -0.677752       -18.4426
  48   2.0000      -0.671487       -18.2721
  49   2.0000      -0.656233       -17.8570
  50   2.0000      -0.648381       -17.6433
  51   2.0000      -0.640021       -17.4159
  52   2.0000      -0.633501       -17.2384
  53   2.0000      -0.615708       -16.7543
  54   2.0000      -0.606619       -16.5069
  55   2.0000      -0.600443       -16.3389
  56   2.0000      -0.598918       -16.2974
  57   2.0000      -0.577220       -15.7069
  58   2.0000      -0.570090       -15.5130
  59   2.0000      -0.567783       -15.4502
  60   2.0000      -0.558737       -15.2040
  61   2.0000      -0.542613       -14.7653
  62   2.0000      -0.535014       -14.5585
  63   2.0000      -0.524615       -14.2755
  64   2.0000      -0.521576       -14.1928
  65   2.0000      -0.512880       -13.9562
  66   2.0000      -0.501619       -13.6498
  67   2.0000      -0.497777       -13.5452
  68   2.0000      -0.483913       -13.1679
  69   2.0000      -0.462546       -12.5865
  70   2.0000      -0.455088       -12.3836
  71   2.0000      -0.442841       -12.0503
  72   2.0000      -0.352416        -9.5897
  73   2.0000      -0.349669        -9.5150
  74   2.0000      -0.327584        -8.9140
  75   2.0000      -0.321162        -8.7393
  76   2.0000      -0.317525        -8.6403
  77   0.0000       0.077872         2.1190
  78   0.0000       0.104827         2.8525
  79   0.0000       0.125184         3.4064
  80   0.0000       0.133005         3.6193
  81   0.0000       0.137525         3.7422

MULLIKEN ATOMIC CHARGES
-----------------------
   0 C :   -0.313391
   1 C :    0.043959
   2 O :   -0.356886
   3 C :    0.448095
   4 O :   -0.437847
   5 C :   -0.228001
   6 C :    0.172153
   7 C :   -0.268304
   8 N :   -0.125705
   9 C :    0.210868
  10 S :   -0.442893
  11 N :   -0.215344
  12 C :    0.064416
  13 C :    0.046259
  14 C :   -0.183897
  15 C :   -0.132180
  16 C :   -0.276894
  17 C :    0.317441
  18 O :   -0.356790
  19 C :   -0.252180
  20 H :    0.101246
  21 H :    0.095814
  22 H :    0.127707
  23 H :    0.104428
  24 H :    0.102253
  25 H :    0.129369
  26 H :    0.094510
  27 H :    0.132762
  28 H :    0.199541
  29 H :    0.200241
  30 H :    0.152402
  31 H :    0.152790
  32 H :    0.160507
  33 H :    0.130095
  34 H :    0.240576
  35 H :    0.162878
Sum of atomic charges:   -0.0000000

LOEWDIN ATOMIC CHARGES
----------------------
   0 C :    0.104844
   1 C :   -0.011946
   2 O :    0.300545
   3 C :   -0.413377
   4 O :    0.100207
   5 C :   -0.094420
   6 C :   -0.056852
   7 C :    0.130782
   8 N :    0.407025
   9 C :   -0.456517
  10 S :   -0.037320
  11 N :    0.394658
  12 C :   -0.054637
  13 C :   -0.039266
  14 C :    0.016990
  15 C :    0.038714
  16 C :   -0.000879
  17 C :   -0.190014
  18 O :    0.395051
  19 C :    0.032805
  20 H :   -0.026767
  21 H :   -0.027635
  22 H :   -0.025820
  23 H :   -0.025178
  24 H :   -0.029010
  25 H :   -0.005098
  26 H :   -0.023761
  27 H :   -0.004584
  28 H :   -0.057247
  29 H :   -0.064506
  30 H :   -0.013847
  31 H :   -0.029227
  32 H :   -0.021463
  33 H :   -0.035455
  34 H :   -0.153988
  35 H :   -0.022807

  Mayer bond orders larger than 0.100000
B(  0-C ,  1-C ) :   0.9596 B(  0-C , 20-H ) :   0.9749 B(  0-C , 21-H ) :   0.9768
B(  0-C , 22-H ) :   0.9724 B(  1-C ,  2-O ) :   0.9022 B(  1-C , 23-H ) :   0.9828
B(  1-C , 24-H ) :   0.9841 B(  2-O ,  3-C ) :   1.1587 B(  3-C ,  4-O ) :   1.9617
B(  3-C ,  5-C ) :   1.0613 B(  5-C ,  6-C ) :   1.6417 B(  5-C , 12-C ) :   0.9562
B(  6-C ,  7-C ) :   0.9653 B(  6-C ,  8-N ) :   1.1543 B(  7-C , 25-H ) :   0.9589
B(  7-C , 26-H ) :   0.9903 B(  7-C , 27-H ) :   0.9618 B(  8-N ,  9-C ) :   1.1877
B(  8-N , 28-H ) :   0.9465 B(  9-C , 10-S ) :   1.6050 B(  9-C , 11-N ) :   1.3095
B( 11-N , 12-C ) :   0.9695 B( 11-N , 29-H ) :   0.9486 B( 12-C , 13-C ) :   0.9626
B( 12-C , 30-H ) :   1.0001 B( 13-C , 14-C ) :   1.3543 B( 13-C , 19-C ) :   1.3793
B( 14-C , 15-C ) :   1.3937 B( 14-C , 31-H ) :   0.9709 B( 15-C , 16-C ) :   1.3602
B( 15-C , 32-H ) :   0.9707 B( 16-C , 17-C ) :   1.3339 B( 16-C , 33-H ) :   0.9850
B( 17-C , 18-O ) :   1.1046 B( 17-C , 19-C ) :   1.3641 B( 18-O , 34-H ) :   0.9799
B( 19-C , 35-H ) :   0.9597

MP2 TOTAL ENERGY:    -1274.338981624 Eh
FINAL SINGLE POINT ENERGY     -1274.338981624137

DIPOLE MOMENT
-------------
                                X             Y             Z
Electronic contribution:      9.85883       9.86584       8.66775
Nuclear contribution   :    -10.88153     -11.64267      -9.05699
                        -----------------------------------------
Total Dipole Moment    :     -1.02270      -1.77684      -0.38924
                        -----------------------------------------
Magnitude (a.u.)       :      2.08676
Magnitude (Debye)      :      5.30413

Rotational constants in cm-1:     0.011454     0.008628     0.005930
Rotational constants in MHz :   343.378122   258.667970   177.763909

                             ****ORCA TERMINATED NORMALLY****
TOTAL RUN TIME: 0 days 1 hours 54 minutes 22 seconds 299 msec
