                         Program Version 4.2.0 -  RELEASE  -
|  1> ! ri-mp2 cc-pvtz cc-pvtz/c TightSCF NoKeepInts
|  2>
|  3> %scf
|  4>   MaxCore 4096
|  5> end
|  6> *xyz  0  1
|  7>     C       15.1763786   14.3224137   16.4769428
|  8>     C       15.5704500   15.1202572   15.2246992
|  9>     O       16.7763098   15.8651566   15.4872223
| 10>     C       16.7610519   17.1900243   15.1648129
| 11>     O       16.4396860   17.5451309   14.0442054
| 12>     C       16.9916452   18.1126839   16.3335145
| 13>     C       16.9732041   19.4596209   16.1481273
| 14>     C       16.4081984   20.2199446   14.9652863
| 15>     N       17.5048130   20.3285691   17.1034086
| 16>     C       18.2846455   19.9345576   18.1554944
| 17>     S       18.9919135   21.0232624   19.1802147
| 18>     N       18.4734601   18.5841503   18.2983629
| 19>     C       17.7778612   17.5371556   17.5262624
| 20>     C       17.0183789   16.5827321   18.4350307
| 21>     C       17.5452946   15.3141747   18.7395960
| 22>     C       16.8738872   14.4582411   19.6293370
| 23>     C       15.6707497   14.8776457   20.2230873
| 24>     C       15.1502472   16.1457500   19.9290633
| 25>     O       13.9913960   16.5547532   20.5037434
| 26>     C       15.8204943   16.9954464   19.0431701
| 27>     H       16.0136894   13.7058469   16.8253932
| 28>     H       14.3313951   13.6589952   16.2572104
| 29>     H       14.8726777   14.9958829   17.2848997
| 30>     H       15.7419700   14.4354186   14.3840562
| 31>     H       14.7408697   15.7877391   14.9519165
| 32>     H       15.4174851   19.8346695   14.6926169
| 33>     H       17.0575880   20.1066031   14.0876161
| 34>     H       16.2944628   21.2929928   15.1594971
| 35>     H       17.3996670   21.3239528   16.9885441
| 36>     H       19.0313006   18.3211478   19.1009962
| 37>     H       18.6483570   17.0352976   17.0802547
| 38>     H       18.4779803   14.9911627   18.2846778
| 39>     H       17.2869096   13.4771133   19.8574874
| 40>     H       15.1493923   14.2203117   20.9112037
| 41>     H       13.7095260   15.8605182   21.1183755
| 42>     H       15.4136642   17.9806776   18.8416728
| 43> *
| 44>
| 45>                          ****END OF INPUT****

CARTESIAN COORDINATES (ANGSTROEM)
---------------------------------
  C     15.176379   14.322414   16.476943
  C     15.570450   15.120257   15.224699
  O     16.776310   15.865157   15.487222
  C     16.761052   17.190024   15.164813
  O     16.439686   17.545131   14.044205
  C     16.991645   18.112684   16.333514
  C     16.973204   19.459621   16.148127
  C     16.408198   20.219945   14.965286
  N     17.504813   20.328569   17.103409
  C     18.284645   19.934558   18.155494
  S     18.991913   21.023262   19.180215
  N     18.473460   18.584150   18.298363
  C     17.777861   17.537156   17.526262
  C     17.018379   16.582732   18.435031
  C     17.545295   15.314175   18.739596
  C     16.873887   14.458241   19.629337
  C     15.670750   14.877646   20.223087
  C     15.150247   16.145750   19.929063
  O     13.991396   16.554753   20.503743
  C     15.820494   16.995446   19.043170
  H     16.013689   13.705847   16.825393
  H     14.331395   13.658995   16.257210
  H     14.872678   14.995883   17.284900
  H     15.741970   14.435419   14.384056
  H     14.740870   15.787739   14.951916
  H     15.417485   19.834669   14.692617
  H     17.057588   20.106603   14.087616
  H     16.294463   21.292993   15.159497
  H     17.399667   21.323953   16.988544
  H     19.031301   18.321148   19.100996
  H     18.648357   17.035298   17.080255
  H     18.477980   14.991163   18.284678
  H     17.286910   13.477113   19.857487
  H     15.149392   14.220312   20.911204
  H     13.709526   15.860518   21.118375
  H     15.413664   17.980678   18.841673

 Total Charge           Charge          ....    0
 Multiplicity           Mult            ....    1
 Number of Electrons    NEL             ....  154
 Basis Dimension        Dim             ....  828

ORBITAL ENERGIES
----------------

  NO   OCC          E(Eh)            E(eV)
   0   2.0000     -91.890510     -2500.4679
   1   2.0000     -20.600281      -560.5622
   2   2.0000     -20.587215      -560.2066
   3   2.0000     -20.543959      -559.0296
   4   2.0000     -15.631001      -425.3412
   5   2.0000     -15.608285      -424.7230
   6   2.0000     -11.392388      -310.0026
   7   2.0000     -11.384640      -309.7918
   8   2.0000     -11.339867      -308.5735
   9   2.0000     -11.317636      -307.9685
  10   2.0000     -11.310333      -307.7698
  11   2.0000     -11.295072      -307.3545
  12   2.0000     -11.264108      -306.5120
  13   2.0000     -11.260036      -306.4012
  14   2.0000     -11.258511      -306.3597
  15   2.0000     -11.252983      -306.2092
  16   2.0000     -11.247231      -306.0527
  17   2.0000     -11.242033      -305.9113
  18   2.0000     -11.241526      -305.8975
  19   2.0000     -11.220842      -305.3346
  20   2.0000      -8.895556      -242.0604
  21   2.0000      -6.577122      -178.9726
  22   2.0000      -6.575130      -178.9184
  23   2.0000      -6.574534      -178.9022
  24   2.0000      -1.448763       -39.4229
  25   2.0000      -1.420001       -38.6402
  26   2.0000      -1.351469       -36.7754
  27   2.0000      -1.342679       -36.5362
  28   2.0000      -1.240554       -33.7572
  29   2.0000      -1.160704       -31.5844
  30   2.0000      -1.122421       -30.5426
  31   2.0000      -1.045310       -28.4443
  32   2.0000      -1.033714       -28.1288
  33   2.0000      -1.018721       -27.7208
  34   2.0000      -0.998819       -27.1792
  35   2.0000      -0.986428       -26.8421
  36   2.0000      -0.924163       -25.1478
  37   2.0000      -0.883125       -24.0310
  38   2.0000      -0.848230       -23.0815
  39   2.0000      -0.841171       -22.8894
  40   2.0000      -0.837322       -22.7847
  41   2.0000      -0.820077       -22.3154
  42   2.0000      -0.762660       -20.7530
  43   2.0000      -0.736271       -20.0349
  44   2.0000      -0.721510       -19.6333
  45   2.0000      -0.698528       -19.0079
  46   2.0000      -0.688199       -18.7269
  47   2.0000      -0.676894       -18.4192
  48   2.0000      -0.673859       -18.3366
  49   2.0000      -0.667143       -18.1539
  50   2.0000      -0.647411       -17.6169
  51   2.0000      -0.643186       -17.5020
  52   2.0000      -0.636616       -17.3232
  53   2.0000      -0.610298       -16.6071
  54   2.0000      -0.604312       -16.4442
  55   2.0000      -0.602056       -16.3828
  56   2.0000      -0.590480       -16.0678
  57   2.0000      -0.579371       -15.7655
  58   2.0000      -0.571820       -15.5600
  59   2.0000      -0.567025       -15.4295
  60   2.0000      -0.561348       -15.2751
  61   2.0000      -0.548347       -14.9213
  62   2.0000      -0.541113       -14.7244
  63   2.0000      -0.526942       -14.3388
  64   2.0000      -0.516765       -14.0619
  65   2.0000      -0.513557       -13.9746
  66   2.0000      -0.502268       -13.6674
  67   2.0000      -0.499525       -13.5928
  68   2.0000      -0.482757       -13.1365
  69   2.0000      -0.463734       -12.6188
  70   2.0000      -0.452084       -12.3018
  71   2.0000      -0.446382       -12.1467
  72   2.0000      -0.354572        -9.6484
  73   2.0000      -0.353410        -9.6168
  74   2.0000      -0.329762        -8.9733
  75   2.0000      -0.324932        -8.8418
  76   2.0000      -0.320153        -8.7118
  77   0.0000       0.071906         1.9567
  78   0.0000       0.100795         2.7428
  79   0.0000       0.122554         3.3349
  80   0.0000       0.129955         3.5363
  81   0.0000       0.132434         3.6037

MULLIKEN ATOMIC CHARGES
-----------------------
   0 C :   -0.299259
   1 C :    0.049298
   2 O :   -0.367907
   3 C :    0.448063
   4 O :   -0.409675
   5 C :   -0.259227
   6 C :    0.182230
   7 C :   -0.264548
   8 N :   -0.126715
   9 C :    0.210240
  10 S :   -0.439489
  11 N :   -0.215511
  12 C :    0.056230
  13 C :    0.028195
  14 C :   -0.173546
  15 C :   -0.133999
  16 C :   -0.268031
  17 C :    0.303210
  18 O :   -0.359875
  19 C :   -0.234661
  20 H :    0.100005
  21 H :    0.111383
  22 H :    0.105111
  23 H :    0.105960
  24 H :    0.086479
  25 H :    0.128795
  26 H :    0.133832
  27 H :    0.094022
  28 H :    0.200235
  29 H :    0.201324
  30 H :    0.152326
  31 H :    0.152055
  32 H :    0.164644
  33 H :    0.133067
  34 H :    0.241341
  35 H :    0.164399
Sum of atomic charges:   -0.0000000

LOEWDIN ATOMIC CHARGES
----------------------
   0 C :    0.105299
   1 C :   -0.014515
   2 O :    0.292929
   3 C :   -0.423323
   4 O :    0.109736
   5 C :   -0.101622
   6 C :   -0.052543
   7 C :    0.130625
   8 N :    0.408193
   9 C :   -0.457629
  10 S :   -0.034103
  11 N :    0.395360
  12 C :   -0.054461
  13 C :   -0.039373
  14 C :    0.019947
  15 C :    0.045053
  16 C :    0.000235
  17 C :   -0.191545
  18 O :    0.396171
  19 C :    0.031194
  20 H :   -0.028407
  21 H :   -0.026488
  22 H :   -0.027192
  23 H :   -0.028502
  24 H :   -0.028582
  25 H :   -0.005361
  26 H :   -0.004133
  27 H :   -0.023451
  28 H :   -0.056584
  29 H :   -0.063988
  30 H :   -0.012168
  31 H :   -0.028787
  32 H :   -0.020523
  33 H :   -0.034787
  34 H :   -0.153079
  35 H :   -0.023597

  Mayer bond orders larger than 0.100000
B(  0-C ,  1-C ) :   0.9727 B(  0-C , 20-H ) :   0.9729 B(  0-C , 21-H ) :   0.9794
B(  0-C , 22-H ) :   0.9740 B(  1-C ,  2-O ) :   0.8948 B(  1-C , 23-H ) :   0.9883
B(  1-C , 24-H ) :   0.9720 B(  2-O ,  3-C ) :   1.1168 B(  3-C ,  4-O ) :   2.0178
B(  3-C ,  5-C ) :   1.0696 B(  5-C ,  6-C ) :   1.6141 B(  5-C , 12-C ) :   0.9627
B(  6-C ,  7-C ) :   0.9661 B(  6-C ,  8-N ) :   1.1541 B(  7-C , 25-H ) :   0.9645
B(  7-C , 26-H ) :   0.9554 B(  7-C , 27-H ) :   0.9893 B(  8-N ,  9-C ) :   1.1858
B(  8-N , 28-H ) :   0.9467 B(  9-C , 10-S ) :   1.6075 B(  9-C , 11-N ) :   1.3101
B( 11-N , 12-C ) :   0.9603 B( 11-N , 29-H ) :   0.9485 B( 12-C , 13-C ) :   0.9620
B( 12-C , 30-H ) :   1.0044 B( 13-C , 14-C ) :   1.3526 B( 13-C , 19-C ) :   1.3739
B( 14-C , 15-C ) :   1.3860 B( 14-C , 31-H ) :   0.9734 B( 15-C , 16-C ) :   1.3591
B( 15-C , 32-H ) :   0.9703 B( 16-C , 17-C ) :   1.3335 B( 16-C , 33-H ) :   0.9842
B( 17-C , 18-O ) :   1.1052 B( 17-C , 19-C ) :   1.3646 B( 18-O , 34-H ) :   0.9791
B( 19-C , 35-H ) :   0.9605

MP2 TOTAL ENERGY:    -1274.329851349 Eh
FINAL SINGLE POINT ENERGY     -1274.329851349139

DIPOLE MOMENT
-------------
                                X             Y             Z
Electronic contribution:      7.93857      11.16610       5.45179
Nuclear contribution   :     -9.00105     -12.76501      -5.42821
                        -----------------------------------------
Total Dipole Moment    :     -1.06248      -1.59892       0.02358
                        -----------------------------------------
Magnitude (a.u.)       :      1.91988
Magnitude (Debye)      :      4.87996

Rotational constants in cm-1:     0.012337     0.008708     0.006071
Rotational constants in MHz :   369.841774   261.052346   182.010384

                             ****ORCA TERMINATED NORMALLY****
TOTAL RUN TIME: 0 days 1 hours 42 minutes 26 seconds 451 msec
