                         Program Version 4.2.0 -  RELEASE  -
|  1> ! ri-mp2 cc-pvtz cc-pvtz/c TightSCF NoKeepInts
|  2>
|  3> %scf
|  4>   MaxCore 4096
|  5> end
|  6> *xyz  0  1
|  7>     C       14.3443010   15.1827997   15.3394771
|  8>     C       15.8168675   14.7798635   15.5768923
|  9>     O       16.7514663   15.8867178   15.6426738
| 10>     C       16.4323597   17.2026294   15.4381375
| 11>     O       15.7594826   17.5758791   14.4932614
| 12>     C       16.9839041   18.1013348   16.5129471
| 13>     C       17.0090589   19.4496052   16.3530138
| 14>     C       16.3105156   20.2581368   15.2792963
| 15>     N       17.7409464   20.2638227   17.2204105
| 16>     C       18.6162301   19.8000827   18.1647883
| 17>     S       19.5177311   20.8227817   19.1013892
| 18>     N       18.7232559   18.4374699   18.2818585
| 19>     C       17.8934707   17.4488842   17.5681058
| 20>     C       17.1675869   16.5021113   18.5153662
| 21>     C       17.6371288   15.1900863   18.7104230
| 22>     C       16.9623220   14.3119684   19.5751241
| 23>     C       15.8110655   14.7509500   20.2513912
| 24>     C       15.3452901   16.0596892   20.0631326
| 25>     O       14.2346819   16.4863111   20.7152724
| 26>     C       16.0190127   16.9312687   19.2018978
| 27>     H       14.0141670   15.9293316   16.0727938
| 28>     H       13.6932816   14.3059141   15.4378000
| 29>     H       14.2001760   15.5871288   14.3297716
| 30>     H       15.8770124   14.2198155   16.5191504
| 31>     H       16.1278194   14.0985032   14.7745439
| 32>     H       16.7268246   20.0282484   14.2901478
| 33>     H       16.3954852   21.3405354   15.4312891
| 34>     H       15.2404746   20.0157712   15.2483371
| 35>     H       17.6882688   21.2658501   17.1301154
| 36>     H       19.3527168   18.1261114   19.0106403
| 37>     H       18.6661295   16.9099122   17.0014749
| 38>     H       18.5245766   14.8487514   18.1839285
| 39>     H       17.3319932   13.2982200   19.7200531
| 40>     H       15.2867956   14.0769312   20.9209604
| 41>     H       13.9372922   15.7643038   21.2891026
| 42>     H       15.6473087   17.9422793   19.0730320
| 43> *
| 44>
| 45>                          ****END OF INPUT****

CARTESIAN COORDINATES (ANGSTROEM)
---------------------------------
  C     14.344301   15.182800   15.339477
  C     15.816868   14.779863   15.576892
  O     16.751466   15.886718   15.642674
  C     16.432360   17.202629   15.438137
  O     15.759483   17.575879   14.493261
  C     16.983904   18.101335   16.512947
  C     17.009059   19.449605   16.353014
  C     16.310516   20.258137   15.279296
  N     17.740946   20.263823   17.220410
  C     18.616230   19.800083   18.164788
  S     19.517731   20.822782   19.101389
  N     18.723256   18.437470   18.281858
  C     17.893471   17.448884   17.568106
  C     17.167587   16.502111   18.515366
  C     17.637129   15.190086   18.710423
  C     16.962322   14.311968   19.575124
  C     15.811065   14.750950   20.251391
  C     15.345290   16.059689   20.063133
  O     14.234682   16.486311   20.715272
  C     16.019013   16.931269   19.201898
  H     14.014167   15.929332   16.072794
  H     13.693282   14.305914   15.437800
  H     14.200176   15.587129   14.329772
  H     15.877012   14.219815   16.519150
  H     16.127819   14.098503   14.774544
  H     16.726825   20.028248   14.290148
  H     16.395485   21.340535   15.431289
  H     15.240475   20.015771   15.248337
  H     17.688269   21.265850   17.130115
  H     19.352717   18.126111   19.010640
  H     18.666130   16.909912   17.001475
  H     18.524577   14.848751   18.183929
  H     17.331993   13.298220   19.720053
  H     15.286796   14.076931   20.920960
  H     13.937292   15.764304   21.289103
  H     15.647309   17.942279   19.073032

 Total Charge           Charge          ....    0
 Multiplicity           Mult            ....    1
 Number of Electrons    NEL             ....  154
 Basis Dimension        Dim             ....  828

ORBITAL ENERGIES
----------------

  NO   OCC          E(Eh)            E(eV)
   0   2.0000     -91.888941     -2500.4252
   1   2.0000     -20.599627      -560.5444
   2   2.0000     -20.588701      -560.2470
   3   2.0000     -20.541463      -558.9616
   4   2.0000     -15.629255      -425.2937
   5   2.0000     -15.607080      -424.6902
   6   2.0000     -11.394614      -310.0632
   7   2.0000     -11.383633      -309.7644
   8   2.0000     -11.337005      -308.4956
   9   2.0000     -11.317135      -307.9549
  10   2.0000     -11.307547      -307.6940
  11   2.0000     -11.299868      -307.4850
  12   2.0000     -11.263608      -306.4984
  13   2.0000     -11.258542      -306.3605
  14   2.0000     -11.257733      -306.3385
  15   2.0000     -11.251603      -306.1717
  16   2.0000     -11.246666      -306.0373
  17   2.0000     -11.241641      -305.9006
  18   2.0000     -11.241458      -305.8956
  19   2.0000     -11.224057      -305.4221
  20   2.0000      -8.894013      -242.0184
  21   2.0000      -6.575586      -178.9308
  22   2.0000      -6.573588      -178.8764
  23   2.0000      -6.572997      -178.8604
  24   2.0000      -1.441579       -39.2274
  25   2.0000      -1.419289       -38.6208
  26   2.0000      -1.350977       -36.7619
  27   2.0000      -1.340317       -36.4719
  28   2.0000      -1.238365       -33.6976
  29   2.0000      -1.160216       -31.5711
  30   2.0000      -1.120920       -30.5018
  31   2.0000      -1.044480       -28.4217
  32   2.0000      -1.033484       -28.1225
  33   2.0000      -1.018150       -27.7053
  34   2.0000      -0.996799       -27.1243
  35   2.0000      -0.984792       -26.7976
  36   2.0000      -0.922653       -25.1067
  37   2.0000      -0.896543       -24.3962
  38   2.0000      -0.847410       -23.0592
  39   2.0000      -0.840326       -22.8664
  40   2.0000      -0.836866       -22.7723
  41   2.0000      -0.818355       -22.2686
  42   2.0000      -0.744076       -20.2473
  43   2.0000      -0.733982       -19.9727
  44   2.0000      -0.718267       -19.5450
  45   2.0000      -0.697894       -18.9907
  46   2.0000      -0.688023       -18.7221
  47   2.0000      -0.674387       -18.3510
  48   2.0000      -0.671669       -18.2770
  49   2.0000      -0.659576       -17.9480
  50   2.0000      -0.649572       -17.6757
  51   2.0000      -0.642728       -17.4895
  52   2.0000      -0.635656       -17.2971
  53   2.0000      -0.617749       -16.8098
  54   2.0000      -0.609652       -16.5895
  55   2.0000      -0.602694       -16.4001
  56   2.0000      -0.600696       -16.3458
  57   2.0000      -0.579423       -15.7669
  58   2.0000      -0.570382       -15.5209
  59   2.0000      -0.566244       -15.4083
  60   2.0000      -0.553381       -15.0583
  61   2.0000      -0.541624       -14.7383
  62   2.0000      -0.535152       -14.5622
  63   2.0000      -0.526693       -14.3320
  64   2.0000      -0.522074       -14.2063
  65   2.0000      -0.513862       -13.9829
  66   2.0000      -0.500985       -13.6325
  67   2.0000      -0.494715       -13.4619
  68   2.0000      -0.487271       -13.2593
  69   2.0000      -0.462829       -12.5942
  70   2.0000      -0.453690       -12.3455
  71   2.0000      -0.440660       -11.9910
  72   2.0000      -0.353727        -9.6254
  73   2.0000      -0.351482        -9.5643
  74   2.0000      -0.328613        -8.9420
  75   2.0000      -0.324284        -8.8242
  76   2.0000      -0.318325        -8.6621
  77   0.0000       0.075435         2.0527
  78   0.0000       0.101462         2.7609
  79   0.0000       0.123984         3.3738
  80   0.0000       0.131589         3.5807
  81   0.0000       0.134461         3.6589

MULLIKEN ATOMIC CHARGES
-----------------------
   0 C :   -0.307080
   1 C :    0.046482
   2 O :   -0.375500
   3 C :    0.454311
   4 O :   -0.422250
   5 C :   -0.260410
   6 C :    0.182374
   7 C :   -0.266978
   8 N :   -0.126285
   9 C :    0.213296
  10 S :   -0.442528
  11 N :   -0.218445
  12 C :    0.079470
  13 C :    0.045197
  14 C :   -0.201415
  15 C :   -0.126316
  16 C :   -0.278433
  17 C :    0.317786
  18 O :   -0.356209
  19 C :   -0.253639
  20 H :    0.099339
  21 H :    0.100232
  22 H :    0.124188
  23 H :    0.102846
  24 H :    0.104359
  25 H :    0.130503
  26 H :    0.094541
  27 H :    0.132118
  28 H :    0.199280
  29 H :    0.200723
  30 H :    0.151366
  31 H :    0.154303
  32 H :    0.164188
  33 H :    0.132161
  34 H :    0.241221
  35 H :    0.165203
Sum of atomic charges:    0.0000000

LOEWDIN ATOMIC CHARGES
----------------------
   0 C :    0.104605
   1 C :   -0.010200
   2 O :    0.291964
   3 C :   -0.417056
   4 O :    0.108243
   5 C :   -0.098446
   6 C :   -0.056252
   7 C :    0.131123
   8 N :    0.407268
   9 C :   -0.455617
  10 S :   -0.036875
  11 N :    0.394152
  12 C :   -0.054580
  13 C :   -0.037907
  14 C :    0.017167
  15 C :    0.039146
  16 C :   -0.001552
  17 C :   -0.189803
  18 O :    0.395631
  19 C :    0.032469
  20 H :   -0.027934
  21 H :   -0.025811
  22 H :   -0.024448
  23 H :   -0.028415
  24 H :   -0.028244
  25 H :   -0.004535
  26 H :   -0.023732
  27 H :   -0.004769
  28 H :   -0.057170
  29 H :   -0.064931
  30 H :   -0.012972
  31 H :   -0.028425
  32 H :   -0.020685
  33 H :   -0.034997
  34 H :   -0.153381
  35 H :   -0.023030

  Mayer bond orders larger than 0.100000
B(  0-C ,  1-C ) :   0.9696 B(  0-C , 20-H ) :   0.9745 B(  0-C , 21-H ) :   0.9743
B(  0-C , 22-H ) :   0.9721 B(  1-C ,  2-O ) :   0.8947 B(  1-C , 23-H ) :   0.9725
B(  1-C , 24-H ) :   0.9831 B(  2-O ,  3-C ) :   1.1248 B(  3-C ,  4-O ) :   1.9890
B(  3-C ,  5-C ) :   1.0575 B(  5-C ,  6-C ) :   1.6303 B(  5-C , 12-C ) :   0.9552
B(  6-C ,  7-C ) :   0.9653 B(  6-C ,  8-N ) :   1.1579 B(  7-C , 25-H ) :   0.9584
B(  7-C , 26-H ) :   0.9901 B(  7-C , 27-H ) :   0.9619 B(  8-N ,  9-C ) :   1.1866
B(  8-N , 28-H ) :   0.9466 B(  9-C , 10-S ) :   1.6034 B(  9-C , 11-N ) :   1.3112
B( 11-N , 12-C ) :   0.9650 B( 11-N , 29-H ) :   0.9486 B( 12-C , 13-C ) :   0.9625
B( 12-C , 30-H ) :   0.9997 B( 13-C , 14-C ) :   1.3465 B( 13-C , 19-C ) :   1.3767
B( 14-C , 15-C ) :   1.3897 B( 14-C , 31-H ) :   0.9731 B( 15-C , 16-C ) :   1.3582
B( 15-C , 32-H ) :   0.9698 B( 16-C , 17-C ) :   1.3329 B( 16-C , 33-H ) :   0.9845
B( 17-C , 18-O ) :   1.1057 B( 17-C , 19-C ) :   1.3632 B( 18-O , 34-H ) :   0.9793
B( 19-C , 35-H ) :   0.9594

MP2 TOTAL ENERGY:    -1274.331511493 Eh
FINAL SINGLE POINT ENERGY     -1274.331511492778

DIPOLE MOMENT
-------------
                                X             Y             Z
Electronic contribution:      9.80378       9.67355       7.49932
Nuclear contribution   :    -10.83636     -11.43194      -7.60538
                        -----------------------------------------
Total Dipole Moment    :     -1.03258      -1.75838      -0.10606
                        -----------------------------------------
Magnitude (a.u.)       :      2.04191
Magnitude (Debye)      :      5.19011

Rotational constants in cm-1:     0.012135     0.008552     0.006081
Rotational constants in MHz :   363.792137   256.387438   182.317076

                             ****ORCA TERMINATED NORMALLY****
TOTAL RUN TIME: 0 days 2 hours 0 minutes 56 seconds 751 msec
