                         Program Version 4.2.0 -  RELEASE  -
|  1> ! ri-mp2 cc-pvtz cc-pvtz/c TightSCF NoKeepInts
|  2>
|  3> %scf
|  4>   MaxCore 4096
|  5> end
|  6> *xyz  0  1
|  7>     C       13.7065192   16.3793600   15.0872386
|  8>     C       15.0324476   15.7468018   15.5427736
|  9>     O       16.1124853   16.3704307   14.8244474
| 10>     C       17.2620857   16.5840097   15.5236192
| 11>     O       18.2112530   15.8254802   15.4474463
| 12>     C       17.1767296   17.6935435   16.5215499
| 13>     C       16.7368456   18.9233934   16.1586967
| 14>     C       16.1224614   19.3187266   14.8308351
| 15>     N       16.9186852   20.0218012   17.0017377
| 16>     C       17.7296614   20.0186339   18.1058870
| 17>     S       17.9876107   21.3843842   19.0018742
| 18>     N       18.3363332   18.8264445   18.4167848
| 19>     C       18.0620460   17.5337937   17.7579566
| 20>     C       17.5644332   16.4444767   18.6968583
| 21>     C       18.1426970   15.1629054   18.6696014
| 22>     C       17.6718908   14.1487234   19.5201249
| 23>     C       16.6121411   14.4181684   20.4031588
| 24>     C       16.0300575   15.6930091   20.4277615
| 25>     O       15.0001729   15.9532514   21.2717180
| 26>     C       16.4997143   16.7001789   19.5785474
| 27>     H       12.8574800   15.8150574   15.4921177
| 28>     H       13.6290165   16.3743947   13.9926537
| 29>     H       13.6214956   17.4120608   15.4425145
| 30>     H       15.1393402   15.8814839   16.6285234
| 31>     H       15.0296272   14.6687106   15.3339841
| 32>     H       16.6104173   18.8023434   13.9944590
| 33>     H       16.2219064   20.3930305   14.6317555
| 34>     H       15.0560186   19.0737334   14.7997691
| 35>     H       16.5046451   20.9103738   16.7681650
| 36>     H       18.9214571   18.8492611   19.2426406
| 37>     H       19.0652658   17.2864399   17.3799648
| 38>     H       18.9531002   14.9498979   17.9753929
| 39>     H       18.1260138   13.1596757   19.4888725
| 40>     H       16.2449665   13.6371840   21.0608665
| 41>     H       14.8546013   15.1584198   21.8068542
| 42>     H       16.0353777   17.6804161   19.6108491
| 43> *
| 44>
| 45>                          ****END OF INPUT****

CARTESIAN COORDINATES (ANGSTROEM)
---------------------------------
  C     13.706519   16.379360   15.087239
  C     15.032448   15.746802   15.542774
  O     16.112485   16.370431   14.824447
  C     17.262086   16.584010   15.523619
  O     18.211253   15.825480   15.447446
  C     17.176730   17.693544   16.521550
  C     16.736846   18.923393   16.158697
  C     16.122461   19.318727   14.830835
  N     16.918685   20.021801   17.001738
  C     17.729661   20.018634   18.105887
  S     17.987611   21.384384   19.001874
  N     18.336333   18.826445   18.416785
  C     18.062046   17.533794   17.757957
  C     17.564433   16.444477   18.696858
  C     18.142697   15.162905   18.669601
  C     17.671891   14.148723   19.520125
  C     16.612141   14.418168   20.403159
  C     16.030058   15.693009   20.427761
  O     15.000173   15.953251   21.271718
  C     16.499714   16.700179   19.578547
  H     12.857480   15.815057   15.492118
  H     13.629016   16.374395   13.992654
  H     13.621496   17.412061   15.442514
  H     15.139340   15.881484   16.628523
  H     15.029627   14.668711   15.333984
  H     16.610417   18.802343   13.994459
  H     16.221906   20.393030   14.631756
  H     15.056019   19.073733   14.799769
  H     16.504645   20.910374   16.768165
  H     18.921457   18.849261   19.242641
  H     19.065266   17.286440   17.379965
  H     18.953100   14.949898   17.975393
  H     18.126014   13.159676   19.488872
  H     16.244967   13.637184   21.060866
  H     14.854601   15.158420   21.806854
  H     16.035378   17.680416   19.610849

 Total Charge           Charge          ....    0
 Multiplicity           Mult            ....    1
 Number of Electrons    NEL             ....  154
 Basis Dimension        Dim             ....  828

ORBITAL ENERGIES
----------------

  NO   OCC          E(Eh)            E(eV)
   0   2.0000     -91.889979     -2500.4534
   1   2.0000     -20.597956      -560.4989
   2   2.0000     -20.589044      -560.2564
   3   2.0000     -20.555766      -559.3508
   4   2.0000     -15.629382      -425.2971
   5   2.0000     -15.608537      -424.7299
   6   2.0000     -11.394600      -310.0628
   7   2.0000     -11.385380      -309.8119
   8   2.0000     -11.336737      -308.4883
   9   2.0000     -11.314846      -307.8926
  10   2.0000     -11.307603      -307.6955
  11   2.0000     -11.305029      -307.6255
  12   2.0000     -11.262085      -306.4569
  13   2.0000     -11.261901      -306.4519
  14   2.0000     -11.259893      -306.3973
  15   2.0000     -11.254823      -306.2593
  16   2.0000     -11.244363      -305.9747
  17   2.0000     -11.240492      -305.8693
  18   2.0000     -11.237232      -305.7806
  19   2.0000     -11.237183      -305.7793
  20   2.0000      -8.895065      -242.0470
  21   2.0000      -6.576641      -178.9595
  22   2.0000      -6.574637      -178.9050
  23   2.0000      -6.574048      -178.8889
  24   2.0000      -1.451927       -39.5090
  25   2.0000      -1.417709       -38.5778
  26   2.0000      -1.361785       -37.0561
  27   2.0000      -1.341151       -36.4946
  28   2.0000      -1.238874       -33.7115
  29   2.0000      -1.159016       -31.5384
  30   2.0000      -1.124556       -30.6007
  31   2.0000      -1.046931       -28.4884
  32   2.0000      -1.039237       -28.2791
  33   2.0000      -1.016578       -27.6625
  34   2.0000      -1.003123       -27.2964
  35   2.0000      -0.988442       -26.8969
  36   2.0000      -0.924645       -25.1609
  37   2.0000      -0.883692       -24.0465
  38   2.0000      -0.851339       -23.1661
  39   2.0000      -0.841653       -22.9025
  40   2.0000      -0.835012       -22.7218
  41   2.0000      -0.833498       -22.6806
  42   2.0000      -0.759845       -20.6764
  43   2.0000      -0.737189       -20.0599
  44   2.0000      -0.730560       -19.8795
  45   2.0000      -0.695459       -18.9244
  46   2.0000      -0.687408       -18.7053
  47   2.0000      -0.685186       -18.6449
  48   2.0000      -0.675027       -18.3684
  49   2.0000      -0.659185       -17.9373
  50   2.0000      -0.652672       -17.7601
  51   2.0000      -0.640785       -17.4366
  52   2.0000      -0.631392       -17.1811
  53   2.0000      -0.623519       -16.9668
  54   2.0000      -0.608238       -16.5510
  55   2.0000      -0.604403       -16.4466
  56   2.0000      -0.601356       -16.3637
  57   2.0000      -0.580128       -15.7861
  58   2.0000      -0.575358       -15.6563
  59   2.0000      -0.571093       -15.5402
  60   2.0000      -0.561558       -15.2808
  61   2.0000      -0.554312       -15.0836
  62   2.0000      -0.547428       -14.8963
  63   2.0000      -0.524696       -14.2777
  64   2.0000      -0.521010       -14.1774
  65   2.0000      -0.513369       -13.9695
  66   2.0000      -0.501856       -13.6562
  67   2.0000      -0.498230       -13.5575
  68   2.0000      -0.486232       -13.2310
  69   2.0000      -0.467280       -12.7153
  70   2.0000      -0.462197       -12.5770
  71   2.0000      -0.452531       -12.3140
  72   2.0000      -0.355764        -9.6808
  73   2.0000      -0.350406        -9.5350
  74   2.0000      -0.329217        -8.9584
  75   2.0000      -0.322088        -8.7645
  76   2.0000      -0.319576        -8.6961
  77   0.0000       0.076756         2.0886
  78   0.0000       0.104121         2.8333
  79   0.0000       0.119885         3.2622
  80   0.0000       0.131352         3.5743
  81   0.0000       0.134227         3.6525

MULLIKEN ATOMIC CHARGES
-----------------------
   0 C :   -0.291257
   1 C :    0.033717
   2 O :   -0.362692
   3 C :    0.461138
   4 O :   -0.377932
   5 C :   -0.234110
   6 C :    0.148253
   7 C :   -0.298190
   8 N :   -0.132336
   9 C :    0.207075
  10 S :   -0.440673
  11 N :   -0.216778
  12 C :    0.061312
  13 C :    0.020342
  14 C :   -0.198578
  15 C :   -0.130501
  16 C :   -0.277096
  17 C :    0.314009
  18 O :   -0.357076
  19 C :   -0.251883
  20 H :    0.108959
  21 H :    0.106993
  22 H :    0.089402
  23 H :    0.097508
  24 H :    0.114271
  25 H :    0.131929
  26 H :    0.113214
  27 H :    0.122869
  28 H :    0.198683
  29 H :    0.200560
  30 H :    0.161115
  31 H :    0.171516
  32 H :    0.163345
  33 H :    0.131331
  34 H :    0.241002
  35 H :    0.170559
Sum of atomic charges:   -0.0000000

LOEWDIN ATOMIC CHARGES
----------------------
   0 C :    0.108131
   1 C :   -0.016856
   2 O :    0.294022
   3 C :   -0.423016
   4 O :    0.129743
   5 C :   -0.095526
   6 C :   -0.075145
   7 C :    0.128117
   8 N :    0.404478
   9 C :   -0.456956
  10 S :   -0.036657
  11 N :    0.395668
  12 C :   -0.049236
  13 C :   -0.043808
  14 C :    0.021792
  15 C :    0.043267
  16 C :   -0.000549
  17 C :   -0.193103
  18 O :    0.394270
  19 C :    0.026993
  20 H :   -0.022206
  21 H :   -0.024024
  22 H :   -0.033119
  23 H :   -0.029909
  24 H :   -0.026266
  25 H :   -0.006581
  26 H :   -0.017201
  27 H :   -0.015429
  28 H :   -0.057914
  29 H :   -0.063786
  30 H :   -0.005854
  31 H :   -0.021930
  32 H :   -0.019303
  33 H :   -0.035140
  34 H :   -0.153563
  35 H :   -0.023406

  Mayer bond orders larger than 0.100000
B(  0-C ,  1-C ) :   0.9751 B(  0-C , 20-H ) :   0.9776 B(  0-C , 21-H ) :   0.9747
B(  0-C , 22-H ) :   0.9784 B(  1-C ,  2-O ) :   0.9009 B(  1-C , 23-H ) :   0.9606
B(  1-C , 24-H ) :   0.9824 B(  2-O ,  3-C ) :   1.0931 B(  3-C ,  4-O ) :   2.0856
B(  3-C ,  5-C ) :   0.9636 B(  5-C ,  6-C ) :   1.6968 B(  5-C , 12-C ) :   0.9422
B(  6-C ,  7-C ) :   0.9464 B(  6-C ,  8-N ) :   1.1256 B(  7-C , 25-H ) :   0.9682
B(  7-C , 26-H ) :   0.9871 B(  7-C , 27-H ) :   0.9660 B(  8-N ,  9-C ) :   1.1900
B(  8-N , 28-H ) :   0.9488 B(  9-C , 10-S ) :   1.6122 B(  9-C , 11-N ) :   1.2960
B( 11-N , 12-C ) :   0.9839 B( 11-N , 29-H ) :   0.9484 B( 12-C , 13-C ) :   0.9686
B( 12-C , 30-H ) :   0.9924 B( 13-C , 14-C ) :   1.3857 B( 13-C , 19-C ) :   1.3556
B( 14-C , 15-C ) :   1.3952 B( 14-C , 31-H ) :   0.9597 B( 15-C , 16-C ) :   1.3613
B( 15-C , 32-H ) :   0.9703 B( 16-C , 17-C ) :   1.3315 B( 16-C , 33-H ) :   0.9848
B( 17-C , 18-O ) :   1.1080 B( 17-C , 19-C ) :   1.3643 B( 18-O , 34-H ) :   0.9796
B( 19-C , 35-H ) :   0.9581

MP2 TOTAL ENERGY:    -1274.325671064 Eh
FINAL SINGLE POINT ENERGY     -1274.325671064137

DIPOLE MOMENT
-------------
                                X             Y             Z
Electronic contribution:     10.91230       6.94070       8.39507
Nuclear contribution   :    -12.35439      -8.24729      -8.80240
                        -----------------------------------------
Total Dipole Moment    :     -1.44209      -1.30659      -0.40732
                        -----------------------------------------
Magnitude (a.u.)       :      1.98814
Magnitude (Debye)      :      5.05345

Rotational constants in cm-1:     0.010619     0.009177     0.006314
Rotational constants in MHz :   318.337508   275.120407   189.292235

                             ****ORCA TERMINATED NORMALLY****
TOTAL RUN TIME: 0 days 1 hours 47 minutes 15 seconds 685 msec
