                         Program Version 4.2.0 -  RELEASE  -
|  1> ! ri-mp2 cc-pvtz cc-pvtz/c TightSCF NoKeepInts
|  2>
|  3> %scf
|  4>   MaxCore 4096
|  5> end
|  6> *xyz  0  1
|  7>     C       14.7890099   15.1813708   16.0263181
|  8>     C       14.8852318   16.2820801   14.9465613
|  9>     O       16.2551454   16.5359575   14.5621392
| 10>     C       17.2428319   16.5544887   15.5035666
| 11>     O       18.0477203   15.6454715   15.5989382
| 12>     C       17.2029852   17.7172634   16.4498587
| 13>     C       16.9342690   18.9783958   16.0241196
| 14>     C       16.4567659   19.4088464   14.6507920
| 15>     N       17.1721698   20.0762769   16.8544799
| 16>     C       17.8909552   20.0225817   18.0186803
| 17>     S       18.2313309   21.3821030   18.8964247
| 18>     N       18.3338013   18.7828219   18.4062899
| 19>     C       17.9634228   17.5068930   17.7630474
| 20>     C       17.2770093   16.5220736   18.6989058
| 21>     C       17.7188172   15.1894856   18.7813630
| 22>     C       17.0727134   14.2736682   19.6283042
| 23>     C       15.9752126   14.6941413   20.3989654
| 24>     C       15.5310275   16.0209284   20.3164284
| 25>     O       14.4657836   16.4273511   21.0518182
| 26>     C       16.1752169   16.9300651   19.4711587
| 27>     H       15.3435700   14.2851568   15.7191037
| 28>     H       13.7425811   14.8940426   16.1847296
| 29>     H       15.1871146   15.5229909   16.9890092
| 30>     H       14.3142548   15.9783306   14.0595438
| 31>     H       14.4290611   17.1989752   15.3408192
| 32>     H       17.0193837   18.8974767   13.8591492
| 33>     H       16.5894045   20.4843993   14.4795574
| 34>     H       15.3936374   19.1829305   14.5117597
| 35>     H       16.8801614   20.9970977   16.5678065
| 36>     H       18.8517970   18.7683985   19.2759879
| 37>     H       18.9586110   17.1352391   17.4770080
| 38>     H       18.5576565   14.8593064   18.1722025
| 39>     H       17.4206878   13.2433673   19.6797184
| 40>     H       15.4723659   13.9892212   21.0527431
| 41>     H       14.1897114   15.6783854   21.6014297
| 42>     H       15.8155816   17.9524182   19.4192725
| 43> *
| 44>
| 45>                          ****END OF INPUT****

CARTESIAN COORDINATES (ANGSTROEM)
---------------------------------
  C     14.789010   15.181371   16.026318
  C     14.885232   16.282080   14.946561
  O     16.255145   16.535957   14.562139
  C     17.242832   16.554489   15.503567
  O     18.047720   15.645471   15.598938
  C     17.202985   17.717263   16.449859
  C     16.934269   18.978396   16.024120
  C     16.456766   19.408846   14.650792
  N     17.172170   20.076277   16.854480
  C     17.890955   20.022582   18.018680
  S     18.231331   21.382103   18.896425
  N     18.333801   18.782822   18.406290
  C     17.963423   17.506893   17.763047
  C     17.277009   16.522074   18.698906
  C     17.718817   15.189486   18.781363
  C     17.072713   14.273668   19.628304
  C     15.975213   14.694141   20.398965
  C     15.531027   16.020928   20.316428
  O     14.465784   16.427351   21.051818
  C     16.175217   16.930065   19.471159
  H     15.343570   14.285157   15.719104
  H     13.742581   14.894043   16.184730
  H     15.187115   15.522991   16.989009
  H     14.314255   15.978331   14.059544
  H     14.429061   17.198975   15.340819
  H     17.019384   18.897477   13.859149
  H     16.589405   20.484399   14.479557
  H     15.393637   19.182931   14.511760
  H     16.880161   20.997098   16.567806
  H     18.851797   18.768398   19.275988
  H     18.958611   17.135239   17.477008
  H     18.557656   14.859306   18.172203
  H     17.420688   13.243367   19.679718
  H     15.472366   13.989221   21.052743
  H     14.189711   15.678385   21.601430
  H     15.815582   17.952418   19.419273

 Total Charge           Charge          ....    0
 Multiplicity           Mult            ....    1
 Number of Electrons    NEL             ....  154
 Basis Dimension        Dim             ....  828

ORBITAL ENERGIES
----------------

  NO   OCC          E(Eh)            E(eV)
   0   2.0000     -91.890277     -2500.4616
   1   2.0000     -20.597107      -560.4758
   2   2.0000     -20.588746      -560.2483
   3   2.0000     -20.552917      -559.2733
   4   2.0000     -15.630512      -425.3279
   5   2.0000     -15.608271      -424.7227
   6   2.0000     -11.395326      -310.0826
   7   2.0000     -11.385243      -309.8082
   8   2.0000     -11.339597      -308.5661
   9   2.0000     -11.313876      -307.8662
  10   2.0000     -11.308647      -307.7239
  11   2.0000     -11.306818      -307.6742
  12   2.0000     -11.263143      -306.4857
  13   2.0000     -11.261360      -306.4372
  14   2.0000     -11.260576      -306.4159
  15   2.0000     -11.253736      -306.2297
  16   2.0000     -11.243695      -305.9565
  17   2.0000     -11.239624      -305.8457
  18   2.0000     -11.235885      -305.7440
  19   2.0000     -11.228988      -305.5563
  20   2.0000      -8.895358      -242.0550
  21   2.0000      -6.576932      -178.9674
  22   2.0000      -6.574929      -178.9129
  23   2.0000      -6.574339      -178.8969
  24   2.0000      -1.448069       -39.4039
  25   2.0000      -1.416893       -38.5556
  26   2.0000      -1.358958       -36.9791
  27   2.0000      -1.342053       -36.5191
  28   2.0000      -1.239362       -33.7248
  29   2.0000      -1.158038       -31.5118
  30   2.0000      -1.123663       -30.5764
  31   2.0000      -1.045781       -28.4572
  32   2.0000      -1.033520       -28.1235
  33   2.0000      -1.015761       -27.6403
  34   2.0000      -1.003584       -27.3089
  35   2.0000      -0.988155       -26.8891
  36   2.0000      -0.924899       -25.1678
  37   2.0000      -0.895262       -24.3613
  38   2.0000      -0.852278       -23.1917
  39   2.0000      -0.840270       -22.8649
  40   2.0000      -0.833640       -22.6845
  41   2.0000      -0.827468       -22.5165
  42   2.0000      -0.744872       -20.2690
  43   2.0000      -0.731040       -19.8926
  44   2.0000      -0.730588       -19.8803
  45   2.0000      -0.694372       -18.8948
  46   2.0000      -0.685569       -18.6553
  47   2.0000      -0.682251       -18.5650
  48   2.0000      -0.677336       -18.4312
  49   2.0000      -0.664430       -18.0800
  50   2.0000      -0.652995       -17.7689
  51   2.0000      -0.646764       -17.5993
  52   2.0000      -0.636489       -17.3198
  53   2.0000      -0.623039       -16.9537
  54   2.0000      -0.607732       -16.5372
  55   2.0000      -0.603259       -16.4155
  56   2.0000      -0.600594       -16.3430
  57   2.0000      -0.580409       -15.7937
  58   2.0000      -0.575380       -15.6569
  59   2.0000      -0.565692       -15.3933
  60   2.0000      -0.557486       -15.1700
  61   2.0000      -0.546752       -14.8779
  62   2.0000      -0.542453       -14.7609
  63   2.0000      -0.533243       -14.5103
  64   2.0000      -0.519923       -14.1478
  65   2.0000      -0.511658       -13.9229
  66   2.0000      -0.499461       -13.5910
  67   2.0000      -0.490818       -13.3558
  68   2.0000      -0.487605       -13.2684
  69   2.0000      -0.468189       -12.7401
  70   2.0000      -0.459346       -12.4994
  71   2.0000      -0.449346       -12.2273
  72   2.0000      -0.356268        -9.6945
  73   2.0000      -0.349675        -9.5152
  74   2.0000      -0.329442        -8.9646
  75   2.0000      -0.321118        -8.7381
  76   2.0000      -0.319791        -8.7020
  77   0.0000       0.074172         2.0183
  78   0.0000       0.105181         2.8621
  79   0.0000       0.119635         3.2554
  80   0.0000       0.131537         3.5793
  81   0.0000       0.136479         3.7138

MULLIKEN ATOMIC CHARGES
-----------------------
   0 C :   -0.306975
   1 C :    0.033450
   2 O :   -0.371699
   3 C :    0.470751
   4 O :   -0.384813
   5 C :   -0.240559
   6 C :    0.153020
   7 C :   -0.297646
   8 N :   -0.129834
   9 C :    0.205874
  10 S :   -0.439923
  11 N :   -0.215147
  12 C :    0.063432
  13 C :   -0.018129
  14 C :   -0.172433
  15 C :   -0.138432
  16 C :   -0.269761
  17 C :    0.306515
  18 O :   -0.358468
  19 C :   -0.225207
  20 H :    0.115559
  21 H :    0.104072
  22 H :    0.117179
  23 H :    0.118427
  24 H :    0.078680
  25 H :    0.137174
  26 H :    0.110302
  27 H :    0.121242
  28 H :    0.198131
  29 H :    0.200476
  30 H :    0.160249
  31 H :    0.170861
  32 H :    0.162561
  33 H :    0.131706
  34 H :    0.240775
  35 H :    0.168596
Sum of atomic charges:   -0.0000000

LOEWDIN ATOMIC CHARGES
----------------------
   0 C :    0.109751
   1 C :   -0.020315
   2 O :    0.290687
   3 C :   -0.423146
   4 O :    0.127143
   5 C :   -0.096143
   6 C :   -0.070324
   7 C :    0.127786
   8 N :    0.405166
   9 C :   -0.458398
  10 S :   -0.035931
  11 N :    0.396220
  12 C :   -0.048868
  13 C :   -0.044860
  14 C :    0.023682
  15 C :    0.042894
  16 C :   -0.000467
  17 C :   -0.193281
  18 O :    0.394360
  19 C :    0.027096
  20 H :   -0.020425
  21 H :   -0.024298
  22 H :   -0.026273
  23 H :   -0.021518
  24 H :   -0.040216
  25 H :   -0.005890
  26 H :   -0.018079
  27 H :   -0.014572
  28 H :   -0.058108
  29 H :   -0.063318
  30 H :   -0.006248
  31 H :   -0.022157
  32 H :   -0.019457
  33 H :   -0.035115
  34 H :   -0.153744
  35 H :   -0.023635

  Mayer bond orders larger than 0.100000
B(  0-C ,  1-C ) :   0.9717 B(  0-C , 20-H ) :   0.9726 B(  0-C , 21-H ) :   0.9762
B(  0-C , 22-H ) :   0.9652 B(  1-C ,  2-O ) :   0.9019 B(  1-C , 23-H ) :   0.9782
B(  1-C , 24-H ) :   0.9734 B(  2-O ,  3-C ) :   1.0899 B(  3-C ,  4-O ) :   2.0634
B(  3-C ,  5-C ) :   0.9856 B(  5-C ,  6-C ) :   1.6891 B(  5-C , 12-C ) :   0.9412
B(  6-C ,  7-C ) :   0.9444 B(  6-C ,  8-N ) :   1.1359 B(  7-C , 25-H ) :   0.9652
B(  7-C , 26-H ) :   0.9880 B(  7-C , 27-H ) :   0.9675 B(  8-N ,  9-C ) :   1.1862
B(  8-N , 28-H ) :   0.9479 B(  9-C , 10-S ) :   1.6123 B(  9-C , 11-N ) :   1.2995
B( 11-N , 12-C ) :   0.9838 B( 11-N , 29-H ) :   0.9486 B( 12-C , 13-C ) :   0.9680
B( 12-C , 30-H ) :   0.9940 B( 13-C , 14-C ) :   1.3898 B( 13-C , 19-C ) :   1.3609
B( 14-C , 15-C ) :   1.3957 B( 14-C , 31-H ) :   0.9584 B( 15-C , 16-C ) :   1.3599
B( 15-C , 32-H ) :   0.9707 B( 16-C , 17-C ) :   1.3325 B( 16-C , 33-H ) :   0.9845
B( 17-C , 18-O ) :   1.1078 B( 17-C , 19-C ) :   1.3650 B( 18-O , 34-H ) :   0.9798
B( 19-C , 35-H ) :   0.9590

MP2 TOTAL ENERGY:    -1274.328154586 Eh
FINAL SINGLE POINT ENERGY     -1274.328154586117

DIPOLE MOMENT
-------------
                                X             Y             Z
Electronic contribution:      9.02439       8.71795       6.93544
Nuclear contribution   :    -10.58386      -9.81458      -7.49859
                        -----------------------------------------
Total Dipole Moment    :     -1.55947      -1.09663      -0.56315
                        -----------------------------------------
Magnitude (a.u.)       :      1.98789
Magnitude (Debye)      :      5.05280

Rotational constants in cm-1:     0.011433     0.009284     0.006301
Rotational constants in MHz :   342.749454   278.331745   188.912428

                             ****ORCA TERMINATED NORMALLY****
TOTAL RUN TIME: 0 days 1 hours 56 minutes 42 seconds 759 msec
