                         Program Version 4.2.0 -  RELEASE  -
|  1> ! ri-mp2 cc-pvtz cc-pvtz/c TightSCF NoKeepInts
|  2>
|  3> %scf
|  4>   MaxCore 4096
|  5> end
|  6> *xyz  0  1
|  7>     C       14.0933081   16.5972080   15.7458662
|  8>     C       15.2400382   15.6462275   15.3561672
|  9>     O       16.3006505   16.3820234   14.7156054
| 10>     C       17.4041446   16.6502659   15.4701125
| 11>     O       18.3957886   15.9449321   15.4312624
| 12>     C       17.2068395   17.7251745   16.4874265
| 13>     C       16.7562146   18.9490930   16.1199837
| 14>     C       16.2238836   19.3505543   14.7590475
| 15>     N       16.8351996   20.0304314   16.9998871
| 16>     C       17.5536481   20.0212694   18.1665909
| 17>     S       17.6928721   21.3689253   19.1147834
| 18>     N       18.1711150   18.8396327   18.4973456
| 19>     C       17.9961663   17.5580728   17.7848865
| 20>     C       17.4571234   16.4260927   18.6466823
| 21>     C       18.0798877   15.1653594   18.6358684
| 22>     C       17.5682362   14.1097611   19.4088769
| 23>     C       16.4220790   14.3163104   20.1957665
| 24>     C       15.7955393   15.5701670   20.2023999
| 25>     O       14.6822506   15.7693397   20.9517712
| 26>     C       16.3065957   16.6188228   19.4310342
| 27>     H       14.4129166   17.3169684   16.5083103
| 28>     H       13.2538956   16.0254162   16.1602715
| 29>     H       13.7275581   17.1447928   14.8689182
| 30>     H       15.6088790   15.1077886   16.2412706
| 31>     H       14.8516334   14.8998381   14.6510481
| 32>     H       15.1758543   19.0542666   14.6422181
| 33>     H       16.7973091   18.8785626   13.9511233
| 34>     H       16.2840400   20.4332454   14.5926789
| 35>     H       16.4128133   20.9119693   16.7548881
| 36>     H       18.6856881   18.8577547   19.3689875
| 37>     H       19.0340367   17.3526235   17.4830841
| 38>     H       18.9572861   15.0009691   18.0136100
| 39>     H       18.0576745   13.1373429   19.3917253
| 40>     H       16.0229272   13.5030848   20.7929990
| 41>     H       14.5164948   14.9540802   21.4489636
| 42>     H       15.8064129   17.5816335   19.4465393
| 43> *
| 44>
| 45>                          ****END OF INPUT****

CARTESIAN COORDINATES (ANGSTROEM)
---------------------------------
  C     14.093308   16.597208   15.745866
  C     15.240038   15.646227   15.356167
  O     16.300650   16.382023   14.715605
  C     17.404145   16.650266   15.470113
  O     18.395789   15.944932   15.431262
  C     17.206840   17.725175   16.487427
  C     16.756215   18.949093   16.119984
  C     16.223884   19.350554   14.759047
  N     16.835200   20.030431   16.999887
  C     17.553648   20.021269   18.166591
  S     17.692872   21.368925   19.114783
  N     18.171115   18.839633   18.497346
  C     17.996166   17.558073   17.784886
  C     17.457123   16.426093   18.646682
  C     18.079888   15.165359   18.635868
  C     17.568236   14.109761   19.408877
  C     16.422079   14.316310   20.195767
  C     15.795539   15.570167   20.202400
  O     14.682251   15.769340   20.951771
  C     16.306596   16.618823   19.431034
  H     14.412917   17.316968   16.508310
  H     13.253896   16.025416   16.160272
  H     13.727558   17.144793   14.868918
  H     15.608879   15.107789   16.241271
  H     14.851633   14.899838   14.651048
  H     15.175854   19.054267   14.642218
  H     16.797309   18.878563   13.951123
  H     16.284040   20.433245   14.592679
  H     16.412813   20.911969   16.754888
  H     18.685688   18.857755   19.368987
  H     19.034037   17.352623   17.483084
  H     18.957286   15.000969   18.013610
  H     18.057675   13.137343   19.391725
  H     16.022927   13.503085   20.792999
  H     14.516495   14.954080   21.448964
  H     15.806413   17.581633   19.446539

 Total Charge           Charge          ....    0
 Multiplicity           Mult            ....    1
 Number of Electrons    NEL             ....  154
 Basis Dimension        Dim             ....  828

ORBITAL ENERGIES
----------------

  NO   OCC          E(Eh)            E(eV)
   0   2.0000     -91.890195     -2500.4593
   1   2.0000     -20.598929      -560.5253
   2   2.0000     -20.586647      -560.1911
   3   2.0000     -20.555931      -559.3553
   4   2.0000     -15.629578      -425.3024
   5   2.0000     -15.608928      -424.7405
   6   2.0000     -11.394606      -310.0630
   7   2.0000     -11.385682      -309.8202
   8   2.0000     -11.335717      -308.4605
   9   2.0000     -11.315993      -307.9238
  10   2.0000     -11.308039      -307.7074
  11   2.0000     -11.305672      -307.6430
  12   2.0000     -11.262940      -306.4802
  13   2.0000     -11.261744      -306.4476
  14   2.0000     -11.258536      -306.3604
  15   2.0000     -11.256139      -306.2951
  16   2.0000     -11.245559      -306.0072
  17   2.0000     -11.241554      -305.8982
  18   2.0000     -11.238455      -305.8139
  19   2.0000     -11.233221      -305.6715
  20   2.0000      -8.895277      -242.0528
  21   2.0000      -6.576852      -178.9652
  22   2.0000      -6.574849      -178.9107
  23   2.0000      -6.574259      -178.8947
  24   2.0000      -1.450495       -39.4700
  25   2.0000      -1.418677       -38.6042
  26   2.0000      -1.360646       -37.0251
  27   2.0000      -1.341187       -36.4956
  28   2.0000      -1.239025       -33.7156
  29   2.0000      -1.160175       -31.5700
  30   2.0000      -1.125017       -30.6133
  31   2.0000      -1.047322       -28.4991
  32   2.0000      -1.036819       -28.2133
  33   2.0000      -1.017623       -27.6909
  34   2.0000      -1.003418       -27.3044
  35   2.0000      -0.989295       -26.9201
  36   2.0000      -0.925275       -25.1780
  37   2.0000      -0.888198       -24.1691
  38   2.0000      -0.850595       -23.1459
  39   2.0000      -0.841445       -22.8969
  40   2.0000      -0.835934       -22.7469
  41   2.0000      -0.830212       -22.5912
  42   2.0000      -0.758338       -20.6354
  43   2.0000      -0.737166       -20.0593
  44   2.0000      -0.730494       -19.8778
  45   2.0000      -0.696758       -18.9597
  46   2.0000      -0.687852       -18.7174
  47   2.0000      -0.681941       -18.5566
  48   2.0000      -0.675501       -18.3813
  49   2.0000      -0.660851       -17.9827
  50   2.0000      -0.654203       -17.8018
  51   2.0000      -0.643816       -17.5191
  52   2.0000      -0.636655       -17.3243
  53   2.0000      -0.610272       -16.6064
  54   2.0000      -0.605119       -16.4661
  55   2.0000      -0.603011       -16.4088
  56   2.0000      -0.601307       -16.3624
  57   2.0000      -0.587271       -15.9805
  58   2.0000      -0.579028       -15.7561
  59   2.0000      -0.575417       -15.6579
  60   2.0000      -0.563055       -15.3215
  61   2.0000      -0.554457       -15.0875
  62   2.0000      -0.545873       -14.8539
  63   2.0000      -0.524702       -14.2779
  64   2.0000      -0.520059       -14.1515
  65   2.0000      -0.512501       -13.9459
  66   2.0000      -0.502009       -13.6604
  67   2.0000      -0.497068       -13.5259
  68   2.0000      -0.488018       -13.2797
  69   2.0000      -0.467230       -12.7140
  70   2.0000      -0.457708       -12.4549
  71   2.0000      -0.453580       -12.3425
  72   2.0000      -0.354967        -9.6591
  73   2.0000      -0.351460        -9.5637
  74   2.0000      -0.329429        -8.9642
  75   2.0000      -0.323361        -8.7991
  76   2.0000      -0.319537        -8.6950
  77   0.0000       0.075701         2.0599
  78   0.0000       0.102380         2.7859
  79   0.0000       0.120739         3.2855
  80   0.0000       0.130139         3.5413
  81   0.0000       0.132315         3.6005

MULLIKEN ATOMIC CHARGES
-----------------------
   0 C :   -0.316724
   1 C :    0.038588
   2 O :   -0.365564
   3 C :    0.445184
   4 O :   -0.376703
   5 C :   -0.234458
   6 C :    0.157478
   7 C :   -0.289955
   8 N :   -0.132836
   9 C :    0.205045
  10 S :   -0.440332
  11 N :   -0.216620
  12 C :    0.062151
  13 C :    0.016947
  14 C :   -0.200620
  15 C :   -0.129897
  16 C :   -0.278690
  17 C :    0.312605
  18 O :   -0.356529
  19 C :   -0.250834
  20 H :    0.105973
  21 H :    0.118562
  22 H :    0.099989
  23 H :    0.099238
  24 H :    0.119377
  25 H :    0.125811
  26 H :    0.130400
  27 H :    0.111242
  28 H :    0.198730
  29 H :    0.200276
  30 H :    0.162286
  31 H :    0.171410
  32 H :    0.164143
  33 H :    0.131922
  34 H :    0.241171
  35 H :    0.171234
Sum of atomic charges:   -0.0000000

LOEWDIN ATOMIC CHARGES
----------------------
   0 C :    0.102716
   1 C :   -0.012983
   2 O :    0.288337
   3 C :   -0.423808
   4 O :    0.129996
   5 C :   -0.093574
   6 C :   -0.075087
   7 C :    0.128935
   8 N :    0.404986
   9 C :   -0.456507
  10 S :   -0.036375
  11 N :    0.395661
  12 C :   -0.049785
  13 C :   -0.044019
  14 C :    0.021078
  15 C :    0.042588
  16 C :   -0.000764
  17 C :   -0.192636
  18 O :    0.394573
  19 C :    0.028339
  20 H :   -0.033044
  21 H :   -0.022661
  22 H :   -0.030814
  23 H :   -0.025482
  24 H :   -0.021958
  25 H :   -0.013269
  26 H :   -0.006626
  27 H :   -0.017411
  28 H :   -0.057881
  29 H :   -0.063968
  30 H :   -0.005666
  31 H :   -0.021875
  32 H :   -0.019136
  33 H :   -0.034956
  34 H :   -0.153434
  35 H :   -0.023491

  Mayer bond orders larger than 0.100000
B(  0-C ,  1-C ) :   0.9656 B(  0-C , 20-H ) :   0.9730 B(  0-C , 21-H ) :   0.9777
B(  0-C , 22-H ) :   0.9756 B(  1-C ,  2-O ) :   0.8919 B(  1-C , 23-H ) :   0.9705
B(  1-C , 24-H ) :   0.9842 B(  2-O ,  3-C ) :   1.0987 B(  3-C ,  4-O ) :   2.0921
B(  3-C ,  5-C ) :   0.9556 B(  5-C ,  6-C ) :   1.6998 B(  5-C , 12-C ) :   0.9403
B(  6-C ,  7-C ) :   0.9483 B(  6-C ,  8-N ) :   1.1244 B(  7-C , 25-H ) :   0.9638
B(  7-C , 26-H ) :   0.9683 B(  7-C , 27-H ) :   0.9868 B(  8-N ,  9-C ) :   1.1902
B(  8-N , 28-H ) :   0.9482 B(  9-C , 10-S ) :   1.6134 B(  9-C , 11-N ) :   1.2947
B( 11-N , 12-C ) :   0.9827 B( 11-N , 29-H ) :   0.9486 B( 12-C , 13-C ) :   0.9680
B( 12-C , 30-H ) :   0.9925 B( 13-C , 14-C ) :   1.3832 B( 13-C , 19-C ) :   1.3542
B( 14-C , 15-C ) :   1.3939 B( 14-C , 31-H ) :   0.9604 B( 15-C , 16-C ) :   1.3618
B( 15-C , 32-H ) :   0.9701 B( 16-C , 17-C ) :   1.3303 B( 16-C , 33-H ) :   0.9848
B( 17-C , 18-O ) :   1.1087 B( 17-C , 19-C ) :   1.3676 B( 18-O , 34-H ) :   0.9795
B( 19-C , 35-H ) :   0.9577

MP2 TOTAL ENERGY:    -1274.324619845 Eh
FINAL SINGLE POINT ENERGY     -1274.324619845011

DIPOLE MOMENT
-------------
                                X             Y             Z
Electronic contribution:      9.58349       6.68142       7.37843
Nuclear contribution   :    -10.92311      -8.06073      -7.84143
                        -----------------------------------------
Total Dipole Moment    :     -1.33962      -1.37932      -0.46299
                        -----------------------------------------
Magnitude (a.u.)       :      1.97774
Magnitude (Debye)      :      5.02702

Rotational constants in cm-1:     0.011397     0.009153     0.006569
Rotational constants in MHz :   341.687215   274.389211   196.920462

                             ****ORCA TERMINATED NORMALLY****
TOTAL RUN TIME: 0 days 1 hours 53 minutes 53 seconds 966 msec
