                         Program Version 4.2.0 -  RELEASE  -
|  1> ! ri-mp2 cc-pvtz cc-pvtz/c TightSCF NoKeepInts
|  2>
|  3> %scf
|  4>   MaxCore 4096
|  5> end
|  6> *xyz  0  1
|  7>     C       14.4694180   15.0599992   15.7776529
|  8>     C       14.8809556   16.4502690   15.2625809
|  9>     O       16.2157464   16.3417244   14.7282757
| 10>     C       17.3010107   16.5164600   15.5422281
| 11>     O       18.2224518   15.7209877   15.5452990
| 12>     C       17.2526136   17.6938880   16.4652615
| 13>     C       16.9739899   18.9377153   16.0026520
| 14>     C       16.4897220   19.3094230   14.6152135
| 15>     N       17.2023760   20.0615399   16.7994466
| 16>     C       17.9162246   20.0436293   17.9686782
| 17>     S       18.2405327   21.4285452   18.8119219
| 18>     N       18.3662027   18.8174901   18.3931775
| 19>     C       18.0146189   17.5214717   17.7790723
| 20>     C       17.3284529   16.5425828   18.7206570
| 21>     C       17.7520212   15.2031353   18.7843455
| 22>     C       17.1029084   14.2882044   19.6299294
| 23>     C       16.0191497   14.7160837   20.4158614
| 24>     C       15.5910859   16.0490966   20.3492857
| 25>     O       14.5381024   16.4624688   21.0983237
| 26>     C       16.2384016   16.9575171   19.5055636
| 27>     H       15.1119659   14.7492887   16.6119594
| 28>     H       14.5536649   14.3106286   14.9804209
| 29>     H       13.4315651   15.0706783   16.1319591
| 30>     H       14.1945211   16.7408711   14.4568052
| 31>     H       14.7986967   17.1949357   16.0642798
| 32>     H       16.9584252   18.6827864   13.8455393
| 33>     H       16.7352619   20.3474756   14.3577741
| 34>     H       15.4029434   19.1951468   14.5305348
| 35>     H       16.9066733   20.9721899   16.4847868
| 36>     H       18.8824191   18.8310539   19.2640232
| 37>     H       19.0140359   17.1530517   17.5031711
| 38>     H       18.5800929   14.8676217   18.1631323
| 39>     H       17.4378698   13.2529766   19.6687236
| 40>     H       15.5139695   14.0119223   21.0687216
| 41>     H       14.2585346   15.7127165   21.6451878
| 42>     H       15.8903756   17.9844247   19.4655545
| 43> *
| 44>
| 45>                          ****END OF INPUT****

CARTESIAN COORDINATES (ANGSTROEM)
---------------------------------
  C     14.469418   15.059999   15.777653
  C     14.880956   16.450269   15.262581
  O     16.215746   16.341724   14.728276
  C     17.301011   16.516460   15.542228
  O     18.222452   15.720988   15.545299
  C     17.252614   17.693888   16.465262
  C     16.973990   18.937715   16.002652
  C     16.489722   19.309423   14.615213
  N     17.202376   20.061540   16.799447
  C     17.916225   20.043629   17.968678
  S     18.240533   21.428545   18.811922
  N     18.366203   18.817490   18.393178
  C     18.014619   17.521472   17.779072
  C     17.328453   16.542583   18.720657
  C     17.752021   15.203135   18.784346
  C     17.102908   14.288204   19.629929
  C     16.019150   14.716084   20.415861
  C     15.591086   16.049097   20.349286
  O     14.538102   16.462469   21.098324
  C     16.238402   16.957517   19.505564
  H     15.111966   14.749289   16.611959
  H     14.553665   14.310629   14.980421
  H     13.431565   15.070678   16.131959
  H     14.194521   16.740871   14.456805
  H     14.798697   17.194936   16.064280
  H     16.958425   18.682786   13.845539
  H     16.735262   20.347476   14.357774
  H     15.402943   19.195147   14.530535
  H     16.906673   20.972190   16.484787
  H     18.882419   18.831054   19.264023
  H     19.014036   17.153052   17.503171
  H     18.580093   14.867622   18.163132
  H     17.437870   13.252977   19.668724
  H     15.513969   14.011922   21.068722
  H     14.258535   15.712717   21.645188
  H     15.890376   17.984425   19.465554

 Total Charge           Charge          ....    0
 Multiplicity           Mult            ....    1
 Number of Electrons    NEL             ....  154
 Basis Dimension        Dim             ....  828

ORBITAL ENERGIES
----------------

  NO   OCC          E(Eh)            E(eV)
   0   2.0000     -91.890473     -2500.4669
   1   2.0000     -20.598762      -560.5208
   2   2.0000     -20.598410      -560.5112
   3   2.0000     -20.551202      -559.2266
   4   2.0000     -15.629995      -425.3138
   5   2.0000     -15.609295      -424.7505
   6   2.0000     -11.396889      -310.1251
   7   2.0000     -11.385988      -309.8285
   8   2.0000     -11.337047      -308.4967
   9   2.0000     -11.315397      -307.9076
  10   2.0000     -11.308334      -307.7154
  11   2.0000     -11.306542      -307.6667
  12   2.0000     -11.265554      -306.5513
  13   2.0000     -11.262651      -306.4723
  14   2.0000     -11.262253      -306.4615
  15   2.0000     -11.255372      -306.2742
  16   2.0000     -11.244829      -305.9874
  17   2.0000     -11.241116      -305.8863
  18   2.0000     -11.237589      -305.7903
  19   2.0000     -11.229368      -305.5666
  20   2.0000      -8.895564      -242.0606
  21   2.0000      -6.577141      -178.9731
  22   2.0000      -6.575134      -178.9185
  23   2.0000      -6.574546      -178.9025
  24   2.0000      -1.450465       -39.4692
  25   2.0000      -1.418152       -38.5899
  26   2.0000      -1.361900       -37.0592
  27   2.0000      -1.341815       -36.5127
  28   2.0000      -1.239574       -33.7305
  29   2.0000      -1.159774       -31.5591
  30   2.0000      -1.125464       -30.6254
  31   2.0000      -1.047367       -28.5003
  32   2.0000      -1.036834       -28.2137
  33   2.0000      -1.017422       -27.6855
  34   2.0000      -1.004812       -27.3423
  35   2.0000      -0.989283       -26.9198
  36   2.0000      -0.925833       -25.1932
  37   2.0000      -0.887846       -24.1595
  38   2.0000      -0.854566       -23.2539
  39   2.0000      -0.841950       -22.9106
  40   2.0000      -0.835621       -22.7384
  41   2.0000      -0.834023       -22.6949
  42   2.0000      -0.750529       -20.4229
  43   2.0000      -0.738868       -20.1056
  44   2.0000      -0.731263       -19.8987
  45   2.0000      -0.696230       -18.9454
  46   2.0000      -0.687804       -18.7161
  47   2.0000      -0.681290       -18.5388
  48   2.0000      -0.677181       -18.4270
  49   2.0000      -0.662252       -18.0208
  50   2.0000      -0.656644       -17.8682
  51   2.0000      -0.646270       -17.5859
  52   2.0000      -0.638111       -17.3639
  53   2.0000      -0.612344       -16.6627
  54   2.0000      -0.606927       -16.5153
  55   2.0000      -0.604923       -16.4608
  56   2.0000      -0.601645       -16.3716
  57   2.0000      -0.581999       -15.8370
  58   2.0000      -0.576797       -15.6954
  59   2.0000      -0.569230       -15.4895
  60   2.0000      -0.560901       -15.2629
  61   2.0000      -0.556682       -15.1481
  62   2.0000      -0.547389       -14.8952
  63   2.0000      -0.528654       -14.3854
  64   2.0000      -0.519028       -14.1235
  65   2.0000      -0.513464       -13.9721
  66   2.0000      -0.500832       -13.6283
  67   2.0000      -0.500447       -13.6179
  68   2.0000      -0.488299       -13.2873
  69   2.0000      -0.469855       -12.7854
  70   2.0000      -0.458991       -12.4898
  71   2.0000      -0.449383       -12.2283
  72   2.0000      -0.356238        -9.6937
  73   2.0000      -0.351013        -9.5515
  74   2.0000      -0.329746        -8.9728
  75   2.0000      -0.322752        -8.7825
  76   2.0000      -0.319857        -8.7037
  77   0.0000       0.077572         2.1108
  78   0.0000       0.103677         2.8212
  79   0.0000       0.117970         3.2101
  80   0.0000       0.130417         3.5488
  81   0.0000       0.133590         3.6352

MULLIKEN ATOMIC CHARGES
-----------------------
   0 C :   -0.265414
   1 C :    0.005975
   2 O :   -0.339194
   3 C :    0.431513
   4 O :   -0.380986
   5 C :   -0.250618
   6 C :    0.174203
   7 C :   -0.307730
   8 N :   -0.133718
   9 C :    0.206739
  10 S :   -0.440561
  11 N :   -0.218933
  12 C :    0.065956
  13 C :    0.022021
  14 C :   -0.209457
  15 C :   -0.129045
  16 C :   -0.277774
  17 C :    0.313664
  18 O :   -0.357011
  19 C :   -0.251085
  20 H :    0.106660
  21 H :    0.105698
  22 H :    0.091116
  23 H :    0.112705
  24 H :    0.103916
  25 H :    0.140719
  26 H :    0.116348
  27 H :    0.120249
  28 H :    0.198375
  29 H :    0.201027
  30 H :    0.163607
  31 H :    0.173178
  32 H :    0.164350
  33 H :    0.131440
  34 H :    0.241195
  35 H :    0.170869
Sum of atomic charges:   -0.0000000

LOEWDIN ATOMIC CHARGES
----------------------
   0 C :    0.108689
   1 C :   -0.026524
   2 O :    0.304253
   3 C :   -0.419229
   4 O :    0.123346
   5 C :   -0.092840
   6 C :   -0.079576
   7 C :    0.128911
   8 N :    0.403874
   9 C :   -0.457122
  10 S :   -0.036484
  11 N :    0.396010
  12 C :   -0.049570
  13 C :   -0.044008
  14 C :    0.021815
  15 C :    0.043043
  16 C :   -0.000465
  17 C :   -0.192145
  18 O :    0.394342
  19 C :    0.026916
  20 H :   -0.023822
  21 H :   -0.022707
  22 H :   -0.026604
  23 H :   -0.026920
  24 H :   -0.037800
  25 H :   -0.005653
  26 H :   -0.015487
  27 H :   -0.014615
  28 H :   -0.058023
  29 H :   -0.063532
  30 H :   -0.005312
  31 H :   -0.021579
  32 H :   -0.019058
  33 H :   -0.034990
  34 H :   -0.153421
  35 H :   -0.023713

  Mayer bond orders larger than 0.100000
B(  0-C ,  1-C ) :   0.9855 B(  0-C , 20-H ) :   0.9710 B(  0-C , 21-H ) :   0.9777
B(  0-C , 22-H ) :   0.9762 B(  1-C ,  2-O ) :   0.8931 B(  1-C , 23-H ) :   0.9785
B(  1-C , 24-H ) :   0.9597 B(  2-O ,  3-C ) :   1.1424 B(  3-C ,  4-O ) :   2.0861
B(  3-C ,  5-C ) :   0.9451 B(  5-C ,  6-C ) :   1.6989 B(  5-C , 12-C ) :   0.9418
B(  6-C ,  7-C ) :   0.9377 B(  6-C ,  8-N ) :   1.1239 B(  7-C , 25-H ) :   0.9683
B(  7-C , 26-H ) :   0.9859 B(  7-C , 27-H ) :   0.9652 B(  8-N ,  9-C ) :   1.1903
B(  8-N , 28-H ) :   0.9486 B(  9-C , 10-S ) :   1.6117 B(  9-C , 11-N ) :   1.2954
B( 11-N , 12-C ) :   0.9851 B( 11-N , 29-H ) :   0.9484 B( 12-C , 13-C ) :   0.9666
B( 12-C , 30-H ) :   0.9920 B( 13-C , 14-C ) :   1.3836 B( 13-C , 19-C ) :   1.3568
B( 14-C , 15-C ) :   1.3928 B( 14-C , 31-H ) :   0.9599 B( 15-C , 16-C ) :   1.3609
B( 15-C , 32-H ) :   0.9701 B( 16-C , 17-C ) :   1.3310 B( 16-C , 33-H ) :   0.9851
B( 17-C , 18-O ) :   1.1079 B( 17-C , 19-C ) :   1.3664 B( 18-O , 34-H ) :   0.9795
B( 19-C , 35-H ) :   0.9573

MP2 TOTAL ENERGY:    -1274.332275077 Eh
FINAL SINGLE POINT ENERGY     -1274.332275076820

DIPOLE MOMENT
-------------
                                X             Y             Z
Electronic contribution:      9.74628       8.82051       7.21747
Nuclear contribution   :    -11.38310      -9.83476      -7.65415
                        -----------------------------------------
Total Dipole Moment    :     -1.63682      -1.01425      -0.43669
                        -----------------------------------------
Magnitude (a.u.)       :      1.97448
Magnitude (Debye)      :      5.01874

Rotational constants in cm-1:     0.011383     0.009140     0.006305
Rotational constants in MHz :   341.247036   274.007642   189.017389

                             ****ORCA TERMINATED NORMALLY****
TOTAL RUN TIME: 0 days 1 hours 43 minutes 57 seconds 842 msec
