                         Program Version 4.2.0 -  RELEASE  -
|  1> ! ri-mp2 cc-pvtz cc-pvtz/c TightSCF NoKeepInts
|  2>
|  3> %scf
|  4>   MaxCore 4096
|  5> end
|  6> *xyz  0  1
|  7>     C       14.4514387   16.6430431   16.1311996
|  8>     C       15.1157825   15.7643818   15.0498117
|  9>     O       16.5463599   15.9035972   14.8108713
| 10>     C       17.5519577   16.5615357   15.4844724
| 11>     O       18.7102176   16.2226238   15.3273812
| 12>     C       17.2028860   17.6234332   16.4664605
| 13>     C       16.8394656   18.8381787   15.9925221
| 14>     C       16.5092970   19.1693390   14.5509803
| 15>     N       16.8700853   19.9688885   16.8110020
| 16>     C       17.4842467   20.0114030   18.0352136
| 17>     S       17.5910890   21.4115262   18.9086485
| 18>     N       18.0366639   18.8366753   18.4844140
| 19>     C       17.8755954   17.5194316   17.8361542
| 20>     C       17.2929128   16.4237909   18.7164229
| 21>     C       17.7828709   15.1092407   18.6163220
| 22>     C       17.2412468   14.0828849   19.4078931
| 23>     C       16.1990032   14.3734475   20.3048702
| 24>     C       15.7056021   15.6817332   20.4031266
| 25>     O       14.6930316   15.9628918   21.2611379
| 26>     C       16.2463224   16.7018516   19.6136819
| 27>     H       14.9185787   16.4992317   17.1113593
| 28>     H       13.3997822   16.3504178   16.2393467
| 29>     H       14.4547703   17.7040643   15.8650028
| 30>     H       14.9345124   14.7182860   15.3298869
| 31>     H       14.5893818   15.9224460   14.0996140
| 32>     H       15.9504792   18.3661902   14.0583281
| 33>     H       17.4321454   19.3250508   13.9770327
| 34>     H       15.9043370   20.0801773   14.4645911
| 35>     H       16.5178442   20.8494612   16.4705378
| 36>     H       18.4885735   18.8951619   19.3884221
| 37>     H       18.9305154   17.2901798   17.6225530
| 38>     H       18.5842363   14.8824970   17.9155323
| 39>     H       17.6286596   13.0689203   19.3224824
| 40>     H       15.7772506   13.5833614   20.9174423
| 41>     H       14.4849430   15.1482732   21.7431386
| 42>     H       15.8449153   17.7063835   19.7001440
| 43> *
| 44>
| 45>                          ****END OF INPUT****

CARTESIAN COORDINATES (ANGSTROEM)
---------------------------------
  C     14.451439   16.643043   16.131200
  C     15.115782   15.764382   15.049812
  O     16.546360   15.903597   14.810871
  C     17.551958   16.561536   15.484472
  O     18.710218   16.222624   15.327381
  C     17.202886   17.623433   16.466461
  C     16.839466   18.838179   15.992522
  C     16.509297   19.169339   14.550980
  N     16.870085   19.968888   16.811002
  C     17.484247   20.011403   18.035214
  S     17.591089   21.411526   18.908649
  N     18.036664   18.836675   18.484414
  C     17.875595   17.519432   17.836154
  C     17.292913   16.423791   18.716423
  C     17.782871   15.109241   18.616322
  C     17.241247   14.082885   19.407893
  C     16.199003   14.373447   20.304870
  C     15.705602   15.681733   20.403127
  O     14.693032   15.962892   21.261138
  C     16.246322   16.701852   19.613682
  H     14.918579   16.499232   17.111359
  H     13.399782   16.350418   16.239347
  H     14.454770   17.704064   15.865003
  H     14.934512   14.718286   15.329887
  H     14.589382   15.922446   14.099614
  H     15.950479   18.366190   14.058328
  H     17.432145   19.325051   13.977033
  H     15.904337   20.080177   14.464591
  H     16.517844   20.849461   16.470538
  H     18.488573   18.895162   19.388422
  H     18.930515   17.290180   17.622553
  H     18.584236   14.882497   17.915532
  H     17.628660   13.068920   19.322482
  H     15.777251   13.583361   20.917442
  H     14.484943   15.148273   21.743139
  H     15.844915   17.706384   19.700144

 Total Charge           Charge          ....    0
 Multiplicity           Mult            ....    1
 Number of Electrons    NEL             ....  154
 Basis Dimension        Dim             ....  828

ORBITAL ENERGIES
----------------

  NO   OCC          E(Eh)            E(eV)
   0   2.0000     -91.889172     -2500.4315
   1   2.0000     -20.600698      -560.5735
   2   2.0000     -20.598572      -560.5156
   3   2.0000     -20.548281      -559.1471
   4   2.0000     -15.626667      -425.2232
   5   2.0000     -15.609374      -424.7527
   6   2.0000     -11.401102      -310.2398
   7   2.0000     -11.384855      -309.7977
   8   2.0000     -11.328385      -308.2610
   9   2.0000     -11.318439      -307.9904
  10   2.0000     -11.314153      -307.8738
  11   2.0000     -11.310344      -307.7701
  12   2.0000     -11.266532      -306.5779
  13   2.0000     -11.264932      -306.5344
  14   2.0000     -11.259186      -306.3780
  15   2.0000     -11.259131      -306.3765
  16   2.0000     -11.247042      -306.0476
  17   2.0000     -11.242861      -305.9338
  18   2.0000     -11.240931      -305.8813
  19   2.0000     -11.237851      -305.7975
  20   2.0000      -8.894271      -242.0254
  21   2.0000      -6.575853      -178.9381
  22   2.0000      -6.573843      -178.8834
  23   2.0000      -6.573260      -178.8675
  24   2.0000      -1.441351       -39.2212
  25   2.0000      -1.420407       -38.6512
  26   2.0000      -1.355610       -36.8880
  27   2.0000      -1.339355       -36.4457
  28   2.0000      -1.238271       -33.6951
  29   2.0000      -1.162262       -31.6268
  30   2.0000      -1.126179       -30.6449
  31   2.0000      -1.048988       -28.5444
  32   2.0000      -1.042140       -28.3581
  33   2.0000      -1.020423       -27.7671
  34   2.0000      -1.005224       -27.3535
  35   2.0000      -0.990570       -26.9548
  36   2.0000      -0.926727       -25.2175
  37   2.0000      -0.902852       -24.5679
  38   2.0000      -0.851766       -23.1777
  39   2.0000      -0.842072       -22.9140
  40   2.0000      -0.837771       -22.7969
  41   2.0000      -0.827516       -22.5179
  42   2.0000      -0.746851       -20.3228
  43   2.0000      -0.735004       -20.0005
  44   2.0000      -0.729284       -19.8448
  45   2.0000      -0.697814       -18.9885
  46   2.0000      -0.687533       -18.7087
  47   2.0000      -0.677161       -18.4265
  48   2.0000      -0.673330       -18.3222
  49   2.0000      -0.664385       -18.0788
  50   2.0000      -0.659096       -17.9349
  51   2.0000      -0.651546       -17.7295
  52   2.0000      -0.636970       -17.3328
  53   2.0000      -0.613831       -16.7032
  54   2.0000      -0.606270       -16.4975
  55   2.0000      -0.604519       -16.4498
  56   2.0000      -0.599874       -16.3234
  57   2.0000      -0.592453       -16.1215
  58   2.0000      -0.580034       -15.7835
  59   2.0000      -0.577959       -15.7271
  60   2.0000      -0.564521       -15.3614
  61   2.0000      -0.558509       -15.1978
  62   2.0000      -0.544271       -14.8104
  63   2.0000      -0.532172       -14.4811
  64   2.0000      -0.521133       -14.1807
  65   2.0000      -0.513953       -13.9854
  66   2.0000      -0.502352       -13.6697
  67   2.0000      -0.499281       -13.5861
  68   2.0000      -0.486492       -13.2381
  69   2.0000      -0.464154       -12.6303
  70   2.0000      -0.454629       -12.3711
  71   2.0000      -0.450729       -12.2650
  72   2.0000      -0.354525        -9.6471
  73   2.0000      -0.349375        -9.5070
  74   2.0000      -0.328748        -8.9457
  75   2.0000      -0.326117        -8.8741
  76   2.0000      -0.318554        -8.6683
  77   0.0000       0.087843         2.3903
  78   0.0000       0.104441         2.8420
  79   0.0000       0.115463         3.1419
  80   0.0000       0.122626         3.3368
  81   0.0000       0.129355         3.5199

MULLIKEN ATOMIC CHARGES
-----------------------
   0 C :   -0.334713
   1 C :    0.036623
   2 O :   -0.343029
   3 C :    0.435961
   4 O :   -0.383216
   5 C :   -0.217262
   6 C :    0.133748
   7 C :   -0.312998
   8 N :   -0.141072
   9 C :    0.212732
  10 S :   -0.443661
  11 N :   -0.234936
  12 C :    0.091368
  13 C :    0.017278
  14 C :   -0.233781
  15 C :   -0.130439
  16 C :   -0.276436
  17 C :    0.324391
  18 O :   -0.355562
  19 C :   -0.266162
  20 H :    0.128636
  21 H :    0.126764
  22 H :    0.100340
  23 H :    0.116237
  24 H :    0.106498
  25 H :    0.121622
  26 H :    0.148382
  27 H :    0.104002
  28 H :    0.196847
  29 H :    0.205572
  30 H :    0.169997
  31 H :    0.178385
  32 H :    0.165361
  33 H :    0.132581
  34 H :    0.241330
  35 H :    0.178611
Sum of atomic charges:   -0.0000000

LOEWDIN ATOMIC CHARGES
----------------------
   0 C :    0.102285
   1 C :   -0.012975
   2 O :    0.289167
   3 C :   -0.414949
   4 O :    0.119953
   5 C :   -0.083161
   6 C :   -0.092336
   7 C :    0.126565
   8 N :    0.403582
   9 C :   -0.455522
  10 S :   -0.038791
  11 N :    0.396794
  12 C :   -0.049434
  13 C :   -0.043710
  14 C :    0.017570
  15 C :    0.045257
  16 C :   -0.000636
  17 C :   -0.191073
  18 O :    0.396072
  19 C :    0.026857
  20 H :   -0.026243
  21 H :   -0.020122
  22 H :   -0.033076
  23 H :   -0.022198
  24 H :   -0.025895
  25 H :   -0.013072
  26 H :   -0.004564
  27 H :   -0.017913
  28 H :   -0.059562
  29 H :   -0.064123
  30 H :   -0.003974
  31 H :   -0.021347
  32 H :   -0.018223
  33 H :   -0.034775
  34 H :   -0.153020
  35 H :   -0.023411

  Mayer bond orders larger than 0.100000
B(  0-C ,  1-C ) :   0.9649 B(  0-C , 20-H ) :   0.9619 B(  0-C , 21-H ) :   0.9765
B(  0-C , 22-H ) :   0.9742 B(  1-C ,  2-O ) :   0.9044 B(  1-C , 23-H ) :   0.9786
B(  1-C , 24-H ) :   0.9796 B(  2-O ,  3-C ) :   1.1615 B(  3-C ,  4-O ) :   2.0874
B(  3-C ,  5-C ) :   0.9380 B(  5-C ,  6-C ) :   1.7226 B(  5-C , 12-C ) :   0.9236
B(  6-C ,  7-C ) :   0.9420 B(  6-C ,  8-N ) :   1.0953 B(  7-C , 25-H ) :   0.9766
B(  7-C , 26-H ) :   0.9634 B(  7-C , 27-H ) :   0.9813 B(  8-N ,  9-C ) :   1.1999
B(  8-N , 28-H ) :   0.9487 B(  9-C , 10-S ) :   1.6067 B(  9-C , 11-N ) :   1.2910
B( 11-N , 12-C ) :   0.9713 B( 11-N , 29-H ) :   0.9461 B( 12-C , 13-C ) :   0.9719
B( 12-C , 30-H ) :   0.9905 B( 13-C , 14-C ) :   1.3843 B( 13-C , 19-C ) :   1.3434
B( 14-C , 15-C ) :   1.3993 B( 14-C , 31-H ) :   0.9585 B( 15-C , 16-C ) :   1.3597
B( 15-C , 32-H ) :   0.9693 B( 16-C , 17-C ) :   1.3329 B( 16-C , 33-H ) :   0.9845
B( 17-C , 18-O ) :   1.1094 B( 17-C , 19-C ) :   1.3600 B( 18-O , 34-H ) :   0.9792
B( 19-C , 35-H ) :   0.9570

MP2 TOTAL ENERGY:    -1274.315877659 Eh
FINAL SINGLE POINT ENERGY     -1274.315877658640

DIPOLE MOMENT
-------------
                                X             Y             Z
Electronic contribution:      8.85374       6.29791       7.34742
Nuclear contribution   :    -10.55997      -7.75267      -7.79773
                        -----------------------------------------
Total Dipole Moment    :     -1.70623      -1.45476      -0.45031
                        -----------------------------------------
Magnitude (a.u.)       :      2.28699
Magnitude (Debye)      :      5.81307

Rotational constants in cm-1:     0.011459     0.009207     0.006424
Rotational constants in MHz :   343.534862   276.031011   192.594281

                             ****ORCA TERMINATED NORMALLY****
TOTAL RUN TIME: 0 days 1 hours 48 minutes 44 seconds 289 msec
