                         Program Version 4.2.0 -  RELEASE  -
|  1> ! ri-mp2 cc-pvtz cc-pvtz/c TightSCF NoKeepInts
|  2>
|  3> %scf
|  4>   MaxCore 4096
|  5> end
|  6> *xyz  0  1
|  7>     C       14.3654369   14.9317561   15.2943101
|  8>     C       14.8425058   16.3937292   15.2848079
|  9>     O       16.1752908   16.4091992   14.7403010
| 10>     C       17.2324335   16.5003066   15.5987326
| 11>     O       18.0788655   15.6271022   15.6540356
| 12>     C       17.2355213   17.6938386   16.5054700
| 13>     C       16.9645839   18.9404835   16.0430490
| 14>     C       16.4439513   19.3197237   14.6708831
| 15>     N       17.2365310   20.0648352   16.8257476
| 16>     C       17.9848530   20.0432622   17.9726747
| 17>     S       18.3593373   21.4284076   18.7945376
| 18>     N       18.4253437   18.8126905   18.3926106
| 19>     C       18.0308176   17.5189122   17.8008718
| 20>     C       17.3557908   16.5678507   18.7789213
| 21>     C       17.7797394   15.2308111   18.8800425
| 22>     C       17.1458522   14.3455534   19.7677972
| 23>     C       16.0776443   14.8010321   20.5595060
| 24>     C       15.6496714   16.1317437   20.4565388
| 25>     O       14.6124742   16.5719949   21.2123239
| 26>     C       16.2817809   17.0104796   19.5708725
| 27>     H       15.0050035   14.3214670   15.9451156
| 28>     H       14.3983239   14.5067462   14.2831907
| 29>     H       13.3351774   14.8630539   15.6639591
| 30>     H       14.1754062   16.9782641   14.6383771
| 31>     H       14.7992994   16.8143797   16.2986108
| 32>     H       16.9271285   18.7266859   13.8837307
| 33>     H       16.6400524   20.3716983   14.4283255
| 34>     H       15.3619050   19.1611416   14.6007399
| 35>     H       16.9465154   20.9782935   16.5141740
| 36>     H       18.9660899   18.8231134   19.2484740
| 37>     H       19.0148776   17.1287605   17.5009388
| 38>     H       18.5961061   14.8736638   18.2556103
| 39>     H       17.4805565   13.3117236   19.8346909
| 40>     H       15.5843981   14.1198401   21.2450040
| 41>     H       14.3417825   15.8406713   21.7878310
| 42>     H       15.9359527   18.0367850   19.5051938
| 43> *
| 44>
| 45>                          ****END OF INPUT****

CARTESIAN COORDINATES (ANGSTROEM)
---------------------------------
  C     14.365437   14.931756   15.294310
  C     14.842506   16.393729   15.284808
  O     16.175291   16.409199   14.740301
  C     17.232433   16.500307   15.598733
  O     18.078865   15.627102   15.654036
  C     17.235521   17.693839   16.505470
  C     16.964584   18.940483   16.043049
  C     16.443951   19.319724   14.670883
  N     17.236531   20.064835   16.825748
  C     17.984853   20.043262   17.972675
  S     18.359337   21.428408   18.794538
  N     18.425344   18.812690   18.392611
  C     18.030818   17.518912   17.800872
  C     17.355791   16.567851   18.778921
  C     17.779739   15.230811   18.880042
  C     17.145852   14.345553   19.767797
  C     16.077644   14.801032   20.559506
  C     15.649671   16.131744   20.456539
  O     14.612474   16.571995   21.212324
  C     16.281781   17.010480   19.570873
  H     15.005004   14.321467   15.945116
  H     14.398324   14.506746   14.283191
  H     13.335177   14.863054   15.663959
  H     14.175406   16.978264   14.638377
  H     14.799299   16.814380   16.298611
  H     16.927128   18.726686   13.883731
  H     16.640052   20.371698   14.428325
  H     15.361905   19.161142   14.600740
  H     16.946515   20.978293   16.514174
  H     18.966090   18.823113   19.248474
  H     19.014878   17.128760   17.500939
  H     18.596106   14.873664   18.255610
  H     17.480556   13.311724   19.834691
  H     15.584398   14.119840   21.245004
  H     14.341783   15.840671   21.787831
  H     15.935953   18.036785   19.505194

 Total Charge           Charge          ....    0
 Multiplicity           Mult            ....    1
 Number of Electrons    NEL             ....  154
 Basis Dimension        Dim             ....  828

ORBITAL ENERGIES
----------------

  NO   OCC          E(Eh)            E(eV)
   0   2.0000     -91.890376     -2500.4642
   1   2.0000     -20.597342      -560.4822
   2   2.0000     -20.595587      -560.4344
   3   2.0000     -20.552213      -559.2541
   4   2.0000     -15.630381      -425.3243
   5   2.0000     -15.608720      -424.7349
   6   2.0000     -11.395989      -310.1006
   7   2.0000     -11.385606      -309.8181
   8   2.0000     -11.338567      -308.5381
   9   2.0000     -11.314060      -307.8712
  10   2.0000     -11.307337      -307.6883
  11   2.0000     -11.306931      -307.6772
  12   2.0000     -11.264676      -306.5274
  13   2.0000     -11.261932      -306.4527
  14   2.0000     -11.261280      -306.4350
  15   2.0000     -11.253959      -306.2358
  16   2.0000     -11.243609      -305.9542
  17   2.0000     -11.240019      -305.8565
  18   2.0000     -11.236338      -305.7563
  19   2.0000     -11.229367      -305.5666
  20   2.0000      -8.895463      -242.0578
  21   2.0000      -6.577038      -178.9703
  22   2.0000      -6.575033      -178.9158
  23   2.0000      -6.574445      -178.8997
  24   2.0000      -1.451807       -39.5057
  25   2.0000      -1.417090       -38.5610
  26   2.0000      -1.362089       -37.0643
  27   2.0000      -1.341992       -36.5175
  28   2.0000      -1.239455       -33.7273
  29   2.0000      -1.158383       -31.5212
  30   2.0000      -1.124489       -30.5989
  31   2.0000      -1.046365       -28.4730
  32   2.0000      -1.037060       -28.2198
  33   2.0000      -1.016110       -27.6498
  34   2.0000      -1.003998       -27.3202
  35   2.0000      -0.988357       -26.8946
  36   2.0000      -0.925014       -25.1709
  37   2.0000      -0.884669       -24.0731
  38   2.0000      -0.854589       -23.2546
  39   2.0000      -0.841876       -22.9086
  40   2.0000      -0.834825       -22.7167
  41   2.0000      -0.833371       -22.6772
  42   2.0000      -0.753036       -20.4912
  43   2.0000      -0.737813       -20.0769
  44   2.0000      -0.730643       -19.8818
  45   2.0000      -0.695320       -18.9206
  46   2.0000      -0.687290       -18.7021
  47   2.0000      -0.680031       -18.5046
  48   2.0000      -0.677756       -18.4427
  49   2.0000      -0.664189       -18.0735
  50   2.0000      -0.655106       -17.8264
  51   2.0000      -0.646175       -17.5833
  52   2.0000      -0.638455       -17.3732
  53   2.0000      -0.609949       -16.5976
  54   2.0000      -0.604395       -16.4464
  55   2.0000      -0.600856       -16.3501
  56   2.0000      -0.599114       -16.3027
  57   2.0000      -0.579693       -15.7743
  58   2.0000      -0.577916       -15.7259
  59   2.0000      -0.572868       -15.5885
  60   2.0000      -0.561756       -15.2862
  61   2.0000      -0.557998       -15.1839
  62   2.0000      -0.545826       -14.8527
  63   2.0000      -0.524452       -14.2711
  64   2.0000      -0.517804       -14.0902
  65   2.0000      -0.513684       -13.9780
  66   2.0000      -0.500700       -13.6247
  67   2.0000      -0.499180       -13.5834
  68   2.0000      -0.487907       -13.2766
  69   2.0000      -0.469596       -12.7784
  70   2.0000      -0.459326       -12.4989
  71   2.0000      -0.450017       -12.2456
  72   2.0000      -0.356136        -9.6910
  73   2.0000      -0.349920        -9.5218
  74   2.0000      -0.329580        -8.9683
  75   2.0000      -0.321315        -8.7434
  76   2.0000      -0.319690        -8.6992
  77   0.0000       0.075533         2.0554
  78   0.0000       0.104414         2.8413
  79   0.0000       0.118992         3.2379
  80   0.0000       0.131645         3.5823
  81   0.0000       0.135781         3.6948

MULLIKEN ATOMIC CHARGES
-----------------------
   0 C :   -0.254255
   1 C :    0.007325
   2 O :   -0.347183
   3 C :    0.451843
   4 O :   -0.381491
   5 C :   -0.264931
   6 C :    0.182996
   7 C :   -0.305555
   8 N :   -0.131625
   9 C :    0.205728
  10 S :   -0.440285
  11 N :   -0.215934
  12 C :    0.060780
  13 C :    0.026072
  14 C :   -0.198618
  15 C :   -0.130268
  16 C :   -0.277191
  17 C :    0.314354
  18 O :   -0.357537
  19 C :   -0.257817
  20 H :    0.104775
  21 H :    0.100704
  22 H :    0.089335
  23 H :    0.100879
  24 H :    0.108084
  25 H :    0.139706
  26 H :    0.113858
  27 H :    0.120218
  28 H :    0.198125
  29 H :    0.200656
  30 H :    0.161319
  31 H :    0.171005
  32 H :    0.163518
  33 H :    0.130631
  34 H :    0.241049
  35 H :    0.169729
Sum of atomic charges:    0.0000000

LOEWDIN ATOMIC CHARGES
----------------------
   0 C :    0.108936
   1 C :   -0.025418
   2 O :    0.303855
   3 C :   -0.421192
   4 O :    0.125221
   5 C :   -0.095340
   6 C :   -0.074581
   7 C :    0.128502
   8 N :    0.404499
   9 C :   -0.457806
  10 S :   -0.036174
  11 N :    0.396067
  12 C :   -0.049651
  13 C :   -0.043425
  14 C :    0.022795
  15 C :    0.042958
  16 C :   -0.000456
  17 C :   -0.192793
  18 O :    0.393829
  19 C :    0.026699
  20 H :   -0.022756
  21 H :   -0.023833
  22 H :   -0.027368
  23 H :   -0.030672
  24 H :   -0.033571
  25 H :   -0.005826
  26 H :   -0.016751
  27 H :   -0.014435
  28 H :   -0.058051
  29 H :   -0.063373
  30 H :   -0.005878
  31 H :   -0.021858
  32 H :   -0.019404
  33 H :   -0.035234
  34 H :   -0.153631
  35 H :   -0.023883

  Mayer bond orders larger than 0.100000
B(  0-C ,  1-C ) :   0.9875 B(  0-C , 20-H ) :   0.9755 B(  0-C , 21-H ) :   0.9776
B(  0-C , 22-H ) :   0.9761 B(  1-C ,  2-O ) :   0.8925 B(  1-C , 23-H ) :   0.9791
B(  1-C , 24-H ) :   0.9588 B(  2-O ,  3-C ) :   1.1291 B(  3-C ,  4-O ) :   2.0739
B(  3-C ,  5-C ) :   0.9616 B(  5-C ,  6-C ) :   1.6881 B(  5-C , 12-C ) :   0.9472
B(  6-C ,  7-C ) :   0.9402 B(  6-C ,  8-N ) :   1.1287 B(  7-C , 25-H ) :   0.9661
B(  7-C , 26-H ) :   0.9869 B(  7-C , 27-H ) :   0.9673 B(  8-N ,  9-C ) :   1.1885
B(  8-N , 28-H ) :   0.9482 B(  9-C , 10-S ) :   1.6122 B(  9-C , 11-N ) :   1.2979
B( 11-N , 12-C ) :   0.9853 B( 11-N , 29-H ) :   0.9486 B( 12-C , 13-C ) :   0.9683
B( 12-C , 30-H ) :   0.9929 B( 13-C , 14-C ) :   1.3836 B( 13-C , 19-C ) :   1.3573
B( 14-C , 15-C ) :   1.3944 B( 14-C , 31-H ) :   0.9599 B( 15-C , 16-C ) :   1.3607
B( 15-C , 32-H ) :   0.9701 B( 16-C , 17-C ) :   1.3317 B( 16-C , 33-H ) :   0.9852
B( 17-C , 18-O ) :   1.1070 B( 17-C , 19-C ) :   1.3653 B( 18-O , 34-H ) :   0.9797
B( 19-C , 35-H ) :   0.9581

MP2 TOTAL ENERGY:    -1274.330040285 Eh
FINAL SINGLE POINT ENERGY     -1274.330040284596

DIPOLE MOMENT
-------------
                                X             Y             Z
Electronic contribution:     10.13158       9.17465       8.12909
Nuclear contribution   :    -11.74158     -10.18342      -8.59832
                        -----------------------------------------
Total Dipole Moment    :     -1.61000      -1.00877      -0.46923
                        -----------------------------------------
Magnitude (a.u.)       :      1.95701
Magnitude (Debye)      :      4.97432

Rotational constants in cm-1:     0.010893     0.009181     0.006149
Rotational constants in MHz :   326.575341   275.245450   184.330072

                             ****ORCA TERMINATED NORMALLY****
TOTAL RUN TIME: 0 days 1 hours 38 minutes 57 seconds 871 msec
