                         Program Version 4.2.0 -  RELEASE  -
|  1> ! ri-mp2 cc-pvtz cc-pvtz/c TightSCF NoKeepInts
|  2>
|  3> %scf
|  4>   MaxCore 4096
|  5> end
|  6> *xyz  0  1
|  7>     C       15.2231307   14.0855950   14.9373482
|  8>     C       14.9842470   15.3576360   15.7671406
|  9>     O       16.1487822   16.1874045   15.6239734
| 10>     C       15.9750182   17.5378490   15.5505937
| 11>     O       15.1670117   18.0361470   14.7864622
| 12>     C       16.7704560   18.2861887   16.5862165
| 13>     C       16.9020093   19.6359142   16.5195808
| 14>     C       16.1237997   20.5885655   15.6357022
| 15>     N       17.8419110   20.3070233   17.3051426
| 16>     C       18.8157681   19.6903186   18.0430497
| 17>     S       19.9575843   20.5477551   18.8776863
| 18>     N       18.8094430   18.3184149   18.0378779
| 19>     C       17.7750483   17.4696598   17.4171142
| 20>     C       17.1299893   16.5108558   18.4094539
| 21>     C       17.4206096   15.1347315   18.3665719
| 22>     C       16.8168457   14.2494237   19.2752353
| 23>     C       15.9193491   14.7454493   20.2364501
| 24>     C       15.6334985   16.1169952   20.2849236
| 25>     O       14.7676352   16.5985233   21.2117697
| 26>     C       16.2342948   16.9952813   19.3776412
| 27>     H       14.3603965   13.4122389   15.0081346
| 28>     H       16.1094774   13.5494995   15.2983403
| 29>     H       15.3760430   14.3384044   13.8805596
| 30>     H       14.0856085   15.8630630   15.3870569
| 31>     H       14.8216962   15.1080709   16.8240876
| 32>     H       15.0439815   20.4495063   15.7748689
| 33>     H       16.3441660   20.4014338   14.5769249
| 34>     H       16.3458310   21.6428405   15.8386666
| 35>     H       17.8719924   21.3140730   17.2992010
| 36>     H       19.5218606   17.8921245   18.6168619
| 37>     H       18.3843079   16.9178401   16.6870353
| 38>     H       18.1095403   14.7498414   17.6191243
| 39>     H       17.0455842   13.1858012   19.2335113
| 40>     H       15.4515470   14.0659065   20.9413713
| 41>     H       14.4932859   15.8552409   21.7697548
| 42>     H       16.0052496   18.0543837   19.4325670
| 43> *
| 44>
| 45>                          ****END OF INPUT****

CARTESIAN COORDINATES (ANGSTROEM)
---------------------------------
  C     15.223131   14.085595   14.937348
  C     14.984247   15.357636   15.767141
  O     16.148782   16.187404   15.623973
  C     15.975018   17.537849   15.550594
  O     15.167012   18.036147   14.786462
  C     16.770456   18.286189   16.586216
  C     16.902009   19.635914   16.519581
  C     16.123800   20.588566   15.635702
  N     17.841911   20.307023   17.305143
  C     18.815768   19.690319   18.043050
  S     19.957584   20.547755   18.877686
  N     18.809443   18.318415   18.037878
  C     17.775048   17.469660   17.417114
  C     17.129989   16.510856   18.409454
  C     17.420610   15.134731   18.366572
  C     16.816846   14.249424   19.275235
  C     15.919349   14.745449   20.236450
  C     15.633498   16.116995   20.284924
  O     14.767635   16.598523   21.211770
  C     16.234295   16.995281   19.377641
  H     14.360397   13.412239   15.008135
  H     16.109477   13.549499   15.298340
  H     15.376043   14.338404   13.880560
  H     14.085608   15.863063   15.387057
  H     14.821696   15.108071   16.824088
  H     15.043981   20.449506   15.774869
  H     16.344166   20.401434   14.576925
  H     16.345831   21.642840   15.838667
  H     17.871992   21.314073   17.299201
  H     19.521861   17.892125   18.616862
  H     18.384308   16.917840   16.687035
  H     18.109540   14.749841   17.619124
  H     17.045584   13.185801   19.233511
  H     15.451547   14.065906   20.941371
  H     14.493286   15.855241   21.769755
  H     16.005250   18.054384   19.432567

 Total Charge           Charge          ....    0
 Multiplicity           Mult            ....    1
 Number of Electrons    NEL             ....  154
 Basis Dimension        Dim             ....  828

ORBITAL ENERGIES
----------------

  NO   OCC          E(Eh)            E(eV)
   0   2.0000     -91.890044     -2500.4552
   1   2.0000     -20.599687      -560.5460
   2   2.0000     -20.589977      -560.2818
   3   2.0000     -20.543669      -559.0217
   4   2.0000     -15.630480      -425.3270
   5   2.0000     -15.608195      -424.7206
   6   2.0000     -11.392858      -310.0154
   7   2.0000     -11.384710      -309.7937
   8   2.0000     -11.338388      -308.5332
   9   2.0000     -11.317406      -307.9623
  10   2.0000     -11.308937      -307.7318
  11   2.0000     -11.294092      -307.3279
  12   2.0000     -11.263835      -306.5045
  13   2.0000     -11.258648      -306.3634
  14   2.0000     -11.258329      -306.3547
  15   2.0000     -11.252540      -306.1972
  16   2.0000     -11.247087      -306.0488
  17   2.0000     -11.242307      -305.9187
  18   2.0000     -11.241773      -305.9042
  19   2.0000     -11.226474      -305.4879
  20   2.0000      -8.895104      -242.0481
  21   2.0000      -6.576673      -178.9604
  22   2.0000      -6.574678      -178.9061
  23   2.0000      -6.574084      -178.8899
  24   2.0000      -1.449549       -39.4442
  25   2.0000      -1.419370       -38.6230
  26   2.0000      -1.353655       -36.8348
  27   2.0000      -1.341493       -36.5039
  28   2.0000      -1.239472       -33.7278
  29   2.0000      -1.160722       -31.5848
  30   2.0000      -1.122180       -30.5361
  31   2.0000      -1.045235       -28.4423
  32   2.0000      -1.036837       -28.2138
  33   2.0000      -1.018475       -27.7141
  34   2.0000      -0.997370       -27.1398
  35   2.0000      -0.985822       -26.8256
  36   2.0000      -0.923553       -25.1311
  37   2.0000      -0.882868       -24.0241
  38   2.0000      -0.847860       -23.0714
  39   2.0000      -0.840541       -22.8723
  40   2.0000      -0.837317       -22.7846
  41   2.0000      -0.823550       -22.4099
  42   2.0000      -0.763219       -20.7682
  43   2.0000      -0.736268       -20.0349
  44   2.0000      -0.723808       -19.6958
  45   2.0000      -0.698266       -19.0008
  46   2.0000      -0.689260       -18.7557
  47   2.0000      -0.678412       -18.4605
  48   2.0000      -0.673809       -18.3353
  49   2.0000      -0.653490       -17.7824
  50   2.0000      -0.649277       -17.6677
  51   2.0000      -0.640440       -17.4273
  52   2.0000      -0.626355       -17.0440
  53   2.0000      -0.621824       -16.9207
  54   2.0000      -0.609859       -16.5951
  55   2.0000      -0.602672       -16.3995
  56   2.0000      -0.601156       -16.3583
  57   2.0000      -0.579924       -15.7805
  58   2.0000      -0.571050       -15.5391
  59   2.0000      -0.565886       -15.3985
  60   2.0000      -0.561098       -15.2683
  61   2.0000      -0.542419       -14.7600
  62   2.0000      -0.533984       -14.5304
  63   2.0000      -0.526862       -14.3367
  64   2.0000      -0.520660       -14.1679
  65   2.0000      -0.514838       -14.0095
  66   2.0000      -0.502456       -13.6725
  67   2.0000      -0.496928       -13.5221
  68   2.0000      -0.488133       -13.2828
  69   2.0000      -0.464712       -12.6455
  70   2.0000      -0.456168       -12.4130
  71   2.0000      -0.446738       -12.1563
  72   2.0000      -0.354520        -9.6470
  73   2.0000      -0.352582        -9.5942
  74   2.0000      -0.329398        -8.9634
  75   2.0000      -0.324714        -8.8359
  76   2.0000      -0.319356        -8.6901
  77   0.0000       0.073002         1.9865
  78   0.0000       0.101580         2.7641
  79   0.0000       0.123840         3.3699
  80   0.0000       0.130612         3.5541
  81   0.0000       0.133718         3.6387

MULLIKEN ATOMIC CHARGES
-----------------------
   0 C :   -0.262235
   1 C :    0.011058
   2 O :   -0.370897
   3 C :    0.474126
   4 O :   -0.421557
   5 C :   -0.271730
   6 C :    0.180033
   7 C :   -0.266124
   8 N :   -0.126677
   9 C :    0.210841
  10 S :   -0.440155
  11 N :   -0.216582
  12 C :    0.073719
  13 C :    0.016312
  14 C :   -0.178737
  15 C :   -0.132161
  16 C :   -0.276583
  17 C :    0.312897
  18 O :   -0.355661
  19 C :   -0.239017
  20 H :    0.087245
  21 H :    0.089624
  22 H :    0.102553
  23 H :    0.117114
  24 H :    0.115833
  25 H :    0.133343
  26 H :    0.130161
  27 H :    0.094674
  28 H :    0.199752
  29 H :    0.200866
  30 H :    0.152150
  31 H :    0.154678
  32 H :    0.162754
  33 H :    0.132545
  34 H :    0.241097
  35 H :    0.164741
Sum of atomic charges:   -0.0000000

LOEWDIN ATOMIC CHARGES
----------------------
   0 C :    0.107350
   1 C :   -0.018377
   2 O :    0.304306
   3 C :   -0.418619
   4 O :    0.104453
   5 C :   -0.099491
   6 C :   -0.055138
   7 C :    0.131819
   8 N :    0.407516
   9 C :   -0.456173
  10 S :   -0.035146
  11 N :    0.394378
  12 C :   -0.054694
  13 C :   -0.039689
  14 C :    0.017502
  15 C :    0.038923
  16 C :   -0.001266
  17 C :   -0.190111
  18 O :    0.395861
  19 C :    0.032587
  20 H :   -0.026542
  21 H :   -0.030642
  22 H :   -0.023959
  23 H :   -0.027964
  24 H :   -0.031135
  25 H :   -0.004212
  26 H :   -0.004413
  27 H :   -0.023498
  28 H :   -0.056949
  29 H :   -0.064433
  30 H :   -0.012673
  31 H :   -0.028602
  32 H :   -0.020582
  33 H :   -0.034788
  34 H :   -0.153310
  35 H :   -0.022291

  Mayer bond orders larger than 0.100000
B(  0-C ,  1-C ) :   0.9796 B(  0-C , 20-H ) :   0.9764 B(  0-C , 21-H ) :   0.9798
B(  0-C , 22-H ) :   0.9784 B(  1-C ,  2-O ) :   0.8773 B(  1-C , 23-H ) :   0.9744
B(  1-C , 24-H ) :   0.9688 B(  2-O ,  3-C ) :   1.1188 B(  3-C ,  4-O ) :   1.9992
B(  3-C ,  5-C ) :   1.0724 B(  5-C ,  6-C ) :   1.6305 B(  5-C , 12-C ) :   0.9527
B(  6-C ,  7-C ) :   0.9654 B(  6-C ,  8-N ) :   1.1559 B(  7-C , 25-H ) :   0.9608
B(  7-C , 26-H ) :   0.9586 B(  7-C , 27-H ) :   0.9903 B(  8-N ,  9-C ) :   1.1861
B(  8-N , 28-H ) :   0.9462 B(  9-C , 10-S ) :   1.6074 B(  9-C , 11-N ) :   1.3094
B( 11-N , 12-C ) :   0.9677 B( 11-N , 29-H ) :   0.9485 B( 12-C , 13-C ) :   0.9611
B( 12-C , 30-H ) :   1.0009 B( 13-C , 14-C ) :   1.3557 B( 13-C , 19-C ) :   1.3793
B( 14-C , 15-C ) :   1.3923 B( 14-C , 31-H ) :   0.9725 B( 15-C , 16-C ) :   1.3574
B( 15-C , 32-H ) :   0.9704 B( 16-C , 17-C ) :   1.3329 B( 16-C , 33-H ) :   0.9845
B( 17-C , 18-O ) :   1.1069 B( 17-C , 19-C ) :   1.3657 B( 18-O , 34-H ) :   0.9793
B( 19-C , 35-H ) :   0.9589

MP2 TOTAL ENERGY:    -1274.335803159 Eh
FINAL SINGLE POINT ENERGY     -1274.335803158928

DIPOLE MOMENT
-------------
                                X             Y             Z
Electronic contribution:      9.07209      11.16813       7.84728
Nuclear contribution   :    -10.20174     -12.73913      -7.86811
                        -----------------------------------------
Total Dipole Moment    :     -1.12965      -1.57101      -0.02083
                        -----------------------------------------
Magnitude (a.u.)       :      1.93510
Magnitude (Debye)      :      4.91862

Rotational constants in cm-1:     0.011933     0.008342     0.005961
Rotational constants in MHz :   357.729708   250.082245   178.696520

                             ****ORCA TERMINATED NORMALLY****
TOTAL RUN TIME: 0 days 1 hours 45 minutes 47 seconds 88 msec
