                         Program Version 4.2.0 -  RELEASE  -
|  1> ! ri-mp2 cc-pvtz cc-pvtz/c TightSCF NoKeepInts
|  2>
|  3> %scf
|  4>   MaxCore 4096
|  5> end
|  6> *xyz  0  1
|  7>     C       13.7447249   15.7548008   13.9299555
|  8>     C       15.2018824   15.4662819   14.3282001
|  9>     O       15.7039492   16.6369034   14.9946353
| 10>     C       16.7286710   16.5072393   15.8864128
| 11>     O       17.3678946   15.4731036   15.9920784
| 12>     C       16.9645055   17.7015447   16.7700263
| 13>     C       16.6396155   18.9712669   16.4056232
| 14>     C       15.7974529   19.4219851   15.2277827
| 15>     N       17.1224785   20.0657842   17.1278946
| 16>     C       18.1004165   19.9954071   18.0825868
| 17>     S       18.7013195   21.3493882   18.8182793
| 18>     N       18.5718857   18.7425267   18.3803708
| 19>     C       18.0108825   17.4766924   17.8701307
| 20>     C       17.5409770   16.5431197   18.9781276
| 21>     C       18.0476056   15.2347591   19.0774891
| 22>     C       17.6155179   14.3769792   20.1029455
| 23>     C       16.6700429   14.8322220   21.0379412
| 24>     C       16.1624650   16.1351688   20.9402182
| 25>     O       15.2468515   16.5760356   21.8394883
| 26>     C       16.5942130   16.9864114   19.9180215
| 27>     H       13.1381239   15.9767922   14.8168519
| 28>     H       13.3060593   14.8867843   13.4228236
| 29>     H       13.6923073   16.6133842   13.2490992
| 30>     H       15.2156250   14.5991218   15.0033193
| 31>     H       15.8131435   15.2327695   13.4465488
| 32>     H       16.2300915   19.0717262   14.2823075
| 33>     H       15.7115284   20.5130961   15.1568700
| 34>     H       14.7786315   19.0216624   15.3039517
| 35>     H       16.8015616   20.9944154   16.9055676
| 36>     H       19.2763976   18.7152496   19.1066465
| 37>     H       18.8942398   17.0622897   17.3628009
| 38>     H       18.7672662   14.8773078   18.3448143
| 39>     H       18.0092274   13.3641362   20.1654901
| 40>     H       16.3324298   14.1725422   21.8302278
| 41>     H       15.0939817   15.8584184   22.4722372
| 42>     H       16.1930338   17.9926841   19.8602356
| 43> *
| 44>
| 45>                          ****END OF INPUT****

CARTESIAN COORDINATES (ANGSTROEM)
---------------------------------
  C     13.744725   15.754801   13.929956
  C     15.201882   15.466282   14.328200
  O     15.703949   16.636903   14.994635
  C     16.728671   16.507239   15.886413
  O     17.367895   15.473104   15.992078
  C     16.964505   17.701545   16.770026
  C     16.639616   18.971267   16.405623
  C     15.797453   19.421985   15.227783
  N     17.122478   20.065784   17.127895
  C     18.100416   19.995407   18.082587
  S     18.701320   21.349388   18.818279
  N     18.571886   18.742527   18.380371
  C     18.010883   17.476692   17.870131
  C     17.540977   16.543120   18.978128
  C     18.047606   15.234759   19.077489
  C     17.615518   14.376979   20.102946
  C     16.670043   14.832222   21.037941
  C     16.162465   16.135169   20.940218
  O     15.246851   16.576036   21.839488
  C     16.594213   16.986411   19.918021
  H     13.138124   15.976792   14.816852
  H     13.306059   14.886784   13.422824
  H     13.692307   16.613384   13.249099
  H     15.215625   14.599122   15.003319
  H     15.813143   15.232769   13.446549
  H     16.230092   19.071726   14.282307
  H     15.711528   20.513096   15.156870
  H     14.778631   19.021662   15.303952
  H     16.801562   20.994415   16.905568
  H     19.276398   18.715250   19.106647
  H     18.894240   17.062290   17.362801
  H     18.767266   14.877308   18.344814
  H     18.009227   13.364136   20.165490
  H     16.332430   14.172542   21.830228
  H     15.093982   15.858418   22.472237
  H     16.193034   17.992684   19.860236

 Total Charge           Charge          ....    0
 Multiplicity           Mult            ....    1
 Number of Electrons    NEL             ....  154
 Basis Dimension        Dim             ....  828

ORBITAL ENERGIES
----------------

  NO   OCC          E(Eh)            E(eV)
   0   2.0000     -91.887747     -2500.3927
   1   2.0000     -20.604885      -560.6874
   2   2.0000     -20.591057      -560.3112
   3   2.0000     -20.544562      -559.0459
   4   2.0000     -15.628369      -425.2695
   5   2.0000     -15.605359      -424.6434
   6   2.0000     -11.395305      -310.0820
   7   2.0000     -11.382216      -309.7258
   8   2.0000     -11.338312      -308.5312
   9   2.0000     -11.306956      -307.6779
  10   2.0000     -11.303857      -307.5936
  11   2.0000     -11.299627      -307.4785
  12   2.0000     -11.261336      -306.4365
  13   2.0000     -11.259012      -306.3733
  14   2.0000     -11.254225      -306.2430
  15   2.0000     -11.246992      -306.0462
  16   2.0000     -11.237257      -305.7813
  17   2.0000     -11.235095      -305.7225
  18   2.0000     -11.233412      -305.6767
  19   2.0000     -11.230126      -305.5873
  20   2.0000      -8.892833      -241.9863
  21   2.0000      -6.574412      -178.8988
  22   2.0000      -6.572408      -178.8443
  23   2.0000      -6.571821      -178.8283
  24   2.0000      -1.455409       -39.6037
  25   2.0000      -1.410802       -38.3899
  26   2.0000      -1.357055       -36.9273
  27   2.0000      -1.339721       -36.4557
  28   2.0000      -1.236837       -33.6561
  29   2.0000      -1.151663       -31.3383
  30   2.0000      -1.120389       -30.4873
  31   2.0000      -1.045167       -28.4404
  32   2.0000      -1.036738       -28.2111
  33   2.0000      -1.009206       -27.4619
  34   2.0000      -0.998547       -27.1719
  35   2.0000      -0.983555       -26.7639
  36   2.0000      -0.920251       -25.0413
  37   2.0000      -0.888981       -24.1904
  38   2.0000      -0.846851       -23.0440
  39   2.0000      -0.834149       -22.6984
  40   2.0000      -0.827261       -22.5109
  41   2.0000      -0.817283       -22.2394
  42   2.0000      -0.762781       -20.7563
  43   2.0000      -0.736046       -20.0288
  44   2.0000      -0.725524       -19.7425
  45   2.0000      -0.690684       -18.7945
  46   2.0000      -0.684876       -18.6364
  47   2.0000      -0.679953       -18.5025
  48   2.0000      -0.674983       -18.3672
  49   2.0000      -0.660832       -17.9822
  50   2.0000      -0.648744       -17.6532
  51   2.0000      -0.642139       -17.4735
  52   2.0000      -0.633187       -17.2299
  53   2.0000      -0.603167       -16.4130
  54   2.0000      -0.598318       -16.2811
  55   2.0000      -0.594594       -16.1797
  56   2.0000      -0.591943       -16.1076
  57   2.0000      -0.582861       -15.8604
  58   2.0000      -0.572393       -15.5756
  59   2.0000      -0.564140       -15.3510
  60   2.0000      -0.561713       -15.2850
  61   2.0000      -0.556346       -15.1389
  62   2.0000      -0.540887       -14.7183
  63   2.0000      -0.522433       -14.2161
  64   2.0000      -0.515221       -14.0199
  65   2.0000      -0.509694       -13.8695
  66   2.0000      -0.502164       -13.6646
  67   2.0000      -0.493707       -13.4344
  68   2.0000      -0.480868       -13.0851
  69   2.0000      -0.467046       -12.7090
  70   2.0000      -0.458208       -12.4685
  71   2.0000      -0.454235       -12.3604
  72   2.0000      -0.352956        -9.6044
  73   2.0000      -0.343875        -9.3573
  74   2.0000      -0.326823        -8.8933
  75   2.0000      -0.316872        -8.6225
  76   2.0000      -0.313517        -8.5312
  77   0.0000       0.077826         2.1178
  78   0.0000       0.112453         3.0600
  79   0.0000       0.119897         3.2626
  80   0.0000       0.136100         3.7035
  81   0.0000       0.138737         3.7752

MULLIKEN ATOMIC CHARGES
-----------------------
   0 C :   -0.269973
   1 C :    0.036650
   2 O :   -0.333848
   3 C :    0.411180
   4 O :   -0.424261
   5 C :   -0.174621
   6 C :    0.165343
   7 C :   -0.282400
   8 N :   -0.128757
   9 C :    0.207397
  10 S :   -0.442911
  11 N :   -0.210702
  12 C :    0.042590
  13 C :    0.032323
  14 C :   -0.164392
  15 C :   -0.134658
  16 C :   -0.276972
  17 C :    0.314334
  18 O :   -0.359312
  19 C :   -0.251388
  20 H :    0.098341
  21 H :    0.099962
  22 H :    0.091804
  23 H :    0.101178
  24 H :    0.093705
  25 H :    0.124785
  26 H :    0.103065
  27 H :    0.129958
  28 H :    0.198805
  29 H :    0.199967
  30 H :    0.154735
  31 H :    0.157868
  32 H :    0.159608
  33 H :    0.127943
  34 H :    0.239837
  35 H :    0.162817
Sum of atomic charges:   -0.0000000

LOEWDIN ATOMIC CHARGES
----------------------
   0 C :    0.106206
   1 C :   -0.016120
   2 O :    0.307863
   3 C :   -0.415404
   4 O :    0.102844
   5 C :   -0.091477
   6 C :   -0.063962
   7 C :    0.124636
   8 N :    0.405399
   9 C :   -0.458829
  10 S :   -0.037956
  11 N :    0.396609
  12 C :   -0.048292
  13 C :   -0.040338
  14 C :    0.025396
  15 C :    0.040957
  16 C :   -0.001178
  17 C :   -0.192544
  18 O :    0.392940
  19 C :    0.029701
  20 H :   -0.026055
  21 H :   -0.023196
  22 H :   -0.029601
  23 H :   -0.025609
  24 H :   -0.030412
  25 H :   -0.009859
  26 H :   -0.021346
  27 H :   -0.009502
  28 H :   -0.058855
  29 H :   -0.063006
  30 H :   -0.008496
  31 H :   -0.024105
  32 H :   -0.021165
  33 H :   -0.036260
  34 H :   -0.154981
  35 H :   -0.024005

  Mayer bond orders larger than 0.100000
B(  0-C ,  1-C ) :   0.9716 B(  0-C , 20-H ) :   0.9762 B(  0-C , 21-H ) :   0.9785
B(  0-C , 22-H ) :   0.9785 B(  1-C ,  2-O ) :   0.9040 B(  1-C , 23-H ) :   0.9744
B(  1-C , 24-H ) :   0.9807 B(  2-O ,  3-C ) :   1.1646 B(  3-C ,  4-O ) :   1.9803
B(  3-C ,  5-C ) :   1.0514 B(  5-C ,  6-C ) :   1.6521 B(  5-C , 12-C ) :   0.9506
B(  6-C ,  7-C ) :   0.9532 B(  6-C ,  8-N ) :   1.1361 B(  7-C , 25-H ) :   0.9652
B(  7-C , 26-H ) :   0.9915 B(  7-C , 27-H ) :   0.9635 B(  8-N ,  9-C ) :   1.1851
B(  8-N , 28-H ) :   0.9469 B(  9-C , 10-S ) :   1.6074 B(  9-C , 11-N ) :   1.3073
B( 11-N , 12-C ) :   0.9763 B( 11-N , 29-H ) :   0.9485 B( 12-C , 13-C ) :   0.9747
B( 12-C , 30-H ) :   0.9974 B( 13-C , 14-C ) :   1.3753 B( 13-C , 19-C ) :   1.3666
B( 14-C , 15-C ) :   1.3975 B( 14-C , 31-H ) :   0.9642 B( 15-C , 16-C ) :   1.3584
B( 15-C , 32-H ) :   0.9713 B( 16-C , 17-C ) :   1.3335 B( 16-C , 33-H ) :   0.9861
B( 17-C , 18-O ) :   1.1029 B( 17-C , 19-C ) :   1.3676 B( 18-O , 34-H ) :   0.9807
B( 19-C , 35-H ) :   0.9604

MP2 TOTAL ENERGY:    -1274.342533570 Eh
FINAL SINGLE POINT ENERGY     -1274.342533570363

DIPOLE MOMENT
-------------
                                X             Y             Z
Electronic contribution:     10.97797       8.62595      12.15575
Nuclear contribution   :    -12.38644      -9.96318     -13.25200
                        -----------------------------------------
Total Dipole Moment    :     -1.40847      -1.33723      -1.09626
                        -----------------------------------------
Magnitude (a.u.)       :      2.23019
Magnitude (Debye)      :      5.66870

Rotational constants in cm-1:     0.009789     0.008791     0.005499
Rotational constants in MHz :   293.453457   263.545270   164.863920

                             ****ORCA TERMINATED NORMALLY****
TOTAL RUN TIME: 0 days 1 hours 56 minutes 19 seconds 549 msec
