                         Program Version 4.2.0 -  RELEASE  -
|  1> ! ri-mp2 cc-pvtz cc-pvtz/c TightSCF NoKeepInts
|  2>
|  3> %scf
|  4>   MaxCore 4096
|  5> end
|  6> *xyz  0  1
|  7>     C       14.2801791   15.0785908   15.2160122
|  8>     C       15.1691022   15.7633604   14.1575557
|  9>     O       15.8354693   16.8913120   14.7558083
| 10>     C       16.8219541   16.6866315   15.6781287
| 11>     O       17.4141621   15.6237117   15.7720240
| 12>     C       17.0487405   17.8277096   16.6295591
| 13>     C       16.8278313   19.1264706   16.2934063
| 14>     C       16.1256638   19.6661005   15.0627593
| 15>     N       17.3040421   20.1624903   17.1011740
| 16>     C       18.1867980   19.9974975   18.1340615
| 17>     S       18.7921744   21.2841868   18.9787800
| 18>     N       18.5601125   18.7083184   18.4169744
| 19>     C       17.9795678   17.4981830   17.8035406
| 20>     C       17.3583980   16.5492529   18.8201956
| 21>     C       17.7699305   15.2062631   18.8930408
| 22>     C       17.1945699   14.3322491   19.8305951
| 23>     C       16.2000480   14.8058127   20.7035310
| 24>     C       15.7866797   16.1432747   20.6315971
| 25>     O       14.8234414   16.6019200   21.4701426
| 26>     C       16.3609035   17.0105991   19.6967734
| 27>     H       14.8860178   14.6428643   16.0208276
| 28>     H       13.6970498   14.2697874   14.7594337
| 29>     H       13.5801704   15.7974333   15.6594920
| 30>     H       15.8991865   15.0491655   13.7524087
| 31>     H       14.5384736   16.1120159   13.3297758
| 32>     H       16.6050095   19.2976595   14.1471666
| 33>     H       16.1364803   20.7616554   15.0115139
| 34>     H       15.0749516   19.3504315   15.0465911
| 35>     H       17.0559855   21.1162395   16.8922780
| 36>     H       19.1946442   18.6116758   19.1996393
| 37>     H       18.8802329   17.0524948   17.3566908
| 38>     H       18.5277049   14.8357758   18.2066375
| 39>     H       17.5163892   13.2932901   19.8730759
| 40>     H       15.7519783   14.1338578   21.4278325
| 41>     H       14.5728775   15.8686948   22.0518119
| 42>     H       16.0300803   18.0430238   19.6571652
| 43> *
| 44>
| 45>                          ****END OF INPUT****

CARTESIAN COORDINATES (ANGSTROEM)
---------------------------------
  C     14.280179   15.078591   15.216012
  C     15.169102   15.763360   14.157556
  O     15.835469   16.891312   14.755808
  C     16.821954   16.686632   15.678129
  O     17.414162   15.623712   15.772024
  C     17.048741   17.827710   16.629559
  C     16.827831   19.126471   16.293406
  C     16.125664   19.666100   15.062759
  N     17.304042   20.162490   17.101174
  C     18.186798   19.997497   18.134062
  S     18.792174   21.284187   18.978780
  N     18.560112   18.708318   18.416974
  C     17.979568   17.498183   17.803541
  C     17.358398   16.549253   18.820196
  C     17.769931   15.206263   18.893041
  C     17.194570   14.332249   19.830595
  C     16.200048   14.805813   20.703531
  C     15.786680   16.143275   20.631597
  O     14.823441   16.601920   21.470143
  C     16.360903   17.010599   19.696773
  H     14.886018   14.642864   16.020828
  H     13.697050   14.269787   14.759434
  H     13.580170   15.797433   15.659492
  H     15.899186   15.049165   13.752409
  H     14.538474   16.112016   13.329776
  H     16.605010   19.297660   14.147167
  H     16.136480   20.761655   15.011514
  H     15.074952   19.350431   15.046591
  H     17.055985   21.116239   16.892278
  H     19.194644   18.611676   19.199639
  H     18.880233   17.052495   17.356691
  H     18.527705   14.835776   18.206637
  H     17.516389   13.293290   19.873076
  H     15.751978   14.133858   21.427833
  H     14.572878   15.868695   22.051812
  H     16.030080   18.043024   19.657165

 Total Charge           Charge          ....    0
 Multiplicity           Mult            ....    1
 Number of Electrons    NEL             ....  154
 Basis Dimension        Dim             ....  828

ORBITAL ENERGIES
----------------

  NO   OCC          E(Eh)            E(eV)
   0   2.0000     -91.887980     -2500.3991
   1   2.0000     -20.601708      -560.6010
   2   2.0000     -20.591993      -560.3366
   3   2.0000     -20.545591      -559.0740
   4   2.0000     -15.628474      -425.2724
   5   2.0000     -15.605728      -424.6534
   6   2.0000     -11.396220      -310.1069
   7   2.0000     -11.382554      -309.7350
   8   2.0000     -11.338036      -308.5237
   9   2.0000     -11.308057      -307.7079
  10   2.0000     -11.304290      -307.6054
  11   2.0000     -11.300673      -307.5069
  12   2.0000     -11.260875      -306.4240
  13   2.0000     -11.258668      -306.3639
  14   2.0000     -11.255268      -306.2714
  15   2.0000     -11.248198      -306.0790
  16   2.0000     -11.238366      -305.8115
  17   2.0000     -11.234436      -305.7046
  18   2.0000     -11.231227      -305.6172
  19   2.0000     -11.227075      -305.5042
  20   2.0000      -8.893063      -241.9925
  21   2.0000      -6.574640      -178.9051
  22   2.0000      -6.572637      -178.8506
  23   2.0000      -6.572050      -178.8346
  24   2.0000      -1.453456       -39.5505
  25   2.0000      -1.411744       -38.4155
  26   2.0000      -1.356793       -36.9202
  27   2.0000      -1.339793       -36.4576
  28   2.0000      -1.237003       -33.6606
  29   2.0000      -1.152688       -31.3662
  30   2.0000      -1.120792       -30.4983
  31   2.0000      -1.042517       -28.3683
  32   2.0000      -1.033615       -28.1261
  33   2.0000      -1.010157       -27.4878
  34   2.0000      -0.998655       -27.1748
  35   2.0000      -0.983625       -26.7658
  36   2.0000      -0.921031       -25.0625
  37   2.0000      -0.894758       -24.3476
  38   2.0000      -0.847562       -23.0633
  39   2.0000      -0.835106       -22.7244
  40   2.0000      -0.828345       -22.5404
  41   2.0000      -0.815379       -22.1876
  42   2.0000      -0.752870       -20.4866
  43   2.0000      -0.735955       -20.0263
  44   2.0000      -0.726230       -19.7617
  45   2.0000      -0.690932       -18.8012
  46   2.0000      -0.685893       -18.6641
  47   2.0000      -0.679188       -18.4817
  48   2.0000      -0.669428       -18.2161
  49   2.0000      -0.655429       -17.8351
  50   2.0000      -0.652269       -17.7492
  51   2.0000      -0.644647       -17.5417
  52   2.0000      -0.631438       -17.1823
  53   2.0000      -0.611596       -16.6424
  54   2.0000      -0.602692       -16.4001
  55   2.0000      -0.598359       -16.2822
  56   2.0000      -0.595269       -16.1981
  57   2.0000      -0.579666       -15.7735
  58   2.0000      -0.573753       -15.6126
  59   2.0000      -0.563373       -15.3302
  60   2.0000      -0.557207       -15.1624
  61   2.0000      -0.548682       -14.9304
  62   2.0000      -0.536079       -14.5874
  63   2.0000      -0.531750       -14.4696
  64   2.0000      -0.515912       -14.0387
  65   2.0000      -0.508699       -13.8424
  66   2.0000      -0.497380       -13.5344
  67   2.0000      -0.493765       -13.4360
  68   2.0000      -0.481473       -13.1015
  69   2.0000      -0.463816       -12.6211
  70   2.0000      -0.459732       -12.5099
  71   2.0000      -0.450659       -12.2631
  72   2.0000      -0.353087        -9.6080
  73   2.0000      -0.344845        -9.3837
  74   2.0000      -0.327063        -8.8998
  75   2.0000      -0.317165        -8.6305
  76   2.0000      -0.314722        -8.5640
  77   0.0000       0.077219         2.1012
  78   0.0000       0.111041         3.0216
  79   0.0000       0.121001         3.2926
  80   0.0000       0.135704         3.6927
  81   0.0000       0.141618         3.8536

MULLIKEN ATOMIC CHARGES
-----------------------
   0 C :   -0.296500
   1 C :    0.029805
   2 O :   -0.354762
   3 C :    0.426320
   4 O :   -0.423824
   5 C :   -0.165955
   6 C :    0.155826
   7 C :   -0.279804
   8 N :   -0.128660
   9 C :    0.207648
  10 S :   -0.442426
  11 N :   -0.211275
  12 C :    0.043098
  13 C :    0.032222
  14 C :   -0.171367
  15 C :   -0.134602
  16 C :   -0.277232
  17 C :    0.314384
  18 O :   -0.358910
  19 C :   -0.251030
  20 H :    0.119506
  21 H :    0.095774
  22 H :    0.094657
  23 H :    0.108583
  24 H :    0.107092
  25 H :    0.125544
  26 H :    0.101016
  27 H :    0.128498
  28 H :    0.198869
  29 H :    0.199898
  30 H :    0.155569
  31 H :    0.159823
  32 H :    0.160327
  33 H :    0.128476
  34 H :    0.239938
  35 H :    0.163475
Sum of atomic charges:    0.0000000

LOEWDIN ATOMIC CHARGES
----------------------
   0 C :    0.106133
   1 C :   -0.017760
   2 O :    0.303076
   3 C :   -0.414775
   4 O :    0.104353
   5 C :   -0.091502
   6 C :   -0.064150
   7 C :    0.125372
   8 N :    0.405471
   9 C :   -0.458466
  10 S :   -0.037688
  11 N :    0.396478
  12 C :   -0.048205
  13 C :   -0.040717
  14 C :    0.024485
  15 C :    0.040400
  16 C :   -0.001164
  17 C :   -0.192448
  18 O :    0.393174
  19 C :    0.029842
  20 H :   -0.023253
  21 H :   -0.026125
  22 H :   -0.028971
  23 H :   -0.028074
  24 H :   -0.025753
  25 H :   -0.009119
  26 H :   -0.021319
  27 H :   -0.009538
  28 H :   -0.058720
  29 H :   -0.063166
  30 H :   -0.008213
  31 H :   -0.023913
  32 H :   -0.021023
  33 H :   -0.036114
  34 H :   -0.154849
  35 H :   -0.023761

  Mayer bond orders larger than 0.100000
B(  0-C ,  1-C ) :   0.9619 B(  0-C , 20-H ) :   0.9734 B(  0-C , 21-H ) :   0.9761
B(  0-C , 22-H ) :   0.9766 B(  1-C ,  2-O ) :   0.8973 B(  1-C , 23-H ) :   0.9785
B(  1-C , 24-H ) :   0.9841 B(  2-O ,  3-C ) :   1.1305 B(  3-C ,  4-O ) :   1.9827
B(  3-C ,  5-C ) :   1.0410 B(  5-C ,  6-C ) :   1.6537 B(  5-C , 12-C ) :   0.9514
B(  6-C ,  7-C ) :   0.9556 B(  6-C ,  8-N ) :   1.1365 B(  7-C , 25-H ) :   0.9651
B(  7-C , 26-H ) :   0.9907 B(  7-C , 27-H ) :   0.9635 B(  8-N ,  9-C ) :   1.1854
B(  8-N , 28-H ) :   0.9469 B(  9-C , 10-S ) :   1.6083 B(  9-C , 11-N ) :   1.3060
B( 11-N , 12-C ) :   0.9771 B( 11-N , 29-H ) :   0.9485 B( 12-C , 13-C ) :   0.9724
B( 12-C , 30-H ) :   0.9968 B( 13-C , 14-C ) :   1.3755 B( 13-C , 19-C ) :   1.3663
B( 14-C , 15-C ) :   1.3970 B( 14-C , 31-H ) :   0.9635 B( 15-C , 16-C ) :   1.3587
B( 15-C , 32-H ) :   0.9711 B( 16-C , 17-C ) :   1.3333 B( 16-C , 33-H ) :   0.9859
B( 17-C , 18-O ) :   1.1036 B( 17-C , 19-C ) :   1.3672 B( 18-O , 34-H ) :   0.9806
B( 19-C , 35-H ) :   0.9602

MP2 TOTAL ENERGY:    -1274.341073926 Eh
FINAL SINGLE POINT ENERGY     -1274.341073926239

DIPOLE MOMENT
-------------
                                X             Y             Z
Electronic contribution:      9.98238       9.79462       9.64850
Nuclear contribution   :    -11.40928     -11.05957     -10.76481
                        -----------------------------------------
Total Dipole Moment    :     -1.42691      -1.26495      -1.11631
                        -----------------------------------------
Magnitude (a.u.)       :      2.20959
Magnitude (Debye)      :      5.61634

Rotational constants in cm-1:     0.010201     0.009272     0.005768
Rotational constants in MHz :   305.809461   277.968516   172.910848

                             ****ORCA TERMINATED NORMALLY****
TOTAL RUN TIME: 0 days 1 hours 34 minutes 29 seconds 353 msec
