                         Program Version 4.2.0 -  RELEASE  -
|  1> ! ri-mp2 cc-pvtz cc-pvtz/c TightSCF NoKeepInts
|  2>
|  3> %scf
|  4>   MaxCore 4096
|  5> end
|  6> *xyz  0  1
|  7>     C       14.9931329   14.1118587   15.5400525
|  8>     C       15.0817024   15.5840112   15.9734394
|  9>     O       16.3181009   16.1080272   15.4591560
| 10>     C       16.3747746   17.4520960   15.2537053
| 11>     O       15.9413029   17.9294899   14.2213039
| 12>     C       16.8784825   18.2377131   16.4379433
| 13>     C       16.9269394   19.5948228   16.3810565
| 14>     C       16.2187449   20.4989480   15.3928270
| 15>     N       17.6790602   20.3310192   17.2990290
| 16>     C       18.5943255   19.7884495   18.1587002
| 17>     S       19.5417998   20.7256136   19.1379902
| 18>     N       18.7031751   18.4215576   18.1472289
| 19>     C       17.8147850   17.4996370   17.4146487
| 20>     C       17.1492161   16.4922736   18.3399776
| 21>     C       17.5181987   15.1347502   18.3068341
| 22>     C       16.8998133   14.2072783   19.1620343
| 23>     C       15.9117729   14.6427319   20.0619281
| 24>     C       15.5516539   15.9967939   20.1046743
| 25>     O       14.5979298   16.4198881   20.9715436
| 26>     C       16.1661153   16.9172699   19.2497596
| 27>     H       14.0505799   13.6662409   15.8800933
| 28>     H       15.8213322   13.5340371   15.9685258
| 29>     H       15.0397666   14.0277698   14.4469388
| 30>     H       14.2307759   16.1272324   15.5392823
| 31>     H       15.0239112   15.6699658   17.0641513
| 32>     H       15.1757888   20.1860987   15.2562724
| 33>     H       16.7058778   20.4524882   14.4101726
| 34>     H       16.2019823   21.5489150   15.7080789
| 35>     H       17.6317686   21.3374813   17.2921567
| 36>     H       19.3709296   18.0478155   18.8100060
| 37>     H       18.5580014   17.0010753   16.7759294
| 38>     H       18.2780958   14.7961388   17.6070407
| 39>     H       17.1873503   13.1576843   19.1264043
| 40>     H       15.4323752   13.9298361   20.7250156
| 41>     H       14.3371053   15.6600983   21.5139324
| 42>     H       15.8803333   17.9628929   19.3001671
| 43> *
| 44>
| 45>                          ****END OF INPUT****

CARTESIAN COORDINATES (ANGSTROEM)
---------------------------------
  C     14.993133   14.111859   15.540052
  C     15.081702   15.584011   15.973439
  O     16.318101   16.108027   15.459156
  C     16.374775   17.452096   15.253705
  O     15.941303   17.929490   14.221304
  C     16.878483   18.237713   16.437943
  C     16.926939   19.594823   16.381056
  C     16.218745   20.498948   15.392827
  N     17.679060   20.331019   17.299029
  C     18.594326   19.788449   18.158700
  S     19.541800   20.725614   19.137990
  N     18.703175   18.421558   18.147229
  C     17.814785   17.499637   17.414649
  C     17.149216   16.492274   18.339978
  C     17.518199   15.134750   18.306834
  C     16.899813   14.207278   19.162034
  C     15.911773   14.642732   20.061928
  C     15.551654   15.996794   20.104674
  O     14.597930   16.419888   20.971544
  C     16.166115   16.917270   19.249760
  H     14.050580   13.666241   15.880093
  H     15.821332   13.534037   15.968526
  H     15.039767   14.027770   14.446939
  H     14.230776   16.127232   15.539282
  H     15.023911   15.669966   17.064151
  H     15.175789   20.186099   15.256272
  H     16.705878   20.452488   14.410173
  H     16.201982   21.548915   15.708079
  H     17.631769   21.337481   17.292157
  H     19.370930   18.047815   18.810006
  H     18.558001   17.001075   16.775929
  H     18.278096   14.796139   17.607041
  H     17.187350   13.157684   19.126404
  H     15.432375   13.929836   20.725016
  H     14.337105   15.660098   21.513932
  H     15.880333   17.962893   19.300167

 Total Charge           Charge          ....    0
 Multiplicity           Mult            ....    1
 Number of Electrons    NEL             ....  154
 Basis Dimension        Dim             ....  828

ORBITAL ENERGIES
----------------

  NO   OCC          E(Eh)            E(eV)
   0   2.0000     -91.891448     -2500.4934
   1   2.0000     -20.602484      -560.6221
   2   2.0000     -20.582113      -560.0678
   3   2.0000     -20.547153      -559.1165
   4   2.0000     -15.631569      -425.3566
   5   2.0000     -15.609666      -424.7606
   6   2.0000     -11.391373      -309.9750
   7   2.0000     -11.385705      -309.8208
   8   2.0000     -11.339795      -308.5715
   9   2.0000     -11.320545      -308.0477
  10   2.0000     -11.312042      -307.8163
  11   2.0000     -11.294622      -307.3423
  12   2.0000     -11.266323      -306.5722
  13   2.0000     -11.261666      -306.4455
  14   2.0000     -11.259354      -306.3826
  15   2.0000     -11.253486      -306.2229
  16   2.0000     -11.250440      -306.1400
  17   2.0000     -11.245069      -305.9939
  18   2.0000     -11.244510      -305.9787
  19   2.0000     -11.225793      -305.4694
  20   2.0000      -8.896494      -242.0859
  21   2.0000      -6.578060      -178.9981
  22   2.0000      -6.576068      -178.9439
  23   2.0000      -6.575470      -178.9276
  24   2.0000      -1.448202       -39.4076
  25   2.0000      -1.422239       -38.7011
  26   2.0000      -1.353733       -36.8369
  27   2.0000      -1.343333       -36.5540
  28   2.0000      -1.241476       -33.7823
  29   2.0000      -1.163573       -31.6624
  30   2.0000      -1.123020       -30.5589
  31   2.0000      -1.047667       -28.5085
  32   2.0000      -1.034149       -28.1406
  33   2.0000      -1.021571       -27.7984
  34   2.0000      -0.999510       -27.1980
  35   2.0000      -0.987486       -26.8709
  36   2.0000      -0.925640       -25.1879
  37   2.0000      -0.876301       -23.8454
  38   2.0000      -0.849978       -23.1291
  39   2.0000      -0.843102       -22.9420
  40   2.0000      -0.840292       -22.8655
  41   2.0000      -0.831388       -22.6232
  42   2.0000      -0.762533       -20.7496
  43   2.0000      -0.738562       -20.0973
  44   2.0000      -0.725119       -19.7315
  45   2.0000      -0.701059       -19.0768
  46   2.0000      -0.690870       -18.7995
  47   2.0000      -0.679023       -18.4771
  48   2.0000      -0.673738       -18.3333
  49   2.0000      -0.655325       -17.8323
  50   2.0000      -0.649504       -17.6739
  51   2.0000      -0.642213       -17.4755
  52   2.0000      -0.636221       -17.3125
  53   2.0000      -0.617201       -16.7949
  54   2.0000      -0.612151       -16.6575
  55   2.0000      -0.604505       -16.4494
  56   2.0000      -0.602195       -16.3866
  57   2.0000      -0.581777       -15.8309
  58   2.0000      -0.572193       -15.5702
  59   2.0000      -0.566773       -15.4227
  60   2.0000      -0.556081       -15.1317
  61   2.0000      -0.544354       -14.8126
  62   2.0000      -0.536902       -14.6098
  63   2.0000      -0.529010       -14.3951
  64   2.0000      -0.517171       -14.0729
  65   2.0000      -0.513362       -13.9693
  66   2.0000      -0.504571       -13.7301
  67   2.0000      -0.498860       -13.5747
  68   2.0000      -0.486479       -13.2378
  69   2.0000      -0.465818       -12.6756
  70   2.0000      -0.459147       -12.4940
  71   2.0000      -0.445824       -12.1315
  72   2.0000      -0.356088        -9.6896
  73   2.0000      -0.355025        -9.6607
  74   2.0000      -0.331052        -9.0084
  75   2.0000      -0.327777        -8.9193
  76   2.0000      -0.321112        -8.7379
  77   0.0000       0.070876         1.9286
  78   0.0000       0.098476         2.6797
  79   0.0000       0.122447         3.3320
  80   0.0000       0.128428         3.4947
  81   0.0000       0.130754         3.5580

MULLIKEN ATOMIC CHARGES
-----------------------
   0 C :   -0.263355
   1 C :    0.012297
   2 O :   -0.372393
   3 C :    0.471336
   4 O :   -0.393789
   5 C :   -0.284237
   6 C :    0.181548
   7 C :   -0.265391
   8 N :   -0.127384
   9 C :    0.208565
  10 S :   -0.437708
  11 N :   -0.211322
  12 C :    0.055749
  13 C :   -0.022181
  14 C :   -0.148148
  15 C :   -0.141494
  16 C :   -0.268090
  17 C :    0.304045
  18 O :   -0.356593
  19 C :   -0.225408
  20 H :    0.087234
  21 H :    0.090944
  22 H :    0.107916
  23 H :    0.105519
  24 H :    0.118537
  25 H :    0.128348
  26 H :    0.134803
  27 H :    0.093984
  28 H :    0.200208
  29 H :    0.200580
  30 H :    0.152183
  31 H :    0.155618
  32 H :    0.166243
  33 H :    0.134346
  34 H :    0.241576
  35 H :    0.165912
Sum of atomic charges:   -0.0000000

LOEWDIN ATOMIC CHARGES
----------------------
   0 C :    0.110146
   1 C :   -0.020628
   2 O :    0.295951
   3 C :   -0.426541
   4 O :    0.119299
   5 C :   -0.103845
   6 C :   -0.053684
   7 C :    0.130847
   8 N :    0.407907
   9 C :   -0.457942
  10 S :   -0.033125
  11 N :    0.395074
  12 C :   -0.054522
  13 C :   -0.042877
  14 C :    0.019892
  15 C :    0.042548
  16 C :    0.000087
  17 C :   -0.191975
  18 O :    0.396552
  19 C :    0.031987
  20 H :   -0.026251
  21 H :   -0.030474
  22 H :   -0.023459
  23 H :   -0.030298
  24 H :   -0.034759
  25 H :   -0.005192
  26 H :   -0.003916
  27 H :   -0.023280
  28 H :   -0.056431
  29 H :   -0.063699
  30 H :   -0.011712
  31 H :   -0.027341
  32 H :   -0.019622
  33 H :   -0.033926
  34 H :   -0.152608
  35 H :   -0.022180

  Mayer bond orders larger than 0.100000
B(  0-C ,  1-C ) :   0.9821 B(  0-C , 20-H ) :   0.9760 B(  0-C , 21-H ) :   0.9788
B(  0-C , 22-H ) :   0.9782 B(  1-C ,  2-O ) :   0.8795 B(  1-C , 23-H ) :   0.9769
B(  1-C , 24-H ) :   0.9636 B(  2-O ,  3-C ) :   1.1108 B(  3-C ,  4-O ) :   2.0546
B(  3-C ,  5-C ) :   1.0482 B(  5-C ,  6-C ) :   1.6272 B(  5-C , 12-C ) :   0.9575
B(  6-C ,  7-C ) :   0.9670 B(  6-C ,  8-N ) :   1.1544 B(  7-C , 25-H ) :   0.9651
B(  7-C , 26-H ) :   0.9549 B(  7-C , 27-H ) :   0.9887 B(  8-N ,  9-C ) :   1.1860
B(  8-N , 28-H ) :   0.9466 B(  9-C , 10-S ) :   1.6116 B(  9-C , 11-N ) :   1.3061
B( 11-N , 12-C ) :   0.9683 B( 11-N , 29-H ) :   0.9486 B( 12-C , 13-C ) :   0.9632
B( 12-C , 30-H ) :   1.0040 B( 13-C , 14-C ) :   1.3602 B( 13-C , 19-C ) :   1.3739
B( 14-C , 15-C ) :   1.3891 B( 14-C , 31-H ) :   0.9708 B( 15-C , 16-C ) :   1.3590
B( 15-C , 32-H ) :   0.9689 B( 16-C , 17-C ) :   1.3315 B( 16-C , 33-H ) :   0.9837
B( 17-C , 18-O ) :   1.1078 B( 17-C , 19-C ) :   1.3670 B( 18-O , 34-H ) :   0.9788
B( 19-C , 35-H ) :   0.9598

MP2 TOTAL ENERGY:    -1274.326897260 Eh
FINAL SINGLE POINT ENERGY     -1274.326897259955

DIPOLE MOMENT
-------------
                                X             Y             Z
Electronic contribution:      9.36066      10.92184       6.37990
Nuclear contribution   :    -10.55081     -12.41113      -6.11021
                        -----------------------------------------
Total Dipole Moment    :     -1.19015      -1.48929       0.26970
                        -----------------------------------------
Magnitude (a.u.)       :      1.92540
Magnitude (Debye)      :      4.89398

Rotational constants in cm-1:     0.012415     0.008544     0.005987
Rotational constants in MHz :   372.192889   256.147357   179.485532

                             ****ORCA TERMINATED NORMALLY****
TOTAL RUN TIME: 0 days 1 hours 47 minutes 28 seconds 39 msec
