                         Program Version 4.2.0 -  RELEASE  -
|  1> ! ri-mp2 cc-pvtz cc-pvtz/c TightSCF NoKeepInts
|  2>
|  3> %scf
|  4>   MaxCore 4096
|  5> end
|  6> *xyz  0  1
|  7>     C       14.3736764   14.7080730   15.3021902
|  8>     C       15.2113342   15.6623389   16.1687193
|  9>     O       16.4134733   15.9536894   15.4326730
| 10>     C       16.7537209   17.2546965   15.2027316
| 11>     O       16.8310373   17.6686564   14.0608738
| 12>     C       16.9886811   18.1009073   16.4249845
| 13>     C       16.9099654   19.4514572   16.3107819
| 14>     C       16.2198419   20.2294282   15.2094092
| 15>     N       17.4714494   20.2963523   17.2696105
| 16>     C       18.3428507   19.8838227   18.2402162
| 17>     S       19.0765533   20.9483828   19.2712888
| 18>     N       18.5966454   18.5368572   18.2966051
| 19>     C       17.8881493   17.5000190   17.5216838
| 20>     C       17.2639551   16.4446120   18.4187449
| 21>     C       17.7739431   15.1333921   18.4449911
| 22>     C       17.1993002   14.1632053   19.2833460
| 23>     C       16.1130818   14.5096324   20.1056433
| 24>     C       15.6123288   15.8187814   20.0896732
| 25>     O       14.5632017   16.1558936   20.8804962
| 26>     C       16.1841069   16.7821247   19.2525246
| 27>     H       13.4412362   14.4399715   15.8134752
| 28>     H       14.9305278   13.7856121   15.0951914
| 29>     H       14.1188817   15.1793933   14.3444514
| 30>     H       14.6356294   16.5735873   16.3809475
| 31>     H       15.4418502   15.1594993   17.1136498
| 32>     H       15.3202239   19.7071097   14.8605566
| 33>     H       16.8867363   20.3421656   14.3444845
| 34>     H       15.9083901   21.2306481   15.5300478
| 35>     H       17.3250219   21.2915187   17.2088353
| 36>     H       19.2305878   18.2597421   19.0358008
| 37>     H       18.7429461   17.0734727   16.9770922
| 38>     H       18.6117949   14.8629230   17.8070629
| 39>     H       17.5960936   13.1491337   19.2943230
| 40>     H       15.6668991   13.7628980   20.7546489
| 41>     H       14.3517973   15.3863430   21.4308918
| 42>     H       15.7910877   17.7936594   19.2593537
| 43> *
| 44>
| 45>                          ****END OF INPUT****

CARTESIAN COORDINATES (ANGSTROEM)
---------------------------------
  C     14.373676   14.708073   15.302190
  C     15.211334   15.662339   16.168719
  O     16.413473   15.953689   15.432673
  C     16.753721   17.254696   15.202732
  O     16.831037   17.668656   14.060874
  C     16.988681   18.100907   16.424985
  C     16.909965   19.451457   16.310782
  C     16.219842   20.229428   15.209409
  N     17.471449   20.296352   17.269610
  C     18.342851   19.883823   18.240216
  S     19.076553   20.948383   19.271289
  N     18.596645   18.536857   18.296605
  C     17.888149   17.500019   17.521684
  C     17.263955   16.444612   18.418745
  C     17.773943   15.133392   18.444991
  C     17.199300   14.163205   19.283346
  C     16.113082   14.509632   20.105643
  C     15.612329   15.818781   20.089673
  O     14.563202   16.155894   20.880496
  C     16.184107   16.782125   19.252525
  H     13.441236   14.439972   15.813475
  H     14.930528   13.785612   15.095191
  H     14.118882   15.179393   14.344451
  H     14.635629   16.573587   16.380948
  H     15.441850   15.159499   17.113650
  H     15.320224   19.707110   14.860557
  H     16.886736   20.342166   14.344485
  H     15.908390   21.230648   15.530048
  H     17.325022   21.291519   17.208835
  H     19.230588   18.259742   19.035801
  H     18.742946   17.073473   16.977092
  H     18.611795   14.862923   17.807063
  H     17.596094   13.149134   19.294323
  H     15.666899   13.762898   20.754649
  H     14.351797   15.386343   21.430892
  H     15.791088   17.793659   19.259354

 Total Charge           Charge          ....    0
 Multiplicity           Mult            ....    1
 Number of Electrons    NEL             ....  154
 Basis Dimension        Dim             ....  828

ORBITAL ENERGIES
----------------

  NO   OCC          E(Eh)            E(eV)
   0   2.0000     -91.891283     -2500.4889
   1   2.0000     -20.604440      -560.6753
   2   2.0000     -20.587128      -560.2042
   3   2.0000     -20.548690      -559.1583
   4   2.0000     -15.630189      -425.3191
   5   2.0000     -15.610447      -424.7818
   6   2.0000     -11.392622      -310.0090
   7   2.0000     -11.385823      -309.8240
   8   2.0000     -11.336410      -308.4794
   9   2.0000     -11.322577      -308.1030
  10   2.0000     -11.314947      -307.8954
  11   2.0000     -11.295598      -307.3688
  12   2.0000     -11.268116      -306.6210
  13   2.0000     -11.263840      -306.5047
  14   2.0000     -11.258800      -306.3675
  15   2.0000     -11.254586      -306.2528
  16   2.0000     -11.252958      -306.2086
  17   2.0000     -11.247080      -306.0486
  18   2.0000     -11.246859      -306.0426
  19   2.0000     -11.224544      -305.4354
  20   2.0000      -8.896336      -242.0816
  21   2.0000      -6.577903      -178.9938
  22   2.0000      -6.575909      -178.9396
  23   2.0000      -6.575313      -178.9234
  24   2.0000      -1.446643       -39.3652
  25   2.0000      -1.424203       -38.7545
  26   2.0000      -1.356123       -36.9020
  27   2.0000      -1.342778       -36.5388
  28   2.0000      -1.241620       -33.7862
  29   2.0000      -1.165690       -31.7200
  30   2.0000      -1.123855       -30.5816
  31   2.0000      -1.049752       -28.5652
  32   2.0000      -1.033157       -28.1136
  33   2.0000      -1.023612       -27.8539
  34   2.0000      -1.001550       -27.2536
  35   2.0000      -0.988422       -26.8963
  36   2.0000      -0.926875       -25.2215
  37   2.0000      -0.876236       -23.8436
  38   2.0000      -0.851915       -23.1818
  39   2.0000      -0.844713       -22.9858
  40   2.0000      -0.842414       -22.9232
  41   2.0000      -0.835712       -22.7409
  42   2.0000      -0.760119       -20.6839
  43   2.0000      -0.739619       -20.1260
  44   2.0000      -0.723647       -19.6914
  45   2.0000      -0.703220       -19.1356
  46   2.0000      -0.691878       -18.8270
  47   2.0000      -0.677324       -18.4309
  48   2.0000      -0.673807       -18.3352
  49   2.0000      -0.666760       -18.1435
  50   2.0000      -0.649555       -17.6753
  51   2.0000      -0.648665       -17.6511
  52   2.0000      -0.639095       -17.3907
  53   2.0000      -0.614313       -16.7163
  54   2.0000      -0.608737       -16.5646
  55   2.0000      -0.604109       -16.4386
  56   2.0000      -0.589011       -16.0278
  57   2.0000      -0.583278       -15.8718
  58   2.0000      -0.574606       -15.6358
  59   2.0000      -0.571040       -15.5388
  60   2.0000      -0.564512       -15.3611
  61   2.0000      -0.548319       -14.9205
  62   2.0000      -0.543010       -14.7760
  63   2.0000      -0.530751       -14.4425
  64   2.0000      -0.519604       -14.1392
  65   2.0000      -0.513691       -13.9783
  66   2.0000      -0.505157       -13.7460
  67   2.0000      -0.498039       -13.5523
  68   2.0000      -0.486687       -13.2434
  69   2.0000      -0.468646       -12.7525
  70   2.0000      -0.451711       -12.2917
  71   2.0000      -0.448422       -12.2022
  72   2.0000      -0.358102        -9.7444
  73   2.0000      -0.354412        -9.6440
  74   2.0000      -0.332412        -9.0454
  75   2.0000      -0.329051        -8.9539
  76   2.0000      -0.321109        -8.7378
  77   0.0000       0.075326         2.0497
  78   0.0000       0.095990         2.6120
  79   0.0000       0.119616         3.2549
  80   0.0000       0.127750         3.4763
  81   0.0000       0.128222         3.4891

MULLIKEN ATOMIC CHARGES
-----------------------
   0 C :   -0.253535
   1 C :    0.012658
   2 O :   -0.343510
   3 C :    0.425040
   4 O :   -0.374603
   5 C :   -0.259796
   6 C :    0.176778
   7 C :   -0.269890
   8 N :   -0.128830
   9 C :    0.209272
  10 S :   -0.438435
  11 N :   -0.208619
  12 C :    0.036364
  13 C :   -0.025790
  14 C :   -0.152098
  15 C :   -0.137905
  16 C :   -0.270075
  17 C :    0.296183
  18 O :   -0.356194
  19 C :   -0.201843
  20 H :    0.086245
  21 H :    0.097585
  22 H :    0.102678
  23 H :    0.093520
  24 H :    0.115789
  25 H :    0.119614
  26 H :    0.139892
  27 H :    0.095230
  28 H :    0.199529
  29 H :    0.199985
  30 H :    0.152534
  31 H :    0.154222
  32 H :    0.164341
  33 H :    0.135114
  34 H :    0.242131
  35 H :    0.166420
Sum of atomic charges:   -0.0000000

LOEWDIN ATOMIC CHARGES
----------------------
   0 C :    0.107980
   1 C :   -0.023860
   2 O :    0.301134
   3 C :   -0.428203
   4 O :    0.125699
   5 C :   -0.103754
   6 C :   -0.062851
   7 C :    0.129266
   8 N :    0.407136
   9 C :   -0.457106
  10 S :   -0.033580
  11 N :    0.395441
  12 C :   -0.054548
  13 C :   -0.044253
  14 C :    0.018479
  15 C :    0.042358
  16 C :    0.001185
  17 C :   -0.192138
  18 O :    0.396749
  19 C :    0.035510
  20 H :   -0.028172
  21 H :   -0.025439
  22 H :   -0.025028
  23 H :   -0.034113
  24 H :   -0.030124
  25 H :   -0.007756
  26 H :   -0.003985
  27 H :   -0.022325
  28 H :   -0.056217
  29 H :   -0.063551
  30 H :   -0.011221
  31 H :   -0.026674
  32 H :   -0.018703
  33 H :   -0.033295
  34 H :   -0.152116
  35 H :   -0.021923

  Mayer bond orders larger than 0.100000
B(  0-C ,  1-C ) :   0.9856 B(  0-C , 20-H ) :   0.9773 B(  0-C , 21-H ) :   0.9794
B(  0-C , 22-H ) :   0.9789 B(  1-C ,  2-O ) :   0.8834 B(  1-C , 23-H ) :   0.9695
B(  1-C , 24-H ) :   0.9710 B(  2-O ,  3-C ) :   1.1455 B(  3-C ,  4-O ) :   2.0948
B(  3-C ,  5-C ) :   0.9986 B(  5-C ,  6-C ) :   1.6432 B(  5-C , 12-C ) :   0.9664
B(  6-C ,  7-C ) :   0.9601 B(  6-C ,  8-N ) :   1.1491 B(  7-C , 25-H ) :   0.9718
B(  7-C , 26-H ) :   0.9542 B(  7-C , 27-H ) :   0.9858 B(  8-N ,  9-C ) :   1.1897
B(  8-N , 28-H ) :   0.9480 B(  9-C , 10-S ) :   1.6122 B(  9-C , 11-N ) :   1.3005
B( 11-N , 12-C ) :   0.9698 B( 11-N , 29-H ) :   0.9484 B( 12-C , 13-C ) :   0.9657
B( 12-C , 30-H ) :   1.0068 B( 13-C , 14-C ) :   1.3563 B( 13-C , 19-C ) :   1.3690
B( 14-C , 15-C ) :   1.3959 B( 14-C , 31-H ) :   0.9710 B( 15-C , 16-C ) :   1.3610
B( 15-C , 32-H ) :   0.9703 B( 16-C , 17-C ) :   1.3283 B( 16-C , 33-H ) :   0.9835
B( 17-C , 18-O ) :   1.1092 B( 17-C , 19-C ) :   1.3710 B( 18-O , 34-H ) :   0.9784
B( 19-C , 35-H ) :   0.9603

MP2 TOTAL ENERGY:    -1274.323962078 Eh
FINAL SINGLE POINT ENERGY     -1274.323962078418

DIPOLE MOMENT
-------------
                                X             Y             Z
Electronic contribution:     10.27552       9.66963       6.89552
Nuclear contribution   :    -11.60116     -11.18433      -6.47102
                        -----------------------------------------
Total Dipole Moment    :     -1.32564      -1.51470       0.42449
                        -----------------------------------------
Magnitude (a.u.)       :      2.05714
Magnitude (Debye)      :      5.22884

Rotational constants in cm-1:     0.012016     0.008782     0.005995
Rotational constants in MHz :   360.221033   263.269109   179.735550

                             ****ORCA TERMINATED NORMALLY****
TOTAL RUN TIME: 0 days 1 hours 49 minutes 4 seconds 483 msec
