                         Program Version 4.2.0 -  RELEASE  -
|  1> ! ri-mp2 cc-pvtz cc-pvtz/c TightSCF NoKeepInts
|  2>
|  3> %scf
|  4>   MaxCore 4096
|  5> end
|  6> *xyz  0  1
|  7>     C       14.4793828   15.0999283   14.8767522
|  8>     C       15.6549955   14.9982031   15.8706577
|  9>     O       16.7046394   15.9540527   15.5926150
| 10>     C       16.4386397   17.2839213   15.4172959
| 11>     O       15.8156925   17.6949097   14.4544911
| 12>     C       16.9459283   18.1387621   16.5499890
| 13>     C       16.9414156   19.4938014   16.4508190
| 14>     C       16.2241495   20.3367409   15.4163338
| 15>     N       17.6524016   20.2854631   17.3556455
| 16>     C       18.5507772   19.8023135   18.2675786
| 17>     S       19.4347844   20.8034882   19.2431327
| 18>     N       18.6975791   18.4395460   18.3156113
| 19>     C       17.8780511   17.4641565   17.5726564
| 20>     C       17.1932653   16.4626975   18.4926601
| 21>     C       17.6928765   15.1535311   18.6210885
| 22>     C       17.0556912   14.2265736   19.4630052
| 23>     C       15.9138661   14.6140940   20.1852270
| 24>     C       15.4200853   15.9205919   20.0656513
| 25>     O       14.3184396   16.2975942   20.7617425
| 26>     C       16.0549198   16.8402343   19.2250093
| 27>     H       13.9022571   16.0193488   15.0352582
| 28>     H       13.7963393   14.2518773   15.0058233
| 29>     H       14.8437057   15.0905029   13.8415970
| 30>     H       15.2711971   15.1520094   16.8876107
| 31>     H       16.0778839   13.9864347   15.8269662
| 32>     H       15.1675276   20.0481079   15.3468534
| 33>     H       16.6691846   20.1912559   14.4235943
| 34>     H       16.2538592   21.4097649   15.6392557
| 35>     H       17.5729163   21.2889059   17.3124788
| 36>     H       19.3467447   18.1114814   19.0194685
| 37>     H       18.6582863   16.9699189   16.9761862
| 38>     H       18.5737757   14.8522586   18.0599391
| 39>     H       17.4478702   13.2150262   19.5557538
| 40>     H       15.4193506   13.9021645   20.8381739
| 41>     H       14.0560231   15.5513896   21.3217643
| 42>     H       15.6624982   17.8489497   19.1493147
| 43> *
| 44>
| 45>                          ****END OF INPUT****

CARTESIAN COORDINATES (ANGSTROEM)
---------------------------------
  C     14.479383   15.099928   14.876752
  C     15.654995   14.998203   15.870658
  O     16.704639   15.954053   15.592615
  C     16.438640   17.283921   15.417296
  O     15.815693   17.694910   14.454491
  C     16.945928   18.138762   16.549989
  C     16.941416   19.493801   16.450819
  C     16.224149   20.336741   15.416334
  N     17.652402   20.285463   17.355646
  C     18.550777   19.802314   18.267579
  S     19.434784   20.803488   19.243133
  N     18.697579   18.439546   18.315611
  C     17.878051   17.464157   17.572656
  C     17.193265   16.462698   18.492660
  C     17.692877   15.153531   18.621088
  C     17.055691   14.226574   19.463005
  C     15.913866   14.614094   20.185227
  C     15.420085   15.920592   20.065651
  O     14.318440   16.297594   20.761743
  C     16.054920   16.840234   19.225009
  H     13.902257   16.019349   15.035258
  H     13.796339   14.251877   15.005823
  H     14.843706   15.090503   13.841597
  H     15.271197   15.152009   16.887611
  H     16.077884   13.986435   15.826966
  H     15.167528   20.048108   15.346853
  H     16.669185   20.191256   14.423594
  H     16.253859   21.409765   15.639256
  H     17.572916   21.288906   17.312479
  H     19.346745   18.111481   19.019468
  H     18.658286   16.969919   16.976186
  H     18.573776   14.852259   18.059939
  H     17.447870   13.215026   19.555754
  H     15.419351   13.902164   20.838174
  H     14.056023   15.551390   21.321764
  H     15.662498   17.848950   19.149315

 Total Charge           Charge          ....    0
 Multiplicity           Mult            ....    1
 Number of Electrons    NEL             ....  154
 Basis Dimension        Dim             ....  828

ORBITAL ENERGIES
----------------

  NO   OCC          E(Eh)            E(eV)
   0   2.0000     -91.889983     -2500.4536
   1   2.0000     -20.601457      -560.5941
   2   2.0000     -20.583875      -560.1157
   3   2.0000     -20.544648      -559.0483
   4   2.0000     -15.630393      -425.3246
   5   2.0000     -15.608080      -424.7174
   6   2.0000     -11.393660      -310.0373
   7   2.0000     -11.384484      -309.7876
   8   2.0000     -11.338468      -308.5354
   9   2.0000     -11.319292      -308.0136
  10   2.0000     -11.309080      -307.7357
  11   2.0000     -11.298007      -307.4344
  12   2.0000     -11.265068      -306.5381
  13   2.0000     -11.260414      -306.4115
  14   2.0000     -11.258231      -306.3520
  15   2.0000     -11.252562      -306.1978
  16   2.0000     -11.248830      -306.0962
  17   2.0000     -11.243676      -305.9560
  18   2.0000     -11.243140      -305.9414
  19   2.0000     -11.219113      -305.2876
  20   2.0000      -8.895048      -242.0465
  21   2.0000      -6.576618      -178.9589
  22   2.0000      -6.574622      -178.9045
  23   2.0000      -6.574028      -178.8884
  24   2.0000      -1.442917       -39.2638
  25   2.0000      -1.421161       -38.6718
  26   2.0000      -1.352162       -36.7942
  27   2.0000      -1.341666       -36.5086
  28   2.0000      -1.239686       -33.7336
  29   2.0000      -1.162099       -31.6223
  30   2.0000      -1.121776       -30.5251
  31   2.0000      -1.046112       -28.4661
  32   2.0000      -1.031053       -28.0564
  33   2.0000      -1.020087       -27.7580
  34   2.0000      -0.997526       -27.1441
  35   2.0000      -0.985675       -26.8216
  36   2.0000      -0.924013       -25.1437
  37   2.0000      -0.889077       -24.1930
  38   2.0000      -0.848790       -23.0968
  39   2.0000      -0.842004       -22.9121
  40   2.0000      -0.838712       -22.8225
  41   2.0000      -0.823621       -22.4119
  42   2.0000      -0.748970       -20.3805
  43   2.0000      -0.735811       -20.0224
  44   2.0000      -0.717207       -19.5162
  45   2.0000      -0.699573       -19.0364
  46   2.0000      -0.689122       -18.7520
  47   2.0000      -0.677916       -18.4470
  48   2.0000      -0.668181       -18.1821
  49   2.0000      -0.663130       -18.0447
  50   2.0000      -0.649146       -17.6641
  51   2.0000      -0.645685       -17.5700
  52   2.0000      -0.637140       -17.3375
  53   2.0000      -0.611508       -16.6400
  54   2.0000      -0.607898       -16.5417
  55   2.0000      -0.602094       -16.3838
  56   2.0000      -0.601363       -16.3639
  57   2.0000      -0.580824       -15.8050
  58   2.0000      -0.571589       -15.5537
  59   2.0000      -0.568280       -15.4637
  60   2.0000      -0.559462       -15.2237
  61   2.0000      -0.541587       -14.7373
  62   2.0000      -0.535132       -14.5617
  63   2.0000      -0.527522       -14.3546
  64   2.0000      -0.522309       -14.2127
  65   2.0000      -0.514595       -14.0028
  66   2.0000      -0.502074       -13.6621
  67   2.0000      -0.493996       -13.4423
  68   2.0000      -0.482955       -13.1419
  69   2.0000      -0.463698       -12.6179
  70   2.0000      -0.454053       -12.3554
  71   2.0000      -0.441303       -12.0085
  72   2.0000      -0.355659        -9.6780
  73   2.0000      -0.352940        -9.6040
  74   2.0000      -0.329870        -8.9762
  75   2.0000      -0.326224        -8.8770
  76   2.0000      -0.319461        -8.6930
  77   0.0000       0.072286         1.9670
  78   0.0000       0.099842         2.7168
  79   0.0000       0.123440         3.3590
  80   0.0000       0.129927         3.5355
  81   0.0000       0.132479         3.6049

MULLIKEN ATOMIC CHARGES
-----------------------
   0 C :   -0.275601
   1 C :    0.029465
   2 O :   -0.384373
   3 C :    0.478447
   4 O :   -0.412133
   5 C :   -0.280345
   6 C :    0.186216
   7 C :   -0.265414
   8 N :   -0.127470
   9 C :    0.212096
  10 S :   -0.440869
  11 N :   -0.217321
  12 C :    0.076955
  13 C :   -0.014370
  14 C :   -0.150530
  15 C :   -0.135695
  16 C :   -0.274452
  17 C :    0.309796
  18 O :   -0.356373
  19 C :   -0.232071
  20 H :    0.099150
  21 H :    0.094330
  22 H :    0.109407
  23 H :    0.100597
  24 H :    0.103069
  25 H :    0.130990
  26 H :    0.131877
  27 H :    0.094467
  28 H :    0.199574
  29 H :    0.200926
  30 H :    0.151731
  31 H :    0.153336
  32 H :    0.163445
  33 H :    0.133553
  34 H :    0.241550
  35 H :    0.166038
Sum of atomic charges:    0.0000000

LOEWDIN ATOMIC CHARGES
----------------------
   0 C :    0.104317
   1 C :   -0.019146
   2 O :    0.287376
   3 C :   -0.415538
   4 O :    0.117136
   5 C :   -0.100937
   6 C :   -0.054447
   7 C :    0.131117
   8 N :    0.407590
   9 C :   -0.456450
  10 S :   -0.035514
  11 N :    0.394422
  12 C :   -0.054747
  13 C :   -0.039855
  14 C :    0.018563
  15 C :    0.041071
  16 C :   -0.000864
  17 C :   -0.191206
  18 O :    0.396275
  19 C :    0.031195
  20 H :   -0.028925
  21 H :   -0.028853
  22 H :   -0.022808
  23 H :   -0.031767
  24 H :   -0.023638
  25 H :   -0.004980
  26 H :   -0.004192
  27 H :   -0.023573
  28 H :   -0.056904
  29 H :   -0.064569
  30 H :   -0.012269
  31 H :   -0.027802
  32 H :   -0.020001
  33 H :   -0.034416
  34 H :   -0.152861
  35 H :   -0.022797

  Mayer bond orders larger than 0.100000
B(  0-C ,  1-C ) :   0.9832 B(  0-C , 20-H ) :   0.9738 B(  0-C , 21-H ) :   0.9750
B(  0-C , 22-H ) :   0.9751 B(  1-C ,  2-O ) :   0.8952 B(  1-C , 23-H ) :   0.9674
B(  1-C , 24-H ) :   0.9801 B(  2-O ,  3-C ) :   1.0843 B(  3-C ,  4-O ) :   2.0080
B(  3-C ,  5-C ) :   1.0749 B(  5-C ,  6-C ) :   1.6303 B(  5-C , 12-C ) :   0.9535
B(  6-C ,  7-C ) :   0.9657 B(  6-C ,  8-N ) :   1.1563 B(  7-C , 25-H ) :   0.9624
B(  7-C , 26-H ) :   0.9571 B(  7-C , 27-H ) :   0.9900 B(  8-N ,  9-C ) :   1.1862
B(  8-N , 28-H ) :   0.9463 B(  9-C , 10-S ) :   1.6056 B(  9-C , 11-N ) :   1.3109
B( 11-N , 12-C ) :   0.9621 B( 11-N , 29-H ) :   0.9485 B( 12-C , 13-C ) :   0.9659
B( 12-C , 30-H ) :   1.0002 B( 13-C , 14-C ) :   1.3542 B( 13-C , 19-C ) :   1.3781
B( 14-C , 15-C ) :   1.3937 B( 14-C , 31-H ) :   0.9729 B( 15-C , 16-C ) :   1.3591
B( 15-C , 32-H ) :   0.9701 B( 16-C , 17-C ) :   1.3322 B( 16-C , 33-H ) :   0.9841
B( 17-C , 18-O ) :   1.1073 B( 17-C , 19-C ) :   1.3648 B( 18-O , 34-H ) :   0.9789
B( 19-C , 35-H ) :   0.9592

MP2 TOTAL ENERGY:    -1274.328349318 Eh
FINAL SINGLE POINT ENERGY     -1274.328349318418

DIPOLE MOMENT
-------------
                                X             Y             Z
Electronic contribution:      9.72092       9.54906       8.11836
Nuclear contribution   :    -10.74137     -11.21511      -8.05446
                        -----------------------------------------
Total Dipole Moment    :     -1.02045      -1.66605       0.06390
                        -----------------------------------------
Magnitude (a.u.)       :      1.95477
Magnitude (Debye)      :      4.96863

Rotational constants in cm-1:     0.011977     0.008651     0.006028
Rotational constants in MHz :   359.051746   259.362682   180.724597

                             ****ORCA TERMINATED NORMALLY****
TOTAL RUN TIME: 0 days 1 hours 42 minutes 13 seconds 702 msec
