                         Program Version 4.2.0 -  RELEASE  -
|  1> ! ri-mp2 cc-pvtz cc-pvtz/c TightSCF NoKeepInts
|  2>
|  3> %scf
|  4>   MaxCore 4096
|  5> end
|  6> *xyz  0  1
|  7>     C       13.7203823   16.1689809   14.5278801
|  8>     C       14.8123291   16.2322775   15.6086498
|  9>     O       16.0841447   16.2356149   14.9303742
| 10>     C       17.2389136   16.5852885   15.5782670
| 11>     O       18.2815210   15.9929135   15.3700189
| 12>     C       17.1304271   17.6714552   16.6011627
| 13>     C       16.6555281   18.8951554   16.2597648
| 14>     C       15.9936129   19.2885736   14.9535308
| 15>     N       16.8272019   19.9899010   17.1092047
| 16>     C       17.6702540   19.9998266   18.1890209
| 17>     S       17.9164988   21.3647622   19.0892718
| 18>     N       18.3185438   18.8222332   18.4699937
| 19>     C       18.0555008   17.5277310   17.8099679
| 20>     C       17.6245141   16.4112764   18.7493090
| 21>     C       18.1986572   15.1322720   18.6391849
| 22>     C       17.7913930   14.0911338   19.4899060
| 23>     C       16.7994304   14.3307893   20.4563504
| 24>     C       16.2208201   15.6029784   20.5633073
| 25>     O       15.2558501   15.8346316   21.4884450
| 26>     C       16.6271245   16.6373829   19.7140399
| 27>     H       12.7240469   16.1513856   14.9862225
| 28>     H       13.8336731   15.2624893   13.9197572
| 29>     H       13.7789187   17.0391049   13.8625702
| 30>     H       14.6566275   17.1325115   16.2141315
| 31>     H       14.7430410   15.3584907   16.2706232
| 32>     H       14.9051403   19.1712549   15.0086327
| 33>     H       16.3578467   18.6861909   14.1118006
| 34>     H       16.2025345   20.3338596   14.6924828
| 35>     H       16.3861283   20.8701802   16.8936673
| 36>     H       18.9309267   18.8542344   19.2756384
| 37>     H       19.0533386   17.3128417   17.3988758
| 38>     H       18.9569065   14.9429836   17.8817815
| 39>     H       18.2417288   13.1044359   19.3945450
| 40>     H       16.4812862   13.5288155   21.1143376
| 41>     H       15.1462770   15.0212904   22.0040387
| 42>     H       16.1659314   17.6147532   19.8112450
| 43> *
| 44>
| 45>                          ****END OF INPUT****

CARTESIAN COORDINATES (ANGSTROEM)
---------------------------------
  C     13.720382   16.168981   14.527880
  C     14.812329   16.232277   15.608650
  O     16.084145   16.235615   14.930374
  C     17.238914   16.585289   15.578267
  O     18.281521   15.992913   15.370019
  C     17.130427   17.671455   16.601163
  C     16.655528   18.895155   16.259765
  C     15.993613   19.288574   14.953531
  N     16.827202   19.989901   17.109205
  C     17.670254   19.999827   18.189021
  S     17.916499   21.364762   19.089272
  N     18.318544   18.822233   18.469994
  C     18.055501   17.527731   17.809968
  C     17.624514   16.411276   18.749309
  C     18.198657   15.132272   18.639185
  C     17.791393   14.091134   19.489906
  C     16.799430   14.330789   20.456350
  C     16.220820   15.602978   20.563307
  O     15.255850   15.834632   21.488445
  C     16.627125   16.637383   19.714040
  H     12.724047   16.151386   14.986222
  H     13.833673   15.262489   13.919757
  H     13.778919   17.039105   13.862570
  H     14.656628   17.132511   16.214132
  H     14.743041   15.358491   16.270623
  H     14.905140   19.171255   15.008633
  H     16.357847   18.686191   14.111801
  H     16.202534   20.333860   14.692483
  H     16.386128   20.870180   16.893667
  H     18.930927   18.854234   19.275638
  H     19.053339   17.312842   17.398876
  H     18.956906   14.942984   17.881781
  H     18.241729   13.104436   19.394545
  H     16.481286   13.528815   21.114338
  H     15.146277   15.021290   22.004039
  H     16.165931   17.614753   19.811245

 Total Charge           Charge          ....    0
 Multiplicity           Mult            ....    1
 Number of Electrons    NEL             ....  154
 Basis Dimension        Dim             ....  828

ORBITAL ENERGIES
----------------

  NO   OCC          E(Eh)            E(eV)
   0   2.0000     -91.890101     -2500.4568
   1   2.0000     -20.601830      -560.6043
   2   2.0000     -20.598008      -560.5003
   3   2.0000     -20.551486      -559.2344
   4   2.0000     -15.629141      -425.2905
   5   2.0000     -15.609166      -424.7470
   6   2.0000     -11.397820      -310.1505
   7   2.0000     -11.385737      -309.8217
   8   2.0000     -11.335950      -308.4669
   9   2.0000     -11.314963      -307.8958
  10   2.0000     -11.308693      -307.7252
  11   2.0000     -11.306935      -307.6773
  12   2.0000     -11.267013      -306.5910
  13   2.0000     -11.263366      -306.4918
  14   2.0000     -11.262609      -306.4712
  15   2.0000     -11.255103      -306.2669
  16   2.0000     -11.244299      -305.9729
  17   2.0000     -11.240521      -305.8701
  18   2.0000     -11.238191      -305.8067
  19   2.0000     -11.237376      -305.7845
  20   2.0000      -8.895201      -242.0507
  21   2.0000      -6.576780      -178.9633
  22   2.0000      -6.574770      -178.9086
  23   2.0000      -6.574185      -178.8927
  24   2.0000      -1.450593       -39.4726
  25   2.0000      -1.417718       -38.5781
  26   2.0000      -1.362805       -37.0838
  27   2.0000      -1.341510       -36.5043
  28   2.0000      -1.239368       -33.7249
  29   2.0000      -1.159441       -31.5500
  30   2.0000      -1.125695       -30.6317
  31   2.0000      -1.047290       -28.4982
  32   2.0000      -1.043545       -28.3963
  33   2.0000      -1.017215       -27.6798
  34   2.0000      -1.004975       -27.3467
  35   2.0000      -0.989406       -26.9231
  36   2.0000      -0.925659       -25.1885
  37   2.0000      -0.883105       -24.0305
  38   2.0000      -0.855190       -23.2709
  39   2.0000      -0.842804       -22.9338
  40   2.0000      -0.836543       -22.7635
  41   2.0000      -0.834369       -22.7043
  42   2.0000      -0.759792       -20.6750
  43   2.0000      -0.739616       -20.1260
  44   2.0000      -0.731669       -19.9097
  45   2.0000      -0.695426       -18.9235
  46   2.0000      -0.688398       -18.7323
  47   2.0000      -0.684583       -18.6284
  48   2.0000      -0.673837       -18.3360
  49   2.0000      -0.663190       -18.0463
  50   2.0000      -0.653678       -17.7875
  51   2.0000      -0.646896       -17.6029
  52   2.0000      -0.639678       -17.4065
  53   2.0000      -0.614272       -16.7152
  54   2.0000      -0.605954       -16.4888
  55   2.0000      -0.604526       -16.4500
  56   2.0000      -0.601082       -16.3563
  57   2.0000      -0.584032       -15.8923
  58   2.0000      -0.576819       -15.6960
  59   2.0000      -0.567791       -15.4504
  60   2.0000      -0.560983       -15.2651
  61   2.0000      -0.559012       -15.2115
  62   2.0000      -0.545142       -14.8341
  63   2.0000      -0.533593       -14.5198
  64   2.0000      -0.522868       -14.2279
  65   2.0000      -0.514600       -14.0030
  66   2.0000      -0.503377       -13.6976
  67   2.0000      -0.500441       -13.6177
  68   2.0000      -0.488120       -13.2824
  69   2.0000      -0.468449       -12.7471
  70   2.0000      -0.461939       -12.5700
  71   2.0000      -0.451130       -12.2759
  72   2.0000      -0.356243        -9.6939
  73   2.0000      -0.350304        -9.5323
  74   2.0000      -0.329452        -8.9648
  75   2.0000      -0.322544        -8.7769
  76   2.0000      -0.319636        -8.6977
  77   0.0000       0.080164         2.1814
  78   0.0000       0.105196         2.8625
  79   0.0000       0.116638         3.1739
  80   0.0000       0.131245         3.5714
  81   0.0000       0.131527         3.5790

MULLIKEN ATOMIC CHARGES
-----------------------
   0 C :   -0.265126
   1 C :    0.016645
   2 O :   -0.326035
   3 C :    0.425351
   4 O :   -0.379512
   5 C :   -0.234726
   6 C :    0.160039
   7 C :   -0.323257
   8 N :   -0.136629
   9 C :    0.207837
  10 S :   -0.441662
  11 N :   -0.219724
  12 C :    0.056822
  13 C :    0.027214
  14 C :   -0.214943
  15 C :   -0.128223
  16 C :   -0.277742
  17 C :    0.313824
  18 O :   -0.356834
  19 C :   -0.250129
  20 H :    0.093085
  21 H :    0.109555
  22 H :    0.093708
  23 H :    0.096921
  24 H :    0.119574
  25 H :    0.119757
  26 H :    0.140987
  27 H :    0.126292
  28 H :    0.198371
  29 H :    0.202022
  30 H :    0.165410
  31 H :    0.174464
  32 H :    0.164012
  33 H :    0.130853
  34 H :    0.241096
  35 H :    0.170704
Sum of atomic charges:    0.0000000

LOEWDIN ATOMIC CHARGES
----------------------
   0 C :    0.109222
   1 C :   -0.021867
   2 O :    0.304574
   3 C :   -0.416437
   4 O :    0.123359
   5 C :   -0.089299
   6 C :   -0.084286
   7 C :    0.127873
   8 N :    0.403264
   9 C :   -0.457245
  10 S :   -0.037286
  11 N :    0.396136
  12 C :   -0.049548
  13 C :   -0.043663
  14 C :    0.020839
  15 C :    0.043794
  16 C :   -0.000462
  17 C :   -0.191811
  18 O :    0.394320
  19 C :    0.027012
  20 H :   -0.023857
  21 H :   -0.022465
  22 H :   -0.029782
  23 H :   -0.039591
  24 H :   -0.027158
  25 H :   -0.016762
  26 H :   -0.006839
  27 H :   -0.013191
  28 H :   -0.057735
  29 H :   -0.063421
  30 H :   -0.004917
  31 H :   -0.021513
  32 H :   -0.019027
  33 H :   -0.035118
  34 H :   -0.153465
  35 H :   -0.023650

  Mayer bond orders larger than 0.100000
B(  0-C ,  1-C ) :   0.9761 B(  0-C , 20-H ) :   0.9754 B(  0-C , 21-H ) :   0.9776
B(  0-C , 22-H ) :   0.9775 B(  1-C ,  2-O ) :   0.8985 B(  1-C , 23-H ) :   0.9652
B(  1-C , 24-H ) :   0.9780 B(  2-O ,  3-C ) :   1.1609 B(  3-C ,  4-O ) :   2.0984
B(  3-C ,  5-C ) :   0.9394 B(  5-C ,  6-C ) :   1.7067 B(  5-C , 12-C ) :   0.9431
B(  6-C ,  7-C ) :   0.9353 B(  6-C ,  8-N ) :   1.1145 B(  7-C , 25-H ) :   0.9649
B(  7-C , 26-H ) :   0.9704 B(  7-C , 27-H ) :   0.9841 B(  8-N ,  9-C ) :   1.1924
B(  8-N , 28-H ) :   0.9497 B(  9-C , 10-S ) :   1.6109 B(  9-C , 11-N ) :   1.2943
B( 11-N , 12-C ) :   0.9840 B( 11-N , 29-H ) :   0.9479 B( 12-C , 13-C ) :   0.9698
B( 12-C , 30-H ) :   0.9902 B( 13-C , 14-C ) :   1.3843 B( 13-C , 19-C ) :   1.3561
B( 14-C , 15-C ) :   1.3938 B( 14-C , 31-H ) :   0.9597 B( 15-C , 16-C ) :   1.3612
B( 15-C , 32-H ) :   0.9699 B( 16-C , 17-C ) :   1.3312 B( 16-C , 33-H ) :   0.9853
B( 17-C , 18-O ) :   1.1075 B( 17-C , 19-C ) :   1.3675 B( 18-O , 34-H ) :   0.9796
B( 19-C , 35-H ) :   0.9570

MP2 TOTAL ENERGY:    -1274.330854302 Eh
FINAL SINGLE POINT ENERGY     -1274.330854302465

DIPOLE MOMENT
-------------
                                X             Y             Z
Electronic contribution:     11.17905       6.54027       9.79930
Nuclear contribution   :    -12.78585      -7.70673     -10.17422
                        -----------------------------------------
Total Dipole Moment    :     -1.60680      -1.16646      -0.37492
                        -----------------------------------------
Magnitude (a.u.)       :      2.02064
Magnitude (Debye)      :      5.13607

Rotational constants in cm-1:     0.010154     0.009240     0.006134
Rotational constants in MHz :   304.417223   277.018342   183.900186

                             ****ORCA TERMINATED NORMALLY****
TOTAL RUN TIME: 0 days 1 hours 42 minutes 28 seconds 801 msec
