                         Program Version 4.2.0 -  RELEASE  -
|  1> ! ri-mp2 cc-pvtz cc-pvtz/c TightSCF NoKeepInts
|  2>
|  3> %scf
|  4>   MaxCore 4096
|  5> end
|  6> *xyz  0  1
|  7>     C       14.5355605   16.4537734   16.2488693
|  8>     C       15.3482468   15.3237644   15.5816231
|  9>     O       16.7700778   15.5421406   15.3653553
| 10>     C       17.4779014   16.7169840   15.3219026
| 11>     O       18.3314928   16.8947241   14.4730619
| 12>     C       17.1739744   17.7472896   16.3553783
| 13>     C       16.9665807   19.0204205   15.9481846
| 14>     C       16.6240535   19.4493534   14.5376839
| 15>     N       17.0971426   20.0944091   16.8298265
| 16>     C       17.6872416   20.0014694   18.0627854
| 17>     S       17.9308541   21.3286950   19.0187617
| 18>     N       18.0948831   18.7491357   18.4538727
| 19>     C       17.7929339   17.4925998   17.7380286
| 20>     C       17.1380940   16.4146930   18.5934849
| 21>     C       17.4976354   15.0647332   18.4254066
| 22>     C       16.9014884   14.0621743   19.2081424
| 23>     C       15.9418853   14.4122937   20.1730270
| 24>     C       15.5875176   15.7565503   20.3503421
| 25>     O       14.6593671   16.0974567   21.2790517
| 26>     C       16.1819054   16.7527622   19.5690302
| 27>     H       14.8639956   16.6525380   17.2702141
| 28>     H       13.4808146   16.1586870   16.3082610
| 29>     H       14.5770245   17.3789737   15.6633948
| 30>     H       15.2254767   14.4071808   16.1734224
| 31>     H       14.8906919   15.1269613   14.6032894
| 32>     H       17.5414898   19.5803596   13.9484779
| 33>     H       16.0656224   20.3927209   14.5126450
| 34>     H       16.0148729   18.6946784   14.0256590
| 35>     H       16.8509568   21.0248645   16.5314498
| 36>     H       18.5296106   18.7104514   19.3674434
| 37>     H       18.8211737   17.1715291   17.5143146
| 38>     H       18.2381056   14.7901136   17.6775593
| 39>     H       17.1853129   13.0205725   19.0663248
| 40>     H       15.4791753   13.6411957   20.7803736
| 41>     H       14.3966333   15.2872980   21.7415135
| 42>     H       15.8872067   17.7864531   19.7198386
| 43> *
| 44>
| 45>                          ****END OF INPUT****

CARTESIAN COORDINATES (ANGSTROEM)
---------------------------------
  C     14.535560   16.453773   16.248869
  C     15.348247   15.323764   15.581623
  O     16.770078   15.542141   15.365355
  C     17.477901   16.716984   15.321903
  O     18.331493   16.894724   14.473062
  C     17.173974   17.747290   16.355378
  C     16.966581   19.020420   15.948185
  C     16.624053   19.449353   14.537684
  N     17.097143   20.094409   16.829826
  C     17.687242   20.001469   18.062785
  S     17.930854   21.328695   19.018762
  N     18.094883   18.749136   18.453873
  C     17.792934   17.492600   17.738029
  C     17.138094   16.414693   18.593485
  C     17.497635   15.064733   18.425407
  C     16.901488   14.062174   19.208142
  C     15.941885   14.412294   20.173027
  C     15.587518   15.756550   20.350342
  O     14.659367   16.097457   21.279052
  C     16.181905   16.752762   19.569030
  H     14.863996   16.652538   17.270214
  H     13.480815   16.158687   16.308261
  H     14.577024   17.378974   15.663395
  H     15.225477   14.407181   16.173422
  H     14.890692   15.126961   14.603289
  H     17.541490   19.580360   13.948478
  H     16.065622   20.392721   14.512645
  H     16.014873   18.694678   14.025659
  H     16.850957   21.024864   16.531450
  H     18.529611   18.710451   19.367443
  H     18.821174   17.171529   17.514315
  H     18.238106   14.790114   17.677559
  H     17.185313   13.020573   19.066325
  H     15.479175   13.641196   20.780374
  H     14.396633   15.287298   21.741513
  H     15.887207   17.786453   19.719839

 Total Charge           Charge          ....    0
 Multiplicity           Mult            ....    1
 Number of Electrons    NEL             ....  154
 Basis Dimension        Dim             ....  828

ORBITAL ENERGIES
----------------

  NO   OCC          E(Eh)            E(eV)
   0   2.0000     -91.889417     -2500.4382
   1   2.0000     -20.602301      -560.6171
   2   2.0000     -20.592991      -560.3638
   3   2.0000     -20.553648      -559.2932
   4   2.0000     -15.625504      -425.1916
   5   2.0000     -15.610390      -424.7803
   6   2.0000     -11.398206      -310.1610
   7   2.0000     -11.384935      -309.7998
   8   2.0000     -11.325502      -308.1826
   9   2.0000     -11.320361      -308.0427
  10   2.0000     -11.316173      -307.9287
  11   2.0000     -11.309369      -307.7436
  12   2.0000     -11.269565      -306.6605
  13   2.0000     -11.261764      -306.4482
  14   2.0000     -11.258141      -306.3496
  15   2.0000     -11.255840      -306.2870
  16   2.0000     -11.249791      -306.1224
  17   2.0000     -11.245358      -306.0017
  18   2.0000     -11.244683      -305.9834
  19   2.0000     -11.233573      -305.6811
  20   2.0000      -8.894497      -242.0316
  21   2.0000      -6.576074      -178.9441
  22   2.0000      -6.574069      -178.8895
  23   2.0000      -6.573484      -178.8736
  24   2.0000      -1.442813       -39.2609
  25   2.0000      -1.422080       -38.6968
  26   2.0000      -1.356797       -36.9203
  27   2.0000      -1.338693       -36.4277
  28   2.0000      -1.238753       -33.7082
  29   2.0000      -1.163979       -31.6735
  30   2.0000      -1.124469       -30.5984
  31   2.0000      -1.049212       -28.5505
  32   2.0000      -1.038434       -28.2572
  33   2.0000      -1.022573       -27.8256
  34   2.0000      -1.003840       -27.3159
  35   2.0000      -0.989577       -26.9278
  36   2.0000      -0.926016       -25.1982
  37   2.0000      -0.902150       -24.5488
  38   2.0000      -0.850166       -23.1342
  39   2.0000      -0.843533       -22.9537
  40   2.0000      -0.839714       -22.8498
  41   2.0000      -0.825583       -22.4652
  42   2.0000      -0.747413       -20.3382
  43   2.0000      -0.737688       -20.0735
  44   2.0000      -0.725752       -19.7487
  45   2.0000      -0.700651       -19.0657
  46   2.0000      -0.688409       -18.7326
  47   2.0000      -0.675282       -18.3754
  48   2.0000      -0.672918       -18.3110
  49   2.0000      -0.667276       -18.1575
  50   2.0000      -0.656001       -17.8507
  51   2.0000      -0.649871       -17.6839
  52   2.0000      -0.637815       -17.3558
  53   2.0000      -0.614923       -16.7329
  54   2.0000      -0.609772       -16.5927
  55   2.0000      -0.604188       -16.4408
  56   2.0000      -0.603614       -16.4252
  57   2.0000      -0.583227       -15.8704
  58   2.0000      -0.577861       -15.7244
  59   2.0000      -0.574316       -15.6279
  60   2.0000      -0.565180       -15.3793
  61   2.0000      -0.558503       -15.1976
  62   2.0000      -0.541824       -14.7438
  63   2.0000      -0.531283       -14.4570
  64   2.0000      -0.522282       -14.2120
  65   2.0000      -0.513781       -13.9807
  66   2.0000      -0.504239       -13.7210
  67   2.0000      -0.493740       -13.4353
  68   2.0000      -0.492517       -13.4021
  69   2.0000      -0.464843       -12.6490
  70   2.0000      -0.454833       -12.3766
  71   2.0000      -0.450217       -12.2510
  72   2.0000      -0.356978        -9.7139
  73   2.0000      -0.347680        -9.4608
  74   2.0000      -0.328847        -8.9484
  75   2.0000      -0.327657        -8.9160
  76   2.0000      -0.318716        -8.6727
  77   0.0000       0.085476         2.3259
  78   0.0000       0.100657         2.7390
  79   0.0000       0.119862         3.2616
  80   0.0000       0.126154         3.4328
  81   0.0000       0.128388         3.4936

MULLIKEN ATOMIC CHARGES
-----------------------
   0 C :   -0.322882
   1 C :    0.032389
   2 O :   -0.346548
   3 C :    0.420474
   4 O :   -0.368084
   5 C :   -0.217093
   6 C :    0.151445
   7 C :   -0.292829
   8 N :   -0.139249
   9 C :    0.216606
  10 S :   -0.442358
  11 N :   -0.240263
  12 C :    0.060207
  13 C :    0.023642
  14 C :   -0.220266
  15 C :   -0.141910
  16 C :   -0.272923
  17 C :    0.318765
  18 O :   -0.354296
  19 C :   -0.245928
  20 H :    0.122460
  21 H :    0.122052
  22 H :    0.097134
  23 H :    0.109697
  24 H :    0.116029
  25 H :    0.150237
  26 H :    0.101644
  27 H :    0.109907
  28 H :    0.197352
  29 H :    0.206613
  30 H :    0.163275
  31 H :    0.160952
  32 H :    0.167374
  33 H :    0.134172
  34 H :    0.241317
  35 H :    0.180886
Sum of atomic charges:   -0.0000000

LOEWDIN ATOMIC CHARGES
----------------------
   0 C :    0.103262
   1 C :   -0.013200
   2 O :    0.290848
   3 C :   -0.422231
   4 O :    0.131434
   5 C :   -0.088960
   6 C :   -0.085762
   7 C :    0.127626
   8 N :    0.405090
   9 C :   -0.454460
  10 S :   -0.037402
  11 N :    0.396157
  12 C :   -0.051827
  13 C :   -0.042288
  14 C :    0.021347
  15 C :    0.043009
  16 C :   -0.000577
  17 C :   -0.191626
  18 O :    0.396833
  19 C :    0.028381
  20 H :   -0.031442
  21 H :   -0.020568
  22 H :   -0.033076
  23 H :   -0.023075
  24 H :   -0.026749
  25 H :   -0.003105
  26 H :   -0.019914
  27 H :   -0.013194
  28 H :   -0.058401
  29 H :   -0.064634
  30 H :   -0.008100
  31 H :   -0.024976
  32 H :   -0.018548
  33 H :   -0.034250
  34 H :   -0.152770
  35 H :   -0.022851

  Mayer bond orders larger than 0.100000
B(  0-C ,  1-C ) :   0.9644 B(  0-C , 20-H ) :   0.9658 B(  0-C , 21-H ) :   0.9762
B(  0-C , 22-H ) :   0.9717 B(  1-C ,  2-O ) :   0.9032 B(  1-C , 23-H ) :   0.9775
B(  1-C , 24-H ) :   0.9810 B(  2-O ,  3-C ) :   1.1470 B(  3-C ,  4-O ) :   2.1209
B(  3-C ,  5-C ) :   0.9284 B(  5-C ,  6-C ) :   1.6975 B(  5-C , 12-C ) :   0.9504
B(  6-C ,  7-C ) :   0.9460 B(  6-C ,  8-N ) :   1.1199 B(  7-C , 25-H ) :   0.9579
B(  7-C , 26-H ) :   0.9830 B(  7-C , 27-H ) :   0.9789 B(  8-N ,  9-C ) :   1.2038
B(  8-N , 28-H ) :   0.9498 B(  9-C , 10-S ) :   1.6074 B(  9-C , 11-N ) :   1.2859
B( 11-N , 12-C ) :   0.9660 B( 11-N , 29-H ) :   0.9442 B( 12-C , 13-C ) :   0.9635
B( 12-C , 30-H ) :   0.9998 B( 13-C , 14-C ) :   1.3713 B( 13-C , 19-C ) :   1.3356
B( 14-C , 15-C ) :   1.4037 B( 14-C , 31-H ) :   0.9699 B( 15-C , 16-C ) :   1.3545
B( 15-C , 32-H ) :   0.9688 B( 16-C , 17-C ) :   1.3345 B( 16-C , 33-H ) :   0.9838
B( 17-C , 18-O ) :   1.1095 B( 17-C , 19-C ) :   1.3633 B( 18-O , 34-H ) :   0.9791
B( 19-C , 35-H ) :   0.9570

MP2 TOTAL ENERGY:    -1274.311719706 Eh
FINAL SINGLE POINT ENERGY     -1274.311719705787

DIPOLE MOMENT
-------------
                                X             Y             Z
Electronic contribution:      8.94563       6.89771       6.70699
Nuclear contribution   :    -10.60027      -8.60390      -6.83873
                        -----------------------------------------
Total Dipole Moment    :     -1.65464      -1.70619      -0.13173
                        -----------------------------------------
Magnitude (a.u.)       :      2.38040
Magnitude (Debye)      :      6.05049

Rotational constants in cm-1:     0.012153     0.009207     0.006239
Rotational constants in MHz :   364.339303   276.015427   187.048285

                             ****ORCA TERMINATED NORMALLY****
TOTAL RUN TIME: 0 days 2 hours 4 minutes 44 seconds 240 msec
