                         Program Version 4.2.0 -  RELEASE  -
|  1> ! ri-mp2 cc-pvtz cc-pvtz/c TightSCF NoKeepInts
|  2>
|  3> %scf
|  4>   MaxCore 4096
|  5> end
|  6> *xyz  0  1
|  7>     C       14.4706485   16.1345458   15.8368810
|  8>     C       15.6296238   15.1225369   15.9915897
|  9>     O       16.8938494   15.6085156   15.4728321
| 10>     C       17.1414135   16.9218587   15.1848774
| 11>     O       17.3485494   17.2601546   14.0339864
| 12>     C       17.1075867   17.8730999   16.3508136
| 13>     C       16.9309312   19.1978847   16.1135891
| 14>     C       16.3585890   19.8257043   14.8596082
| 15>     N       17.2559322   20.1575173   17.0737175
| 16>     C       17.9904828   19.8995948   18.1987682
| 17>     S       18.4526038   21.0990119   19.2393194
| 18>     N       18.3465318   18.5909876   18.4059527
| 19>     C       17.8658132   17.4390902   17.6187451
| 20>     C       17.1978735   16.3895274   18.4910401
| 21>     C       17.8061282   15.1376826   18.6988931
| 22>     C       17.1905398   14.1743212   19.5158712
| 23>     C       15.9628021   14.4685807   20.1340947
| 24>     C       15.3628055   15.7203372   19.9388510
| 25>     O       14.1777312   16.0072592   20.5330862
| 26>     C       15.9771892   16.6771928   19.1250717
| 27>     H       14.5857292   16.9921200   16.5092490
| 28>     H       13.5184858   15.6512386   16.0876678
| 29>     H       14.3986140   16.4966344   14.8031891
| 30>     H       15.7239877   14.8378480   17.0440608
| 31>     H       15.3681733   14.2071366   15.4452093
| 32>     H       15.5706019   19.1960445   14.4278669
| 33>     H       17.1400588   19.9382622   14.0966699
| 34>     H       15.9191585   20.8132615   15.0433801
| 35>     H       17.0357459   21.1268829   16.9087056
| 36>     H       18.8726707   18.4284261   19.2554843
| 37>     H       18.8308247   17.0625883   17.2499896
| 38>     H       18.7540026   14.9075415   18.2186847
| 39>     H       17.6650182   13.2060521   19.6681810
| 40>     H       15.4842472   13.7270691   20.7657593
| 41>     H       13.9470969   15.2583397   21.1037192
| 42>     H       15.5049599   17.6451514   18.9925950
| 43> *
| 44>
| 45>                          ****END OF INPUT****

CARTESIAN COORDINATES (ANGSTROEM)
---------------------------------
  C     14.470648   16.134546   15.836881
  C     15.629624   15.122537   15.991590
  O     16.893849   15.608516   15.472832
  C     17.141413   16.921859   15.184877
  O     17.348549   17.260155   14.033986
  C     17.107587   17.873100   16.350814
  C     16.930931   19.197885   16.113589
  C     16.358589   19.825704   14.859608
  N     17.255932   20.157517   17.073718
  C     17.990483   19.899595   18.198768
  S     18.452604   21.099012   19.239319
  N     18.346532   18.590988   18.405953
  C     17.865813   17.439090   17.618745
  C     17.197873   16.389527   18.491040
  C     17.806128   15.137683   18.698893
  C     17.190540   14.174321   19.515871
  C     15.962802   14.468581   20.134095
  C     15.362805   15.720337   19.938851
  O     14.177731   16.007259   20.533086
  C     15.977189   16.677193   19.125072
  H     14.585729   16.992120   16.509249
  H     13.518486   15.651239   16.087668
  H     14.398614   16.496634   14.803189
  H     15.723988   14.837848   17.044061
  H     15.368173   14.207137   15.445209
  H     15.570602   19.196044   14.427867
  H     17.140059   19.938262   14.096670
  H     15.919158   20.813261   15.043380
  H     17.035746   21.126883   16.908706
  H     18.872671   18.428426   19.255484
  H     18.830825   17.062588   17.249990
  H     18.754003   14.907542   18.218685
  H     17.665018   13.206052   19.668181
  H     15.484247   13.727069   20.765759
  H     13.947097   15.258340   21.103719
  H     15.504960   17.645151   18.992595

 Total Charge           Charge          ....    0
 Multiplicity           Mult            ....    1
 Number of Electrons    NEL             ....  154
 Basis Dimension        Dim             ....  828

ORBITAL ENERGIES
----------------

  NO   OCC          E(Eh)            E(eV)
   0   2.0000     -91.890836     -2500.4768
   1   2.0000     -20.604879      -560.6873
   2   2.0000     -20.582651      -560.0824
   3   2.0000     -20.548344      -559.1489
   4   2.0000     -15.629375      -425.2969
   5   2.0000     -15.610033      -424.7706
   6   2.0000     -11.393064      -310.0210
   7   2.0000     -11.385379      -309.8119
   8   2.0000     -11.334762      -308.4346
   9   2.0000     -11.322983      -308.1140
  10   2.0000     -11.314419      -307.8810
  11   2.0000     -11.298910      -307.4590
  12   2.0000     -11.268503      -306.6316
  13   2.0000     -11.263784      -306.5031
  14   2.0000     -11.257575      -306.3342
  15   2.0000     -11.253808      -306.2317
  16   2.0000     -11.253070      -306.2116
  17   2.0000     -11.247525      -306.0607
  18   2.0000     -11.247038      -306.0475
  19   2.0000     -11.232171      -305.6429
  20   2.0000      -8.895894      -242.0696
  21   2.0000      -6.577462      -178.9818
  22   2.0000      -6.575467      -178.9276
  23   2.0000      -6.574873      -178.9114
  24   2.0000      -1.441010       -39.2119
  25   2.0000      -1.424638       -38.7664
  26   2.0000      -1.351707       -36.7818
  27   2.0000      -1.342074       -36.5197
  28   2.0000      -1.241081       -33.7715
  29   2.0000      -1.165867       -31.7248
  30   2.0000      -1.123269       -30.5657
  31   2.0000      -1.049667       -28.5629
  32   2.0000      -1.032051       -28.0835
  33   2.0000      -1.023739       -27.8574
  34   2.0000      -1.002642       -27.2833
  35   2.0000      -0.988609       -26.9014
  36   2.0000      -0.926512       -25.2117
  37   2.0000      -0.897273       -24.4160
  38   2.0000      -0.850072       -23.1316
  39   2.0000      -0.845016       -22.9941
  40   2.0000      -0.842655       -22.9298
  41   2.0000      -0.824568       -22.4376
  42   2.0000      -0.747713       -20.3463
  43   2.0000      -0.739349       -20.1187
  44   2.0000      -0.717760       -19.5312
  45   2.0000      -0.702958       -19.1285
  46   2.0000      -0.690126       -18.7793
  47   2.0000      -0.677839       -18.4449
  48   2.0000      -0.673557       -18.3284
  49   2.0000      -0.660585       -17.9754
  50   2.0000      -0.655185       -17.8285
  51   2.0000      -0.646488       -17.5918
  52   2.0000      -0.638970       -17.3873
  53   2.0000      -0.624108       -16.9828
  54   2.0000      -0.614380       -16.7181
  55   2.0000      -0.607002       -16.5174
  56   2.0000      -0.602702       -16.4004
  57   2.0000      -0.583197       -15.8696
  58   2.0000      -0.574630       -15.6365
  59   2.0000      -0.567035       -15.4298
  60   2.0000      -0.549183       -14.9440
  61   2.0000      -0.548268       -14.9191
  62   2.0000      -0.541483       -14.7345
  63   2.0000      -0.534718       -14.5504
  64   2.0000      -0.530887       -14.4462
  65   2.0000      -0.516675       -14.0595
  66   2.0000      -0.505081       -13.7440
  67   2.0000      -0.493803       -13.4371
  68   2.0000      -0.480386       -13.0720
  69   2.0000      -0.470498       -12.8029
  70   2.0000      -0.450021       -12.2457
  71   2.0000      -0.446612       -12.1529
  72   2.0000      -0.358691        -9.7605
  73   2.0000      -0.353010        -9.6059
  74   2.0000      -0.332397        -9.0450
  75   2.0000      -0.328774        -8.9464
  76   2.0000      -0.320493        -8.7210
  77   0.0000       0.075109         2.0438
  78   0.0000       0.097075         2.6416
  79   0.0000       0.120535         3.2799
  80   0.0000       0.126407         3.4397
  81   0.0000       0.129562         3.5256

MULLIKEN ATOMIC CHARGES
-----------------------
   0 C :   -0.333716
   1 C :    0.032208
   2 O :   -0.361160
   3 C :    0.450520
   4 O :   -0.376670
   5 C :   -0.290383
   6 C :    0.180563
   7 C :   -0.274225
   8 N :   -0.127726
   9 C :    0.207578
  10 S :   -0.439304
  11 N :   -0.209405
  12 C :    0.057574
  13 C :    0.001848
  14 C :   -0.152726
  15 C :   -0.134188
  16 C :   -0.272934
  17 C :    0.311199
  18 O :   -0.357077
  19 C :   -0.258655
  20 H :    0.108284
  21 H :    0.115867
  22 H :    0.114920
  23 H :    0.104999
  24 H :    0.122517
  25 H :    0.121842
  26 H :    0.141749
  27 H :    0.095004
  28 H :    0.198738
  29 H :    0.200058
  30 H :    0.152065
  31 H :    0.153259
  32 H :    0.164514
  33 H :    0.134935
  34 H :    0.242347
  35 H :    0.175582
Sum of atomic charges:   -0.0000000

LOEWDIN ATOMIC CHARGES
----------------------
   0 C :    0.103512
   1 C :   -0.011071
   2 O :    0.286437
   3 C :   -0.426845
   4 O :    0.126710
   5 C :   -0.099363
   6 C :   -0.064426
   7 C :    0.129216
   8 N :    0.407060
   9 C :   -0.457046
  10 S :   -0.034388
  11 N :    0.395416
  12 C :   -0.054947
  13 C :   -0.043803
  14 C :    0.019896
  15 C :    0.042930
  16 C :    0.000931
  17 C :   -0.192298
  18 O :    0.396840
  19 C :    0.034886
  20 H :   -0.035936
  21 H :   -0.021020
  22 H :   -0.026321
  23 H :   -0.033382
  24 H :   -0.024423
  25 H :   -0.008255
  26 H :   -0.003906
  27 H :   -0.022501
  28 H :   -0.056553
  29 H :   -0.063778
  30 H :   -0.010796
  31 H :   -0.026344
  32 H :   -0.018703
  33 H :   -0.033351
  34 H :   -0.152113
  35 H :   -0.022267

  Mayer bond orders larger than 0.100000
B(  0-C ,  1-C ) :   0.9616 B(  0-C , 20-H ) :   0.9678 B(  0-C , 21-H ) :   0.9760
B(  0-C , 22-H ) :   0.9740 B(  1-C ,  2-O ) :   0.8997 B(  1-C , 23-H ) :   0.9684
B(  1-C , 24-H ) :   0.9847 B(  2-O ,  3-C ) :   1.1347 B(  3-C ,  4-O ) :   2.0917
B(  3-C ,  5-C ) :   0.9879 B(  5-C ,  6-C ) :   1.6469 B(  5-C , 12-C ) :   0.9645
B(  6-C ,  7-C ) :   0.9550 B(  6-C ,  8-N ) :   1.1455 B(  7-C , 25-H ) :   0.9714
B(  7-C , 26-H ) :   0.9551 B(  7-C , 27-H ) :   0.9859 B(  8-N ,  9-C ) :   1.1913
B(  8-N , 28-H ) :   0.9483 B(  9-C , 10-S ) :   1.6119 B(  9-C , 11-N ) :   1.2995
B( 11-N , 12-C ) :   0.9711 B( 11-N , 29-H ) :   0.9484 B( 12-C , 13-C ) :   0.9609
B( 12-C , 30-H ) :   1.0045 B( 13-C , 14-C ) :   1.3576 B( 13-C , 19-C ) :   1.3608
B( 14-C , 15-C ) :   1.3961 B( 14-C , 31-H ) :   0.9713 B( 15-C , 16-C ) :   1.3600
B( 15-C , 32-H ) :   0.9701 B( 16-C , 17-C ) :   1.3298 B( 16-C , 33-H ) :   0.9836
B( 17-C , 18-O ) :   1.1088 B( 17-C , 19-C ) :   1.3644 B( 18-O , 34-H ) :   0.9785
B( 19-C , 35-H ) :   0.9561

MP2 TOTAL ENERGY:    -1274.320610057 Eh
FINAL SINGLE POINT ENERGY     -1274.320610056646

DIPOLE MOMENT
-------------
                                X             Y             Z
Electronic contribution:      9.21009       7.28212       6.16555
Nuclear contribution   :    -10.53016      -8.91251      -5.80920
                        -----------------------------------------
Total Dipole Moment    :     -1.32007      -1.63040       0.35635
                        -----------------------------------------
Magnitude (a.u.)       :      2.12785
Magnitude (Debye)      :      5.40858

Rotational constants in cm-1:     0.012307     0.009059     0.006393
Rotational constants in MHz :   368.941463   271.581261   191.645981

                             ****ORCA TERMINATED NORMALLY****
TOTAL RUN TIME: 0 days 1 hours 48 minutes 59 seconds 580 msec
