                         Program Version 4.2.0 -  RELEASE  -
|  1> ! ri-mp2 cc-pvtz cc-pvtz/c TightSCF NoKeepInts
|  2>
|  3> %scf
|  4>   MaxCore 4096
|  5> end
|  6> *xyz  0  1
|  7>     C       14.0439499   15.6032811   15.4100704
|  8>     C       15.2159987   15.6182422   14.4118243
|  9>     O       16.0242935   16.7725640   14.6986704
| 10>     C       17.0335754   16.6552913   15.6086563
| 11>     O       17.6980754   15.6379417   15.7151221
| 12>     C       17.1311228   17.7940815   16.5824954
| 13>     C       16.8333041   19.0760396   16.2437732
| 14>     C       16.1624236   19.5714978   14.9777953
| 15>     N       17.1902195   20.1356302   17.0816618
| 16>     C       18.0288749   20.0236447   18.1577619
| 17>     S       18.4936710   21.3413721   19.0426693
| 18>     N       18.4813058   18.7618975   18.4501235
| 19>     C       18.0235529   17.5193014   17.7985647
| 20>     C       17.4201084   16.5158073   18.7722821
| 21>     C       17.9246834   15.2057191   18.8568414
| 22>     C       17.3635549   14.2802856   19.7527568
| 23>     C       16.2890478   14.6687028   20.5712734
| 24>     C       15.7826096   15.9730040   20.4868806
| 25>     O       14.7415366   16.3489875   21.2717716
| 26>     C       16.3430000   16.8916926   19.5936845
| 27>     H       14.4111943   15.4848962   16.4377693
| 28>     H       13.3659725   14.7688877   15.1931576
| 29>     H       13.4703829   16.5365692   15.3512985
| 30>     H       15.7942760   14.6857200   14.4703299
| 31>     H       14.8129143   15.7033929   13.3945361
| 32>     H       16.6972391   19.2163756   14.0879149
| 33>     H       16.1275558   20.6659213   14.9144273
| 34>     H       15.1290050   19.2076461   14.9191014
| 35>     H       16.8841862   21.0710267   16.8665632
| 36>     H       19.0812877   18.7034255   19.2632462
| 37>     H       18.9755528   17.1448813   17.3947191
| 38>     H       18.7448936   14.9002709   18.2113411
| 39>     H       17.7583614   13.2672268   19.8048780
| 40>     H       15.8517005   13.9566133   21.2630884
| 41>     H       14.5180471   15.5946647   21.8373600
| 42>     H       15.9395226   17.8974978   19.5435901
| 43> *
| 44>
| 45>                          ****END OF INPUT****

CARTESIAN COORDINATES (ANGSTROEM)
---------------------------------
  C     14.043950   15.603281   15.410070
  C     15.215999   15.618242   14.411824
  O     16.024293   16.772564   14.698670
  C     17.033575   16.655291   15.608656
  O     17.698075   15.637942   15.715122
  C     17.131123   17.794082   16.582495
  C     16.833304   19.076040   16.243773
  C     16.162424   19.571498   14.977795
  N     17.190220   20.135630   17.081662
  C     18.028875   20.023645   18.157762
  S     18.493671   21.341372   19.042669
  N     18.481306   18.761897   18.450124
  C     18.023553   17.519301   17.798565
  C     17.420108   16.515807   18.772282
  C     17.924683   15.205719   18.856841
  C     17.363555   14.280286   19.752757
  C     16.289048   14.668703   20.571273
  C     15.782610   15.973004   20.486881
  O     14.741537   16.348987   21.271772
  C     16.343000   16.891693   19.593684
  H     14.411194   15.484896   16.437769
  H     13.365972   14.768888   15.193158
  H     13.470383   16.536569   15.351299
  H     15.794276   14.685720   14.470330
  H     14.812914   15.703393   13.394536
  H     16.697239   19.216376   14.087915
  H     16.127556   20.665921   14.914427
  H     15.129005   19.207646   14.919101
  H     16.884186   21.071027   16.866563
  H     19.081288   18.703426   19.263246
  H     18.975553   17.144881   17.394719
  H     18.744894   14.900271   18.211341
  H     17.758361   13.267227   19.804878
  H     15.851700   13.956613   21.263088
  H     14.518047   15.594665   21.837360
  H     15.939523   17.897498   19.543590

 Total Charge           Charge          ....    0
 Multiplicity           Mult            ....    1
 Number of Electrons    NEL             ....  154
 Basis Dimension        Dim             ....  828

ORBITAL ENERGIES
----------------

  NO   OCC          E(Eh)            E(eV)
   0   2.0000     -91.888388     -2500.4101
   1   2.0000     -20.597384      -560.4833
   2   2.0000     -20.593078      -560.3662
   3   2.0000     -20.547660      -559.1303
   4   2.0000     -15.628912      -425.2843
   5   2.0000     -15.606143      -424.6647
   6   2.0000     -11.395341      -310.0830
   7   2.0000     -11.383057      -309.7487
   8   2.0000     -11.338030      -308.5235
   9   2.0000     -11.309215      -307.7394
  10   2.0000     -11.304701      -307.6166
  11   2.0000     -11.299705      -307.4806
  12   2.0000     -11.260184      -306.4052
  13   2.0000     -11.259262      -306.3801
  14   2.0000     -11.256240      -306.2979
  15   2.0000     -11.249209      -306.1066
  16   2.0000     -11.239415      -305.8400
  17   2.0000     -11.235508      -305.7337
  18   2.0000     -11.232211      -305.6440
  19   2.0000     -11.230338      -305.5930
  20   2.0000      -8.893468      -242.0036
  21   2.0000      -6.575044      -178.9160
  22   2.0000      -6.573042      -178.8616
  23   2.0000      -6.572453      -178.8456
  24   2.0000      -1.453566       -39.5535
  25   2.0000      -1.412842       -38.4454
  26   2.0000      -1.357579       -36.9416
  27   2.0000      -1.340118       -36.4665
  28   2.0000      -1.237342       -33.6698
  29   2.0000      -1.153690       -31.3935
  30   2.0000      -1.121361       -30.5138
  31   2.0000      -1.043533       -28.3960
  32   2.0000      -1.034932       -28.1619
  33   2.0000      -1.011170       -27.5153
  34   2.0000      -0.999604       -27.2006
  35   2.0000      -0.984665       -26.7941
  36   2.0000      -0.921544       -25.0765
  37   2.0000      -0.892961       -24.2987
  38   2.0000      -0.847702       -23.0672
  39   2.0000      -0.835860       -22.7449
  40   2.0000      -0.829382       -22.5686
  41   2.0000      -0.816169       -22.2091
  42   2.0000      -0.757394       -20.6097
  43   2.0000      -0.736586       -20.0435
  44   2.0000      -0.727026       -19.7834
  45   2.0000      -0.691800       -18.8248
  46   2.0000      -0.685606       -18.6563
  47   2.0000      -0.679187       -18.4816
  48   2.0000      -0.671124       -18.2622
  49   2.0000      -0.660038       -17.9605
  50   2.0000      -0.651234       -17.7210
  51   2.0000      -0.644835       -17.5468
  52   2.0000      -0.633517       -17.2389
  53   2.0000      -0.605889       -16.4871
  54   2.0000      -0.600909       -16.3516
  55   2.0000      -0.598216       -16.2783
  56   2.0000      -0.596188       -16.2231
  57   2.0000      -0.581837       -15.8326
  58   2.0000      -0.574232       -15.6257
  59   2.0000      -0.561970       -15.2920
  60   2.0000      -0.558959       -15.2101
  61   2.0000      -0.555401       -15.1132
  62   2.0000      -0.540678       -14.7126
  63   2.0000      -0.528231       -14.3739
  64   2.0000      -0.517194       -14.0736
  65   2.0000      -0.509854       -13.8738
  66   2.0000      -0.498574       -13.5669
  67   2.0000      -0.494705       -13.4616
  68   2.0000      -0.481811       -13.1107
  69   2.0000      -0.463775       -12.6200
  70   2.0000      -0.459206       -12.4956
  71   2.0000      -0.451018       -12.2728
  72   2.0000      -0.353368        -9.6156
  73   2.0000      -0.345808        -9.4099
  74   2.0000      -0.327466        -8.9108
  75   2.0000      -0.317582        -8.6418
  76   2.0000      -0.315880        -8.5955
  77   0.0000       0.075793         2.0624
  78   0.0000       0.109526         2.9803
  79   0.0000       0.119693         3.2570
  80   0.0000       0.134764         3.6671
  81   0.0000       0.140868         3.8332

MULLIKEN ATOMIC CHARGES
-----------------------
   0 C :   -0.284079
   1 C :    0.019306
   2 O :   -0.358672
   3 C :    0.431007
   4 O :   -0.412655
   5 C :   -0.171386
   6 C :    0.149605
   7 C :   -0.281716
   8 N :   -0.128228
   9 C :    0.207909
  10 S :   -0.441768
  11 N :   -0.210639
  12 C :    0.045305
  13 C :    0.031884
  14 C :   -0.170315
  15 C :   -0.133671
  16 C :   -0.278330
  17 C :    0.315205
  18 O :   -0.358772
  19 C :   -0.255692
  20 H :    0.108883
  21 H :    0.099529
  22 H :    0.091493
  23 H :    0.117581
  24 H :    0.104354
  25 H :    0.126742
  26 H :    0.101623
  27 H :    0.127109
  28 H :    0.198617
  29 H :    0.199636
  30 H :    0.155890
  31 H :    0.160305
  32 H :    0.160497
  33 H :    0.129036
  34 H :    0.240122
  35 H :    0.164285
Sum of atomic charges:   -0.0000000

LOEWDIN ATOMIC CHARGES
----------------------
   0 C :    0.104307
   1 C :   -0.018237
   2 O :    0.303851
   3 C :   -0.416767
   4 O :    0.109618
   5 C :   -0.093763
   6 C :   -0.065286
   7 C :    0.125761
   8 N :    0.405528
   9 C :   -0.458145
  10 S :   -0.037316
  11 N :    0.396293
  12 C :   -0.048247
  13 C :   -0.041213
  14 C :    0.024639
  15 C :    0.041101
  16 C :   -0.001271
  17 C :   -0.193111
  18 O :    0.393255
  19 C :    0.029271
  20 H :   -0.024251
  21 H :   -0.025388
  22 H :   -0.029265
  23 H :   -0.026454
  24 H :   -0.026530
  25 H :   -0.008423
  26 H :   -0.020986
  27 H :   -0.010391
  28 H :   -0.058598
  29 H :   -0.063322
  30 H :   -0.007832
  31 H :   -0.023650
  32 H :   -0.020804
  33 H :   -0.035976
  34 H :   -0.154668
  35 H :   -0.023731

  Mayer bond orders larger than 0.100000
B(  0-C ,  1-C ) :   0.9639 B(  0-C , 20-H ) :   0.9746 B(  0-C , 21-H ) :   0.9764
B(  0-C , 22-H ) :   0.9781 B(  1-C ,  2-O ) :   0.8937 B(  1-C , 23-H ) :   0.9749
B(  1-C , 24-H ) :   0.9849 B(  2-O ,  3-C ) :   1.1133 B(  3-C ,  4-O ) :   2.0049
B(  3-C ,  5-C ) :   1.0264 B(  5-C ,  6-C ) :   1.6627 B(  5-C , 12-C ) :   0.9499
B(  6-C ,  7-C ) :   0.9560 B(  6-C ,  8-N ) :   1.1366 B(  7-C , 25-H ) :   0.9654
B(  7-C , 26-H ) :   0.9901 B(  7-C , 27-H ) :   0.9638 B(  8-N ,  9-C ) :   1.1851
B(  8-N , 28-H ) :   0.9470 B(  9-C , 10-S ) :   1.6095 B(  9-C , 11-N ) :   1.3048
B( 11-N , 12-C ) :   0.9785 B( 11-N , 29-H ) :   0.9486 B( 12-C , 13-C ) :   0.9713
B( 12-C , 30-H ) :   0.9959 B( 13-C , 14-C ) :   1.3785 B( 13-C , 19-C ) :   1.3640
B( 14-C , 15-C ) :   1.3971 B( 14-C , 31-H ) :   0.9630 B( 15-C , 16-C ) :   1.3591
B( 15-C , 32-H ) :   0.9710 B( 16-C , 17-C ) :   1.3330 B( 16-C , 33-H ) :   0.9856
B( 17-C , 18-O ) :   1.1042 B( 17-C , 19-C ) :   1.3663 B( 18-O , 34-H ) :   0.9805
B( 19-C , 35-H ) :   0.9601

MP2 TOTAL ENERGY:    -1274.336644605 Eh
FINAL SINGLE POINT ENERGY     -1274.336644604814

DIPOLE MOMENT
-------------
                                X             Y             Z
Electronic contribution:     10.34177       8.87611       8.92958
Nuclear contribution   :    -11.72778     -10.19898      -9.93063
                        -----------------------------------------
Total Dipole Moment    :     -1.38601      -1.32287      -1.00105
                        -----------------------------------------
Magnitude (a.u.)       :      2.16174
Magnitude (Debye)      :      5.49470

Rotational constants in cm-1:     0.010376     0.009272     0.005983
Rotational constants in MHz :   311.078960   277.970587   179.359797

                             ****ORCA TERMINATED NORMALLY****
TOTAL RUN TIME: 0 days 1 hours 54 minutes 46 seconds 715 msec
