                         Program Version 4.2.0 -  RELEASE  -
|  1> ! ri-mp2 cc-pvtz cc-pvtz/c TightSCF NoKeepInts
|  2>
|  3> %scf
|  4>   MaxCore 4096
|  5> end
|  6> *xyz  0  1
|  7>     C       14.4863537   16.3780978   16.0109802
|  8>     C       15.5191001   15.2275659   15.9844551
|  9>     O       16.7955458   15.5799513   15.3895541
| 10>     C       17.3140584   16.8373686   15.2155968
| 11>     O       17.8925347   17.1240296   14.1836936
| 12>     C       17.1343738   17.8146556   16.3367304
| 13>     C       16.9218306   19.1169891   16.0293716
| 14>     C       16.4477480   19.6530750   14.6951904
| 15>     N       17.1359635   20.1292003   16.9659868
| 16>     C       17.8014889   19.9485092   18.1486811
| 17>     S       18.1335979   21.2070834   19.1686944
| 18>     N       18.2022564   18.6666995   18.4338568
| 19>     C       17.8316796   17.4644566   17.6614904
| 20>     C       17.1883781   16.3826270   18.5137610
| 21>     C       17.7748592   15.1069038   18.6087363
| 22>     C       17.1854935   14.1093013   19.4035226
| 23>     C       16.0055118   14.3922121   20.1130108
| 24>     C       15.4273522   15.6664152   20.0299509
| 25>     O       14.2883300   15.9426513   20.7126713
| 26>     C       16.0161449   16.6575586   19.2385106
| 27>     H       14.6957636   17.1079180   16.7994331
| 28>     H       13.4878204   15.9717072   16.2133505
| 29>     H       14.4440212   16.8928245   15.0431962
| 30>     H       15.6624868   14.8514758   17.0030039
| 31>     H       15.0978772   14.3959137   15.4049575
| 32>     H       15.7785192   18.9425529   14.1949935
| 33>     H       17.3026623   19.8187408   14.0263192
| 34>     H       15.9030806   20.5996227   14.7932935
| 35>     H       16.8889572   21.0805594   16.7437589
| 36>     H       18.6807234   18.5618551   19.3199596
| 37>     H       18.8360357   17.1339565   17.3589264
| 38>     H       18.6849032   14.8845261   18.0566588
| 39>     H       17.6431322   13.1231999   19.4676081
| 40>     H       15.5470237   13.6242285   20.7277071
| 41>     H       14.0709665   15.1640727   21.2476790
| 42>     H       15.5604255   17.6414949   19.1927092
| 43> *
| 44>
| 45>                          ****END OF INPUT****

CARTESIAN COORDINATES (ANGSTROEM)
---------------------------------
  C     14.486354   16.378098   16.010980
  C     15.519100   15.227566   15.984455
  O     16.795546   15.579951   15.389554
  C     17.314058   16.837369   15.215597
  O     17.892535   17.124030   14.183694
  C     17.134374   17.814656   16.336730
  C     16.921831   19.116989   16.029372
  C     16.447748   19.653075   14.695190
  N     17.135963   20.129200   16.965987
  C     17.801489   19.948509   18.148681
  S     18.133598   21.207083   19.168694
  N     18.202256   18.666700   18.433857
  C     17.831680   17.464457   17.661490
  C     17.188378   16.382627   18.513761
  C     17.774859   15.106904   18.608736
  C     17.185493   14.109301   19.403523
  C     16.005512   14.392212   20.113011
  C     15.427352   15.666415   20.029951
  O     14.288330   15.942651   20.712671
  C     16.016145   16.657559   19.238511
  H     14.695764   17.107918   16.799433
  H     13.487820   15.971707   16.213351
  H     14.444021   16.892824   15.043196
  H     15.662487   14.851476   17.003004
  H     15.097877   14.395914   15.404957
  H     15.778519   18.942553   14.194993
  H     17.302662   19.818741   14.026319
  H     15.903081   20.599623   14.793293
  H     16.888957   21.080559   16.743759
  H     18.680723   18.561855   19.319960
  H     18.836036   17.133957   17.358926
  H     18.684903   14.884526   18.056659
  H     17.643132   13.123200   19.467608
  H     15.547024   13.624228   20.727707
  H     14.070967   15.164073   21.247679
  H     15.560425   17.641495   19.192709

 Total Charge           Charge          ....    0
 Multiplicity           Mult            ....    1
 Number of Electrons    NEL             ....  154
 Basis Dimension        Dim             ....  828

ORBITAL ENERGIES
----------------

  NO   OCC          E(Eh)            E(eV)
   0   2.0000     -91.890193     -2500.4593
   1   2.0000     -20.605643      -560.7081
   2   2.0000     -20.589818      -560.2774
   3   2.0000     -20.548866      -559.1631
   4   2.0000     -15.627190      -425.2375
   5   2.0000     -15.610591      -424.7858
   6   2.0000     -11.395200      -310.0792
   7   2.0000     -11.385265      -309.8088
   8   2.0000     -11.329348      -308.2872
   9   2.0000     -11.324036      -308.1427
  10   2.0000     -11.316164      -307.9285
  11   2.0000     -11.301859      -307.5392
  12   2.0000     -11.270188      -306.6774
  13   2.0000     -11.264634      -306.5263
  14   2.0000     -11.256146      -306.2953
  15   2.0000     -11.254910      -306.2617
  16   2.0000     -11.254173      -306.2416
  17   2.0000     -11.248944      -306.0993
  18   2.0000     -11.248322      -306.0824
  19   2.0000     -11.233820      -305.6878
  20   2.0000      -8.895267      -242.0525
  21   2.0000      -6.576840      -178.9649
  22   2.0000      -6.574840      -178.9105
  23   2.0000      -6.574250      -178.8944
  24   2.0000      -1.440485       -39.1976
  25   2.0000      -1.425430       -38.7879
  26   2.0000      -1.353742       -36.8372
  27   2.0000      -1.340414       -36.4745
  28   2.0000      -1.240209       -33.7478
  29   2.0000      -1.167078       -31.7578
  30   2.0000      -1.124056       -30.5871
  31   2.0000      -1.050968       -28.5983
  32   2.0000      -1.034295       -28.1446
  33   2.0000      -1.025144       -27.8956
  34   2.0000      -1.003578       -27.3087
  35   2.0000      -0.989211       -26.9178
  36   2.0000      -0.926980       -25.2244
  37   2.0000      -0.899347       -24.4725
  38   2.0000      -0.850550       -23.1447
  39   2.0000      -0.844732       -22.9863
  40   2.0000      -0.844156       -22.9706
  41   2.0000      -0.826351       -22.4862
  42   2.0000      -0.748877       -20.3780
  43   2.0000      -0.740038       -20.1375
  44   2.0000      -0.719177       -19.5698
  45   2.0000      -0.703995       -19.1567
  46   2.0000      -0.690684       -18.7945
  47   2.0000      -0.677760       -18.4428
  48   2.0000      -0.675461       -18.3802
  49   2.0000      -0.660499       -17.9731
  50   2.0000      -0.655708       -17.8427
  51   2.0000      -0.648559       -17.6482
  52   2.0000      -0.639405       -17.3991
  53   2.0000      -0.619896       -16.8682
  54   2.0000      -0.614626       -16.7248
  55   2.0000      -0.607856       -16.5406
  56   2.0000      -0.603120       -16.4117
  57   2.0000      -0.584124       -15.8948
  58   2.0000      -0.576729       -15.6936
  59   2.0000      -0.566691       -15.4204
  60   2.0000      -0.560387       -15.2489
  61   2.0000      -0.551151       -14.9976
  62   2.0000      -0.540945       -14.7199
  63   2.0000      -0.534016       -14.5313
  64   2.0000      -0.529729       -14.4147
  65   2.0000      -0.516764       -14.0619
  66   2.0000      -0.505466       -13.7544
  67   2.0000      -0.496397       -13.5076
  68   2.0000      -0.485867       -13.2211
  69   2.0000      -0.468321       -12.7437
  70   2.0000      -0.450777       -12.2663
  71   2.0000      -0.446581       -12.1521
  72   2.0000      -0.359875        -9.7927
  73   2.0000      -0.350626        -9.5410
  74   2.0000      -0.332823        -9.0566
  75   2.0000      -0.328764        -8.9461
  76   2.0000      -0.319588        -8.6964
  77   0.0000       0.080278         2.1845
  78   0.0000       0.095980         2.6118
  79   0.0000       0.120280         3.2730
  80   0.0000       0.126620         3.4455
  81   0.0000       0.128670         3.5013

MULLIKEN ATOMIC CHARGES
-----------------------
   0 C :   -0.329409
   1 C :    0.030952
   2 O :   -0.337554
   3 C :    0.410675
   4 O :   -0.369788
   5 C :   -0.253146
   6 C :    0.164379
   7 C :   -0.282437
   8 N :   -0.130012
   9 C :    0.209113
  10 S :   -0.440467
  11 N :   -0.211182
  12 C :    0.056941
  13 C :   -0.002714
  14 C :   -0.169856
  15 C :   -0.133121
  16 C :   -0.273768
  17 C :    0.315372
  18 O :   -0.355478
  19 C :   -0.258898
  20 H :    0.114736
  21 H :    0.119208
  22 H :    0.104303
  23 H :    0.104321
  24 H :    0.125239
  25 H :    0.117335
  26 H :    0.145126
  27 H :    0.097144
  28 H :    0.197891
  29 H :    0.200121
  30 H :    0.157420
  31 H :    0.155084
  32 H :    0.165153
  33 H :    0.135454
  34 H :    0.242252
  35 H :    0.179612
Sum of atomic charges:   -0.0000000

LOEWDIN ATOMIC CHARGES
----------------------
   0 C :    0.102500
   1 C :   -0.011016
   2 O :    0.291433
   3 C :   -0.424181
   4 O :    0.127109
   5 C :   -0.093611
   6 C :   -0.074809
   7 C :    0.128914
   8 N :    0.405784
   9 C :   -0.455906
  10 S :   -0.035829
  11 N :    0.395497
  12 C :   -0.055186
  13 C :   -0.044887
  14 C :    0.020414
  15 C :    0.043040
  16 C :    0.001567
  17 C :   -0.192041
  18 O :    0.397217
  19 C :    0.034230
  20 H :   -0.036095
  21 H :   -0.021414
  22 H :   -0.029831
  23 H :   -0.032049
  24 H :   -0.023083
  25 H :   -0.011246
  26 H :   -0.003569
  27 H :   -0.021407
  28 H :   -0.057220
  29 H :   -0.063854
  30 H :   -0.009733
  31 H :   -0.025722
  32 H :   -0.018388
  33 H :   -0.033072
  34 H :   -0.152010
  35 H :   -0.021543

  Mayer bond orders larger than 0.100000
B(  0-C ,  1-C ) :   0.9593 B(  0-C , 20-H ) :   0.9679 B(  0-C , 21-H ) :   0.9758
B(  0-C , 22-H ) :   0.9751 B(  1-C ,  2-O ) :   0.9041 B(  1-C , 23-H ) :   0.9685
B(  1-C , 24-H ) :   0.9839 B(  2-O ,  3-C ) :   1.1680 B(  3-C ,  4-O ) :   2.1151
B(  3-C ,  5-C ) :   0.9422 B(  5-C ,  6-C ) :   1.6806 B(  5-C , 12-C ) :   0.9539
B(  6-C ,  7-C ) :   0.9482 B(  6-C ,  8-N ) :   1.1344 B(  7-C , 25-H ) :   0.9751
B(  7-C , 26-H ) :   0.9565 B(  7-C , 27-H ) :   0.9841 B(  8-N ,  9-C ) :   1.1966
B(  8-N , 28-H ) :   0.9494 B(  9-C , 10-S ) :   1.6126 B(  9-C , 11-N ) :   1.2897
B( 11-N , 12-C ) :   0.9792 B( 11-N , 29-H ) :   0.9476 B( 12-C , 13-C ) :   0.9521
B( 12-C , 30-H ) :   1.0050 B( 13-C , 14-C ) :   1.3642 B( 13-C , 19-C ) :   1.3565
B( 14-C , 15-C ) :   1.3980 B( 14-C , 31-H ) :   0.9707 B( 15-C , 16-C ) :   1.3598
B( 15-C , 32-H ) :   0.9700 B( 16-C , 17-C ) :   1.3297 B( 16-C , 33-H ) :   0.9834
B( 17-C , 18-O ) :   1.1112 B( 17-C , 19-C ) :   1.3610 B( 18-O , 34-H ) :   0.9784
B( 19-C , 35-H ) :   0.9536

MP2 TOTAL ENERGY:    -1274.318895675 Eh
FINAL SINGLE POINT ENERGY     -1274.318895675212

DIPOLE MOMENT
-------------
                                X             Y             Z
Electronic contribution:      8.87331       6.83574       6.11663
Nuclear contribution   :    -10.32477      -8.53673      -5.81379
                        -----------------------------------------
Total Dipole Moment    :     -1.45146      -1.70099       0.30284
                        -----------------------------------------
Magnitude (a.u.)       :      2.25651
Magnitude (Debye)      :      5.73559

Rotational constants in cm-1:     0.012419     0.009053     0.006412
Rotational constants in MHz :   372.311520   271.399640   192.219816

                             ****ORCA TERMINATED NORMALLY****
TOTAL RUN TIME: 0 days 1 hours 48 minutes 58 seconds 905 msec
