                         Program Version 4.2.0 -  RELEASE  -
|  1> ! ri-mp2 cc-pvtz cc-pvtz/c TightSCF NoKeepInts
|  2>
|  3> %scf
|  4>   MaxCore 4096
|  5> end
|  6> *xyz  0  1
|  7>     C       14.9471118   14.6315871   16.4927088
|  8>     C       15.6492003   15.0731289   15.1994116
|  9>     O       16.8385826   15.8210771   15.5246264
| 10>     C       16.8590832   17.1377461   15.1708810
| 11>     O       16.6209601   17.4744407   14.0240058
| 12>     C       17.0147562   18.0797673   16.3358405
| 13>     C       16.9413231   19.4225019   16.1367400
| 14>     C       16.3653918   20.1445454   14.9354839
| 15>     N       17.4124103   20.3228458   17.0946316
| 16>     C       18.1851962   19.9730454   18.1675003
| 17>     S       18.8197196   21.1011644   19.1971813
| 18>     N       18.4302639   18.6335557   18.3280660
| 19>     C       17.7995632   17.5498049   17.5507517
| 20>     C       17.0716028   16.5622276   18.4501104
| 21>     C       17.6235113   15.2954790   18.7158078
| 22>     C       16.9797803   14.4073049   19.5942793
| 23>     C       15.7768919   14.7907185   20.2122712
| 24>     C       15.2311684   16.0563677   19.9561315
| 25>     O       14.0723572   16.4305069   20.5541747
| 26>     C       15.8766078   16.9401821   19.0854432
| 27>     H       15.6213243   14.0329959   17.1155869
| 28>     H       14.0674715   14.0196131   16.2600362
| 29>     H       14.6104450   15.5014903   17.0676559
| 30>     H       15.9311365   14.1834385   14.6216963
| 31>     H       14.9546085   15.6634665   14.5854513
| 32>     H       15.4145047   19.6914252   14.6277557
| 33>     H       17.0515335   20.0798515   14.0811224
| 34>     H       16.1692162   21.2060427   15.1273858
| 35>     H       17.2667713   21.3115619   16.9670325
| 36>     H       18.9815486   18.4025488   19.1449890
| 37>     H       18.7016327   17.0868849   17.1259722
| 38>     H       18.5540909   14.9987707   18.2391640
| 39>     H       17.4124539   13.4281875   19.7927403
| 40>     H       15.2753582   14.1076058   20.8899064
| 41>     H       13.8088271   15.7152908   21.1526481
| 42>     H       15.4505952   17.9228283   18.9128101
| 43> *
| 44>
| 45>                          ****END OF INPUT****

CARTESIAN COORDINATES (ANGSTROEM)
---------------------------------
  C     14.947112   14.631587   16.492709
  C     15.649200   15.073129   15.199412
  O     16.838583   15.821077   15.524626
  C     16.859083   17.137746   15.170881
  O     16.620960   17.474441   14.024006
  C     17.014756   18.079767   16.335840
  C     16.941323   19.422502   16.136740
  C     16.365392   20.144545   14.935484
  N     17.412410   20.322846   17.094632
  C     18.185196   19.973045   18.167500
  S     18.819720   21.101164   19.197181
  N     18.430264   18.633556   18.328066
  C     17.799563   17.549805   17.550752
  C     17.071603   16.562228   18.450110
  C     17.623511   15.295479   18.715808
  C     16.979780   14.407305   19.594279
  C     15.776892   14.790718   20.212271
  C     15.231168   16.056368   19.956132
  O     14.072357   16.430507   20.554175
  C     15.876608   16.940182   19.085443
  H     15.621324   14.032996   17.115587
  H     14.067471   14.019613   16.260036
  H     14.610445   15.501490   17.067656
  H     15.931136   14.183438   14.621696
  H     14.954609   15.663466   14.585451
  H     15.414505   19.691425   14.627756
  H     17.051534   20.079852   14.081122
  H     16.169216   21.206043   15.127386
  H     17.266771   21.311562   16.967032
  H     18.981549   18.402549   19.144989
  H     18.701633   17.086885   17.125972
  H     18.554091   14.998771   18.239164
  H     17.412454   13.428187   19.792740
  H     15.275358   14.107606   20.889906
  H     13.808827   15.715291   21.152648
  H     15.450595   17.922828   18.912810

 Total Charge           Charge          ....    0
 Multiplicity           Mult            ....    1
 Number of Electrons    NEL             ....  154
 Basis Dimension        Dim             ....  828

ORBITAL ENERGIES
----------------

  NO   OCC          E(Eh)            E(eV)
   0   2.0000     -91.890470     -2500.4668
   1   2.0000     -20.599785      -560.5487
   2   2.0000     -20.587360      -560.2105
   3   2.0000     -20.545135      -559.0615
   4   2.0000     -15.630794      -425.3355
   5   2.0000     -15.608341      -424.7246
   6   2.0000     -11.392979      -310.0187
   7   2.0000     -11.384645      -309.7919
   8   2.0000     -11.339344      -308.5592
   9   2.0000     -11.316825      -307.9465
  10   2.0000     -11.310547      -307.7756
  11   2.0000     -11.294860      -307.3488
  12   2.0000     -11.263547      -306.4967
  13   2.0000     -11.259837      -306.3957
  14   2.0000     -11.257875      -306.3423
  15   2.0000     -11.253162      -306.2141
  16   2.0000     -11.246651      -306.0369
  17   2.0000     -11.241272      -305.8906
  18   2.0000     -11.241148      -305.8872
  19   2.0000     -11.219808      -305.3065
  20   2.0000      -8.895516      -242.0593
  21   2.0000      -6.577082      -178.9715
  22   2.0000      -6.575090      -178.9173
  23   2.0000      -6.574493      -178.9011
  24   2.0000      -1.448835       -39.4248
  25   2.0000      -1.419481       -38.6261
  26   2.0000      -1.352210       -36.7955
  27   2.0000      -1.342505       -36.5314
  28   2.0000      -1.240426       -33.7537
  29   2.0000      -1.160136       -31.5689
  30   2.0000      -1.122330       -30.5401
  31   2.0000      -1.045005       -28.4360
  32   2.0000      -1.033393       -28.1200
  33   2.0000      -1.018101       -27.7039
  34   2.0000      -0.998882       -27.1809
  35   2.0000      -0.986424       -26.8420
  36   2.0000      -0.923997       -25.1432
  37   2.0000      -0.885146       -24.0860
  38   2.0000      -0.848055       -23.0767
  39   2.0000      -0.840844       -22.8805
  40   2.0000      -0.836987       -22.7756
  41   2.0000      -0.818489       -22.2722
  42   2.0000      -0.761489       -20.7212
  43   2.0000      -0.735822       -20.0227
  44   2.0000      -0.722014       -19.6470
  45   2.0000      -0.698111       -18.9966
  46   2.0000      -0.688722       -18.7411
  47   2.0000      -0.675745       -18.3879
  48   2.0000      -0.673001       -18.3133
  49   2.0000      -0.668431       -18.1889
  50   2.0000      -0.647248       -17.6125
  51   2.0000      -0.643950       -17.5228
  52   2.0000      -0.636600       -17.3228
  53   2.0000      -0.609828       -16.5943
  54   2.0000      -0.603746       -16.4288
  55   2.0000      -0.601656       -16.3719
  56   2.0000      -0.585380       -15.9290
  57   2.0000      -0.578578       -15.7439
  58   2.0000      -0.573412       -15.6033
  59   2.0000      -0.568080       -15.4582
  60   2.0000      -0.565895       -15.3988
  61   2.0000      -0.547519       -14.8988
  62   2.0000      -0.541106       -14.7242
  63   2.0000      -0.526269       -14.3205
  64   2.0000      -0.517463       -14.0809
  65   2.0000      -0.513804       -13.9813
  66   2.0000      -0.502500       -13.6737
  67   2.0000      -0.500208       -13.6113
  68   2.0000      -0.480792       -13.0830
  69   2.0000      -0.463254       -12.6058
  70   2.0000      -0.451003       -12.2724
  71   2.0000      -0.448189       -12.1959
  72   2.0000      -0.354555        -9.6479
  73   2.0000      -0.351974        -9.5777
  74   2.0000      -0.329572        -8.9681
  75   2.0000      -0.324286        -8.8243
  76   2.0000      -0.320065        -8.7094
  77   0.0000       0.071949         1.9578
  78   0.0000       0.100143         2.7250
  79   0.0000       0.122455         3.3322
  80   0.0000       0.130558         3.5527
  81   0.0000       0.133412         3.6303

MULLIKEN ATOMIC CHARGES
-----------------------
   0 C :   -0.306062
   1 C :    0.044365
   2 O :   -0.369136
   3 C :    0.450787
   4 O :   -0.408501
   5 C :   -0.250723
   6 C :    0.178462
   7 C :   -0.265373
   8 N :   -0.126973
   9 C :    0.209511
  10 S :   -0.439175
  11 N :   -0.213670
  12 C :    0.048357
  13 C :    0.046892
  14 C :   -0.169583
  15 C :   -0.148710
  16 C :   -0.263739
  17 C :    0.318008
  18 O :   -0.359779
  19 C :   -0.263266
  20 H :    0.104925
  21 H :    0.112669
  22 H :    0.103878
  23 H :    0.103867
  24 H :    0.096059
  25 H :    0.127069
  26 H :    0.134702
  27 H :    0.094084
  28 H :    0.200239
  29 H :    0.201430
  30 H :    0.152188
  31 H :    0.150681
  32 H :    0.165784
  33 H :    0.132735
  34 H :    0.241343
  35 H :    0.166654
Sum of atomic charges:   -0.0000000

LOEWDIN ATOMIC CHARGES
----------------------
   0 C :    0.104333
   1 C :   -0.014715
   2 O :    0.294629
   3 C :   -0.422704
   4 O :    0.110559
   5 C :   -0.101991
   6 C :   -0.053765
   7 C :    0.130317
   8 N :    0.408017
   9 C :   -0.457670
  10 S :   -0.033998
  11 N :    0.395482
  12 C :   -0.054102
  13 C :   -0.038967
  14 C :    0.018538
  15 C :    0.042262
  16 C :    0.000570
  17 C :   -0.190061
  18 O :    0.395991
  19 C :    0.033812
  20 H :   -0.027374
  21 H :   -0.027039
  22 H :   -0.029283
  23 H :   -0.027604
  24 H :   -0.028263
  25 H :   -0.005752
  26 H :   -0.004221
  27 H :   -0.023321
  28 H :   -0.056614
  29 H :   -0.063781
  30 H :   -0.012314
  31 H :   -0.028495
  32 H :   -0.020696
  33 H :   -0.034897
  34 H :   -0.153159
  35 H :   -0.023724

  Mayer bond orders larger than 0.100000
B(  0-C ,  1-C ) :   0.9719 B(  0-C , 20-H ) :   0.9716 B(  0-C , 21-H ) :   0.9785
B(  0-C , 22-H ) :   0.9732 B(  1-C ,  2-O ) :   0.8900 B(  1-C , 23-H ) :   0.9881
B(  1-C , 24-H ) :   0.9734 B(  2-O ,  3-C ) :   1.1212 B(  3-C ,  4-O ) :   2.0207
B(  3-C ,  5-C ) :   1.0639 B(  5-C ,  6-C ) :   1.6165 B(  5-C , 12-C ) :   0.9659
B(  6-C ,  7-C ) :   0.9654 B(  6-C ,  8-N ) :   1.1525 B(  7-C , 25-H ) :   0.9658
B(  7-C , 26-H ) :   0.9551 B(  7-C , 27-H ) :   0.9889 B(  8-N ,  9-C ) :   1.1859
B(  8-N , 28-H ) :   0.9470 B(  9-C , 10-S ) :   1.6088 B(  9-C , 11-N ) :   1.3086
B( 11-N , 12-C ) :   0.9639 B( 11-N , 29-H ) :   0.9483 B( 12-C , 13-C ) :   0.9599
B( 12-C , 30-H ) :   1.0046 B( 13-C , 14-C ) :   1.3528 B( 13-C , 19-C ) :   1.3650
B( 14-C , 15-C ) :   1.3901 B( 14-C , 31-H ) :   0.9730 B( 15-C , 16-C ) :   1.3558
B( 15-C , 32-H ) :   0.9705 B( 16-C , 17-C ) :   1.3327 B( 16-C , 33-H ) :   0.9842
B( 17-C , 18-O ) :   1.1037 B( 17-C , 19-C ) :   1.3604 B( 18-O , 34-H ) :   0.9792
B( 19-C , 35-H ) :   0.9616

MP2 TOTAL ENERGY:    -1274.329054047 Eh
FINAL SINGLE POINT ENERGY     -1274.329054046918

DIPOLE MOMENT
-------------
                                X             Y             Z
Electronic contribution:      8.28030      10.68586       5.59450
Nuclear contribution   :     -9.34151     -12.31951      -5.63328
                        -----------------------------------------
Total Dipole Moment    :     -1.06121      -1.63365      -0.03878
                        -----------------------------------------
Magnitude (a.u.)       :      1.94846
Magnitude (Debye)      :      4.95258

Rotational constants in cm-1:     0.012296     0.008805     0.006090
Rotational constants in MHz :   368.611270   263.957469   182.575935

                             ****ORCA TERMINATED NORMALLY****
TOTAL RUN TIME: 0 days 1 hours 43 minutes 32 seconds 419 msec
