                         Program Version 4.2.0 -  RELEASE  -
|  1> ! ri-mp2 cc-pvtz cc-pvtz/c TightSCF NoKeepInts
|  2>
|  3> %scf
|  4>   MaxCore 4096
|  5> end
|  6> *xyz  0  1
|  7>     C       14.8388444   14.9911762   14.0480292
|  8>     C       15.2602387   14.9811705   15.5334486
|  9>     O       16.2539668   15.9879212   15.8226757
| 10>     C       16.0146941   17.3307849   15.6960685
| 11>     O       15.1981990   17.7931671   14.9194148
| 12>     C       16.7819683   18.1408739   16.7082217
| 13>     C       16.8822205   19.4902106   16.5879787
| 14>     C       16.0921400   20.3902358   15.6601073
| 15>     N       17.7976902   20.2155962   17.3540585
| 16>     C       18.7800872   19.6543799   18.1238188
| 17>     S       19.8935423   20.5734613   18.9308482
| 18>     N       18.8075436   18.2839326   18.1743121
| 19>     C       17.7987346   17.3854214   17.5820641
| 20>     C       17.1675499   16.4564763   18.6112980
| 21>     C       17.4745126   15.0832526   18.6205253
| 22>     C       16.8904550   14.2280054   19.5700992
| 23>     C       15.9954966   14.7513445   20.5191796
| 24>     C       15.6921874   16.1200295   20.5146065
| 25>     O       14.8297373   16.6280076   21.4306302
| 26>     C       16.2746661   16.9684947   19.5678790
| 27>     H       14.1515046   15.8167234   13.8282841
| 28>     H       14.3203576   14.0586078   13.7952316
| 29>     H       15.7153301   15.0820414   13.3946472
| 30>     H       14.3770818   15.1297363   16.1689647
| 31>     H       15.6821896   13.9970607   15.7741918
| 32>     H       15.0143092   20.2360305   15.7989323
| 33>     H       16.3231605   20.1635110   14.6114718
| 34>     H       16.2922528   21.4562231   15.8199864
| 35>     H       17.8020986   21.2219931   17.3082038
| 36>     H       19.5239483   17.8992619   18.7769511
| 37>     H       18.4290134   16.8180508   16.8825992
| 38>     H       18.1631045   14.6776261   17.8840339
| 39>     H       17.1323509   13.1665890   19.5694838
| 40>     H       15.5426203   14.0952353   21.2552323
| 41>     H       14.5597824   15.9012198   22.0117901
| 42>     H       16.0334209   18.0261476   19.5827319
| 43> *
| 44>
| 45>                          ****END OF INPUT****

CARTESIAN COORDINATES (ANGSTROEM)
---------------------------------
  C     14.838844   14.991176   14.048029
  C     15.260239   14.981170   15.533449
  O     16.253967   15.987921   15.822676
  C     16.014694   17.330785   15.696069
  O     15.198199   17.793167   14.919415
  C     16.781968   18.140874   16.708222
  C     16.882220   19.490211   16.587979
  C     16.092140   20.390236   15.660107
  N     17.797690   20.215596   17.354059
  C     18.780087   19.654380   18.123819
  S     19.893542   20.573461   18.930848
  N     18.807544   18.283933   18.174312
  C     17.798735   17.385421   17.582064
  C     17.167550   16.456476   18.611298
  C     17.474513   15.083253   18.620525
  C     16.890455   14.228005   19.570099
  C     15.995497   14.751345   20.519180
  C     15.692187   16.120030   20.514606
  O     14.829737   16.628008   21.430630
  C     16.274666   16.968495   19.567879
  H     14.151505   15.816723   13.828284
  H     14.320358   14.058608   13.795232
  H     15.715330   15.082041   13.394647
  H     14.377082   15.129736   16.168965
  H     15.682190   13.997061   15.774192
  H     15.014309   20.236030   15.798932
  H     16.323161   20.163511   14.611472
  H     16.292253   21.456223   15.819986
  H     17.802099   21.221993   17.308204
  H     19.523948   17.899262   18.776951
  H     18.429013   16.818051   16.882599
  H     18.163104   14.677626   17.884034
  H     17.132351   13.166589   19.569484
  H     15.542620   14.095235   21.255232
  H     14.559782   15.901220   22.011790
  H     16.033421   18.026148   19.582732

 Total Charge           Charge          ....    0
 Multiplicity           Mult            ....    1
 Number of Electrons    NEL             ....  154
 Basis Dimension        Dim             ....  828

ORBITAL ENERGIES
----------------

  NO   OCC          E(Eh)            E(eV)
   0   2.0000     -91.888715     -2500.4190
   1   2.0000     -20.596869      -560.4693
   2   2.0000     -20.595582      -560.4343
   3   2.0000     -20.542514      -558.9902
   4   2.0000     -15.629073      -425.2887
   5   2.0000     -15.606681      -424.6794
   6   2.0000     -11.396130      -310.1045
   7   2.0000     -11.383279      -309.7548
   8   2.0000     -11.337150      -308.4995
   9   2.0000     -11.314049      -307.8709
  10   2.0000     -11.307071      -307.6810
  11   2.0000     -11.300425      -307.5002
  12   2.0000     -11.261001      -306.4274
  13   2.0000     -11.258414      -306.3570
  14   2.0000     -11.255525      -306.2784
  15   2.0000     -11.251690      -306.1741
  16   2.0000     -11.243775      -305.9587
  17   2.0000     -11.239051      -305.8301
  18   2.0000     -11.238858      -305.8249
  19   2.0000     -11.219282      -305.2922
  20   2.0000      -8.893787      -242.0122
  21   2.0000      -6.575360      -178.9246
  22   2.0000      -6.573361      -178.8703
  23   2.0000      -6.572771      -178.8542
  24   2.0000      -1.446721       -39.3673
  25   2.0000      -1.416523       -38.5455
  26   2.0000      -1.354939       -36.8698
  27   2.0000      -1.340220       -36.4692
  28   2.0000      -1.238044       -33.6889
  29   2.0000      -1.157635       -31.5008
  30   2.0000      -1.120556       -30.4919
  31   2.0000      -1.042699       -28.3733
  32   2.0000      -1.034686       -28.1552
  33   2.0000      -1.015221       -27.6256
  34   2.0000      -0.995477       -27.0883
  35   2.0000      -0.983833       -26.7715
  36   2.0000      -0.921659       -25.0796
  37   2.0000      -0.892512       -24.2865
  38   2.0000      -0.846807       -23.0428
  39   2.0000      -0.838251       -22.8100
  40   2.0000      -0.834382       -22.7047
  41   2.0000      -0.819824       -22.3085
  42   2.0000      -0.751717       -20.4553
  43   2.0000      -0.732643       -19.9362
  44   2.0000      -0.720146       -19.5962
  45   2.0000      -0.695571       -18.9275
  46   2.0000      -0.688565       -18.7368
  47   2.0000      -0.679618       -18.4934
  48   2.0000      -0.669572       -18.2200
  49   2.0000      -0.652128       -17.7453
  50   2.0000      -0.648901       -17.6575
  51   2.0000      -0.645539       -17.5660
  52   2.0000      -0.633839       -17.2476
  53   2.0000      -0.607350       -16.5268
  54   2.0000      -0.602113       -16.3843
  55   2.0000      -0.599352       -16.3092
  56   2.0000      -0.597063       -16.2469
  57   2.0000      -0.581990       -15.8368
  58   2.0000      -0.574828       -15.6419
  59   2.0000      -0.569709       -15.5026
  60   2.0000      -0.562804       -15.3147
  61   2.0000      -0.540093       -14.6967
  62   2.0000      -0.535296       -14.5661
  63   2.0000      -0.524262       -14.2659
  64   2.0000      -0.519320       -14.1314
  65   2.0000      -0.512528       -13.9466
  66   2.0000      -0.500970       -13.6321
  67   2.0000      -0.497682       -13.5426
  68   2.0000      -0.484383       -13.1807
  69   2.0000      -0.463399       -12.6097
  70   2.0000      -0.455611       -12.3978
  71   2.0000      -0.440358       -11.9828
  72   2.0000      -0.352638        -9.5958
  73   2.0000      -0.349900        -9.5213
  74   2.0000      -0.327919        -8.9231
  75   2.0000      -0.321418        -8.7462
  76   2.0000      -0.317948        -8.6518
  77   0.0000       0.076005         2.0682
  78   0.0000       0.104892         2.8543
  79   0.0000       0.125063         3.4031
  80   0.0000       0.132717         3.6114
  81   0.0000       0.136821         3.7231

MULLIKEN ATOMIC CHARGES
-----------------------
   0 C :   -0.287765
   1 C :    0.047784
   2 O :   -0.361193
   3 C :    0.440401
   4 O :   -0.432820
   5 C :   -0.220650
   6 C :    0.174488
   7 C :   -0.267856
   8 N :   -0.125567
   9 C :    0.210988
  10 S :   -0.442217
  11 N :   -0.215881
  12 C :    0.064906
  13 C :    0.043309
  14 C :   -0.184090
  15 C :   -0.131609
  16 C :   -0.277144
  17 C :    0.316442
  18 O :   -0.356738
  19 C :   -0.250291
  20 H :    0.123557
  21 H :    0.092426
  22 H :    0.093560
  23 H :    0.089210
  24 H :    0.100750
  25 H :    0.133513
  26 H :    0.128547
  27 H :    0.094769
  28 H :    0.199553
  29 H :    0.200428
  30 H :    0.151888
  31 H :    0.152386
  32 H :    0.160930
  33 H :    0.130327
  34 H :    0.240644
  35 H :    0.163016
Sum of atomic charges:   -0.0000000

LOEWDIN ATOMIC CHARGES
----------------------
   0 C :    0.103808
   1 C :   -0.012823
   2 O :    0.298413
   3 C :   -0.413317
   4 O :    0.106970
   5 C :   -0.095484
   6 C :   -0.056020
   7 C :    0.130796
   8 N :    0.407171
   9 C :   -0.456661
  10 S :   -0.036735
  11 N :    0.394529
  12 C :   -0.054741
  13 C :   -0.038922
  14 C :    0.017025
  15 C :    0.038642
  16 C :   -0.001158
  17 C :   -0.189807
  18 O :    0.395072
  19 C :    0.032679
  20 H :   -0.027003
  21 H :   -0.030253
  22 H :   -0.027095
  23 H :   -0.029123
  24 H :   -0.024607
  25 H :   -0.004491
  26 H :   -0.005165
  27 H :   -0.023703
  28 H :   -0.057248
  29 H :   -0.064470
  30 H :   -0.013564
  31 H :   -0.029145
  32 H :   -0.021369
  33 H :   -0.035480
  34 H :   -0.153927
  35 H :   -0.022797

  Mayer bond orders larger than 0.100000
B(  0-C ,  1-C ) :   0.9759 B(  0-C , 20-H ) :   0.9717 B(  0-C , 21-H ) :   0.9779
B(  0-C , 22-H ) :   0.9752 B(  1-C ,  2-O ) :   0.8995 B(  1-C , 23-H ) :   0.9751
B(  1-C , 24-H ) :   0.9832 B(  2-O ,  3-C ) :   1.1318 B(  3-C ,  4-O ) :   1.9649
B(  3-C ,  5-C ) :   1.0789 B(  5-C ,  6-C ) :   1.6340 B(  5-C , 12-C ) :   0.9551
B(  6-C ,  7-C ) :   0.9660 B(  6-C ,  8-N ) :   1.1534 B(  7-C , 25-H ) :   0.9608
B(  7-C , 26-H ) :   0.9589 B(  7-C , 27-H ) :   0.9909 B(  8-N ,  9-C ) :   1.1872
B(  8-N , 28-H ) :   0.9464 B(  9-C , 10-S ) :   1.6056 B(  9-C , 11-N ) :   1.3098
B( 11-N , 12-C ) :   0.9660 B( 11-N , 29-H ) :   0.9484 B( 12-C , 13-C ) :   0.9628
B( 12-C , 30-H ) :   1.0010 B( 13-C , 14-C ) :   1.3538 B( 13-C , 19-C ) :   1.3811
B( 14-C , 15-C ) :   1.3932 B( 14-C , 31-H ) :   0.9715 B( 15-C , 16-C ) :   1.3601
B( 15-C , 32-H ) :   0.9706 B( 16-C , 17-C ) :   1.3339 B( 16-C , 33-H ) :   0.9849
B( 17-C , 18-O ) :   1.1046 B( 17-C , 19-C ) :   1.3645 B( 18-O , 34-H ) :   0.9798
B( 19-C , 35-H ) :   0.9597

MP2 TOTAL ENERGY:    -1274.335584186 Eh
FINAL SINGLE POINT ENERGY     -1274.335584186495

DIPOLE MOMENT
-------------
                                X             Y             Z
Electronic contribution:      9.53305       9.57108      10.35983
Nuclear contribution   :    -10.63047     -11.25297     -10.64237
                        -----------------------------------------
Total Dipole Moment    :     -1.09742      -1.68189      -0.28254
                        -----------------------------------------
Magnitude (a.u.)       :      2.02803
Magnitude (Debye)      :      5.15485

Rotational constants in cm-1:     0.010857     0.008739     0.005795
Rotational constants in MHz :   325.481448   261.982675   173.727033

                             ****ORCA TERMINATED NORMALLY****
TOTAL RUN TIME: 0 days 1 hours 37 minutes 54 seconds 457 msec
