                         Program Version 4.2.0 -  RELEASE  -
|  1> ! ri-mp2 cc-pvtz cc-pvtz/c TightSCF NoKeepInts
|  2>
|  3> %scf
|  4>   MaxCore 4096
|  5> end
|  6> *xyz  0  1
|  7>     C       15.4970207   15.1230507   13.4079769
|  8>     C       14.5387902   15.7589839   14.4391598
|  9>     O       15.2110564   16.7746911   15.2129912
| 10>     C       16.2615444   16.4823388   16.0388713
| 11>     O       16.6821642   15.3486486   16.1992008
| 12>     C       16.7928985   17.6530929   16.8192235
| 13>     C       16.7434733   18.9318806   16.3584475
| 14>     C       15.9813425   19.4667334   15.1615155
| 15>     N       17.4870572   19.9414946   16.9753339
| 16>     C       18.4674798   19.7250469   17.9052395
| 17>     S       19.3862706   20.9608052   18.5088710
| 18>     N       18.6634608   18.4239779   18.2919426
| 19>     C       17.8120173   17.2823751   17.9054455
| 20>     C       17.1979282   16.5629449   19.0992951
| 21>     C       17.3951693   15.1826914   19.2846097
| 22>     C       16.8311149   14.5219666   20.3888354
| 23>     C       16.0646984   15.2482048   21.3164976
| 24>     C       15.8652091   16.6235136   21.1332072
| 25>     O       15.1226449   17.3263464   22.0254228
| 26>     C       16.4276221   17.2782081   20.0327575
| 27>     H       16.0150284   15.8977137   12.8295102
| 28>     H       14.9343914   14.4948273   12.7069458
| 29>     H       16.2488599   14.4857396   13.8882541
| 30>     H       13.6936945   16.2160048   13.9086398
| 31>     H       14.1398881   14.9800308   15.1030235
| 32>     H       14.9005935   19.3399570   15.3024561
| 33>     H       16.2696877   18.9352191   14.2460856
| 34>     H       16.1619357   20.5337202   14.9827922
| 35>     H       17.3692449   20.8992710   16.6862995
| 36>     H       19.3769989   18.2932737   18.9978500
| 37>     H       18.5575364   16.6432441   17.4103362
| 38>     H       17.9749180   14.6178415   18.5584009
| 39>     H       16.9844884   13.4521095   20.5177825
| 40>     H       15.6258681   14.7415602   22.1694887
| 41>     H       14.8397468   16.7088533   22.7163294
| 42>     H       16.2651562   18.3436387   19.9089612
| 43> *
| 44>
| 45>                          ****END OF INPUT****

CARTESIAN COORDINATES (ANGSTROEM)
---------------------------------
  C     15.497021   15.123051   13.407977
  C     14.538790   15.758984   14.439160
  O     15.211056   16.774691   15.212991
  C     16.261544   16.482339   16.038871
  O     16.682164   15.348649   16.199201
  C     16.792898   17.653093   16.819223
  C     16.743473   18.931881   16.358448
  C     15.981343   19.466733   15.161515
  N     17.487057   19.941495   16.975334
  C     18.467480   19.725047   17.905240
  S     19.386271   20.960805   18.508871
  N     18.663461   18.423978   18.291943
  C     17.812017   17.282375   17.905445
  C     17.197928   16.562945   19.099295
  C     17.395169   15.182691   19.284610
  C     16.831115   14.521967   20.388835
  C     16.064698   15.248205   21.316498
  C     15.865209   16.623514   21.133207
  O     15.122645   17.326346   22.025423
  C     16.427622   17.278208   20.032757
  H     16.015028   15.897714   12.829510
  H     14.934391   14.494827   12.706946
  H     16.248860   14.485740   13.888254
  H     13.693694   16.216005   13.908640
  H     14.139888   14.980031   15.103023
  H     14.900593   19.339957   15.302456
  H     16.269688   18.935219   14.246086
  H     16.161936   20.533720   14.982792
  H     17.369245   20.899271   16.686300
  H     19.376999   18.293274   18.997850
  H     18.557536   16.643244   17.410336
  H     17.974918   14.617842   18.558401
  H     16.984488   13.452110   20.517782
  H     15.625868   14.741560   22.169489
  H     14.839747   16.708853   22.716329
  H     16.265156   18.343639   19.908961

 Total Charge           Charge          ....    0
 Multiplicity           Mult            ....    1
 Number of Electrons    NEL             ....  154
 Basis Dimension        Dim             ....  828

ORBITAL ENERGIES
----------------

  NO   OCC          E(Eh)            E(eV)
   0   2.0000     -91.887547     -2500.3873
   1   2.0000     -20.603946      -560.6619
   2   2.0000     -20.590654      -560.3002
   3   2.0000     -20.545074      -559.0599
   4   2.0000     -15.627951      -425.2582
   5   2.0000     -15.605232      -424.6400
   6   2.0000     -11.397400      -310.1390
   7   2.0000     -11.382032      -309.7208
   8   2.0000     -11.337639      -308.5128
   9   2.0000     -11.306634      -307.6692
  10   2.0000     -11.303754      -307.5908
  11   2.0000     -11.303740      -307.5904
  12   2.0000     -11.261063      -306.4291
  13   2.0000     -11.258895      -306.3701
  14   2.0000     -11.254005      -306.2371
  15   2.0000     -11.246763      -306.0400
  16   2.0000     -11.236954      -305.7731
  17   2.0000     -11.233061      -305.6671
  18   2.0000     -11.229900      -305.5811
  19   2.0000     -11.226663      -305.4930
  20   2.0000      -8.892636      -241.9809
  21   2.0000      -6.574215      -178.8935
  22   2.0000      -6.572210      -178.8389
  23   2.0000      -6.571624      -178.8230
  24   2.0000      -1.452196       -39.5163
  25   2.0000      -1.410396       -38.3788
  26   2.0000      -1.357635       -36.9431
  27   2.0000      -1.339436       -36.4479
  28   2.0000      -1.236585       -33.6492
  29   2.0000      -1.151388       -31.3309
  30   2.0000      -1.120086       -30.4791
  31   2.0000      -1.042065       -28.3560
  32   2.0000      -1.034507       -28.1504
  33   2.0000      -1.008871       -27.4528
  34   2.0000      -0.997793       -27.1513
  35   2.0000      -0.982907       -26.7463
  36   2.0000      -0.920428       -25.0461
  37   2.0000      -0.895797       -24.3759
  38   2.0000      -0.847468       -23.0608
  39   2.0000      -0.834343       -22.7036
  40   2.0000      -0.827001       -22.5038
  41   2.0000      -0.817186       -22.2368
  42   2.0000      -0.751180       -20.4406
  43   2.0000      -0.733280       -19.9536
  44   2.0000      -0.725238       -19.7347
  45   2.0000      -0.690133       -18.7795
  46   2.0000      -0.684920       -18.6376
  47   2.0000      -0.679436       -18.4884
  48   2.0000      -0.670018       -18.2321
  49   2.0000      -0.661426       -17.9983
  50   2.0000      -0.645920       -17.5764
  51   2.0000      -0.640433       -17.4271
  52   2.0000      -0.631370       -17.1804
  53   2.0000      -0.610846       -16.6220
  54   2.0000      -0.601898       -16.3785
  55   2.0000      -0.597270       -16.2525
  56   2.0000      -0.593785       -16.1577
  57   2.0000      -0.585444       -15.9307
  58   2.0000      -0.571962       -15.5639
  59   2.0000      -0.566255       -15.4086
  60   2.0000      -0.560144       -15.2423
  61   2.0000      -0.546259       -14.8645
  62   2.0000      -0.537288       -14.6204
  63   2.0000      -0.525203       -14.2915
  64   2.0000      -0.514604       -14.0031
  65   2.0000      -0.510326       -13.8867
  66   2.0000      -0.500298       -13.6138
  67   2.0000      -0.493425       -13.4268
  68   2.0000      -0.480419       -13.0729
  69   2.0000      -0.464248       -12.6328
  70   2.0000      -0.455688       -12.3999
  71   2.0000      -0.451520       -12.2865
  72   2.0000      -0.352690        -9.5972
  73   2.0000      -0.343532        -9.3480
  74   2.0000      -0.326639        -8.8883
  75   2.0000      -0.316684        -8.6174
  76   2.0000      -0.313274        -8.5246
  77   0.0000       0.078374         2.1327
  78   0.0000       0.112843         3.0706
  79   0.0000       0.120289         3.2732
  80   0.0000       0.136684         3.7194
  81   0.0000       0.140856         3.8329

MULLIKEN ATOMIC CHARGES
-----------------------
   0 C :   -0.306519
   1 C :    0.037337
   2 O :   -0.346132
   3 C :    0.422288
   4 O :   -0.431725
   5 C :   -0.171708
   6 C :    0.170298
   7 C :   -0.283679
   8 N :   -0.128976
   9 C :    0.207668
  10 S :   -0.443282
  11 N :   -0.210414
  12 C :    0.040163
  13 C :    0.031960
  14 C :   -0.164877
  15 C :   -0.134260
  16 C :   -0.276719
  17 C :    0.314534
  18 O :   -0.359113
  19 C :   -0.250106
  20 H :    0.088726
  21 H :    0.098070
  22 H :    0.128587
  23 H :    0.108527
  24 H :    0.101164
  25 H :    0.132254
  26 H :    0.122101
  27 H :    0.102596
  28 H :    0.198745
  29 H :    0.199855
  30 H :    0.154711
  31 H :    0.157927
  32 H :    0.159359
  33 H :    0.127837
  34 H :    0.239756
  35 H :    0.163045
Sum of atomic charges:   -0.0000000

LOEWDIN ATOMIC CHARGES
----------------------
   0 C :    0.104241
   1 C :   -0.013957
   2 O :    0.302409
   3 C :   -0.413246
   4 O :    0.105614
   5 C :   -0.089665
   6 C :   -0.064127
   7 C :    0.124431
   8 N :    0.405271
   9 C :   -0.458862
  10 S :   -0.038290
  11 N :    0.396561
  12 C :   -0.048167
  13 C :   -0.040323
  14 C :    0.024852
  15 C :    0.040930
  16 C :   -0.001017
  17 C :   -0.192223
  18 O :    0.393101
  19 C :    0.030116
  20 H :   -0.031730
  21 H :   -0.026990
  22 H :   -0.025322
  23 H :   -0.024598
  24 H :   -0.026681
  25 H :   -0.008707
  26 H :   -0.010904
  27 H :   -0.021351
  28 H :   -0.058911
  29 H :   -0.063033
  30 H :   -0.008715
  31 H :   -0.024336
  32 H :   -0.021235
  33 H :   -0.036255
  34 H :   -0.155005
  35 H :   -0.023876

  Mayer bond orders larger than 0.100000
B(  0-C ,  1-C ) :   0.9629 B(  0-C , 20-H ) :   0.9768 B(  0-C , 21-H ) :   0.9770
B(  0-C , 22-H ) :   0.9711 B(  1-C ,  2-O ) :   0.9044 B(  1-C , 23-H ) :   0.9847
B(  1-C , 24-H ) :   0.9793 B(  2-O ,  3-C ) :   1.1539 B(  3-C ,  4-O ) :   1.9585
B(  3-C ,  5-C ) :   1.0626 B(  5-C ,  6-C ) :   1.6505 B(  5-C , 12-C ) :   0.9500
B(  6-C ,  7-C ) :   0.9523 B(  6-C ,  8-N ) :   1.1364 B(  7-C , 25-H ) :   0.9626
B(  7-C , 26-H ) :   0.9663 B(  7-C , 27-H ) :   0.9919 B(  8-N ,  9-C ) :   1.1858
B(  8-N , 28-H ) :   0.9470 B(  9-C , 10-S ) :   1.6071 B(  9-C , 11-N ) :   1.3064
B( 11-N , 12-C ) :   0.9774 B( 11-N , 29-H ) :   0.9484 B( 12-C , 13-C ) :   0.9754
B( 12-C , 30-H ) :   0.9976 B( 13-C , 14-C ) :   1.3748 B( 13-C , 19-C ) :   1.3681
B( 14-C , 15-C ) :   1.3972 B( 14-C , 31-H ) :   0.9643 B( 15-C , 16-C ) :   1.3588
B( 15-C , 32-H ) :   0.9714 B( 16-C , 17-C ) :   1.3334 B( 16-C , 33-H ) :   0.9861
B( 17-C , 18-O ) :   1.1030 B( 17-C , 19-C ) :   1.3676 B( 18-O , 34-H ) :   0.9808
B( 19-C , 35-H ) :   0.9600

MP2 TOTAL ENERGY:    -1274.339908666 Eh
FINAL SINGLE POINT ENERGY     -1274.339908665854

DIPOLE MOMENT
-------------
                                X             Y             Z
Electronic contribution:      8.15456       9.08717      13.14896
Nuclear contribution   :     -9.74371     -10.20912     -14.21517
                        -----------------------------------------
Total Dipole Moment    :     -1.58915      -1.12195      -1.06621
                        -----------------------------------------
Magnitude (a.u.)       :      2.21832
Magnitude (Debye)      :      5.63853

Rotational constants in cm-1:     0.010099     0.008734     0.005451
Rotational constants in MHz :   302.765901   261.826932   163.428165

                             ****ORCA TERMINATED NORMALLY****
TOTAL RUN TIME: 0 days 1 hours 53 minutes 14 seconds 393 msec
