                         Program Version 4.2.0 -  RELEASE  -
|  1> ! ri-mp2 cc-pvtz cc-pvtz/c TightSCF NoKeepInts
|  2>
|  3> %scf
|  4>   MaxCore 4096
|  5> end
|  6> *xyz  0  1
|  7>     C       14.5488264   16.3488307   16.2414270
|  8>     C       15.4074749   15.2734977   15.5429668
|  9>     O       16.8356007   15.5218295   15.4465906
| 10>     C       17.4471913   16.7381864   15.2997642
| 11>     O       18.1625394   16.9599930   14.3404340
| 12>     C       17.1649169   17.7649310   16.3479604
| 13>     C       16.9601032   19.0452122   15.9586526
| 14>     C       16.5830889   19.4993190   14.5646823
| 15>     N       17.1070070   20.1076079   16.8516398
| 16>     C       17.7113948   19.9978803   18.0757786
| 17>     S       17.9754070   21.3128572   19.0431796
| 18>     N       18.1145492   18.7388464   18.4481619
| 19>     C       17.7930150   17.4914684   17.7249460
| 20>     C       17.1357469   16.4220544   18.5893330
| 21>     C       17.5140953   15.0730445   18.4589688
| 22>     C       16.9187715   14.0820130   19.2569295
| 23>     C       15.9424758   14.4431501   20.2007802
| 24>     C       15.5711791   15.7870253   20.3425776
| 25>     O       14.6278937   16.1387686   21.2518043
| 26>     C       16.1647297   16.7716054   19.5460622
| 27>     H       14.8406772   16.4926643   17.2827642
| 28>     H       13.4986504   16.0323668   16.2462405
| 29>     H       14.5922290   17.3076853   15.7129613
| 30>     H       15.2560583   14.3137392   16.0540424
| 31>     H       15.0179500   15.1529644   14.5235652
| 32>     H       17.4856825   19.6520783   13.9582243
| 33>     H       16.0133360   20.4361666   14.5704723
| 34>     H       15.9712314   18.7479182   14.0509126
| 35>     H       16.8616602   21.0425693   16.5669815
| 36>     H       18.5563215   18.6873745   19.3577427
| 37>     H       18.8163800   17.1628271   17.4911292
| 38>     H       18.2679227   14.7898587   17.7280570
| 39>     H       17.2161022   13.0407874   19.1430803
| 40>     H       15.4803346   13.6809778   20.8196870
| 41>     H       14.3679746   15.3364195   21.7292000
| 42>     H       15.8584827   17.8054817   19.6703001
| 43> *
| 44>
| 45>                          ****END OF INPUT****

CARTESIAN COORDINATES (ANGSTROEM)
---------------------------------
  C     14.548826   16.348831   16.241427
  C     15.407475   15.273498   15.542967
  O     16.835601   15.521830   15.446591
  C     17.447191   16.738186   15.299764
  O     18.162539   16.959993   14.340434
  C     17.164917   17.764931   16.347960
  C     16.960103   19.045212   15.958653
  C     16.583089   19.499319   14.564682
  N     17.107007   20.107608   16.851640
  C     17.711395   19.997880   18.075779
  S     17.975407   21.312857   19.043180
  N     18.114549   18.738846   18.448162
  C     17.793015   17.491468   17.724946
  C     17.135747   16.422054   18.589333
  C     17.514095   15.073044   18.458969
  C     16.918771   14.082013   19.256929
  C     15.942476   14.443150   20.200780
  C     15.571179   15.787025   20.342578
  O     14.627894   16.138769   21.251804
  C     16.164730   16.771605   19.546062
  H     14.840677   16.492664   17.282764
  H     13.498650   16.032367   16.246240
  H     14.592229   17.307685   15.712961
  H     15.256058   14.313739   16.054042
  H     15.017950   15.152964   14.523565
  H     17.485682   19.652078   13.958224
  H     16.013336   20.436167   14.570472
  H     15.971231   18.747918   14.050913
  H     16.861660   21.042569   16.566982
  H     18.556321   18.687375   19.357743
  H     18.816380   17.162827   17.491129
  H     18.267923   14.789859   17.728057
  H     17.216102   13.040787   19.143080
  H     15.480335   13.680978   20.819687
  H     14.367975   15.336419   21.729200
  H     15.858483   17.805482   19.670300

 Total Charge           Charge          ....    0
 Multiplicity           Mult            ....    1
 Number of Electrons    NEL             ....  154
 Basis Dimension        Dim             ....  828

ORBITAL ENERGIES
----------------

  NO   OCC          E(Eh)            E(eV)
   0   2.0000     -91.889850     -2500.4499
   1   2.0000     -20.601374      -560.5919
   2   2.0000     -20.588926      -560.2532
   3   2.0000     -20.555231      -559.3363
   4   2.0000     -15.626474      -425.2180
   5   2.0000     -15.610216      -424.7756
   6   2.0000     -11.396775      -310.1220
   7   2.0000     -11.385093      -309.8041
   8   2.0000     -11.327905      -308.2480
   9   2.0000     -11.319191      -308.0109
  10   2.0000     -11.315773      -307.9179
  11   2.0000     -11.308349      -307.7158
  12   2.0000     -11.268175      -306.6226
  13   2.0000     -11.260519      -306.4143
  14   2.0000     -11.257269      -306.3259
  15   2.0000     -11.256207      -306.2970
  16   2.0000     -11.248950      -306.0995
  17   2.0000     -11.244439      -305.9768
  18   2.0000     -11.243582      -305.9534
  19   2.0000     -11.231919      -305.6360
  20   2.0000      -8.894921      -242.0431
  21   2.0000      -6.576496      -178.9555
  22   2.0000      -6.574494      -178.9011
  23   2.0000      -6.573905      -178.8851
  24   2.0000      -1.443925       -39.2912
  25   2.0000      -1.421180       -38.6723
  26   2.0000      -1.356798       -36.9204
  27   2.0000      -1.339491       -36.4494
  28   2.0000      -1.239207       -33.7205
  29   2.0000      -1.162834       -31.6423
  30   2.0000      -1.123850       -30.5815
  31   2.0000      -1.048196       -28.5229
  32   2.0000      -1.037370       -28.2283
  33   2.0000      -1.021331       -27.7918
  34   2.0000      -1.003439       -27.3050
  35   2.0000      -0.989253       -26.9189
  36   2.0000      -0.925600       -25.1869
  37   2.0000      -0.900534       -24.5048
  38   2.0000      -0.849648       -23.1201
  39   2.0000      -0.842976       -22.9385
  40   2.0000      -0.838968       -22.8295
  41   2.0000      -0.824404       -22.4332
  42   2.0000      -0.748090       -20.3566
  43   2.0000      -0.737350       -20.0643
  44   2.0000      -0.726109       -19.7584
  45   2.0000      -0.699526       -19.0351
  46   2.0000      -0.689015       -18.7490
  47   2.0000      -0.675093       -18.3702
  48   2.0000      -0.671294       -18.2668
  49   2.0000      -0.668886       -18.2013
  50   2.0000      -0.654030       -17.7971
  51   2.0000      -0.649089       -17.6626
  52   2.0000      -0.637737       -17.3537
  53   2.0000      -0.614798       -16.7295
  54   2.0000      -0.609600       -16.5881
  55   2.0000      -0.603737       -16.4285
  56   2.0000      -0.602836       -16.4040
  57   2.0000      -0.582326       -15.8459
  58   2.0000      -0.577149       -15.7050
  59   2.0000      -0.571778       -15.5589
  60   2.0000      -0.565135       -15.3781
  61   2.0000      -0.557367       -15.1667
  62   2.0000      -0.541775       -14.7424
  63   2.0000      -0.530070       -14.4239
  64   2.0000      -0.522670       -14.2226
  65   2.0000      -0.514084       -13.9889
  66   2.0000      -0.503768       -13.7082
  67   2.0000      -0.494677       -13.4608
  68   2.0000      -0.487556       -13.2671
  69   2.0000      -0.465413       -12.6645
  70   2.0000      -0.454308       -12.3623
  71   2.0000      -0.451742       -12.2925
  72   2.0000      -0.356636        -9.7046
  73   2.0000      -0.347836        -9.4651
  74   2.0000      -0.329102        -8.9553
  75   2.0000      -0.326494        -8.8844
  76   2.0000      -0.319357        -8.6902
  77   0.0000       0.082338         2.2405
  78   0.0000       0.100947         2.7469
  79   0.0000       0.120111         3.2684
  80   0.0000       0.126399         3.4395
  81   0.0000       0.128874         3.5068

MULLIKEN ATOMIC CHARGES
-----------------------
   0 C :   -0.322957
   1 C :    0.030103
   2 O :   -0.358219
   3 C :    0.429719
   4 O :   -0.364029
   5 C :   -0.223270
   6 C :    0.156931
   7 C :   -0.289158
   8 N :   -0.137347
   9 C :    0.214708
  10 S :   -0.441041
  11 N :   -0.235642
  12 C :    0.052664
  13 C :    0.018998
  14 C :   -0.206570
  15 C :   -0.143420
  16 C :   -0.271943
  17 C :    0.316890
  18 O :   -0.355285
  19 C :   -0.242846
  20 H :    0.123780
  21 H :    0.120727
  22 H :    0.097030
  23 H :    0.112557
  24 H :    0.113084
  25 H :    0.148941
  26 H :    0.100811
  27 H :    0.111765
  28 H :    0.197914
  29 H :    0.205907
  30 H :    0.159643
  31 H :    0.158792
  32 H :    0.166413
  33 H :    0.133921
  34 H :    0.241116
  35 H :    0.179311
Sum of atomic charges:   -0.0000000

LOEWDIN ATOMIC CHARGES
----------------------
   0 C :    0.103827
   1 C :   -0.014448
   2 O :    0.288928
   3 C :   -0.422579
   4 O :    0.134110
   5 C :   -0.090842
   6 C :   -0.080455
   7 C :    0.127665
   8 N :    0.405828
   9 C :   -0.455334
  10 S :   -0.036301
  11 N :    0.396050
  12 C :   -0.051935
  13 C :   -0.042669
  14 C :    0.021868
  15 C :    0.042198
  16 C :   -0.000541
  17 C :   -0.192444
  18 O :    0.396503
  19 C :    0.028685
  20 H :   -0.030796
  21 H :   -0.021133
  22 H :   -0.033758
  23 H :   -0.021420
  24 H :   -0.028215
  25 H :   -0.003442
  26 H :   -0.020463
  27 H :   -0.012567
  28 H :   -0.057846
  29 H :   -0.064323
  30 H :   -0.009456
  31 H :   -0.025670
  32 H :   -0.018904
  33 H :   -0.034368
  34 H :   -0.152967
  35 H :   -0.022785

  Mayer bond orders larger than 0.100000
B(  0-C ,  1-C ) :   0.9637 B(  0-C , 20-H ) :   0.9660 B(  0-C , 21-H ) :   0.9766
B(  0-C , 22-H ) :   0.9710 B(  1-C ,  2-O ) :   0.9025 B(  1-C , 23-H ) :   0.9793
B(  1-C , 24-H ) :   0.9828 B(  2-O ,  3-C ) :   1.1286 B(  3-C ,  4-O ) :   2.1192
B(  3-C ,  5-C ) :   0.9412 B(  5-C ,  6-C ) :   1.6834 B(  5-C , 12-C ) :   0.9574
B(  6-C ,  7-C ) :   0.9488 B(  6-C ,  8-N ) :   1.1254 B(  7-C , 25-H ) :   0.9572
B(  7-C , 26-H ) :   0.9829 B(  7-C , 27-H ) :   0.9776 B(  8-N ,  9-C ) :   1.2008
B(  8-N , 28-H ) :   0.9496 B(  9-C , 10-S ) :   1.6093 B(  9-C , 11-N ) :   1.2878
B( 11-N , 12-C ) :   0.9686 B( 11-N , 29-H ) :   0.9446 B( 12-C , 13-C ) :   0.9606
B( 12-C , 30-H ) :   1.0017 B( 13-C , 14-C ) :   1.3746 B( 13-C , 19-C ) :   1.3385
B( 14-C , 15-C ) :   1.4034 B( 14-C , 31-H ) :   0.9689 B( 15-C , 16-C ) :   1.3548
B( 15-C , 32-H ) :   0.9690 B( 16-C , 17-C ) :   1.3345 B( 16-C , 33-H ) :   0.9838
B( 17-C , 18-O ) :   1.1084 B( 17-C , 19-C ) :   1.3634 B( 18-O , 34-H ) :   0.9793
B( 19-C , 35-H ) :   0.9579

MP2 TOTAL ENERGY:    -1274.311760198 Eh
FINAL SINGLE POINT ENERGY     -1274.311760197621

DIPOLE MOMENT
-------------
                                X             Y             Z
Electronic contribution:      8.97985       7.12065       6.71945
Nuclear contribution   :    -10.54524      -8.81845      -6.84943
                        -----------------------------------------
Total Dipole Moment    :     -1.56538      -1.69780      -0.12999
                        -----------------------------------------
Magnitude (a.u.)       :      2.31297
Magnitude (Debye)      :      5.87911

Rotational constants in cm-1:     0.012095     0.009239     0.006215
Rotational constants in MHz :   362.585559   276.965313   186.308231

                             ****ORCA TERMINATED NORMALLY****
TOTAL RUN TIME: 0 days 2 hours 5 minutes 34 seconds 495 msec
