                         Program Version 4.2.0 -  RELEASE  -
|  1> ! ri-mp2 cc-pvtz cc-pvtz/c TightSCF NoKeepInts
|  2>
|  3> %scf
|  4>   MaxCore 4096
|  5> end
|  6> *xyz  0  1
|  7>     C       14.7043388   14.6394210   14.2710225
|  8>     C       14.5711995   15.9213164   15.1147634
|  9>     O       15.7317254   16.7422899   14.8993824
| 10>     C       16.7912203   16.5822236   15.7417327
| 11>     O       17.3422502   15.5053492   15.8907422
| 12>     C       17.0700494   17.7648469   16.6233471
| 13>     C       16.9070563   19.0446441   16.1968107
| 14>     C       16.2374725   19.5200591   14.9224716
| 15>     N       17.4298491   20.1125595   16.9304808
| 16>     C       18.3106565   19.9797742   17.9699839
| 17>     S       18.9749514   21.2933962   18.7238728
| 18>     N       18.6303588   18.6975546   18.3388880
| 19>     C       17.9922581   17.4748005   17.8134509
| 20>     C       17.3352019   16.6247023   18.8928136
| 21>     C       17.6710965   15.2668605   19.0395899
| 22>     C       17.0622062   14.4834252   20.0342646
| 23>     C       16.1099005   15.0632302   20.8900093
| 24>     C       15.7714864   16.4156183   20.7441945
| 25>     O       14.8483005   16.9766680   21.5652525
| 26>     C       16.3784998   17.1925337   19.7522583
| 27>     H       15.5531420   14.0321499   14.6096026
| 28>     H       14.8573278   14.8859867   13.2131038
| 29>     H       13.7972264   14.0288520   14.3539896
| 30>     H       13.6767308   16.4669877   14.7880264
| 31>     H       14.4528936   15.6737931   16.1790278
| 32>     H       16.6678641   19.0205332   14.0451749
| 33>     H       16.3485416   20.5992485   14.7607400
| 34>     H       15.1628295   19.3008899   14.9429132
| 35>     H       17.2237264   21.0597032   16.6557860
| 36>     H       19.2673392   18.6270199   19.1224468
| 37>     H       18.8692941   16.9596394   17.3948834
| 38>     H       18.3963422   14.8141721   18.3672383
| 39>     H       17.3260273   13.4320637   20.1343144
| 40>     H       15.6364182   14.4613578   21.6585028
| 41>     H       14.5751129   16.2980417   22.2006942
| 42>     H       16.1061057   18.2382880   19.6562241
| 43> *
| 44>
| 45>                          ****END OF INPUT****

CARTESIAN COORDINATES (ANGSTROEM)
---------------------------------
  C     14.704339   14.639421   14.271023
  C     14.571199   15.921316   15.114763
  O     15.731725   16.742290   14.899382
  C     16.791220   16.582224   15.741733
  O     17.342250   15.505349   15.890742
  C     17.070049   17.764847   16.623347
  C     16.907056   19.044644   16.196811
  C     16.237472   19.520059   14.922472
  N     17.429849   20.112559   16.930481
  C     18.310657   19.979774   17.969984
  S     18.974951   21.293396   18.723873
  N     18.630359   18.697555   18.338888
  C     17.992258   17.474800   17.813451
  C     17.335202   16.624702   18.892814
  C     17.671097   15.266860   19.039590
  C     17.062206   14.483425   20.034265
  C     16.109900   15.063230   20.890009
  C     15.771486   16.415618   20.744194
  O     14.848301   16.976668   21.565252
  C     16.378500   17.192534   19.752258
  H     15.553142   14.032150   14.609603
  H     14.857328   14.885987   13.213104
  H     13.797226   14.028852   14.353990
  H     13.676731   16.466988   14.788026
  H     14.452894   15.673793   16.179028
  H     16.667864   19.020533   14.045175
  H     16.348542   20.599249   14.760740
  H     15.162830   19.300890   14.942913
  H     17.223726   21.059703   16.655786
  H     19.267339   18.627020   19.122447
  H     18.869294   16.959639   17.394883
  H     18.396342   14.814172   18.367238
  H     17.326027   13.432064   20.134314
  H     15.636418   14.461358   21.658503
  H     14.575113   16.298042   22.200694
  H     16.106106   18.238288   19.656224

 Total Charge           Charge          ....    0
 Multiplicity           Mult            ....    1
 Number of Electrons    NEL             ....  154
 Basis Dimension        Dim             ....  828

ORBITAL ENERGIES
----------------

  NO   OCC          E(Eh)            E(eV)
   0   2.0000     -91.889148     -2500.4308
   1   2.0000     -20.593723      -560.3837
   2   2.0000     -20.589911      -560.2800
   3   2.0000     -20.551927      -559.2464
   4   2.0000     -15.629955      -425.3127
   5   2.0000     -15.606759      -424.6815
   6   2.0000     -11.395590      -310.0898
   7   2.0000     -11.383815      -309.7693
   8   2.0000     -11.339227      -308.5560
   9   2.0000     -11.309905      -307.7582
  10   2.0000     -11.305089      -307.6271
  11   2.0000     -11.304087      -307.5999
  12   2.0000     -11.260235      -306.4066
  13   2.0000     -11.260084      -306.4025
  14   2.0000     -11.257091      -306.3210
  15   2.0000     -11.249914      -306.1257
  16   2.0000     -11.240052      -305.8574
  17   2.0000     -11.236214      -305.7529
  18   2.0000     -11.232859      -305.6616
  19   2.0000     -11.221841      -305.3618
  20   2.0000      -8.894224      -242.0241
  21   2.0000      -6.575798      -178.9366
  22   2.0000      -6.573797      -178.8821
  23   2.0000      -6.573207      -178.8660
  24   2.0000      -1.452823       -39.5333
  25   2.0000      -1.413475       -38.4626
  26   2.0000      -1.359129       -36.9838
  27   2.0000      -1.340978       -36.4899
  28   2.0000      -1.238053       -33.6891
  29   2.0000      -1.154348       -31.4114
  30   2.0000      -1.121923       -30.5291
  31   2.0000      -1.043402       -28.3924
  32   2.0000      -1.032826       -28.1046
  33   2.0000      -1.011880       -27.5347
  34   2.0000      -0.999703       -27.2033
  35   2.0000      -0.984608       -26.7926
  36   2.0000      -0.922070       -25.0908
  37   2.0000      -0.885564       -24.0974
  38   2.0000      -0.849556       -23.1176
  39   2.0000      -0.837748       -22.7963
  40   2.0000      -0.830129       -22.5889
  41   2.0000      -0.825920       -22.4744
  42   2.0000      -0.753993       -20.5172
  43   2.0000      -0.734401       -19.9841
  44   2.0000      -0.727870       -19.8064
  45   2.0000      -0.692296       -18.8383
  46   2.0000      -0.686764       -18.6878
  47   2.0000      -0.680405       -18.5148
  48   2.0000      -0.670403       -18.2426
  49   2.0000      -0.664083       -18.0706
  50   2.0000      -0.646285       -17.5863
  51   2.0000      -0.643455       -17.5093
  52   2.0000      -0.634353       -17.2616
  53   2.0000      -0.606002       -16.4902
  54   2.0000      -0.600268       -16.3341
  55   2.0000      -0.597472       -16.2580
  56   2.0000      -0.593262       -16.1435
  57   2.0000      -0.588877       -16.0242
  58   2.0000      -0.574796       -15.6410
  59   2.0000      -0.569161       -15.4877
  60   2.0000      -0.561367       -15.2756
  61   2.0000      -0.549889       -14.9632
  62   2.0000      -0.537073       -14.6145
  63   2.0000      -0.518352       -14.1051
  64   2.0000      -0.516842       -14.0640
  65   2.0000      -0.511300       -13.9132
  66   2.0000      -0.503082       -13.6896
  67   2.0000      -0.495591       -13.4857
  68   2.0000      -0.480724       -13.0812
  69   2.0000      -0.463115       -12.6020
  70   2.0000      -0.456451       -12.4207
  71   2.0000      -0.451243       -12.2789
  72   2.0000      -0.354184        -9.6378
  73   2.0000      -0.346461        -9.4277
  74   2.0000      -0.328185        -8.9304
  75   2.0000      -0.318367        -8.6632
  76   2.0000      -0.316648        -8.6164
  77   0.0000       0.072892         1.9835
  78   0.0000       0.108932         2.9642
  79   0.0000       0.120990         3.2923
  80   0.0000       0.134480         3.6594
  81   0.0000       0.139036         3.7834

MULLIKEN ATOMIC CHARGES
-----------------------
   0 C :   -0.270798
   1 C :    0.039967
   2 O :   -0.369493
   3 C :    0.431344
   4 O :   -0.402601
   5 C :   -0.173299
   6 C :    0.150346
   7 C :   -0.278563
   8 N :   -0.127452
   9 C :    0.207083
  10 S :   -0.440667
  11 N :   -0.211178
  12 C :    0.041753
  13 C :    0.033467
  14 C :   -0.174758
  15 C :   -0.133684
  16 C :   -0.277800
  17 C :    0.314028
  18 O :   -0.358625
  19 C :   -0.254107
  20 H :    0.118380
  21 H :    0.091564
  22 H :    0.087545
  23 H :    0.098347
  24 H :    0.091827
  25 H :    0.127565
  26 H :    0.102262
  27 H :    0.125402
  28 H :    0.198955
  29 H :    0.199825
  30 H :    0.156666
  31 H :    0.161570
  32 H :    0.161001
  33 H :    0.129127
  34 H :    0.240259
  35 H :    0.164745
Sum of atomic charges:   -0.0000000

LOEWDIN ATOMIC CHARGES
----------------------
   0 C :    0.106187
   1 C :   -0.018044
   2 O :    0.295837
   3 C :   -0.419037
   4 O :    0.122083
   5 C :   -0.095717
   6 C :   -0.064288
   7 C :    0.126074
   8 N :    0.405823
   9 C :   -0.458318
  10 S :   -0.036395
  11 N :    0.396161
  12 C :   -0.048569
  13 C :   -0.041393
  14 C :    0.023996
  15 C :    0.041116
  16 C :   -0.001221
  17 C :   -0.192957
  18 O :    0.393211
  19 C :    0.028698
  20 H :   -0.024247
  21 H :   -0.028064
  22 H :   -0.030011
  23 H :   -0.026930
  24 H :   -0.027998
  25 H :   -0.007775
  26 H :   -0.020689
  27 H :   -0.009692
  28 H :   -0.058326
  29 H :   -0.063290
  30 H :   -0.007789
  31 H :   -0.023617
  32 H :   -0.020647
  33 H :   -0.035897
  34 H :   -0.154512
  35 H :   -0.023762

  Mayer bond orders larger than 0.100000
B(  0-C ,  1-C ) :   0.9810 B(  0-C , 20-H ) :   0.9721 B(  0-C , 21-H ) :   0.9767
B(  0-C , 22-H ) :   0.9758 B(  1-C ,  2-O ) :   0.8968 B(  1-C , 23-H ) :   0.9826
B(  1-C , 24-H ) :   0.9723 B(  2-O ,  3-C ) :   1.0638 B(  3-C ,  4-O ) :   2.0115
B(  3-C ,  5-C ) :   1.0408 B(  5-C ,  6-C ) :   1.6595 B(  5-C , 12-C ) :   0.9468
B(  6-C ,  7-C ) :   0.9542 B(  6-C ,  8-N ) :   1.1377 B(  7-C , 25-H ) :   0.9655
B(  7-C , 26-H ) :   0.9901 B(  7-C , 27-H ) :   0.9644 B(  8-N ,  9-C ) :   1.1844
B(  8-N , 28-H ) :   0.9469 B(  9-C , 10-S ) :   1.6105 B(  9-C , 11-N ) :   1.3046
B( 11-N , 12-C ) :   0.9775 B( 11-N , 29-H ) :   0.9484 B( 12-C , 13-C ) :   0.9705
B( 12-C , 30-H ) :   0.9963 B( 13-C , 14-C ) :   1.3786 B( 13-C , 19-C ) :   1.3633
B( 14-C , 15-C ) :   1.3970 B( 14-C , 31-H ) :   0.9628 B( 15-C , 16-C ) :   1.3592
B( 15-C , 32-H ) :   0.9709 B( 16-C , 17-C ) :   1.3329 B( 16-C , 33-H ) :   0.9857
B( 17-C , 18-O ) :   1.1045 B( 17-C , 19-C ) :   1.3669 B( 18-O , 34-H ) :   0.9803
B( 19-C , 35-H ) :   0.9599

MP2 TOTAL ENERGY:    -1274.328031977 Eh
FINAL SINGLE POINT ENERGY     -1274.328031976579

DIPOLE MOMENT
-------------
                                X             Y             Z
Electronic contribution:     10.05988      10.46853      10.32921
Nuclear contribution   :    -11.63899     -11.59127     -11.00421
                        -----------------------------------------
Total Dipole Moment    :     -1.57911      -1.12274      -0.67500
                        -----------------------------------------
Magnitude (a.u.)       :      2.05176
Magnitude (Debye)      :      5.21517

Rotational constants in cm-1:     0.010151     0.009158     0.005694
Rotational constants in MHz :   304.310714   274.543272   170.688347

                             ****ORCA TERMINATED NORMALLY****
TOTAL RUN TIME: 0 days 1 hours 36 minutes 8 seconds 243 msec
