                         Program Version 4.2.0 -  RELEASE  -
|  1> ! ri-mp2 cc-pvtz cc-pvtz/c TightSCF NoKeepInts
|  2>
|  3> %scf
|  4>   MaxCore 4096
|  5> end
|  6> *xyz  0  1
|  7>     C       14.7448571   14.6210234   14.8101268
|  8>     C       14.9774341   15.9538387   14.0626281
|  9>     O       15.6933718   16.9512911   14.8332592
| 10>     C       16.6598044   16.6933055   15.7685119
| 11>     O       17.2350844   15.6224013   15.8609863
| 12>     C       16.9651147   17.8420627   16.6915724
| 13>     C       16.7850614   19.1457891   16.3468057
| 14>     C       16.0588996   19.7055721   15.1389026
| 15>     N       17.3307479   20.1707942   17.1244005
| 16>     C       18.2419824   19.9833973   18.1279477
| 17>     S       18.9275445   21.2551049   18.9332232
| 18>     N       18.5727602   18.6840266   18.4152259
| 19>     C       17.9226852   17.4913096   17.8389186
| 20>     C       17.3017240   16.5823733   18.8918060
| 21>     C       17.6631272   15.2254103   18.9716573
| 22>     C       17.0900727   14.3890647   19.9443311
| 23>     C       16.1486984   14.9147511   20.8458958
| 24>     C       15.7854583   16.2663229   20.7673477
| 25>     O       14.8737817   16.7754484   21.6339669
| 26>     C       16.3571805   17.0960590   19.7975085
| 27>     H       15.6542041   14.0081727   14.8337275
| 28>     H       13.9712854   14.0332803   14.3015973
| 29>     H       14.4120609   14.7994993   15.8403736
| 30>     H       15.5394406   15.7378938   13.1446049
| 31>     H       14.0086737   16.3729792   13.7619750
| 32>     H       15.0006631   19.4163775   15.1544316
| 33>     H       16.5018584   19.3283770   14.2087038
| 34>     H       16.0941583   20.8007064   15.0893322
| 35>     H       17.1141386   21.1312505   16.9115514
| 36>     H       19.2300385   18.5709727   19.1765944
| 37>     H       18.7891928   17.0041379   17.3684335
| 38>     H       18.3795156   14.8150356   18.2638275
| 39>     H       17.3724233   13.3389266   19.9918195
| 40>     H       15.7025652   14.2720498   21.5974083
| 41>     H       14.6153632   16.0608196   22.2349973
| 42>     H       16.0660278   18.1401747   19.7536000
| 43> *
| 44>
| 45>                          ****END OF INPUT****

CARTESIAN COORDINATES (ANGSTROEM)
---------------------------------
  C     14.744857   14.621023   14.810127
  C     14.977434   15.953839   14.062628
  O     15.693372   16.951291   14.833259
  C     16.659804   16.693306   15.768512
  O     17.235084   15.622401   15.860986
  C     16.965115   17.842063   16.691572
  C     16.785061   19.145789   16.346806
  C     16.058900   19.705572   15.138903
  N     17.330748   20.170794   17.124401
  C     18.241982   19.983397   18.127948
  S     18.927544   21.255105   18.933223
  N     18.572760   18.684027   18.415226
  C     17.922685   17.491310   17.838919
  C     17.301724   16.582373   18.891806
  C     17.663127   15.225410   18.971657
  C     17.090073   14.389065   19.944331
  C     16.148698   14.914751   20.845896
  C     15.785458   16.266323   20.767348
  O     14.873782   16.775448   21.633967
  C     16.357180   17.096059   19.797508
  H     15.654204   14.008173   14.833727
  H     13.971285   14.033280   14.301597
  H     14.412061   14.799499   15.840374
  H     15.539441   15.737894   13.144605
  H     14.008674   16.372979   13.761975
  H     15.000663   19.416377   15.154432
  H     16.501858   19.328377   14.208704
  H     16.094158   20.800706   15.089332
  H     17.114139   21.131251   16.911551
  H     19.230038   18.570973   19.176594
  H     18.789193   17.004138   17.368433
  H     18.379516   14.815036   18.263828
  H     17.372423   13.338927   19.991819
  H     15.702565   14.272050   21.597408
  H     14.615363   16.060820   22.234997
  H     16.066028   18.140175   19.753600

 Total Charge           Charge          ....    0
 Multiplicity           Mult            ....    1
 Number of Electrons    NEL             ....  154
 Basis Dimension        Dim             ....  828

ORBITAL ENERGIES
----------------

  NO   OCC          E(Eh)            E(eV)
   0   2.0000     -91.887082     -2500.3746
   1   2.0000     -20.600826      -560.5770
   2   2.0000     -20.591330      -560.3186
   3   2.0000     -20.544118      -559.0339
   4   2.0000     -15.627315      -425.2409
   5   2.0000     -15.604841      -424.6293
   6   2.0000     -11.397955      -310.1541
   7   2.0000     -11.381515      -309.7068
   8   2.0000     -11.336878      -308.4921
   9   2.0000     -11.307297      -307.6872
  10   2.0000     -11.306147      -307.6559
  11   2.0000     -11.303272      -307.5777
  12   2.0000     -11.260551      -306.4152
  13   2.0000     -11.257807      -306.3405
  14   2.0000     -11.254437      -306.2488
  15   2.0000     -11.247403      -306.0574
  16   2.0000     -11.237600      -305.7906
  17   2.0000     -11.233637      -305.6828
  18   2.0000     -11.230391      -305.5945
  19   2.0000     -11.225505      -305.4615
  20   2.0000      -8.892176      -241.9684
  21   2.0000      -6.573756      -178.8810
  22   2.0000      -6.571751      -178.8264
  23   2.0000      -6.571166      -178.8105
  24   2.0000      -1.447735       -39.3949
  25   2.0000      -1.411080       -38.3974
  26   2.0000      -1.356436       -36.9105
  27   2.0000      -1.338878       -36.4327
  28   2.0000      -1.236144       -33.6372
  29   2.0000      -1.151712       -31.3397
  30   2.0000      -1.119302       -30.4578
  31   2.0000      -1.041891       -28.3513
  32   2.0000      -1.033806       -28.1313
  33   2.0000      -1.009308       -27.4647
  34   2.0000      -0.997600       -27.1461
  35   2.0000      -0.982346       -26.7310
  36   2.0000      -0.920375       -25.0447
  37   2.0000      -0.897196       -24.4140
  38   2.0000      -0.847218       -23.0540
  39   2.0000      -0.834635       -22.7116
  40   2.0000      -0.827566       -22.5192
  41   2.0000      -0.816786       -22.2259
  42   2.0000      -0.744357       -20.2550
  43   2.0000      -0.730922       -19.8894
  44   2.0000      -0.725135       -19.7319
  45   2.0000      -0.689105       -18.7515
  46   2.0000      -0.684469       -18.6253
  47   2.0000      -0.678107       -18.4522
  48   2.0000      -0.670484       -18.2448
  49   2.0000      -0.660868       -17.9831
  50   2.0000      -0.649276       -17.6677
  51   2.0000      -0.642732       -17.4896
  52   2.0000      -0.630764       -17.1640
  53   2.0000      -0.613890       -16.7048
  54   2.0000      -0.602404       -16.3922
  55   2.0000      -0.597616       -16.2620
  56   2.0000      -0.594652       -16.1813
  57   2.0000      -0.576817       -15.6960
  58   2.0000      -0.573123       -15.5955
  59   2.0000      -0.566112       -15.4047
  60   2.0000      -0.557507       -15.1705
  61   2.0000      -0.543749       -14.7962
  62   2.0000      -0.538056       -14.6412
  63   2.0000      -0.524279       -14.2663
  64   2.0000      -0.514450       -13.9989
  65   2.0000      -0.510389       -13.8884
  66   2.0000      -0.500222       -13.6117
  67   2.0000      -0.493452       -13.4275
  68   2.0000      -0.479370       -13.0443
  69   2.0000      -0.463999       -12.6261
  70   2.0000      -0.454867       -12.3776
  71   2.0000      -0.447601       -12.1798
  72   2.0000      -0.351967        -9.5775
  73   2.0000      -0.344035        -9.3617
  74   2.0000      -0.326239        -8.8774
  75   2.0000      -0.316229        -8.6050
  76   2.0000      -0.313894        -8.5415
  77   0.0000       0.078528         2.1369
  78   0.0000       0.112142         3.0515
  79   0.0000       0.122085         3.3221
  80   0.0000       0.136248         3.7075
  81   0.0000       0.140713         3.8290

MULLIKEN ATOMIC CHARGES
-----------------------
   0 C :   -0.303409
   1 C :    0.050400
   2 O :   -0.353234
   3 C :    0.429360
   4 O :   -0.424696
   5 C :   -0.175777
   6 C :    0.160817
   7 C :   -0.280078
   8 N :   -0.128842
   9 C :    0.207587
  10 S :   -0.444061
  11 N :   -0.211031
  12 C :    0.044633
  13 C :    0.031263
  14 C :   -0.169057
  15 C :   -0.134385
  16 C :   -0.277359
  17 C :    0.314550
  18 O :   -0.359028
  19 C :   -0.252137
  20 H :    0.126540
  21 H :    0.095925
  22 H :    0.101782
  23 H :    0.090396
  24 H :    0.099776
  25 H :    0.128722
  26 H :    0.124893
  27 H :    0.101657
  28 H :    0.198616
  29 H :    0.199847
  30 H :    0.155918
  31 H :    0.159164
  32 H :    0.159746
  33 H :    0.128121
  34 H :    0.239819
  35 H :    0.163565
Sum of atomic charges:   -0.0000000

LOEWDIN ATOMIC CHARGES
----------------------
   0 C :    0.104574
   1 C :   -0.009239
   2 O :    0.295126
   3 C :   -0.414215
   4 O :    0.110428
   5 C :   -0.090744
   6 C :   -0.064254
   7 C :    0.124370
   8 N :    0.405175
   9 C :   -0.458957
  10 S :   -0.038919
  11 N :    0.396628
  12 C :   -0.048313
  13 C :   -0.040519
  14 C :    0.024634
  15 C :    0.040522
  16 C :   -0.001396
  17 C :   -0.192592
  18 O :    0.393062
  19 C :    0.029724
  20 H :   -0.024550
  21 H :   -0.027722
  22 H :   -0.025496
  23 H :   -0.029892
  24 H :   -0.025447
  25 H :   -0.009567
  26 H :   -0.009526
  27 H :   -0.021668
  28 H :   -0.059023
  29 H :   -0.063148
  30 H :   -0.008740
  31 H :   -0.024095
  32 H :   -0.021204
  33 H :   -0.036259
  34 H :   -0.154968
  35 H :   -0.023790

  Mayer bond orders larger than 0.100000
B(  0-C ,  1-C ) :   0.9665 B(  0-C , 20-H ) :   0.9721 B(  0-C , 21-H ) :   0.9752
B(  0-C , 22-H ) :   0.9748 B(  1-C ,  2-O ) :   0.9027 B(  1-C , 23-H ) :   0.9808
B(  1-C , 24-H ) :   0.9821 B(  2-O ,  3-C ) :   1.1484 B(  3-C ,  4-O ) :   1.9771
B(  3-C ,  5-C ) :   1.0385 B(  5-C ,  6-C ) :   1.6576 B(  5-C , 12-C ) :   0.9505
B(  6-C ,  7-C ) :   0.9536 B(  6-C ,  8-N ) :   1.1358 B(  7-C , 25-H ) :   0.9638
B(  7-C , 26-H ) :   0.9651 B(  7-C , 27-H ) :   0.9918 B(  8-N ,  9-C ) :   1.1863
B(  8-N , 28-H ) :   0.9470 B(  9-C , 10-S ) :   1.6064 B(  9-C , 11-N ) :   1.3068
B( 11-N , 12-C ) :   0.9767 B( 11-N , 29-H ) :   0.9486 B( 12-C , 13-C ) :   0.9723
B( 12-C , 30-H ) :   0.9977 B( 13-C , 14-C ) :   1.3758 B( 13-C , 19-C ) :   1.3667
B( 14-C , 15-C ) :   1.3971 B( 14-C , 31-H ) :   0.9636 B( 15-C , 16-C ) :   1.3586
B( 15-C , 32-H ) :   0.9713 B( 16-C , 17-C ) :   1.3334 B( 16-C , 33-H ) :   0.9860
B( 17-C , 18-O ) :   1.1033 B( 17-C , 19-C ) :   1.3671 B( 18-O , 34-H ) :   0.9807
B( 19-C , 35-H ) :   0.9600

MP2 TOTAL ENERGY:    -1274.333985541 Eh
FINAL SINGLE POINT ENERGY     -1274.333985541396

DIPOLE MOMENT
-------------
                                X             Y             Z
Electronic contribution:      9.23813      10.41590      10.73837
Nuclear contribution   :    -10.74643     -11.68116     -11.92363
                        -----------------------------------------
Total Dipole Moment    :     -1.50830      -1.26527      -1.18526
                        -----------------------------------------
Magnitude (a.u.)       :      2.29798
Magnitude (Debye)      :      5.84099

Rotational constants in cm-1:     0.010008     0.009214     0.005608
Rotational constants in MHz :   300.022181   276.219115   168.136792

                             ****ORCA TERMINATED NORMALLY****
TOTAL RUN TIME: 0 days 1 hours 34 minutes 52 seconds 317 msec
