                         Program Version 4.2.0 -  RELEASE  -
|  1> ! ri-mp2 cc-pvtz cc-pvtz/c TightSCF NoKeepInts
|  2>
|  3> %scf
|  4>   MaxCore 4096
|  5> end
|  6> *xyz  0  1
|  7>     C       14.6270494   15.4757588   16.0653744
|  8>     C       15.0799124   15.7855658   14.6190871
|  9>     O       16.1480565   16.7560922   14.5869933
| 10>     C       17.1493146   16.6881672   15.5087261
| 11>     O       17.8506651   15.6969851   15.6176598
| 12>     C       17.1681267   17.8180918   16.4948111
| 13>     C       16.8632862   19.0943511   16.1459274
| 14>     C       16.2660601   19.5776287   14.8395015
| 15>     N       17.1423769   20.1547887   17.0114896
| 16>     C       17.9084259   20.0498146   18.1415735
| 17>     S       18.2820396   21.3684094   19.0673184
| 18>     N       18.3670580   18.7948504   18.4550508
| 19>     C       17.9856150   17.5489070   17.7617111
| 20>     C       17.3342748   16.5202125   18.6759157
| 21>     C       17.8502630   15.2152849   18.7691207
| 22>     C       17.2362181   14.2618185   19.5983414
| 23>     C       16.0961363   14.6164945   20.3398087
| 24>     C       15.5781654   15.9155594   20.2460242
| 25>     O       14.4724469   16.2583526   20.9537440
| 26>     C       16.1915765   16.8623567   19.4196574
| 27>     H       15.4061774   14.9437495   16.6269846
| 28>     H       13.7361930   14.8363198   16.0540668
| 29>     H       14.3747541   16.3972987   16.6048212
| 30>     H       15.4238594   14.8529210   14.1520146
| 31>     H       14.2299100   16.1602674   14.0345853
| 32>     H       15.2354666   19.2186254   14.7279272
| 33>     H       16.8466099   19.2086565   13.9844406
| 34>     H       16.2432957   20.6714717   14.7616662
| 35>     H       16.8324665   21.0856891   16.7825539
| 36>     H       18.9128570   18.7420425   19.3058963
| 37>     H       18.9700644   17.1985602   17.4183855
| 38>     H       18.7204864   14.9352490   18.1798546
| 39>     H       17.6409245   13.2530006   19.6576391
| 40>     H       15.6174476   13.8823412   20.9792736
| 41>     H       14.2227058   15.4913541   21.4907366
| 42>     H       15.7767144   17.8629634   19.3593176
| 43> *
| 44>
| 45>                          ****END OF INPUT****

CARTESIAN COORDINATES (ANGSTROEM)
---------------------------------
  C     14.627049   15.475759   16.065374
  C     15.079912   15.785566   14.619087
  O     16.148056   16.756092   14.586993
  C     17.149315   16.688167   15.508726
  O     17.850665   15.696985   15.617660
  C     17.168127   17.818092   16.494811
  C     16.863286   19.094351   16.145927
  C     16.266060   19.577629   14.839502
  N     17.142377   20.154789   17.011490
  C     17.908426   20.049815   18.141573
  S     18.282040   21.368409   19.067318
  N     18.367058   18.794850   18.455051
  C     17.985615   17.548907   17.761711
  C     17.334275   16.520212   18.675916
  C     17.850263   15.215285   18.769121
  C     17.236218   14.261819   19.598341
  C     16.096136   14.616494   20.339809
  C     15.578165   15.915559   20.246024
  O     14.472447   16.258353   20.953744
  C     16.191577   16.862357   19.419657
  H     15.406177   14.943749   16.626985
  H     13.736193   14.836320   16.054067
  H     14.374754   16.397299   16.604821
  H     15.423859   14.852921   14.152015
  H     14.229910   16.160267   14.034585
  H     15.235467   19.218625   14.727927
  H     16.846610   19.208657   13.984441
  H     16.243296   20.671472   14.761666
  H     16.832466   21.085689   16.782554
  H     18.912857   18.742043   19.305896
  H     18.970064   17.198560   17.418385
  H     18.720486   14.935249   18.179855
  H     17.640925   13.253001   19.657639
  H     15.617448   13.882341   20.979274
  H     14.222706   15.491354   21.490737
  H     15.776714   17.862963   19.359318

 Total Charge           Charge          ....    0
 Multiplicity           Mult            ....    1
 Number of Electrons    NEL             ....  154
 Basis Dimension        Dim             ....  828

ORBITAL ENERGIES
----------------

  NO   OCC          E(Eh)            E(eV)
   0   2.0000     -91.889163     -2500.4312
   1   2.0000     -20.595141      -560.4223
   2   2.0000     -20.587029      -560.2016
   3   2.0000     -20.549996      -559.1938
   4   2.0000     -15.629651      -425.3044
   5   2.0000     -15.607013      -424.6884
   6   2.0000     -11.394031      -310.0473
   7   2.0000     -11.384014      -309.7748
   8   2.0000     -11.338093      -308.5252
   9   2.0000     -11.311378      -307.7982
  10   2.0000     -11.305475      -307.6376
  11   2.0000     -11.303997      -307.5974
  12   2.0000     -11.259873      -306.3967
  13   2.0000     -11.259327      -306.3819
  14   2.0000     -11.257996      -306.3457
  15   2.0000     -11.251482      -306.1684
  16   2.0000     -11.241609      -305.8997
  17   2.0000     -11.237337      -305.7835
  18   2.0000     -11.234218      -305.6986
  19   2.0000     -11.228302      -305.5376
  20   2.0000      -8.894239      -242.0246
  21   2.0000      -6.575814      -178.9370
  22   2.0000      -6.573813      -178.8825
  23   2.0000      -6.573223      -178.8665
  24   2.0000      -1.449208       -39.4350
  25   2.0000      -1.414916       -38.5018
  26   2.0000      -1.355488       -36.8847
  27   2.0000      -1.340690       -36.4820
  28   2.0000      -1.238003       -33.6878
  29   2.0000      -1.155759       -31.4498
  30   2.0000      -1.122144       -30.5351
  31   2.0000      -1.044033       -28.4096
  32   2.0000      -1.031415       -28.0662
  33   2.0000      -1.013195       -27.5704
  34   2.0000      -1.001032       -27.2395
  35   2.0000      -0.986244       -26.8371
  36   2.0000      -0.923033       -25.1170
  37   2.0000      -0.896590       -24.3975
  38   2.0000      -0.848807       -23.0972
  39   2.0000      -0.837705       -22.7951
  40   2.0000      -0.831530       -22.6271
  41   2.0000      -0.817569       -22.2472
  42   2.0000      -0.746898       -20.3241
  43   2.0000      -0.733937       -19.9714
  44   2.0000      -0.728096       -19.8125
  45   2.0000      -0.692868       -18.8539
  46   2.0000      -0.686551       -18.6820
  47   2.0000      -0.677548       -18.4370
  48   2.0000      -0.670730       -18.2515
  49   2.0000      -0.661606       -18.0032
  50   2.0000      -0.652779       -17.7630
  51   2.0000      -0.646586       -17.5945
  52   2.0000      -0.634342       -17.2613
  53   2.0000      -0.618140       -16.8205
  54   2.0000      -0.604999       -16.4629
  55   2.0000      -0.601159       -16.3584
  56   2.0000      -0.598614       -16.2891
  57   2.0000      -0.579330       -15.7644
  58   2.0000      -0.575294       -15.6545
  59   2.0000      -0.563463       -15.3326
  60   2.0000      -0.553146       -15.0519
  61   2.0000      -0.547566       -14.9000
  62   2.0000      -0.536237       -14.5918
  63   2.0000      -0.534519       -14.5450
  64   2.0000      -0.519345       -14.1321
  65   2.0000      -0.510781       -13.8991
  66   2.0000      -0.498256       -13.5582
  67   2.0000      -0.493278       -13.4228
  68   2.0000      -0.481567       -13.1041
  69   2.0000      -0.464600       -12.6424
  70   2.0000      -0.456907       -12.4331
  71   2.0000      -0.449695       -12.2368
  72   2.0000      -0.353800        -9.6274
  73   2.0000      -0.347606        -9.4588
  74   2.0000      -0.328246        -8.9320
  75   2.0000      -0.318611        -8.6699
  76   2.0000      -0.318043        -8.6544
  77   0.0000       0.073583         2.0023
  78   0.0000       0.106421         2.8959
  79   0.0000       0.118980         3.2376
  80   0.0000       0.132913         3.6167
  81   0.0000       0.139604         3.7988

MULLIKEN ATOMIC CHARGES
-----------------------
   0 C :   -0.335850
   1 C :    0.050458
   2 O :   -0.380788
   3 C :    0.451632
   4 O :   -0.404121
   5 C :   -0.203022
   6 C :    0.159439
   7 C :   -0.280107
   8 N :   -0.127688
   9 C :    0.207894
  10 S :   -0.440773
  11 N :   -0.211844
  12 C :    0.052645
  13 C :    0.023305
  14 C :   -0.176770
  15 C :   -0.132669
  16 C :   -0.278561
  17 C :    0.316199
  18 O :   -0.358885
  19 C :   -0.254647
  20 H :    0.128631
  21 H :    0.111590
  22 H :    0.101667
  23 H :    0.105998
  24 H :    0.104670
  25 H :    0.123526
  26 H :    0.129121
  27 H :    0.102825
  28 H :    0.198551
  29 H :    0.199236
  30 H :    0.156108
  31 H :    0.162807
  32 H :    0.161865
  33 H :    0.130271
  34 H :    0.240523
  35 H :    0.166764
Sum of atomic charges:   -0.0000000

LOEWDIN ATOMIC CHARGES
----------------------
   0 C :    0.105142
   1 C :   -0.015564
   2 O :    0.289847
   3 C :   -0.421353
   4 O :    0.118137
   5 C :   -0.095060
   6 C :   -0.067059
   7 C :    0.126425
   8 N :    0.405586
   9 C :   -0.457539
  10 S :   -0.036634
  11 N :    0.396123
  12 C :   -0.048241
  13 C :   -0.041908
  14 C :    0.023816
  15 C :    0.040912
  16 C :   -0.001141
  17 C :   -0.193087
  18 O :    0.393684
  19 C :    0.030891
  20 H :   -0.021449
  21 H :   -0.024005
  22 H :   -0.029790
  23 H :   -0.027434
  24 H :   -0.025464
  25 H :   -0.010231
  26 H :   -0.007239
  27 H :   -0.020701
  28 H :   -0.058434
  29 H :   -0.063554
  30 H :   -0.007282
  31 H :   -0.023252
  32 H :   -0.020313
  33 H :   -0.035600
  34 H :   -0.154264
  35 H :   -0.023966

  Mayer bond orders larger than 0.100000
B(  0-C ,  1-C ) :   0.9560 B(  0-C , 20-H ) :   0.9671 B(  0-C , 21-H ) :   0.9760
B(  0-C , 22-H ) :   0.9721 B(  1-C ,  2-O ) :   0.9031 B(  1-C , 23-H ) :   0.9852
B(  1-C , 24-H ) :   0.9821 B(  2-O ,  3-C ) :   1.0735 B(  3-C ,  4-O ) :   2.0278
B(  3-C ,  5-C ) :   1.0222 B(  5-C ,  6-C ) :   1.6624 B(  5-C , 12-C ) :   0.9496
B(  6-C ,  7-C ) :   0.9545 B(  6-C ,  8-N ) :   1.1396 B(  7-C , 25-H ) :   0.9647
B(  7-C , 26-H ) :   0.9652 B(  7-C , 27-H ) :   0.9901 B(  8-N ,  9-C ) :   1.1848
B(  8-N , 28-H ) :   0.9470 B(  9-C , 10-S ) :   1.6111 B(  9-C , 11-N ) :   1.3033
B( 11-N , 12-C ) :   0.9799 B( 11-N , 29-H ) :   0.9488 B( 12-C , 13-C ) :   0.9645
B( 12-C , 30-H ) :   0.9958 B( 13-C , 14-C ) :   1.3808 B( 13-C , 19-C ) :   1.3613
B( 14-C , 15-C ) :   1.3949 B( 14-C , 31-H ) :   0.9624 B( 15-C , 16-C ) :   1.3597
B( 15-C , 32-H ) :   0.9708 B( 16-C , 17-C ) :   1.3320 B( 16-C , 33-H ) :   0.9852
B( 17-C , 18-O ) :   1.1054 B( 17-C , 19-C ) :   1.3642 B( 18-O , 34-H ) :   0.9802
B( 19-C , 35-H ) :   0.9600

MP2 TOTAL ENERGY:    -1274.329515074 Eh
FINAL SINGLE POINT ENERGY     -1274.329515074418

DIPOLE MOMENT
-------------
                                X             Y             Z
Electronic contribution:      9.11659       9.04482       7.30094
Nuclear contribution   :    -10.54471     -10.32059      -8.09501
                        -----------------------------------------
Total Dipole Moment    :     -1.42812      -1.27577      -0.79407
                        -----------------------------------------
Magnitude (a.u.)       :      2.07308
Magnitude (Debye)      :      5.26935

Rotational constants in cm-1:     0.011341     0.009248     0.006252
Rotational constants in MHz :   339.990188   277.257965   187.430232

                             ****ORCA TERMINATED NORMALLY****
TOTAL RUN TIME: 0 days 1 hours 49 minutes 20 seconds 530 msec
