                         Program Version 4.2.0 -  RELEASE  -
|  1> ! ri-mp2 cc-pvtz cc-pvtz/c TightSCF NoKeepInts
|  2>
|  3> %scf
|  4>   MaxCore 4096
|  5> end
|  6> *xyz  0  1
|  7>     C       15.4726071   14.0100342   14.8909196
|  8>     C       14.8500237   15.3578301   15.2915958
|  9>     O       15.9204900   16.2045452   15.7420861
| 10>     C       15.7828281   17.5624123   15.6771709
| 11>     O       14.9665759   18.0978521   14.9464799
| 12>     C       16.6803020   18.2809102   16.6492750
| 13>     C       16.8748026   19.6215862   16.5549807
| 14>     C       16.0873524   20.6047071   15.7134789
| 15>     N       17.8982284   20.2523928   17.2661056
| 16>     C       18.8889280   19.5951316   17.9439540
| 17>     S       20.1275073   20.4026120   18.6853318
| 18>     N       18.8136512   18.2254586   17.9584898
| 19>     C       17.6967561   17.4239483   17.4234234
| 20>     C       17.0732415   16.5134589   18.4734837
| 21>     C       17.2417040   15.1182250   18.4034355
| 22>     C       16.6648864   14.2802860   19.3725928
| 23>     C       15.9174445   14.8429889   20.4215310
| 24>     C       15.7524446   16.2331791   20.4956241
| 25>     O       15.0322717   16.7789260   21.5078244
| 26>     C       16.3271604   17.0644172   19.5290439
| 27>     H       14.6992049   13.3225452   14.5274548
| 28>     H       15.9702270   13.5442723   15.7504987
| 29>     H       16.2125296   14.1479217   14.0926584
| 30>     H       14.3506118   15.7855170   14.4113594
| 31>     H       14.1054100   15.2251421   16.0874297
| 32>     H       15.0130602   20.5155434   15.9201211
| 33>     H       16.2334391   20.4032491   14.6446056
| 34>     H       16.3683943   21.6486976   15.8953547
| 35>     H       17.9775117   21.2565055   17.2446911
| 36>     H       19.5409671   17.7694113   18.4946424
| 37>     H       18.2274534   16.8324131   16.6638999
| 38>     H       17.8145066   14.6826491   17.5890797
| 39>     H       16.7976693   13.2017175   19.3091741
| 40>     H       15.4704322   14.2002365   21.1727369
| 41>     H       14.7420939   16.0548092   22.0825020
| 42>     H       16.1942829   18.1384675   19.6049648
| 43> *
| 44>
| 45>                          ****END OF INPUT****

CARTESIAN COORDINATES (ANGSTROEM)
---------------------------------
  C     15.472607   14.010034   14.890920
  C     14.850024   15.357830   15.291596
  O     15.920490   16.204545   15.742086
  C     15.782828   17.562412   15.677171
  O     14.966576   18.097852   14.946480
  C     16.680302   18.280910   16.649275
  C     16.874803   19.621586   16.554981
  C     16.087352   20.604707   15.713479
  N     17.898228   20.252393   17.266106
  C     18.888928   19.595132   17.943954
  S     20.127507   20.402612   18.685332
  N     18.813651   18.225459   17.958490
  C     17.696756   17.423948   17.423423
  C     17.073242   16.513459   18.473484
  C     17.241704   15.118225   18.403436
  C     16.664886   14.280286   19.372593
  C     15.917444   14.842989   20.421531
  C     15.752445   16.233179   20.495624
  O     15.032272   16.778926   21.507824
  C     16.327160   17.064417   19.529044
  H     14.699205   13.322545   14.527455
  H     15.970227   13.544272   15.750499
  H     16.212530   14.147922   14.092658
  H     14.350612   15.785517   14.411359
  H     14.105410   15.225142   16.087430
  H     15.013060   20.515543   15.920121
  H     16.233439   20.403249   14.644606
  H     16.368394   21.648698   15.895355
  H     17.977512   21.256505   17.244691
  H     19.540967   17.769411   18.494642
  H     18.227453   16.832413   16.663900
  H     17.814507   14.682649   17.589080
  H     16.797669   13.201717   19.309174
  H     15.470432   14.200236   21.172737
  H     14.742094   16.054809   22.082502
  H     16.194283   18.138468   19.604965

 Total Charge           Charge          ....    0
 Multiplicity           Mult            ....    1
 Number of Electrons    NEL             ....  154
 Basis Dimension        Dim             ....  828

ORBITAL ENERGIES
----------------

  NO   OCC          E(Eh)            E(eV)
   0   2.0000     -91.889045     -2500.4280
   1   2.0000     -20.599508      -560.5411
   2   2.0000     -20.596624      -560.4626
   3   2.0000     -20.541294      -558.9570
   4   2.0000     -15.629382      -425.2971
   5   2.0000     -15.607183      -424.6930
   6   2.0000     -11.394328      -310.0554
   7   2.0000     -11.383684      -309.7658
   8   2.0000     -11.337511      -308.5094
   9   2.0000     -11.313840      -307.8653
  10   2.0000     -11.307742      -307.6993
  11   2.0000     -11.295126      -307.3560
  12   2.0000     -11.260943      -306.4258
  13   2.0000     -11.258954      -306.3717
  14   2.0000     -11.255348      -306.2736
  15   2.0000     -11.251646      -306.1728
  16   2.0000     -11.243758      -305.9582
  17   2.0000     -11.239142      -305.8326
  18   2.0000     -11.238875      -305.8253
  19   2.0000     -11.230406      -305.5949
  20   2.0000      -8.894112      -242.0211
  21   2.0000      -6.575684      -178.9335
  22   2.0000      -6.573687      -178.8791
  23   2.0000      -6.573095      -178.8630
  24   2.0000      -1.451305       -39.4920
  25   2.0000      -1.416293       -38.5393
  26   2.0000      -1.354321       -36.8529
  27   2.0000      -1.340516       -36.4773
  28   2.0000      -1.238407       -33.6988
  29   2.0000      -1.157737       -31.5036
  30   2.0000      -1.121222       -30.5100
  31   2.0000      -1.043391       -28.3921
  32   2.0000      -1.040078       -28.3020
  33   2.0000      -1.015257       -27.6265
  34   2.0000      -0.996474       -27.1154
  35   2.0000      -0.984850       -26.7991
  36   2.0000      -0.921936       -25.0872
  37   2.0000      -0.887566       -24.1519
  38   2.0000      -0.846403       -23.0318
  39   2.0000      -0.837967       -22.8022
  40   2.0000      -0.834334       -22.7034
  41   2.0000      -0.818173       -22.2636
  42   2.0000      -0.765231       -20.8230
  43   2.0000      -0.733711       -19.9653
  44   2.0000      -0.721135       -19.6231
  45   2.0000      -0.695332       -18.9209
  46   2.0000      -0.686321       -18.6757
  47   2.0000      -0.679078       -18.4786
  48   2.0000      -0.676996       -18.4220
  49   2.0000      -0.661385       -17.9972
  50   2.0000      -0.647177       -17.6106
  51   2.0000      -0.640758       -17.4359
  52   2.0000      -0.633311       -17.2333
  53   2.0000      -0.607050       -16.5187
  54   2.0000      -0.603853       -16.4317
  55   2.0000      -0.599997       -16.3267
  56   2.0000      -0.598745       -16.2927
  57   2.0000      -0.577576       -15.7166
  58   2.0000      -0.569799       -15.5050
  59   2.0000      -0.566365       -15.4116
  60   2.0000      -0.561327       -15.2745
  61   2.0000      -0.544722       -14.8226
  62   2.0000      -0.541570       -14.7369
  63   2.0000      -0.524792       -14.2803
  64   2.0000      -0.524315       -14.2673
  65   2.0000      -0.513307       -13.9678
  66   2.0000      -0.502099       -13.6628
  67   2.0000      -0.497168       -13.5286
  68   2.0000      -0.484947       -13.1961
  69   2.0000      -0.464623       -12.6430
  70   2.0000      -0.458455       -12.4752
  71   2.0000      -0.446263       -12.1434
  72   2.0000      -0.353132        -9.6092
  73   2.0000      -0.349960        -9.5229
  74   2.0000      -0.328179        -8.9302
  75   2.0000      -0.321186        -8.7399
  76   2.0000      -0.318246        -8.6599
  77   0.0000       0.076437         2.0799
  78   0.0000       0.104033         2.8309
  79   0.0000       0.125076         3.4035
  80   0.0000       0.132385         3.6024
  81   0.0000       0.136036         3.7017

MULLIKEN ATOMIC CHARGES
-----------------------
   0 C :   -0.269453
   1 C :    0.024200
   2 O :   -0.345576
   3 C :    0.442233
   4 O :   -0.433221
   5 C :   -0.228597
   6 C :    0.172094
   7 C :   -0.268296
   8 N :   -0.126205
   9 C :    0.210032
  10 S :   -0.441473
  11 N :   -0.215020
  12 C :    0.058002
  13 C :    0.042998
  14 C :   -0.184020
  15 C :   -0.131851
  16 C :   -0.276222
  17 C :    0.316034
  18 O :   -0.356715
  19 C :   -0.248977
  20 H :    0.094773
  21 H :    0.091002
  22 H :    0.097131
  23 H :    0.121737
  24 H :    0.095540
  25 H :    0.133846
  26 H :    0.129074
  27 H :    0.094465
  28 H :    0.199883
  29 H :    0.200508
  30 H :    0.152801
  31 H :    0.155066
  32 H :    0.160611
  33 H :    0.130181
  34 H :    0.240557
  35 H :    0.162857
Sum of atomic charges:   -0.0000000

LOEWDIN ATOMIC CHARGES
----------------------
   0 C :    0.106029
   1 C :   -0.014131
   2 O :    0.309503
   3 C :   -0.414623
   4 O :    0.096513
   5 C :   -0.095870
   6 C :   -0.056032
   7 C :    0.131251
   8 N :    0.407240
   9 C :   -0.456607
  10 S :   -0.036200
  11 N :    0.394640
  12 C :   -0.054707
  13 C :   -0.039460
  14 C :    0.017033
  15 C :    0.038407
  16 C :   -0.000659
  17 C :   -0.189722
  18 O :    0.395064
  19 C :    0.033281
  20 H :   -0.024766
  21 H :   -0.030911
  22 H :   -0.026233
  23 H :   -0.027495
  24 H :   -0.029960
  25 H :   -0.004134
  26 H :   -0.004986
  27 H :   -0.023671
  28 H :   -0.057115
  29 H :   -0.064320
  30 H :   -0.013659
  31 H :   -0.030077
  32 H :   -0.021566
  33 H :   -0.035413
  34 H :   -0.153979
  35 H :   -0.022664

  Mayer bond orders larger than 0.100000
B(  0-C ,  1-C ) :   0.9726 B(  0-C , 20-H ) :   0.9775 B(  0-C , 21-H ) :   0.9788
B(  0-C , 22-H ) :   0.9773 B(  1-C ,  2-O ) :   0.8932 B(  1-C , 23-H ) :   0.9782
B(  1-C , 24-H ) :   0.9745 B(  2-O ,  3-C ) :   1.1640 B(  3-C ,  4-O ) :   1.9741
B(  3-C ,  5-C ) :   1.0642 B(  5-C ,  6-C ) :   1.6390 B(  5-C , 12-C ) :   0.9568
B(  6-C ,  7-C ) :   0.9656 B(  6-C ,  8-N ) :   1.1534 B(  7-C , 25-H ) :   0.9610
B(  7-C , 26-H ) :   0.9588 B(  7-C , 27-H ) :   0.9905 B(  8-N ,  9-C ) :   1.1874
B(  8-N , 28-H ) :   0.9464 B(  9-C , 10-S ) :   1.6066 B(  9-C , 11-N ) :   1.3091
B( 11-N , 12-C ) :   0.9687 B( 11-N , 29-H ) :   0.9484 B( 12-C , 13-C ) :   0.9626
B( 12-C , 30-H ) :   1.0015 B( 13-C , 14-C ) :   1.3583 B( 13-C , 19-C ) :   1.3799
B( 14-C , 15-C ) :   1.3906 B( 14-C , 31-H ) :   0.9698 B( 15-C , 16-C ) :   1.3611
B( 15-C , 32-H ) :   0.9704 B( 16-C , 17-C ) :   1.3344 B( 16-C , 33-H ) :   0.9849
B( 17-C , 18-O ) :   1.1046 B( 17-C , 19-C ) :   1.3646 B( 18-O , 34-H ) :   0.9799
B( 19-C , 35-H ) :   0.9596

MP2 TOTAL ENERGY:    -1274.342566126 Eh
FINAL SINGLE POINT ENERGY     -1274.342566126331

DIPOLE MOMENT
-------------
                                X             Y             Z
Electronic contribution:      8.63653      11.11820       8.51952
Nuclear contribution   :     -9.83426     -12.72731      -8.81018
                        -----------------------------------------
Total Dipole Moment    :     -1.19773      -1.60911      -0.29066
                        -----------------------------------------
Magnitude (a.u.)       :      2.02689
Magnitude (Debye)      :      5.15195

Rotational constants in cm-1:     0.011268     0.008415     0.005907
Rotational constants in MHz :   337.801338   252.277442   177.096974

                             ****ORCA TERMINATED NORMALLY****
TOTAL RUN TIME: 0 days 1 hours 41 minutes 8 seconds 687 msec
