                         Program Version 4.2.0 -  RELEASE  -
|  1> ! ri-mp2 cc-pvtz cc-pvtz/c TightSCF NoKeepInts
|  2>
|  3> %scf
|  4>   MaxCore 4096
|  5> end
|  6> *xyz  0  1
|  7>     C       14.3284038   15.0797575   15.2613217
|  8>     C       15.8439976   14.7773156   15.2402717
|  9>     O       16.6612493   15.8846181   15.6879605
| 10>     C       16.3543684   17.2063649   15.5002807
| 11>     O       15.6717474   17.5991690   14.5703245
| 12>     C       16.9637380   18.0908611   16.5556878
| 13>     C       17.0358009   19.4360940   16.3843350
| 14>     C       16.3423924   20.2632716   15.3214762
| 15>     N       17.8193092   20.2281119   17.2268755
| 16>     C       18.7015845   19.7382219   18.1512954
| 17>     S       19.6654294   20.7328109   19.0555360
| 18>     N       18.7604310   18.3733755   18.2760512
| 19>     C       17.8740545   17.4120646   17.5933258
| 20>     C       17.1320392   16.5060432   18.5674787
| 21>     C       17.4785488   15.1475829   18.6877015
| 22>     C       16.7894237   14.3120239   19.5827912
| 23>     C       15.7480452   14.8403931   20.3650279
| 24>     C       15.4044012   16.1946088   20.2498848
| 25>     O       14.3999970   16.7073272   21.0043765
| 26>     C       16.0921289   17.0236230   19.3581767
| 27>     H       14.0368600   15.5550346   16.2064141
| 28>     H       13.7576623   14.1487669   15.1617043
| 29>     H       14.0332679   15.7318513   14.4304588
| 30>     H       16.0501777   13.9079311   15.8777379
| 31>     H       16.1286811   14.5104156   14.2141363
| 32>     H       16.7256437   20.0114713   14.3243933
| 33>     H       16.4714296   21.3426695   15.4634570
| 34>     H       15.2635498   20.0612444   15.3183429
| 35>     H       17.8013546   21.2307889   17.1306353
| 36>     H       19.3966154   18.0430076   18.9905164
| 37>     H       18.6117987   16.8381302   17.0148134
| 38>     H       18.2801243   14.7376132   18.0791053
| 39>     H       17.0627239   13.2617833   19.6685469
| 40>     H       15.2130719   14.1993683   21.0579907
| 41>     H       14.0703660   15.9958342   21.5735510
| 42>     H       15.8165830   18.0704511   19.2860172
| 43> *
| 44>
| 45>                          ****END OF INPUT****

CARTESIAN COORDINATES (ANGSTROEM)
---------------------------------
  C     14.328404   15.079757   15.261322
  C     15.843998   14.777316   15.240272
  O     16.661249   15.884618   15.687960
  C     16.354368   17.206365   15.500281
  O     15.671747   17.599169   14.570324
  C     16.963738   18.090861   16.555688
  C     17.035801   19.436094   16.384335
  C     16.342392   20.263272   15.321476
  N     17.819309   20.228112   17.226875
  C     18.701584   19.738222   18.151295
  S     19.665429   20.732811   19.055536
  N     18.760431   18.373376   18.276051
  C     17.874054   17.412065   17.593326
  C     17.132039   16.506043   18.567479
  C     17.478549   15.147583   18.687701
  C     16.789424   14.312024   19.582791
  C     15.748045   14.840393   20.365028
  C     15.404401   16.194609   20.249885
  O     14.399997   16.707327   21.004376
  C     16.092129   17.023623   19.358177
  H     14.036860   15.555035   16.206414
  H     13.757662   14.148767   15.161704
  H     14.033268   15.731851   14.430459
  H     16.050178   13.907931   15.877738
  H     16.128681   14.510416   14.214136
  H     16.725644   20.011471   14.324393
  H     16.471430   21.342669   15.463457
  H     15.263550   20.061244   15.318343
  H     17.801355   21.230789   17.130635
  H     19.396615   18.043008   18.990516
  H     18.611799   16.838130   17.014813
  H     18.280124   14.737613   18.079105
  H     17.062724   13.261783   19.668547
  H     15.213072   14.199368   21.057991
  H     14.070366   15.995834   21.573551
  H     15.816583   18.070451   19.286017

 Total Charge           Charge          ....    0
 Multiplicity           Mult            ....    1
 Number of Electrons    NEL             ....  154
 Basis Dimension        Dim             ....  828

ORBITAL ENERGIES
----------------

  NO   OCC          E(Eh)            E(eV)
   0   2.0000     -91.888485     -2500.4128
   1   2.0000     -20.597377      -560.4831
   2   2.0000     -20.595095      -560.4210
   3   2.0000     -20.540774      -558.9429
   4   2.0000     -15.628781      -425.2808
   5   2.0000     -15.606600      -424.6772
   6   2.0000     -11.395719      -310.0933
   7   2.0000     -11.383154      -309.7514
   8   2.0000     -11.336719      -308.4878
   9   2.0000     -11.314619      -307.8864
  10   2.0000     -11.306885      -307.6760
  11   2.0000     -11.301066      -307.5176
  12   2.0000     -11.261422      -306.4389
  13   2.0000     -11.258490      -306.3591
  14   2.0000     -11.256103      -306.2941
  15   2.0000     -11.251289      -306.1632
  16   2.0000     -11.244355      -305.9745
  17   2.0000     -11.239566      -305.8441
  18   2.0000     -11.239403      -305.8397
  19   2.0000     -11.223439      -305.4053
  20   2.0000      -8.893560      -242.0061
  21   2.0000      -6.575134      -178.9185
  22   2.0000      -6.573134      -178.8641
  23   2.0000      -6.572545      -178.8480
  24   2.0000      -1.444839       -39.3161
  25   2.0000      -1.417047       -38.5598
  26   2.0000      -1.352630       -36.8069
  27   2.0000      -1.339896       -36.4604
  28   2.0000      -1.237830       -33.6831
  29   2.0000      -1.158142       -31.5146
  30   2.0000      -1.120549       -30.4917
  31   2.0000      -1.042959       -28.3804
  32   2.0000      -1.034966       -28.1629
  33   2.0000      -1.015774       -27.6406
  34   2.0000      -0.995942       -27.1010
  35   2.0000      -0.984155       -26.7802
  36   2.0000      -0.921689       -25.0804
  37   2.0000      -0.897621       -24.4255
  38   2.0000      -0.846560       -23.0361
  39   2.0000      -0.838591       -22.8192
  40   2.0000      -0.834878       -22.7182
  41   2.0000      -0.816915       -22.2294
  42   2.0000      -0.746251       -20.3065
  43   2.0000      -0.733230       -19.9522
  44   2.0000      -0.720240       -19.5987
  45   2.0000      -0.695897       -18.9363
  46   2.0000      -0.688084       -18.7237
  47   2.0000      -0.676429       -18.4066
  48   2.0000      -0.671852       -18.2820
  49   2.0000      -0.657135       -17.8815
  50   2.0000      -0.648721       -17.6526
  51   2.0000      -0.640598       -17.4316
  52   2.0000      -0.634176       -17.2568
  53   2.0000      -0.617214       -16.7952
  54   2.0000      -0.607359       -16.5271
  55   2.0000      -0.600933       -16.3522
  56   2.0000      -0.599395       -16.3104
  57   2.0000      -0.577745       -15.7213
  58   2.0000      -0.570011       -15.5108
  59   2.0000      -0.566758       -15.4223
  60   2.0000      -0.557223       -15.1628
  61   2.0000      -0.542466       -14.7612
  62   2.0000      -0.535154       -14.5623
  63   2.0000      -0.524910       -14.2835
  64   2.0000      -0.521495       -14.1906
  65   2.0000      -0.513188       -13.9646
  66   2.0000      -0.501143       -13.6368
  67   2.0000      -0.497889       -13.5482
  68   2.0000      -0.484852       -13.1935
  69   2.0000      -0.462706       -12.5909
  70   2.0000      -0.454401       -12.3649
  71   2.0000      -0.441992       -12.0272
  72   2.0000      -0.352531        -9.5928
  73   2.0000      -0.350230        -9.5302
  74   2.0000      -0.327796        -8.9198
  75   2.0000      -0.321985        -8.7617
  76   2.0000      -0.317709        -8.6453
  77   0.0000       0.077223         2.1014
  78   0.0000       0.103723         2.8224
  79   0.0000       0.125023         3.4021
  80   0.0000       0.132635         3.6092
  81   0.0000       0.137404         3.7389

MULLIKEN ATOMIC CHARGES
-----------------------
   0 C :   -0.313567
   1 C :    0.047611
   2 O :   -0.362834
   3 C :    0.449965
   4 O :   -0.433719
   5 C :   -0.236881
   6 C :    0.174498
   7 C :   -0.268007
   8 N :   -0.125661
   9 C :    0.211278
  10 S :   -0.442695
  11 N :   -0.215968
  12 C :    0.068688
  13 C :    0.044050
  14 C :   -0.186628
  15 C :   -0.131702
  16 C :   -0.277390
  17 C :    0.317781
  18 O :   -0.356708
  19 C :   -0.253422
  20 H :    0.101202
  21 H :    0.097212
  22 H :    0.127159
  23 H :    0.102668
  24 H :    0.103451
  25 H :    0.129653
  26 H :    0.094511
  27 H :    0.132680
  28 H :    0.199494
  29 H :    0.200329
  30 H :    0.152292
  31 H :    0.154414
  32 H :    0.161591
  33 H :    0.130552
  34 H :    0.240726
  35 H :    0.163379
Sum of atomic charges:   -0.0000000

LOEWDIN ATOMIC CHARGES
----------------------
   0 C :    0.104762
   1 C :   -0.010756
   2 O :    0.297968
   3 C :   -0.414782
   4 O :    0.102142
   5 C :   -0.095500
   6 C :   -0.056694
   7 C :    0.130920
   8 N :    0.407090
   9 C :   -0.456289
  10 S :   -0.037156
  11 N :    0.394540
  12 C :   -0.054555
  13 C :   -0.039055
  14 C :    0.017308
  15 C :    0.038514
  16 C :   -0.001022
  17 C :   -0.190028
  18 O :    0.395192
  19 C :    0.032672
  20 H :   -0.026927
  21 H :   -0.027031
  22 H :   -0.025336
  23 H :   -0.025969
  24 H :   -0.029003
  25 H :   -0.004931
  26 H :   -0.023762
  27 H :   -0.004614
  28 H :   -0.057235
  29 H :   -0.064599
  30 H :   -0.013540
  31 H :   -0.028953
  32 H :   -0.021334
  33 H :   -0.035376
  34 H :   -0.153860
  35 H :   -0.022802

  Mayer bond orders larger than 0.100000
B(  0-C ,  1-C ) :   0.9604 B(  0-C , 20-H ) :   0.9746 B(  0-C , 21-H ) :   0.9763
B(  0-C , 22-H ) :   0.9725 B(  1-C ,  2-O ) :   0.8992 B(  1-C , 23-H ) :   0.9805
B(  1-C , 24-H ) :   0.9846 B(  2-O ,  3-C ) :   1.1508 B(  3-C ,  4-O ) :   1.9697
B(  3-C ,  5-C ) :   1.0581 B(  5-C ,  6-C ) :   1.6383 B(  5-C , 12-C ) :   0.9561
B(  6-C ,  7-C ) :   0.9653 B(  6-C ,  8-N ) :   1.1552 B(  7-C , 25-H ) :   0.9588
B(  7-C , 26-H ) :   0.9902 B(  7-C , 27-H ) :   0.9617 B(  8-N ,  9-C ) :   1.1874
B(  8-N , 28-H ) :   0.9466 B(  9-C , 10-S ) :   1.6049 B(  9-C , 11-N ) :   1.3097
B( 11-N , 12-C ) :   0.9691 B( 11-N , 29-H ) :   0.9486 B( 12-C , 13-C ) :   0.9618
B( 12-C , 30-H ) :   1.0001 B( 13-C , 14-C ) :   1.3540 B( 13-C , 19-C ) :   1.3787
B( 14-C , 15-C ) :   1.3919 B( 14-C , 31-H ) :   0.9707 B( 15-C , 16-C ) :   1.3602
B( 15-C , 32-H ) :   0.9705 B( 16-C , 17-C ) :   1.3338 B( 16-C , 33-H ) :   0.9848
B( 17-C , 18-O ) :   1.1049 B( 17-C , 19-C ) :   1.3637 B( 18-O , 34-H ) :   0.9797
B( 19-C , 35-H ) :   0.9597

MP2 TOTAL ENERGY:    -1274.336622179 Eh
FINAL SINGLE POINT ENERGY     -1274.336622179439

DIPOLE MOMENT
-------------
                                X             Y             Z
Electronic contribution:      9.94128       9.76433       8.27605
Nuclear contribution   :    -10.98735     -11.54028      -8.59074
                        -----------------------------------------
Total Dipole Moment    :     -1.04606      -1.77595      -0.31469
                        -----------------------------------------
Magnitude (a.u.)       :      2.08501
Magnitude (Debye)      :      5.29968

Rotational constants in cm-1:     0.011678     0.008605     0.005980
Rotational constants in MHz :   350.088544   257.968334   179.286212

                             ****ORCA TERMINATED NORMALLY****
TOTAL RUN TIME: 0 days 1 hours 52 minutes 11 seconds 528 msec
