                         Program Version 4.2.0 -  RELEASE  -
|  1> ! ri-mp2 cc-pvtz cc-pvtz/c TightSCF NoKeepInts
|  2>
|  3> %scf
|  4>   MaxCore 4096
|  5> end
|  6> *xyz  0  1
|  7>     C       14.6220014   15.3108369   16.6002598
|  8>     C       15.3690865   15.5436151   15.2782362
|  9>     O       16.7882146   15.6305039   15.5104446
| 10>     C       17.3830661   16.8269310   15.2502762
| 11>     O       17.9058001   17.0510485   14.1739851
| 12>     C       17.1779272   17.8568545   16.3163110
| 13>     C       17.0102286   19.1506282   15.9503197
| 14>     C       16.5959969   19.6465965   14.5810788
| 15>     N       17.2161131   20.1933426   16.8550302
| 16>     C       17.8367285   20.0438518   18.0661638
| 17>     S       18.1679832   21.3341737   19.0460048
| 18>     N       18.1943431   18.7650025   18.4148045
| 19>     C       17.8140397   17.5415260   17.6801176
| 20>     C       17.1160086   16.5077946   18.5522570
| 21>     C       17.5611198   15.1730289   18.5691292
| 22>     C       16.9451394   14.2249738   19.4033673
| 23>     C       15.8781262   14.6158005   20.2304104
| 24>     C       15.4383228   15.9466477   20.2221026
| 25>     O       14.4083488   16.3266695   21.0189560
| 26>     C       16.0555524   16.8892208   19.3933767
| 27>     H       15.0795895   14.4934787   17.1703184
| 28>     H       13.5759749   15.0453910   16.4056473
| 29>     H       14.6256781   16.2190053   17.2115193
| 30>     H       15.1772471   14.6924896   14.6118736
| 31>     H       14.9856589   16.4458507   14.7819066
| 32>     H       17.4740479   19.7432752   13.9288411
| 33>     H       16.0939143   20.6205803   14.6217763
| 34>     H       15.9063674   18.9449921   14.0963389
| 35>     H       16.9991096   21.1407190   16.5890084
| 36>     H       18.6396895   18.6828819   19.3204081
| 37>     H       18.8197530   17.1728736   17.4312622
| 38>     H       18.3832881   14.8675038   17.9266883
| 39>     H       17.2938447   13.1935736   19.4049382
| 40>     H       15.3982460   13.8864707   20.8747728
| 41>     H       14.1448290   15.5554220   21.5433015
| 42>     H       15.7056151   17.9164454   19.4067675
| 43> *
| 44>
| 45>                          ****END OF INPUT****

CARTESIAN COORDINATES (ANGSTROEM)
---------------------------------
  C     14.622001   15.310837   16.600260
  C     15.369086   15.543615   15.278236
  O     16.788215   15.630504   15.510445
  C     17.383066   16.826931   15.250276
  O     17.905800   17.051049   14.173985
  C     17.177927   17.856855   16.316311
  C     17.010229   19.150628   15.950320
  C     16.595997   19.646596   14.581079
  N     17.216113   20.193343   16.855030
  C     17.836728   20.043852   18.066164
  S     18.167983   21.334174   19.046005
  N     18.194343   18.765003   18.414804
  C     17.814040   17.541526   17.680118
  C     17.116009   16.507795   18.552257
  C     17.561120   15.173029   18.569129
  C     16.945139   14.224974   19.403367
  C     15.878126   14.615801   20.230410
  C     15.438323   15.946648   20.222103
  O     14.408349   16.326670   21.018956
  C     16.055552   16.889221   19.393377
  H     15.079589   14.493479   17.170318
  H     13.575975   15.045391   16.405647
  H     14.625678   16.219005   17.211519
  H     15.177247   14.692490   14.611874
  H     14.985659   16.445851   14.781907
  H     17.474048   19.743275   13.928841
  H     16.093914   20.620580   14.621776
  H     15.906367   18.944992   14.096339
  H     16.999110   21.140719   16.589008
  H     18.639689   18.682882   19.320408
  H     18.819753   17.172874   17.431262
  H     18.383288   14.867504   17.926688
  H     17.293845   13.193574   19.404938
  H     15.398246   13.886471   20.874773
  H     14.144829   15.555422   21.543301
  H     15.705615   17.916445   19.406768

 Total Charge           Charge          ....    0
 Multiplicity           Mult            ....    1
 Number of Electrons    NEL             ....  154
 Basis Dimension        Dim             ....  828

ORBITAL ENERGIES
----------------

  NO   OCC          E(Eh)            E(eV)
   0   2.0000     -91.890861     -2500.4775
   1   2.0000     -20.599837      -560.5501
   2   2.0000     -20.583139      -560.0957
   3   2.0000     -20.558573      -559.4272
   4   2.0000     -15.628912      -425.2843
   5   2.0000     -15.610211      -424.7754
   6   2.0000     -11.394531      -310.0610
   7   2.0000     -11.385750      -309.8220
   8   2.0000     -11.333562      -308.4019
   9   2.0000     -11.317187      -307.9563
  10   2.0000     -11.314596      -307.8858
  11   2.0000     -11.302904      -307.5677
  12   2.0000     -11.265148      -306.5403
  13   2.0000     -11.258065      -306.3475
  14   2.0000     -11.257407      -306.3296
  15   2.0000     -11.257180      -306.3234
  16   2.0000     -11.247403      -306.0574
  17   2.0000     -11.242457      -305.9228
  18   2.0000     -11.242019      -305.9109
  19   2.0000     -11.222274      -305.3736
  20   2.0000      -8.895913      -242.0701
  21   2.0000      -6.577481      -178.9823
  22   2.0000      -6.575486      -178.9281
  23   2.0000      -6.574891      -178.9119
  24   2.0000      -1.450629       -39.4736
  25   2.0000      -1.419627       -38.6300
  26   2.0000      -1.360093       -37.0100
  27   2.0000      -1.341400       -36.5014
  28   2.0000      -1.240292       -33.7501
  29   2.0000      -1.161082       -31.5947
  30   2.0000      -1.124148       -30.5896
  31   2.0000      -1.046976       -28.4897
  32   2.0000      -1.034480       -28.1496
  33   2.0000      -1.019144       -27.7323
  34   2.0000      -1.002114       -27.2689
  35   2.0000      -0.988705       -26.9040
  36   2.0000      -0.925420       -25.1820
  37   2.0000      -0.884345       -24.0642
  38   2.0000      -0.849574       -23.1181
  39   2.0000      -0.841876       -22.9086
  40   2.0000      -0.837770       -22.7969
  41   2.0000      -0.829434       -22.5700
  42   2.0000      -0.760718       -20.7002
  43   2.0000      -0.736467       -20.0403
  44   2.0000      -0.727038       -19.7837
  45   2.0000      -0.698216       -18.9994
  46   2.0000      -0.690907       -18.8005
  47   2.0000      -0.681328       -18.5399
  48   2.0000      -0.675365       -18.3776
  49   2.0000      -0.665461       -18.1081
  50   2.0000      -0.649512       -17.6741
  51   2.0000      -0.644219       -17.5301
  52   2.0000      -0.632844       -17.2206
  53   2.0000      -0.610216       -16.6048
  54   2.0000      -0.603999       -16.4357
  55   2.0000      -0.602463       -16.3939
  56   2.0000      -0.601262       -16.3612
  57   2.0000      -0.581083       -15.8121
  58   2.0000      -0.576641       -15.6912
  59   2.0000      -0.575170       -15.6512
  60   2.0000      -0.565565       -15.3898
  61   2.0000      -0.552913       -15.0455
  62   2.0000      -0.539912       -14.6917
  63   2.0000      -0.524748       -14.2791
  64   2.0000      -0.516646       -14.0586
  65   2.0000      -0.513160       -13.9638
  66   2.0000      -0.503321       -13.6961
  67   2.0000      -0.502314       -13.6687
  68   2.0000      -0.482729       -13.1357
  69   2.0000      -0.465006       -12.6535
  70   2.0000      -0.456079       -12.4105
  71   2.0000      -0.452537       -12.3141
  72   2.0000      -0.356337        -9.6964
  73   2.0000      -0.349307        -9.5051
  74   2.0000      -0.329867        -8.9761
  75   2.0000      -0.324616        -8.8332
  76   2.0000      -0.320709        -8.7269
  77   0.0000       0.076818         2.0903
  78   0.0000       0.100261         2.7282
  79   0.0000       0.120865         3.2889
  80   0.0000       0.128819         3.5053
  81   0.0000       0.130205         3.5430

MULLIKEN ATOMIC CHARGES
-----------------------
   0 C :   -0.308537
   1 C :    0.041526
   2 O :   -0.357507
   3 C :    0.414237
   4 O :   -0.362991
   5 C :   -0.198377
   6 C :    0.148249
   7 C :   -0.278625
   8 N :   -0.131202
   9 C :    0.210283
  10 S :   -0.438080
  11 N :   -0.219823
  12 C :    0.028353
  13 C :    0.038138
  14 C :   -0.175977
  15 C :   -0.153756
  16 C :   -0.267950
  17 C :    0.324484
  18 O :   -0.357249
  19 C :   -0.260660
  20 H :    0.111635
  21 H :    0.113180
  22 H :    0.104353
  23 H :    0.117223
  24 H :    0.079749
  25 H :    0.141628
  26 H :    0.098399
  27 H :    0.115769
  28 H :    0.198828
  29 H :    0.203105
  30 H :    0.155489
  31 H :    0.150124
  32 H :    0.165393
  33 H :    0.133241
  34 H :    0.241100
  35 H :    0.176246
Sum of atomic charges:    0.0000000

LOEWDIN ATOMIC CHARGES
----------------------
   0 C :    0.105786
   1 C :   -0.018187
   2 O :    0.292178
   3 C :   -0.427629
   4 O :    0.136240
   5 C :   -0.098891
   6 C :   -0.071542
   7 C :    0.128864
   8 N :    0.406337
   9 C :   -0.456416
  10 S :   -0.033979
  11 N :    0.396128
  12 C :   -0.053562
  13 C :   -0.041549
  14 C :    0.021907
  15 C :    0.041992
  16 C :    0.000484
  17 C :   -0.191047
  18 O :    0.396283
  19 C :    0.032668
  20 H :   -0.023422
  21 H :   -0.027078
  22 H :   -0.032012
  23 H :   -0.024204
  24 H :   -0.032884
  25 H :   -0.004236
  26 H :   -0.021048
  27 H :   -0.011410
  28 H :   -0.057169
  29 H :   -0.063512
  30 H :   -0.011403
  31 H :   -0.027152
  32 H :   -0.019897
  33 H :   -0.034626
  34 H :   -0.153188
  35 H :   -0.022825

  Mayer bond orders larger than 0.100000
B(  0-C ,  1-C ) :   0.9737 B(  0-C , 20-H ) :   0.9704 B(  0-C , 21-H ) :   0.9784
B(  0-C , 22-H ) :   0.9719 B(  1-C ,  2-O ) :   0.8899 B(  1-C , 23-H ) :   0.9850
B(  1-C , 24-H ) :   0.9739 B(  2-O ,  3-C ) :   1.1112 B(  3-C ,  4-O ) :   2.1195
B(  3-C ,  5-C ) :   0.9665 B(  5-C ,  6-C ) :   1.6589 B(  5-C , 12-C ) :   0.9637
B(  6-C ,  7-C ) :   0.9541 B(  6-C ,  8-N ) :   1.1346 B(  7-C , 25-H ) :   0.9561
B(  7-C , 26-H ) :   0.9844 B(  7-C , 27-H ) :   0.9754 B(  8-N ,  9-C ) :   1.1929
B(  8-N , 28-H ) :   0.9490 B(  9-C , 10-S ) :   1.6143 B(  9-C , 11-N ) :   1.2927
B( 11-N , 12-C ) :   0.9780 B( 11-N , 29-H ) :   0.9459 B( 12-C , 13-C ) :   0.9566
B( 12-C , 30-H ) :   1.0041 B( 13-C , 14-C ) :   1.3670 B( 13-C , 19-C ) :   1.3493
B( 14-C , 15-C ) :   1.4002 B( 14-C , 31-H ) :   0.9717 B( 15-C , 16-C ) :   1.3536
B( 15-C , 32-H ) :   0.9703 B( 16-C , 17-C ) :   1.3331 B( 16-C , 33-H ) :   0.9842
B( 17-C , 18-O ) :   1.1075 B( 17-C , 19-C ) :   1.3564 B( 18-O , 34-H ) :   0.9794
B( 19-C , 35-H ) :   0.9586

MP2 TOTAL ENERGY:    -1274.314614034 Eh
FINAL SINGLE POINT ENERGY     -1274.314614033617

DIPOLE MOMENT
-------------
                                X             Y             Z
Electronic contribution:      8.98965       8.96436       5.98399
Nuclear contribution   :    -10.36446     -10.52146      -6.15393
                        -----------------------------------------
Total Dipole Moment    :     -1.37481      -1.55709      -0.16994
                        -----------------------------------------
Magnitude (a.u.)       :      2.08411
Magnitude (Debye)      :      5.29740

Rotational constants in cm-1:     0.012145     0.009115     0.006131
Rotational constants in MHz :   364.099453   273.257859   183.808466

                             ****ORCA TERMINATED NORMALLY****
TOTAL RUN TIME: 0 days 1 hours 45 minutes 2 seconds 362 msec
