                         Program Version 4.2.0 -  RELEASE  -
|  1> ! ri-mp2 cc-pvtz cc-pvtz/c TightSCF NoKeepInts
|  2>
|  3> %scf
|  4>   MaxCore 4096
|  5> end
|  6> *xyz  0  1
|  7>     C       14.5804581   15.4125177   16.1087628
|  8>     C       15.8529794   14.8426926   15.4439703
|  9>     O       16.9753505   15.7440443   15.5561512
| 10>     C       16.8193780   17.0570146   15.2239557
| 11>     O       16.4025571   17.3727479   14.1233672
| 12>     C       17.0524750   18.0000770   16.3763952
| 13>     C       17.0001796   19.3435439   16.1786860
| 14>     C       16.4179382   20.0757890   14.9868850
| 15>     N       17.5158725   20.2330693   17.1239152
| 16>     C       18.3024740   19.8661251   18.1812825
| 17>     S       18.9817474   20.9801043   19.1975998
| 18>     N       18.5191874   18.5213695   18.3402482
| 19>     C       17.8521369   17.4516398   17.5735689
| 20>     C       17.0987135   16.4823984   18.4743308
| 21>     C       17.4892142   15.1337904   18.5682395
| 22>     C       16.7968548   14.2475077   19.4104060
| 23>     C       15.7119625   14.7161557   20.1712986
| 24>     C       15.3291791   16.0621898   20.0889643
| 25>     O       14.2827464   16.5173698   20.8225800
| 26>     C       16.0184375   16.9412206   19.2475848
| 27>     H       14.7493289   15.6208107   17.1698557
| 28>     H       13.7629500   14.6849497   16.0391829
| 29>     H       14.2452173   16.3340464   15.6168445
| 30>     H       16.1108640   13.8827274   15.9093029
| 31>     H       15.6440817   14.6554988   14.3820375
| 32>     H       17.0477527   19.9318030   14.0995574
| 33>     H       16.3178471   21.1549584   15.1523327
| 34>     H       15.4187861   19.6910184   14.7457953
| 35>     H       17.3880362   21.2247150   17.0000023
| 36>     H       19.0830321   18.2785079   19.1451041
| 37>     H       18.7353045   16.9653678   17.1352851
| 38>     H       18.3266874   14.7705528   17.9781212
| 39>     H       17.1028974   13.2046117   19.4733137
| 40>     H       15.1750183   14.0356976   20.8240902
| 41>     H       13.9670168   15.7822050   21.3693009
| 42>     H       15.7123375   17.9811620   19.1996821
| 43> *
| 44>
| 45>                          ****END OF INPUT****

CARTESIAN COORDINATES (ANGSTROEM)
---------------------------------
  C     14.580458   15.412518   16.108763
  C     15.852979   14.842693   15.443970
  O     16.975351   15.744044   15.556151
  C     16.819378   17.057015   15.223956
  O     16.402557   17.372748   14.123367
  C     17.052475   18.000077   16.376395
  C     17.000180   19.343544   16.178686
  C     16.417938   20.075789   14.986885
  N     17.515873   20.233069   17.123915
  C     18.302474   19.866125   18.181282
  S     18.981747   20.980104   19.197600
  N     18.519187   18.521369   18.340248
  C     17.852137   17.451640   17.573569
  C     17.098713   16.482398   18.474331
  C     17.489214   15.133790   18.568240
  C     16.796855   14.247508   19.410406
  C     15.711963   14.716156   20.171299
  C     15.329179   16.062190   20.088964
  O     14.282746   16.517370   20.822580
  C     16.018438   16.941221   19.247585
  H     14.749329   15.620811   17.169856
  H     13.762950   14.684950   16.039183
  H     14.245217   16.334046   15.616844
  H     16.110864   13.882727   15.909303
  H     15.644082   14.655499   14.382037
  H     17.047753   19.931803   14.099557
  H     16.317847   21.154958   15.152333
  H     15.418786   19.691018   14.745795
  H     17.388036   21.224715   17.000002
  H     19.083032   18.278508   19.145104
  H     18.735305   16.965368   17.135285
  H     18.326687   14.770553   17.978121
  H     17.102897   13.204612   19.473314
  H     15.175018   14.035698   20.824090
  H     13.967017   15.782205   21.369301
  H     15.712338   17.981162   19.199682

 Total Charge           Charge          ....    0
 Multiplicity           Mult            ....    1
 Number of Electrons    NEL             ....  154
 Basis Dimension        Dim             ....  828

ORBITAL ENERGIES
----------------

  NO   OCC          E(Eh)            E(eV)
   0   2.0000     -91.890809     -2500.4760
   1   2.0000     -20.599569      -560.5428
   2   2.0000     -20.584824      -560.1415
   3   2.0000     -20.544032      -559.0315
   4   2.0000     -15.631148      -425.3452
   5   2.0000     -15.608634      -424.7325
   6   2.0000     -11.392957      -310.0181
   7   2.0000     -11.385023      -309.8022
   8   2.0000     -11.339659      -308.5678
   9   2.0000     -11.317100      -307.9539
  10   2.0000     -11.310196      -307.7661
  11   2.0000     -11.298521      -307.4484
  12   2.0000     -11.263802      -306.5036
  13   2.0000     -11.259686      -306.3916
  14   2.0000     -11.258658      -306.3637
  15   2.0000     -11.253070      -306.2116
  16   2.0000     -11.247355      -306.0561
  17   2.0000     -11.242116      -305.9135
  18   2.0000     -11.241649      -305.9008
  19   2.0000     -11.223841      -305.4162
  20   2.0000      -8.895855      -242.0685
  21   2.0000      -6.577421      -178.9807
  22   2.0000      -6.575430      -178.9265
  23   2.0000      -6.574831      -178.9103
  24   2.0000      -1.446769       -39.3686
  25   2.0000      -1.419348       -38.6224
  26   2.0000      -1.351058       -36.7641
  27   2.0000      -1.342602       -36.5341
  28   2.0000      -1.240454       -33.7545
  29   2.0000      -1.160608       -31.5817
  30   2.0000      -1.122299       -30.5393
  31   2.0000      -1.045278       -28.4435
  32   2.0000      -1.031868       -28.0786
  33   2.0000      -1.018431       -27.7129
  34   2.0000      -0.999057       -27.1857
  35   2.0000      -0.987079       -26.8598
  36   2.0000      -0.924074       -25.1453
  37   2.0000      -0.895696       -24.3731
  38   2.0000      -0.848488       -23.0885
  39   2.0000      -0.841322       -22.8935
  40   2.0000      -0.837576       -22.7916
  41   2.0000      -0.816507       -22.2183
  42   2.0000      -0.749176       -20.3861
  43   2.0000      -0.736092       -20.0301
  44   2.0000      -0.723040       -19.6749
  45   2.0000      -0.698022       -18.9941
  46   2.0000      -0.690435       -18.7877
  47   2.0000      -0.674751       -18.3609
  48   2.0000      -0.671878       -18.2827
  49   2.0000      -0.663506       -18.0549
  50   2.0000      -0.648483       -17.6461
  51   2.0000      -0.642547       -17.4846
  52   2.0000      -0.636943       -17.3321
  53   2.0000      -0.616792       -16.7838
  54   2.0000      -0.609762       -16.5925
  55   2.0000      -0.602491       -16.3946
  56   2.0000      -0.601266       -16.3613
  57   2.0000      -0.579533       -15.7699
  58   2.0000      -0.570575       -15.5261
  59   2.0000      -0.566611       -15.4183
  60   2.0000      -0.550774       -14.9873
  61   2.0000      -0.545407       -14.8413
  62   2.0000      -0.537347       -14.6219
  63   2.0000      -0.530601       -14.4384
  64   2.0000      -0.525837       -14.3087
  65   2.0000      -0.514838       -14.0095
  66   2.0000      -0.501667       -13.6510
  67   2.0000      -0.499974       -13.6050
  68   2.0000      -0.479464       -13.0469
  69   2.0000      -0.465027       -12.6540
  70   2.0000      -0.453118       -12.3300
  71   2.0000      -0.444671       -12.1001
  72   2.0000      -0.354710        -9.6522
  73   2.0000      -0.352492        -9.5918
  74   2.0000      -0.329879        -8.9765
  75   2.0000      -0.324964        -8.8427
  76   2.0000      -0.320282        -8.7153
  77   0.0000       0.071307         1.9404
  78   0.0000       0.101659         2.7663
  79   0.0000       0.122805         3.3417
  80   0.0000       0.129804         3.5321
  81   0.0000       0.134176         3.6511

MULLIKEN ATOMIC CHARGES
-----------------------
   0 C :   -0.328042
   1 C :    0.027446
   2 O :   -0.381370
   3 C :    0.455210
   4 O :   -0.416187
   5 C :   -0.226881
   6 C :    0.166045
   7 C :   -0.266207
   8 N :   -0.125094
   9 C :    0.206398
  10 S :   -0.437768
  11 N :   -0.211521
  12 C :    0.049591
  13 C :   -0.000011
  14 C :   -0.167083
  15 C :   -0.141353
  16 C :   -0.267963
  17 C :    0.304445
  18 O :   -0.359395
  19 C :   -0.228176
  20 H :    0.115757
  21 H :    0.109787
  22 H :    0.109977
  23 H :    0.113062
  24 H :    0.122654
  25 H :    0.133062
  26 H :    0.094436
  27 H :    0.130343
  28 H :    0.200377
  29 H :    0.199770
  30 H :    0.154409
  31 H :    0.161272
  32 H :    0.163833
  33 H :    0.133030
  34 H :    0.240728
  35 H :    0.165418
Sum of atomic charges:   -0.0000000

LOEWDIN ATOMIC CHARGES
----------------------
   0 C :    0.107270
   1 C :   -0.016764
   2 O :    0.291422
   3 C :   -0.423164
   4 O :    0.108242
   5 C :   -0.100245
   6 C :   -0.053202
   7 C :    0.131327
   8 N :    0.408001
   9 C :   -0.458564
  10 S :   -0.033539
  11 N :    0.395460
  12 C :   -0.053534
  13 C :   -0.042540
  14 C :    0.020532
  15 C :    0.039106
  16 C :   -0.000853
  17 C :   -0.192342
  18 O :    0.396239
  19 C :    0.032672
  20 H :   -0.028571
  21 H :   -0.023979
  22 H :   -0.027433
  23 H :   -0.024739
  24 H :   -0.028166
  25 H :   -0.004074
  26 H :   -0.023438
  27 H :   -0.005196
  28 H :   -0.056727
  29 H :   -0.063642
  30 H :   -0.011724
  31 H :   -0.026914
  32 H :   -0.020542
  33 H :   -0.034725
  34 H :   -0.153350
  35 H :   -0.022303

  Mayer bond orders larger than 0.100000
B(  0-C ,  1-C ) :   0.9545 B(  0-C , 20-H ) :   0.9680 B(  0-C , 21-H ) :   0.9778
B(  0-C , 22-H ) :   0.9742 B(  1-C ,  2-O ) :   0.8907 B(  1-C , 23-H ) :   0.9808
B(  1-C , 24-H ) :   0.9859 B(  2-O ,  3-C ) :   1.1125 B(  3-C ,  4-O ) :   2.0081
B(  3-C ,  5-C ) :   1.0637 B(  5-C ,  6-C ) :   1.6278 B(  5-C , 12-C ) :   0.9580
B(  6-C ,  7-C ) :   0.9672 B(  6-C ,  8-N ) :   1.1520 B(  7-C , 25-H ) :   0.9562
B(  7-C , 26-H ) :   0.9896 B(  7-C , 27-H ) :   0.9635 B(  8-N ,  9-C ) :   1.1850
B(  8-N , 28-H ) :   0.9466 B(  9-C , 10-S ) :   1.6136 B(  9-C , 11-N ) :   1.3049
B( 11-N , 12-C ) :   0.9725 B( 11-N , 29-H ) :   0.9487 B( 12-C , 13-C ) :   0.9557
B( 12-C , 30-H ) :   1.0029 B( 13-C , 14-C ) :   1.3641 B( 13-C , 19-C ) :   1.3748
B( 14-C , 15-C ) :   1.3885 B( 14-C , 31-H ) :   0.9678 B( 15-C , 16-C ) :   1.3590
B( 15-C , 32-H ) :   0.9702 B( 16-C , 17-C ) :   1.3342 B( 16-C , 33-H ) :   0.9840
B( 17-C , 18-O ) :   1.1065 B( 17-C , 19-C ) :   1.3639 B( 18-O , 34-H ) :   0.9796
B( 19-C , 35-H ) :   0.9610

MP2 TOTAL ENERGY:    -1274.330930636 Eh
FINAL SINGLE POINT ENERGY     -1274.330930635798

DIPOLE MOMENT
-------------
                                X             Y             Z
Electronic contribution:      9.23456       9.20890       6.38357
Nuclear contribution   :    -10.28502     -10.88063      -6.42391
                        -----------------------------------------
Total Dipole Moment    :     -1.05046      -1.67173      -0.04034
                        -----------------------------------------
Magnitude (a.u.)       :      1.97478
Magnitude (Debye)      :      5.01949

Rotational constants in cm-1:     0.012181     0.009004     0.006186
Rotational constants in MHz :   365.169212   269.943535   185.447542

                             ****ORCA TERMINATED NORMALLY****
TOTAL RUN TIME: 0 days 2 hours 17 minutes 22 seconds 716 msec
