                         Program Version 4.2.0 -  RELEASE  -
|  1> ! ri-mp2 cc-pvtz cc-pvtz/c TightSCF NoKeepInts
|  2>
|  3> %scf
|  4>   MaxCore 4096
|  5> end
|  6> *xyz  0  1
|  7>     C       13.9182965   16.5113918   15.5169673
|  8>     C       15.1550342   15.6402275   15.2367486
|  9>     O       16.1995243   16.4792269   14.7139045
| 10>     C       17.3031222   16.6160638   15.4983295
| 11>     O       18.1934639   15.7850844   15.5054219
| 12>     C       17.1986130   17.7158331   16.5066954
| 13>     C       16.7749805   18.9555385   16.1559345
| 14>     C       16.1829687   19.3778946   14.8262133
| 15>     N       16.9381975   20.0361183   17.0255634
| 16>     C       17.7098722   20.0050986   18.1568738
| 17>     S       17.9459595   21.3511580   19.0881191
| 18>     N       18.2957660   18.8022712   18.4657148
| 19>     C       18.0387803   17.5252894   17.7706337
| 20>     C       17.4971303   16.4259883   18.6731928
| 21>     C       18.0987295   15.1550103   18.6900880
| 22>     C       17.5879079   14.1338852   19.5086830
| 23>     C       16.4646895   14.3857489   20.3151681
| 24>     C       15.8599503   15.6501212   20.2957159
| 25>     O       14.7697208   15.8934417   21.0658034
| 26>     C       16.3700959   16.6642677   19.4789155
| 27>     H       14.1343988   17.2583836   16.2906665
| 28>     H       13.0864422   15.8897013   15.8701770
| 29>     H       13.5938242   17.0296818   14.6062035
| 30>     H       15.4728699   15.1280181   16.1567203
| 31>     H       14.8991998   14.8734176   14.4939356
| 32>     H       16.7535145   18.9565061   13.9887720
| 33>     H       16.1855448   20.4666381   14.6922740
| 34>     H       15.1465520   19.0352191   14.7310907
| 35>     H       16.5376254   20.9319511   16.7967030
| 36>     H       18.8483102   18.8036752   19.3139516
| 37>     H       19.0532447   17.2774930   17.4247040
| 38>     H       18.9579729   14.9551777   18.0533694
| 39>     H       18.0600327   13.1528798   19.5112483
| 40>     H       16.0662813   13.5993133   20.9476405
| 41>     H       14.6000049   15.0957912   21.5894017
| 42>     H       15.8883789   17.6364936   19.4764552
| 43> *
| 44>
| 45>                          ****END OF INPUT****

CARTESIAN COORDINATES (ANGSTROEM)
---------------------------------
  C     13.918296   16.511392   15.516967
  C     15.155034   15.640227   15.236749
  O     16.199524   16.479227   14.713904
  C     17.303122   16.616064   15.498330
  O     18.193464   15.785084   15.505422
  C     17.198613   17.715833   16.506695
  C     16.774981   18.955538   16.155935
  C     16.182969   19.377895   14.826213
  N     16.938198   20.036118   17.025563
  C     17.709872   20.005099   18.156874
  S     17.945959   21.351158   19.088119
  N     18.295766   18.802271   18.465715
  C     18.038780   17.525289   17.770634
  C     17.497130   16.425988   18.673193
  C     18.098730   15.155010   18.690088
  C     17.587908   14.133885   19.508683
  C     16.464689   14.385749   20.315168
  C     15.859950   15.650121   20.295716
  O     14.769721   15.893442   21.065803
  C     16.370096   16.664268   19.478915
  H     14.134399   17.258384   16.290667
  H     13.086442   15.889701   15.870177
  H     13.593824   17.029682   14.606203
  H     15.472870   15.128018   16.156720
  H     14.899200   14.873418   14.493936
  H     16.753515   18.956506   13.988772
  H     16.185545   20.466638   14.692274
  H     15.146552   19.035219   14.731091
  H     16.537625   20.931951   16.796703
  H     18.848310   18.803675   19.313952
  H     19.053245   17.277493   17.424704
  H     18.957973   14.955178   18.053369
  H     18.060033   13.152880   19.511248
  H     16.066281   13.599313   20.947640
  H     14.600005   15.095791   21.589402
  H     15.888379   17.636494   19.476455

 Total Charge           Charge          ....    0
 Multiplicity           Mult            ....    1
 Number of Electrons    NEL             ....  154
 Basis Dimension        Dim             ....  828

ORBITAL ENERGIES
----------------

  NO   OCC          E(Eh)            E(eV)
   0   2.0000     -91.890052     -2500.4554
   1   2.0000     -20.597159      -560.4772
   2   2.0000     -20.585750      -560.1667
   3   2.0000     -20.554671      -559.3210
   4   2.0000     -15.630110      -425.3169
   5   2.0000     -15.608259      -424.7223
   6   2.0000     -11.393996      -310.0464
   7   2.0000     -11.385240      -309.8081
   8   2.0000     -11.337658      -308.5134
   9   2.0000     -11.313855      -307.8656
  10   2.0000     -11.306937      -307.6774
  11   2.0000     -11.304890      -307.6217
  12   2.0000     -11.261225      -306.4335
  13   2.0000     -11.260841      -306.4231
  14   2.0000     -11.259152      -306.3771
  15   2.0000     -11.253884      -306.2338
  16   2.0000     -11.243670      -305.9558
  17   2.0000     -11.239775      -305.8498
  18   2.0000     -11.236442      -305.7591
  19   2.0000     -11.234263      -305.6998
  20   2.0000      -8.895130      -242.0488
  21   2.0000      -6.576703      -178.9612
  22   2.0000      -6.574702      -178.9067
  23   2.0000      -6.574111      -178.8907
  24   2.0000      -1.452140       -39.5148
  25   2.0000      -1.416914       -38.5562
  26   2.0000      -1.360099       -37.0102
  27   2.0000      -1.341384       -36.5009
  28   2.0000      -1.238864       -33.7112
  29   2.0000      -1.158132       -31.5144
  30   2.0000      -1.124036       -30.5866
  31   2.0000      -1.046080       -28.4653
  32   2.0000      -1.037528       -28.2326
  33   2.0000      -1.015589       -27.6356
  34   2.0000      -1.002397       -27.2766
  35   2.0000      -0.988191       -26.8900
  36   2.0000      -0.924184       -25.1483
  37   2.0000      -0.887205       -24.1421
  38   2.0000      -0.849854       -23.1257
  39   2.0000      -0.840237       -22.8640
  40   2.0000      -0.833850       -22.6902
  41   2.0000      -0.828883       -22.5551
  42   2.0000      -0.759886       -20.6776
  43   2.0000      -0.737064       -20.0565
  44   2.0000      -0.729860       -19.8605
  45   2.0000      -0.695038       -18.9129
  46   2.0000      -0.686473       -18.6799
  47   2.0000      -0.682634       -18.5754
  48   2.0000      -0.675768       -18.3886
  49   2.0000      -0.658897       -17.9295
  50   2.0000      -0.654331       -17.8052
  51   2.0000      -0.643473       -17.5098
  52   2.0000      -0.635833       -17.3019
  53   2.0000      -0.608514       -16.5585
  54   2.0000      -0.603536       -16.4231
  55   2.0000      -0.603169       -16.4131
  56   2.0000      -0.600515       -16.3408
  57   2.0000      -0.582546       -15.8519
  58   2.0000      -0.577545       -15.7158
  59   2.0000      -0.574804       -15.6412
  60   2.0000      -0.562224       -15.2989
  61   2.0000      -0.552754       -15.0412
  62   2.0000      -0.548131       -14.9154
  63   2.0000      -0.521984       -14.2039
  64   2.0000      -0.517394       -14.0790
  65   2.0000      -0.511902       -13.9296
  66   2.0000      -0.504406       -13.7256
  67   2.0000      -0.497999       -13.5512
  68   2.0000      -0.485127       -13.2010
  69   2.0000      -0.465874       -12.6771
  70   2.0000      -0.457808       -12.4576
  71   2.0000      -0.453857       -12.3501
  72   2.0000      -0.355105        -9.6629
  73   2.0000      -0.349802        -9.5186
  74   2.0000      -0.329187        -8.9576
  75   2.0000      -0.321027        -8.7356
  76   2.0000      -0.319304        -8.6887
  77   0.0000       0.073561         2.0017
  78   0.0000       0.103961         2.8289
  79   0.0000       0.120312         3.2739
  80   0.0000       0.131797         3.5864
  81   0.0000       0.135550         3.6885

MULLIKEN ATOMIC CHARGES
-----------------------
   0 C :   -0.305655
   1 C :    0.042450
   2 O :   -0.371840
   3 C :    0.454381
   4 O :   -0.383312
   5 C :   -0.227981
   6 C :    0.156494
   7 C :   -0.288339
   8 N :   -0.130400
   9 C :    0.204786
  10 S :   -0.440101
  11 N :   -0.214182
  12 C :    0.057297
  13 C :    0.021388
  14 C :   -0.190414
  15 C :   -0.131441
  16 C :   -0.278505
  17 C :    0.313092
  18 O :   -0.357388
  19 C :   -0.251612
  20 H :    0.100408
  21 H :    0.115503
  22 H :    0.097765
  23 H :    0.098596
  24 H :    0.114815
  25 H :    0.130284
  26 H :    0.108658
  27 H :    0.125952
  28 H :    0.198608
  29 H :    0.199990
  30 H :    0.159584
  31 H :    0.168100
  32 H :    0.163100
  33 H :    0.130996
  34 H :    0.240862
  35 H :    0.168064
Sum of atomic charges:   -0.0000000

LOEWDIN ATOMIC CHARGES
----------------------
   0 C :    0.102639
   1 C :   -0.013530
   2 O :    0.292261
   3 C :   -0.425617
   4 O :    0.127680
   5 C :   -0.096186
   6 C :   -0.070790
   7 C :    0.127967
   8 N :    0.405538
   9 C :   -0.457162
  10 S :   -0.036090
  11 N :    0.395757
  12 C :   -0.049201
  13 C :   -0.043242
  14 C :    0.022492
  15 C :    0.042068
  16 C :   -0.000916
  17 C :   -0.192985
  18 O :    0.393934
  19 C :    0.027927
  20 H :   -0.030704
  21 H :   -0.023066
  22 H :   -0.029417
  23 H :   -0.024641
  24 H :   -0.023994
  25 H :   -0.006839
  26 H :   -0.018798
  27 H :   -0.012210
  28 H :   -0.058049
  29 H :   -0.063734
  30 H :   -0.006382
  31 H :   -0.022348
  32 H :   -0.019637
  33 H :   -0.035287
  34 H :   -0.153826
  35 H :   -0.023613

  Mayer bond orders larger than 0.100000
B(  0-C ,  1-C ) :   0.9682 B(  0-C , 20-H ) :   0.9745 B(  0-C , 21-H ) :   0.9780
B(  0-C , 22-H ) :   0.9755 B(  1-C ,  2-O ) :   0.8896 B(  1-C , 23-H ) :   0.9697
B(  1-C , 24-H ) :   0.9844 B(  2-O ,  3-C ) :   1.0846 B(  3-C ,  4-O ) :   2.0727
B(  3-C ,  5-C ) :   0.9819 B(  5-C ,  6-C ) :   1.6860 B(  5-C , 12-C ) :   0.9466
B(  6-C ,  7-C ) :   0.9502 B(  6-C ,  8-N ) :   1.1323 B(  7-C , 25-H ) :   0.9674
B(  7-C , 26-H ) :   0.9883 B(  7-C , 27-H ) :   0.9643 B(  8-N ,  9-C ) :   1.1876
B(  8-N , 28-H ) :   0.9476 B(  9-C , 10-S ) :   1.6129 B(  9-C , 11-N ) :   1.2987
B( 11-N , 12-C ) :   0.9814 B( 11-N , 29-H ) :   0.9486 B( 12-C , 13-C ) :   0.9677
B( 12-C , 30-H ) :   0.9937 B( 13-C , 14-C ) :   1.3818 B( 13-C , 19-C ) :   1.3590
B( 14-C , 15-C ) :   1.3950 B( 14-C , 31-H ) :   0.9609 B( 15-C , 16-C ) :   1.3610
B( 15-C , 32-H ) :   0.9704 B( 16-C , 17-C ) :   1.3308 B( 16-C , 33-H ) :   0.9851
B( 17-C , 18-O ) :   1.1070 B( 17-C , 19-C ) :   1.3671 B( 18-O , 34-H ) :   0.9798
B( 19-C , 35-H ) :   0.9590

MP2 TOTAL ENERGY:    -1274.324745271 Eh
FINAL SINGLE POINT ENERGY     -1274.324745271353

DIPOLE MOMENT
-------------
                                X             Y             Z
Electronic contribution:     10.29395       6.83885       7.85632
Nuclear contribution   :    -11.65559      -8.15580      -8.40959
                        -----------------------------------------
Total Dipole Moment    :     -1.36165      -1.31695      -0.55327
                        -----------------------------------------
Magnitude (a.u.)       :      1.97346
Magnitude (Debye)      :      5.01614

Rotational constants in cm-1:     0.010976     0.009179     0.006428
Rotational constants in MHz :   329.046256   275.175365   192.694598

                             ****ORCA TERMINATED NORMALLY****
TOTAL RUN TIME: 0 days 2 hours 1 minutes 28 seconds 405 msec
