                         Program Version 4.2.0 -  RELEASE  -
|  1> ! ri-mp2 cc-pvtz cc-pvtz/c TightSCF NoKeepInts
|  2>
|  3> %scf
|  4>   MaxCore 4096
|  5> end
|  6> *xyz  0  1
|  7>     C       14.7357175   15.4426236   16.1074428
|  8>     C       15.0168864   15.9334125   14.6668024
|  9>     O       16.2485831   16.6827236   14.5403762
| 10>     C       17.2080678   16.6375831   15.5074009
| 11>     O       17.9313296   15.6655249   15.6378058
| 12>     C       17.1853238   17.7812455   16.4786669
| 13>     C       16.8752732   19.0490623   16.1038339
| 14>     C       16.3076747   19.5087632   14.7757926
| 15>     N       17.1201620   20.1247181   16.9609658
| 16>     C       17.8627673   20.0458320   18.1085832
| 17>     S       18.1993019   21.3822031   19.0228812
| 18>     N       18.3302264   18.8015148   18.4497553
| 19>     C       17.9762068   17.5408375   17.7685357
| 20>     C       17.3175819   16.5188463   18.6853756
| 21>     C       17.8239861   15.2103309   18.7808902
| 22>     C       17.2038783   14.2629713   19.6125314
| 23>     C       16.0674672   14.6274373   20.3548022
| 24>     C       15.5593888   15.9302369   20.2595483
| 25>     O       14.4571138   16.2826019   20.9678798
| 26>     C       16.1787257   16.8709541   19.4306109
| 27>     H       15.5071718   14.7417082   16.4526166
| 28>     H       13.7743212   14.9163644   16.1452379
| 29>     H       14.6828651   16.2830079   16.8106322
| 30>     H       15.0731208   15.0545088   14.0110996
| 31>     H       14.1792495   16.5506341   14.3175983
| 32>     H       15.2827693   19.1417032   14.6429968
| 33>     H       16.9129071   19.1326687   13.9410744
| 34>     H       16.2800328   20.6012421   14.6814070
| 35>     H       16.8049938   21.0485576   16.7114493
| 36>     H       18.8598530   18.7678491   19.3117687
| 37>     H       18.9721671   17.1967091   17.4530361
| 38>     H       18.6919670   14.9227043   18.1917939
| 39>     H       17.6013512   13.2513430   19.6731906
| 40>     H       15.5841229   13.8979643   20.9961327
| 41>     H       14.2034355   15.5191387   21.5081205
| 42>     H       15.7710097   17.8744734   19.3693642
| 43> *
| 44>
| 45>                          ****END OF INPUT****

CARTESIAN COORDINATES (ANGSTROEM)
---------------------------------
  C     14.735717   15.442624   16.107443
  C     15.016886   15.933412   14.666802
  O     16.248583   16.682724   14.540376
  C     17.208068   16.637583   15.507401
  O     17.931330   15.665525   15.637806
  C     17.185324   17.781246   16.478667
  C     16.875273   19.049062   16.103834
  C     16.307675   19.508763   14.775793
  N     17.120162   20.124718   16.960966
  C     17.862767   20.045832   18.108583
  S     18.199302   21.382203   19.022881
  N     18.330226   18.801515   18.449755
  C     17.976207   17.540837   17.768536
  C     17.317582   16.518846   18.685376
  C     17.823986   15.210331   18.780890
  C     17.203878   14.262971   19.612531
  C     16.067467   14.627437   20.354802
  C     15.559389   15.930237   20.259548
  O     14.457114   16.282602   20.967880
  C     16.178726   16.870954   19.430611
  H     15.507172   14.741708   16.452617
  H     13.774321   14.916364   16.145238
  H     14.682865   16.283008   16.810632
  H     15.073121   15.054509   14.011100
  H     14.179249   16.550634   14.317598
  H     15.282769   19.141703   14.642997
  H     16.912907   19.132669   13.941074
  H     16.280033   20.601242   14.681407
  H     16.804994   21.048558   16.711449
  H     18.859853   18.767849   19.311769
  H     18.972167   17.196709   17.453036
  H     18.691967   14.922704   18.191794
  H     17.601351   13.251343   19.673191
  H     15.584123   13.897964   20.996133
  H     14.203435   15.519139   21.508121
  H     15.771010   17.874473   19.369364

 Total Charge           Charge          ....    0
 Multiplicity           Mult            ....    1
 Number of Electrons    NEL             ....  154
 Basis Dimension        Dim             ....  828

ORBITAL ENERGIES
----------------

  NO   OCC          E(Eh)            E(eV)
   0   2.0000     -91.889611     -2500.4434
   1   2.0000     -20.595596      -560.4346
   2   2.0000     -20.583974      -560.1184
   3   2.0000     -20.550886      -559.2180
   4   2.0000     -15.630210      -425.3196
   5   2.0000     -15.607342      -424.6974
   6   2.0000     -11.394267      -310.0538
   7   2.0000     -11.384410      -309.7856
   8   2.0000     -11.338927      -308.5479
   9   2.0000     -11.311820      -307.8103
  10   2.0000     -11.306797      -307.6736
  11   2.0000     -11.305653      -307.6425
  12   2.0000     -11.260951      -306.4261
  13   2.0000     -11.259710      -306.3923
  14   2.0000     -11.258472      -306.3586
  15   2.0000     -11.251789      -306.1767
  16   2.0000     -11.241895      -305.9075
  17   2.0000     -11.237689      -305.7931
  18   2.0000     -11.234261      -305.6998
  19   2.0000     -11.229880      -305.5806
  20   2.0000      -8.894686      -242.0367
  21   2.0000      -6.576260      -178.9491
  22   2.0000      -6.574259      -178.8947
  23   2.0000      -6.573668      -178.8786
  24   2.0000      -1.446786       -39.3691
  25   2.0000      -1.415379       -38.5144
  26   2.0000      -1.355141       -36.8753
  27   2.0000      -1.341263       -36.4976
  28   2.0000      -1.238482       -33.7008
  29   2.0000      -1.156058       -31.4579
  30   2.0000      -1.122312       -30.5397
  31   2.0000      -1.044310       -28.4171
  32   2.0000      -1.032174       -28.0869
  33   2.0000      -1.013697       -27.5841
  34   2.0000      -1.001887       -27.2627
  35   2.0000      -0.986928       -26.8557
  36   2.0000      -0.923603       -25.1325
  37   2.0000      -0.897889       -24.4328
  38   2.0000      -0.849807       -23.1244
  39   2.0000      -0.838310       -22.8116
  40   2.0000      -0.831893       -22.6370
  41   2.0000      -0.819822       -22.3085
  42   2.0000      -0.744562       -20.2605
  43   2.0000      -0.731416       -19.9028
  44   2.0000      -0.727800       -19.8045
  45   2.0000      -0.692822       -18.8527
  46   2.0000      -0.686887       -18.6912
  47   2.0000      -0.677256       -18.4291
  48   2.0000      -0.672905       -18.3107
  49   2.0000      -0.663563       -18.0565
  50   2.0000      -0.650956       -17.7134
  51   2.0000      -0.647770       -17.6267
  52   2.0000      -0.634874       -17.2758
  53   2.0000      -0.623313       -16.9612
  54   2.0000      -0.605801       -16.4847
  55   2.0000      -0.601641       -16.3715
  56   2.0000      -0.599101       -16.3024
  57   2.0000      -0.579260       -15.7625
  58   2.0000      -0.575451       -15.6588
  59   2.0000      -0.564001       -15.3472
  60   2.0000      -0.553449       -15.0601
  61   2.0000      -0.546188       -14.8625
  62   2.0000      -0.537385       -14.6230
  63   2.0000      -0.533837       -14.5264
  64   2.0000      -0.519529       -14.1371
  65   2.0000      -0.511028       -13.9058
  66   2.0000      -0.498707       -13.5705
  67   2.0000      -0.493599       -13.4315
  68   2.0000      -0.481765       -13.1095
  69   2.0000      -0.465853       -12.6765
  70   2.0000      -0.456110       -12.4114
  71   2.0000      -0.449272       -12.2253
  72   2.0000      -0.354341        -9.6421
  73   2.0000      -0.347696        -9.4613
  74   2.0000      -0.328686        -8.9440
  75   2.0000      -0.319247        -8.6871
  76   2.0000      -0.318336        -8.6624
  77   0.0000       0.072749         1.9796
  78   0.0000       0.105823         2.8796
  79   0.0000       0.118908         3.2357
  80   0.0000       0.132466         3.6046
  81   0.0000       0.138275         3.7627

MULLIKEN ATOMIC CHARGES
-----------------------
   0 C :   -0.337969
   1 C :    0.053484
   2 O :   -0.388350
   3 C :    0.487006
   4 O :   -0.398973
   5 C :   -0.241993
   6 C :    0.165943
   7 C :   -0.283775
   8 N :   -0.127785
   9 C :    0.206453
  10 S :   -0.440254
  11 N :   -0.213041
  12 C :    0.054223
  13 C :    0.035611
  14 C :   -0.185024
  15 C :   -0.132694
  16 C :   -0.277816
  17 C :    0.322563
  18 O :   -0.359185
  19 C :   -0.272427
  20 H :    0.127060
  21 H :    0.114555
  22 H :    0.104400
  23 H :    0.109776
  24 H :    0.095978
  25 H :    0.120791
  26 H :    0.132407
  27 H :    0.105121
  28 H :    0.198591
  29 H :    0.199498
  30 H :    0.157038
  31 H :    0.165591
  32 H :    0.162563
  33 H :    0.130369
  34 H :    0.240590
  35 H :    0.169677
Sum of atomic charges:   -0.0000000

LOEWDIN ATOMIC CHARGES
----------------------
   0 C :    0.106211
   1 C :   -0.012661
   2 O :    0.286125
   3 C :   -0.423640
   4 O :    0.122684
   5 C :   -0.096587
   6 C :   -0.067363
   7 C :    0.126620
   8 N :    0.405608
   9 C :   -0.457975
  10 S :   -0.036206
  11 N :    0.396210
  12 C :   -0.048387
  13 C :   -0.041474
  14 C :    0.024468
  15 C :    0.041480
  16 C :   -0.001121
  17 C :   -0.193397
  18 O :    0.393698
  19 C :    0.029770
  20 H :   -0.020877
  21 H :   -0.022797
  22 H :   -0.030546
  23 H :   -0.026200
  24 H :   -0.030001
  25 H :   -0.010846
  26 H :   -0.006396
  27 H :   -0.020307
  28 H :   -0.058418
  29 H :   -0.063457
  30 H :   -0.007038
  31 H :   -0.023031
  32 H :   -0.020173
  33 H :   -0.035568
  34 H :   -0.154140
  35 H :   -0.024269

  Mayer bond orders larger than 0.100000
B(  0-C ,  1-C ) :   0.9595 B(  0-C , 20-H ) :   0.9668 B(  0-C , 21-H ) :   0.9748
B(  0-C , 22-H ) :   0.9702 B(  1-C ,  2-O ) :   0.9021 B(  1-C , 23-H ) :   0.9851
B(  1-C , 24-H ) :   0.9794 B(  2-O ,  3-C ) :   1.0706 B(  3-C ,  4-O ) :   2.0382
B(  3-C ,  5-C ) :   1.0126 B(  5-C ,  6-C ) :   1.6659 B(  5-C , 12-C ) :   0.9497
B(  6-C ,  7-C ) :   0.9517 B(  6-C ,  8-N ) :   1.1394 B(  7-C , 25-H ) :   0.9666
B(  7-C , 26-H ) :   0.9643 B(  7-C , 27-H ) :   0.9900 B(  8-N ,  9-C ) :   1.1848
B(  8-N , 28-H ) :   0.9470 B(  9-C , 10-S ) :   1.6117 B(  9-C , 11-N ) :   1.3030
B( 11-N , 12-C ) :   0.9800 B( 11-N , 29-H ) :   0.9487 B( 12-C , 13-C ) :   0.9661
B( 12-C , 30-H ) :   0.9958 B( 13-C , 14-C ) :   1.3817 B( 13-C , 19-C ) :   1.3532
B( 14-C , 15-C ) :   1.3950 B( 14-C , 31-H ) :   0.9612 B( 15-C , 16-C ) :   1.3597
B( 15-C , 32-H ) :   0.9704 B( 16-C , 17-C ) :   1.3324 B( 16-C , 33-H ) :   0.9851
B( 17-C , 18-O ) :   1.1057 B( 17-C , 19-C ) :   1.3583 B( 18-O , 34-H ) :   0.9802
B( 19-C , 35-H ) :   0.9601

MP2 TOTAL ENERGY:    -1274.325205793 Eh
FINAL SINGLE POINT ENERGY     -1274.325205792912

DIPOLE MOMENT
-------------
                                X             Y             Z
Electronic contribution:      9.02521       8.85141       7.17176
Nuclear contribution   :    -10.49575     -10.07684      -7.89370
                        -----------------------------------------
Total Dipole Moment    :     -1.47054      -1.22543      -0.72194
                        -----------------------------------------
Magnitude (a.u.)       :      2.04581
Magnitude (Debye)      :      5.20004

Rotational constants in cm-1:     0.011355     0.009303     0.006287
Rotational constants in MHz :   340.413280   278.905935   188.488742

                             ****ORCA TERMINATED NORMALLY****
TOTAL RUN TIME: 0 days 1 hours 44 minutes 16 seconds 882 msec
