                         Program Version 4.2.0 -  RELEASE  -
|  1> ! ri-mp2 cc-pvtz cc-pvtz/c TightSCF NoKeepInts
|  2>
|  3> %scf
|  4>   MaxCore 4096
|  5> end
|  6> *xyz  0  1
|  7>     C       14.3943806   15.4570154   15.8019443
|  8>     C       15.8214413   14.8623556   15.7751906
|  9>     O       16.8665968   15.8381289   15.5355193
| 10>     C       16.6071777   17.1580376   15.2962128
| 11>     O       16.0442547   17.5149741   14.2763004
| 12>     C       17.0260689   18.0633022   16.4248028
| 13>     C       17.0094919   19.4129317   16.2721739
| 14>     C       16.3523024   20.2021025   15.1585729
| 15>     N       17.6462593   20.2501617   17.1910270
| 16>     C       18.4845338   19.8163802   18.1817191
| 17>     S       19.2854292   20.8680345   19.1758197
| 18>     N       18.6451409   18.4588434   18.2938981
| 19>     C       17.8938046   17.4425453   17.5339186
| 20>     C       17.1646799   16.4621189   18.4426172
| 21>     C       17.7338204   15.2100259   18.7397202
| 22>     C       17.0599822   14.2995030   19.5710722
| 23>     C       15.8096824   14.6459929   20.1115672
| 24>     C       15.2461665   15.8971447   19.8253425
| 25>     O       14.0394213   16.2345893   20.3451296
| 26>     C       15.9197299   16.8018661   18.9990380
| 27>     H       14.3067782   16.2508301   16.5539491
| 28>     H       13.6670278   14.6766107   16.0558083
| 29>     H       14.1140245   15.8631117   14.8218409
| 30>     H       16.0128632   14.3589947   16.7310712
| 31>     H       15.8667799   14.0959718   14.9907188
| 32>     H       16.8657119   20.0250054   14.2047355
| 33>     H       16.3516768   21.2834116   15.3394671
| 34>     H       15.3070697   19.8930342   15.0298300
| 35>     H       17.5570103   21.2498220   17.1028243
| 36>     H       19.2462568   18.1686442   19.0546793
| 37>     H       18.7195550   16.9395646   17.0105375
| 38>     H       18.6985558   14.9395673   18.3182378
| 39>     H       17.5065131   13.3318820   19.7945374
| 40>     H       15.2852557   13.9459750   20.7539164
| 41>     H       13.7601081   15.5129893   20.9287742
| 42>     H       15.4714484   17.7685316   18.7954858
| 43> *
| 44>
| 45>                          ****END OF INPUT****

CARTESIAN COORDINATES (ANGSTROEM)
---------------------------------
  C     14.394381   15.457015   15.801944
  C     15.821441   14.862356   15.775191
  O     16.866597   15.838129   15.535519
  C     16.607178   17.158038   15.296213
  O     16.044255   17.514974   14.276300
  C     17.026069   18.063302   16.424803
  C     17.009492   19.412932   16.272174
  C     16.352302   20.202102   15.158573
  N     17.646259   20.250162   17.191027
  C     18.484534   19.816380   18.181719
  S     19.285429   20.868035   19.175820
  N     18.645141   18.458843   18.293898
  C     17.893805   17.442545   17.533919
  C     17.164680   16.462119   18.442617
  C     17.733820   15.210026   18.739720
  C     17.059982   14.299503   19.571072
  C     15.809682   14.645993   20.111567
  C     15.246166   15.897145   19.825343
  O     14.039421   16.234589   20.345130
  C     15.919730   16.801866   18.999038
  H     14.306778   16.250830   16.553949
  H     13.667028   14.676611   16.055808
  H     14.114024   15.863112   14.821841
  H     16.012863   14.358995   16.731071
  H     15.866780   14.095972   14.990719
  H     16.865712   20.025005   14.204735
  H     16.351677   21.283412   15.339467
  H     15.307070   19.893034   15.029830
  H     17.557010   21.249822   17.102824
  H     19.246257   18.168644   19.054679
  H     18.719555   16.939565   17.010538
  H     18.698556   14.939567   18.318238
  H     17.506513   13.331882   19.794537
  H     15.285256   13.945975   20.753916
  H     13.760108   15.512989   20.928774
  H     15.471448   17.768532   18.795486

 Total Charge           Charge          ....    0
 Multiplicity           Mult            ....    1
 Number of Electrons    NEL             ....  154
 Basis Dimension        Dim             ....  828

ORBITAL ENERGIES
----------------

  NO   OCC          E(Eh)            E(eV)
   0   2.0000     -91.890100     -2500.4567
   1   2.0000     -20.602542      -560.6237
   2   2.0000     -20.581409      -560.0486
   3   2.0000     -20.543210      -559.0092
   4   2.0000     -15.630501      -425.3276
   5   2.0000     -15.608243      -424.7219
   6   2.0000     -11.392587      -310.0080
   7   2.0000     -11.384677      -309.7928
   8   2.0000     -11.338546      -308.5375
   9   2.0000     -11.320063      -308.0346
  10   2.0000     -11.309392      -307.7442
  11   2.0000     -11.297780      -307.4282
  12   2.0000     -11.266145      -306.5674
  13   2.0000     -11.261300      -306.4356
  14   2.0000     -11.258203      -306.3513
  15   2.0000     -11.252502      -306.1961
  16   2.0000     -11.249577      -306.1166
  17   2.0000     -11.244260      -305.9719
  18   2.0000     -11.244063      -305.9665
  19   2.0000     -11.225045      -305.4490
  20   2.0000      -8.895161      -242.0496
  21   2.0000      -6.576731      -178.9619
  22   2.0000      -6.574735      -178.9076
  23   2.0000      -6.574142      -178.8915
  24   2.0000      -1.441092       -39.2141
  25   2.0000      -1.422199       -38.7000
  26   2.0000      -1.349184       -36.7132
  27   2.0000      -1.341722       -36.5101
  28   2.0000      -1.239850       -33.7380
  29   2.0000      -1.162929       -31.6449
  30   2.0000      -1.122068       -30.5330
  31   2.0000      -1.046740       -28.4832
  32   2.0000      -1.030900       -28.0522
  33   2.0000      -1.021067       -27.7846
  34   2.0000      -0.998758       -27.1776
  35   2.0000      -0.986485       -26.8436
  36   2.0000      -0.924407       -25.1544
  37   2.0000      -0.895477       -24.3672
  38   2.0000      -0.848933       -23.1006
  39   2.0000      -0.842762       -22.9327
  40   2.0000      -0.839338       -22.8396
  41   2.0000      -0.819541       -22.3008
  42   2.0000      -0.744554       -20.2603
  43   2.0000      -0.736249       -20.0344
  44   2.0000      -0.718700       -19.5568
  45   2.0000      -0.700629       -19.0651
  46   2.0000      -0.689493       -18.7621
  47   2.0000      -0.674994       -18.3675
  48   2.0000      -0.670938       -18.2571
  49   2.0000      -0.659384       -17.9428
  50   2.0000      -0.651197       -17.7200
  51   2.0000      -0.642754       -17.4902
  52   2.0000      -0.637053       -17.3351
  53   2.0000      -0.624088       -16.9823
  54   2.0000      -0.612599       -16.6697
  55   2.0000      -0.604657       -16.4536
  56   2.0000      -0.602503       -16.3949
  57   2.0000      -0.581797       -15.8315
  58   2.0000      -0.570970       -15.5369
  59   2.0000      -0.567085       -15.4312
  60   2.0000      -0.546763       -14.8782
  61   2.0000      -0.542761       -14.7693
  62   2.0000      -0.535247       -14.5648
  63   2.0000      -0.529314       -14.4034
  64   2.0000      -0.525247       -14.2927
  65   2.0000      -0.514825       -14.0091
  66   2.0000      -0.502860       -13.6835
  67   2.0000      -0.491478       -13.3738
  68   2.0000      -0.487414       -13.2632
  69   2.0000      -0.463425       -12.6104
  70   2.0000      -0.455030       -12.3820
  71   2.0000      -0.440980       -11.9997
  72   2.0000      -0.356106        -9.6901
  73   2.0000      -0.353137        -9.6094
  74   2.0000      -0.330424        -8.9913
  75   2.0000      -0.326648        -8.8885
  76   2.0000      -0.319777        -8.7016
  77   0.0000       0.072831         1.9818
  78   0.0000       0.099152         2.6981
  79   0.0000       0.121748         3.3129
  80   0.0000       0.129395         3.5210
  81   0.0000       0.130340         3.5467

MULLIKEN ATOMIC CHARGES
-----------------------
   0 C :   -0.324986
   1 C :    0.035462
   2 O :   -0.391548
   3 C :    0.501683
   4 O :   -0.418757
   5 C :   -0.302242
   6 C :    0.184772
   7 C :   -0.267969
   8 N :   -0.126748
   9 C :    0.214275
  10 S :   -0.441230
  11 N :   -0.219650
  12 C :    0.079356
  13 C :    0.036809
  14 C :   -0.183143
  15 C :   -0.132786
  16 C :   -0.271903
  17 C :    0.322383
  18 O :   -0.357849
  19 C :   -0.274433
  20 H :    0.100804
  21 H :    0.106738
  22 H :    0.127225
  23 H :    0.109545
  24 H :    0.115799
  25 H :    0.132430
  26 H :    0.094641
  27 H :    0.131374
  28 H :    0.199247
  29 H :    0.201100
  30 H :    0.151473
  31 H :    0.153093
  32 H :    0.164739
  33 H :    0.133853
  34 H :    0.242055
  35 H :    0.174387
Sum of atomic charges:   -0.0000000

LOEWDIN ATOMIC CHARGES
----------------------
   0 C :    0.104745
   1 C :   -0.010598
   2 O :    0.285948
   3 C :   -0.421179
   4 O :    0.112126
   5 C :   -0.101846
   6 C :   -0.054876
   7 C :    0.131395
   8 N :    0.407740
   9 C :   -0.455637
  10 S :   -0.035600
  11 N :    0.394145
  12 C :   -0.054365
  13 C :   -0.037795
  14 C :    0.016885
  15 C :    0.040722
  16 C :   -0.001105
  17 C :   -0.190095
  18 O :    0.396306
  19 C :    0.034014
  20 H :   -0.030721
  21 H :   -0.023584
  22 H :   -0.024747
  23 H :   -0.029300
  24 H :   -0.027759
  25 H :   -0.003992
  26 H :   -0.023579
  27 H :   -0.004883
  28 H :   -0.056876
  29 H :   -0.064987
  30 H :   -0.012043
  31 H :   -0.027899
  32 H :   -0.019827
  33 H :   -0.034331
  34 H :   -0.152531
  35 H :   -0.023872

  Mayer bond orders larger than 0.100000
B(  0-C ,  1-C ) :   0.9633 B(  0-C , 20-H ) :   0.9726 B(  0-C , 21-H ) :   0.9752
B(  0-C , 22-H ) :   0.9715 B(  1-C ,  2-O ) :   0.8911 B(  1-C , 23-H ) :   0.9714
B(  1-C , 24-H ) :   0.9853 B(  2-O ,  3-C ) :   1.0962 B(  3-C ,  4-O ) :   2.0005
B(  3-C ,  5-C ) :   1.0666 B(  5-C ,  6-C ) :   1.6264 B(  5-C , 12-C ) :   0.9541
B(  6-C ,  7-C ) :   0.9660 B(  6-C ,  8-N ) :   1.1619 B(  7-C , 25-H ) :   0.9573
B(  7-C , 26-H ) :   0.9893 B(  7-C , 27-H ) :   0.9627 B(  8-N ,  9-C ) :   1.1852
B(  8-N , 28-H ) :   0.9466 B(  9-C , 10-S ) :   1.6037 B(  9-C , 11-N ) :   1.3116
B( 11-N , 12-C ) :   0.9607 B( 11-N , 29-H ) :   0.9483 B( 12-C , 13-C ) :   0.9670
B( 12-C , 30-H ) :   1.0003 B( 13-C , 14-C ) :   1.3492 B( 13-C , 19-C ) :   1.3580
B( 14-C , 15-C ) :   1.3952 B( 14-C , 31-H ) :   0.9739 B( 15-C , 16-C ) :   1.3565
B( 15-C , 32-H ) :   0.9698 B( 16-C , 17-C ) :   1.3341 B( 16-C , 33-H ) :   0.9839
B( 17-C , 18-O ) :   1.1046 B( 17-C , 19-C ) :   1.3574 B( 18-O , 34-H ) :   0.9790
B( 19-C , 35-H ) :   0.9579

MP2 TOTAL ENERGY:    -1274.328398057 Eh
FINAL SINGLE POINT ENERGY     -1274.328398056844

DIPOLE MOMENT
-------------
                                X             Y             Z
Electronic contribution:      9.53521       8.93019       6.12341
Nuclear contribution   :    -10.57266     -10.59015      -5.96622
                        -----------------------------------------
Total Dipole Moment    :     -1.03745      -1.65996       0.15719
                        -----------------------------------------
Magnitude (a.u.)       :      1.96379
Magnitude (Debye)      :      4.99156

Rotational constants in cm-1:     0.012659     0.008645     0.006262
Rotational constants in MHz :   379.497392   259.159093   187.718321

                             ****ORCA TERMINATED NORMALLY****
TOTAL RUN TIME: 0 days 2 hours 2 minutes 25 seconds 267 msec
