                         Program Version 4.2.0 -  RELEASE  -
|  1> ! ri-mp2 cc-pvtz cc-pvtz/c TightSCF NoKeepInts
|  2>
|  3> %scf
|  4>   MaxCore 4096
|  5> end
|  6> *xyz  0  1
|  7>     C       13.7494401   16.3587268   14.5101706
|  8>     C       14.7516897   16.2317033   15.6704118
|  9>     O       16.0540623   16.0071125   15.0909241
| 10>     C       17.2284893   16.5177578   15.5861961
| 11>     O       18.3005006   16.0292170   15.2812588
| 12>     C       17.1273811   17.6133885   16.5959903
| 13>     C       16.6863213   18.8395869   16.2240198
| 14>     C       16.0366392   19.2142603   14.9073980
| 15>     N       16.8821380   19.9505745   17.0462241
| 16>     C       17.7254781   19.9662199   18.1260078
| 17>     S       18.0051351   21.3462581   18.9928621
| 18>     N       18.3459117   18.7803822   18.4350939
| 19>     C       18.0505551   17.4772425   17.8060892
| 20>     C       17.6033698   16.3856411   18.7661133
| 21>     C       18.1276668   15.0859233   18.6498827
| 22>     C       17.7054151   14.0656844   19.5184253
| 23>     C       16.7482532   14.3473901   20.5083688
| 24>     C       16.2187653   15.6403595   20.6209721
| 25>     O       15.2870939   15.9125493   21.5689157
| 26>     C       16.6399422   16.6540785   19.7541597
| 27>     H       12.7349433   16.5232967   14.8932950
| 28>     H       13.7423444   15.4411633   13.9081782
| 29>     H       14.0099724   17.1968049   13.8530379
| 30>     H       14.6997272   17.1420301   16.2768877
| 31>     H       14.4818124   15.3840377   16.3142592
| 32>     H       16.2598335   18.4928009   14.1117099
| 33>     H       16.3982929   20.1864086   14.5483406
| 34>     H       14.9469876   19.2800419   15.0102003
| 35>     H       16.4644110   20.8361395   16.8068725
| 36>     H       18.9611733   18.8172155   19.2383341
| 37>     H       19.0421267   17.2327056   17.3961942
| 38>     H       18.8592007   14.8647953   17.8749523
| 39>     H       18.1172836   13.0626902   19.4190177
| 40>     H       16.4186213   13.5617008   21.1802130
| 41>     H       15.1598869   15.1062756   22.0914931
| 42>     H       16.2161352   17.6478368   19.8555302
| 43> *
| 44>
| 45>                          ****END OF INPUT****

CARTESIAN COORDINATES (ANGSTROEM)
---------------------------------
  C     13.749440   16.358727   14.510171
  C     14.751690   16.231703   15.670412
  O     16.054062   16.007113   15.090924
  C     17.228489   16.517758   15.586196
  O     18.300501   16.029217   15.281259
  C     17.127381   17.613388   16.595990
  C     16.686321   18.839587   16.224020
  C     16.036639   19.214260   14.907398
  N     16.882138   19.950574   17.046224
  C     17.725478   19.966220   18.126008
  S     18.005135   21.346258   18.992862
  N     18.345912   18.780382   18.435094
  C     18.050555   17.477242   17.806089
  C     17.603370   16.385641   18.766113
  C     18.127667   15.085923   18.649883
  C     17.705415   14.065684   19.518425
  C     16.748253   14.347390   20.508369
  C     16.218765   15.640359   20.620972
  O     15.287094   15.912549   21.568916
  C     16.639942   16.654079   19.754160
  H     12.734943   16.523297   14.893295
  H     13.742344   15.441163   13.908178
  H     14.009972   17.196805   13.853038
  H     14.699727   17.142030   16.276888
  H     14.481812   15.384038   16.314259
  H     16.259833   18.492801   14.111710
  H     16.398293   20.186409   14.548341
  H     14.946988   19.280042   15.010200
  H     16.464411   20.836140   16.806873
  H     18.961173   18.817215   19.238334
  H     19.042127   17.232706   17.396194
  H     18.859201   14.864795   17.874952
  H     18.117284   13.062690   19.419018
  H     16.418621   13.561701   21.180213
  H     15.159887   15.106276   22.091493
  H     16.216135   17.647837   19.855530

 Total Charge           Charge          ....    0
 Multiplicity           Mult            ....    1
 Number of Electrons    NEL             ....  154
 Basis Dimension        Dim             ....  828

ORBITAL ENERGIES
----------------

  NO   OCC          E(Eh)            E(eV)
   0   2.0000     -91.889745     -2500.4471
   1   2.0000     -20.604974      -560.6899
   2   2.0000     -20.598822      -560.5225
   3   2.0000     -20.550273      -559.2014
   4   2.0000     -15.627911      -425.2571
   5   2.0000     -15.609515      -424.7565
   6   2.0000     -11.399980      -310.2092
   7   2.0000     -11.385683      -309.8202
   8   2.0000     -11.333426      -308.3982
   9   2.0000     -11.316042      -307.9251
  10   2.0000     -11.310057      -307.7623
  11   2.0000     -11.307086      -307.6815
  12   2.0000     -11.268442      -306.6299
  13   2.0000     -11.264149      -306.5131
  14   2.0000     -11.263968      -306.5082
  15   2.0000     -11.256375      -306.3015
  16   2.0000     -11.245149      -305.9961
  17   2.0000     -11.241340      -305.8924
  18   2.0000     -11.238745      -305.8218
  19   2.0000     -11.238288      -305.8094
  20   2.0000      -8.894852      -242.0412
  21   2.0000      -6.576434      -178.9539
  22   2.0000      -6.574421      -178.8991
  23   2.0000      -6.573839      -178.8833
  24   2.0000      -1.449012       -39.4296
  25   2.0000      -1.418514       -38.5997
  26   2.0000      -1.362405       -37.0729
  27   2.0000      -1.340969       -36.4896
  28   2.0000      -1.239261       -33.7220
  29   2.0000      -1.160583       -31.5811
  30   2.0000      -1.126627       -30.6571
  31   2.0000      -1.048285       -28.5253
  32   2.0000      -1.044478       -28.4217
  33   2.0000      -1.018372       -27.7113
  34   2.0000      -1.005843       -27.3704
  35   2.0000      -0.989911       -26.9368
  36   2.0000      -0.926283       -25.2054
  37   2.0000      -0.886781       -24.1305
  38   2.0000      -0.855006       -23.2659
  39   2.0000      -0.842635       -22.9293
  40   2.0000      -0.837201       -22.7814
  41   2.0000      -0.835290       -22.7294
  42   2.0000      -0.759267       -20.6607
  43   2.0000      -0.739682       -20.1278
  44   2.0000      -0.732254       -19.9257
  45   2.0000      -0.696322       -18.9479
  46   2.0000      -0.689375       -18.7588
  47   2.0000      -0.682646       -18.5757
  48   2.0000      -0.673817       -18.3355
  49   2.0000      -0.666123       -18.1261
  50   2.0000      -0.653636       -17.7863
  51   2.0000      -0.646887       -17.6027
  52   2.0000      -0.638896       -17.3852
  53   2.0000      -0.614969       -16.7342
  54   2.0000      -0.606964       -16.5163
  55   2.0000      -0.603126       -16.4119
  56   2.0000      -0.601141       -16.3579
  57   2.0000      -0.586524       -15.9601
  58   2.0000      -0.577716       -15.7204
  59   2.0000      -0.569894       -15.5076
  60   2.0000      -0.562518       -15.3069
  61   2.0000      -0.560934       -15.2638
  62   2.0000      -0.546032       -14.8583
  63   2.0000      -0.536050       -14.5867
  64   2.0000      -0.522389       -14.2149
  65   2.0000      -0.515263       -14.0210
  66   2.0000      -0.505202       -13.7473
  67   2.0000      -0.500991       -13.6326
  68   2.0000      -0.487913       -13.2768
  69   2.0000      -0.469008       -12.7624
  70   2.0000      -0.458253       -12.4697
  71   2.0000      -0.451229       -12.2786
  72   2.0000      -0.356108        -9.6902
  73   2.0000      -0.350978        -9.5506
  74   2.0000      -0.329219        -8.9585
  75   2.0000      -0.323716        -8.8088
  76   2.0000      -0.319492        -8.6938
  77   0.0000       0.085090         2.3154
  78   0.0000       0.104904         2.8546
  79   0.0000       0.115887         3.1534
  80   0.0000       0.129271         3.5176
  81   0.0000       0.130767         3.5584

MULLIKEN ATOMIC CHARGES
-----------------------
   0 C :   -0.268225
   1 C :    0.021246
   2 O :   -0.318318
   3 C :    0.416541
   4 O :   -0.383070
   5 C :   -0.214358
   6 C :    0.150433
   7 C :   -0.339309
   8 N :   -0.139176
   9 C :    0.209371
  10 S :   -0.442830
  11 N :   -0.221749
  12 C :    0.053022
  13 C :    0.031415
  14 C :   -0.222863
  15 C :   -0.127350
  16 C :   -0.277309
  17 C :    0.314508
  18 O :   -0.356241
  19 C :   -0.250662
  20 H :    0.093323
  21 H :    0.110977
  22 H :    0.092345
  23 H :    0.096040
  24 H :    0.123591
  25 H :    0.134738
  26 H :    0.136231
  27 H :    0.125489
  28 H :    0.198137
  29 H :    0.202697
  30 H :    0.167955
  31 H :    0.174822
  32 H :    0.164340
  33 H :    0.131080
  34 H :    0.241221
  35 H :    0.171939
Sum of atomic charges:   -0.0000000

LOEWDIN ATOMIC CHARGES
----------------------
   0 C :    0.106546
   1 C :   -0.016844
   2 O :    0.307418
   3 C :   -0.415329
   4 O :    0.119937
   5 C :   -0.085337
   6 C :   -0.092206
   7 C :    0.126548
   8 N :    0.402561
   9 C :   -0.456615
  10 S :   -0.038249
  11 N :    0.396242
  12 C :   -0.049703
  13 C :   -0.043731
  14 C :    0.019781
  15 C :    0.044749
  16 C :   -0.000102
  17 C :   -0.191006
  18 O :    0.394767
  19 C :    0.027107
  20 H :   -0.024490
  21 H :   -0.022820
  22 H :   -0.031138
  23 H :   -0.039718
  24 H :   -0.026058
  25 H :   -0.008029
  26 H :   -0.010563
  27 H :   -0.016562
  28 H :   -0.057522
  29 H :   -0.063504
  30 H :   -0.004199
  31 H :   -0.021493
  32 H :   -0.018714
  33 H :   -0.034952
  34 H :   -0.153303
  35 H :   -0.023469

  Mayer bond orders larger than 0.100000
B(  0-C ,  1-C ) :   0.9714 B(  0-C , 20-H ) :   0.9747 B(  0-C , 21-H ) :   0.9777
B(  0-C , 22-H ) :   0.9781 B(  1-C ,  2-O ) :   0.9021 B(  1-C , 23-H ) :   0.9629
B(  1-C , 24-H ) :   0.9792 B(  2-O ,  3-C ) :   1.1827 B(  3-C ,  4-O ) :   2.0979
B(  3-C ,  5-C ) :   0.9299 B(  5-C ,  6-C ) :   1.7170 B(  5-C , 12-C ) :   0.9424
B(  6-C ,  7-C ) :   0.9326 B(  6-C ,  8-N ) :   1.1067 B(  7-C , 25-H ) :   0.9748
B(  7-C , 26-H ) :   0.9794 B(  7-C , 27-H ) :   0.9653 B(  8-N ,  9-C ) :   1.1959
B(  8-N , 28-H ) :   0.9507 B(  9-C , 10-S ) :   1.6100 B(  9-C , 11-N ) :   1.2918
B( 11-N , 12-C ) :   0.9834 B( 11-N , 29-H ) :   0.9473 B( 12-C , 13-C ) :   0.9702
B( 12-C , 30-H ) :   0.9889 B( 13-C , 14-C ) :   1.3835 B( 13-C , 19-C ) :   1.3545
B( 14-C , 15-C ) :   1.3943 B( 14-C , 31-H ) :   0.9603 B( 15-C , 16-C ) :   1.3617
B( 15-C , 32-H ) :   0.9696 B( 16-C , 17-C ) :   1.3309 B( 16-C , 33-H ) :   0.9852
B( 17-C , 18-O ) :   1.1081 B( 17-C , 19-C ) :   1.3672 B( 18-O , 34-H ) :   0.9794
B( 19-C , 35-H ) :   0.9565

MP2 TOTAL ENERGY:    -1274.329561626 Eh
FINAL SINGLE POINT ENERGY     -1274.329561625822

DIPOLE MOMENT
-------------
                                X             Y             Z
Electronic contribution:     11.27631       5.91647       9.87883
Nuclear contribution   :    -12.96926      -7.06918     -10.18449
                        -----------------------------------------
Total Dipole Moment    :     -1.69295      -1.15271      -0.30565
                        -----------------------------------------
Magnitude (a.u.)       :      2.07081
Magnitude (Debye)      :      5.26359

Rotational constants in cm-1:     0.010251     0.009191     0.006141
Rotational constants in MHz :   307.311670   275.540874   184.095995

                             ****ORCA TERMINATED NORMALLY****
TOTAL RUN TIME: 0 days 1 hours 45 minutes 44 seconds 891 msec
