                         Program Version 4.2.0 -  RELEASE  -
|  1> ! ri-mp2 cc-pvtz cc-pvtz/c TightSCF NoKeepInts
|  2>
|  3> %scf
|  4>   MaxCore 4096
|  5> end
|  6> *xyz  0  1
|  7>     C       14.6904676   15.7096058   16.1842356
|  8>     C       15.0452200   15.9797692   14.7027004
|  9>     O       16.3541902   16.5680096   14.5097070
| 10>     C       17.2906511   16.5779134   15.5011039
| 11>     O       18.0610445   15.6457366   15.6463604
| 12>     C       17.2030610   17.7272589   16.4631817
| 13>     C       16.8606650   18.9800271   16.0666898
| 14>     C       16.3161164   19.4072865   14.7183533
| 15>     N       17.0471526   20.0720781   16.9176681
| 16>     C       17.7674275   20.0313235   18.0813452
| 17>     S       18.0371717   21.3881226   18.9875553
| 18>     N       18.2711473   18.8078951   18.4455436
| 19>     C       17.9727936   17.5282822   17.7729526
| 20>     C       17.3303949   16.4949388   18.6884518
| 21>     C       17.8661915   15.1989229   18.7931619
| 22>     C       17.2612474   14.2404365   19.6232157
| 23>     C       16.1103726   14.5809701   20.3544916
| 24>     C       15.5730732   15.8712619   20.2501681
| 25>     O       14.4567005   16.2004099   20.9474663
| 26>     C       16.1775304   16.8231939   19.4230926
| 27>     H       15.4084398   15.0225879   16.6516879
| 28>     H       13.6996239   15.2447004   16.2542466
| 29>     H       14.6596108   16.6399609   16.7640601
| 30>     H       15.0146326   15.0221313   14.1663762
| 31>     H       14.2832605   16.6294165   14.2534220
| 32>     H       15.2984906   19.0269841   14.5705301
| 33>     H       16.9435442   19.0240170   13.9034633
| 34>     H       16.2793781   20.4975190   14.6027939
| 35>     H       16.7063351   20.9819112   16.6508585
| 36>     H       18.7847220   18.8018799   19.3178855
| 37>     H       18.9864444   17.2145673   17.4829457
| 38>     H       18.7458798   14.9294357   18.2127802
| 39>     H       17.6816824   13.2385642   19.6910426
| 40>     H       15.6386553   13.8426602   20.9943894
| 41>     H       14.2167133   15.4335572   21.4892153
| 42>     H       15.7469682   17.8166642   19.3548578
| 43> *
| 44>
| 45>                          ****END OF INPUT****

CARTESIAN COORDINATES (ANGSTROEM)
---------------------------------
  C     14.690468   15.709606   16.184236
  C     15.045220   15.979769   14.702700
  O     16.354190   16.568010   14.509707
  C     17.290651   16.577913   15.501104
  O     18.061044   15.645737   15.646360
  C     17.203061   17.727259   16.463182
  C     16.860665   18.980027   16.066690
  C     16.316116   19.407287   14.718353
  N     17.047153   20.072078   16.917668
  C     17.767428   20.031323   18.081345
  S     18.037172   21.388123   18.987555
  N     18.271147   18.807895   18.445544
  C     17.972794   17.528282   17.772953
  C     17.330395   16.494939   18.688452
  C     17.866191   15.198923   18.793162
  C     17.261247   14.240436   19.623216
  C     16.110373   14.580970   20.354492
  C     15.573073   15.871262   20.250168
  O     14.456701   16.200410   20.947466
  C     16.177530   16.823194   19.423093
  H     15.408440   15.022588   16.651688
  H     13.699624   15.244700   16.254247
  H     14.659611   16.639961   16.764060
  H     15.014633   15.022131   14.166376
  H     14.283260   16.629417   14.253422
  H     15.298491   19.026984   14.570530
  H     16.943544   19.024017   13.903463
  H     16.279378   20.497519   14.602794
  H     16.706335   20.981911   16.650858
  H     18.784722   18.801880   19.317885
  H     18.986444   17.214567   17.482946
  H     18.745880   14.929436   18.212780
  H     17.681682   13.238564   19.691043
  H     15.638655   13.842660   20.994389
  H     14.216713   15.433557   21.489215
  H     15.746968   17.816664   19.354858

 Total Charge           Charge          ....    0
 Multiplicity           Mult            ....    1
 Number of Electrons    NEL             ....  154
 Basis Dimension        Dim             ....  828

ORBITAL ENERGIES
----------------

  NO   OCC          E(Eh)            E(eV)
   0   2.0000     -91.889949     -2500.4526
   1   2.0000     -20.596011      -560.4459
   2   2.0000     -20.584089      -560.1215
   3   2.0000     -20.551335      -559.2302
   4   2.0000     -15.630503      -425.3276
   5   2.0000     -15.607692      -424.7069
   6   2.0000     -11.394458      -310.0590
   7   2.0000     -11.384759      -309.7951
   8   2.0000     -11.339046      -308.5511
   9   2.0000     -11.312234      -307.8215
  10   2.0000     -11.308419      -307.7177
  11   2.0000     -11.306047      -307.6532
  12   2.0000     -11.262209      -306.4603
  13   2.0000     -11.260243      -306.4068
  14   2.0000     -11.258888      -306.3699
  15   2.0000     -11.252206      -306.1881
  16   2.0000     -11.242329      -305.9193
  17   2.0000     -11.238078      -305.8036
  18   2.0000     -11.234621      -305.7096
  19   2.0000     -11.232291      -305.6462
  20   2.0000      -8.895026      -242.0460
  21   2.0000      -6.576600      -178.9584
  22   2.0000      -6.574598      -178.9039
  23   2.0000      -6.574008      -178.8878
  24   2.0000      -1.446203       -39.3532
  25   2.0000      -1.415797       -38.5258
  26   2.0000      -1.355583       -36.8873
  27   2.0000      -1.341700       -36.5095
  28   2.0000      -1.238893       -33.7120
  29   2.0000      -1.156527       -31.4707
  30   2.0000      -1.122692       -30.5500
  31   2.0000      -1.044753       -28.4292
  32   2.0000      -1.033570       -28.1249
  33   2.0000      -1.014227       -27.5985
  34   2.0000      -1.002973       -27.2923
  35   2.0000      -0.987794       -26.8792
  36   2.0000      -0.924246       -25.1500
  37   2.0000      -0.898734       -24.4558
  38   2.0000      -0.850563       -23.1450
  39   2.0000      -0.838815       -22.8253
  40   2.0000      -0.832339       -22.6491
  41   2.0000      -0.820965       -22.3396
  42   2.0000      -0.744923       -20.2704
  43   2.0000      -0.731895       -19.9159
  44   2.0000      -0.728211       -19.8156
  45   2.0000      -0.693158       -18.8618
  46   2.0000      -0.687216       -18.7001
  47   2.0000      -0.677643       -18.4396
  48   2.0000      -0.673526       -18.3276
  49   2.0000      -0.664393       -18.0791
  50   2.0000      -0.650980       -17.7141
  51   2.0000      -0.649201       -17.6656
  52   2.0000      -0.636390       -17.3171
  53   2.0000      -0.622637       -16.9428
  54   2.0000      -0.606264       -16.4973
  55   2.0000      -0.602327       -16.3902
  56   2.0000      -0.599603       -16.3160
  57   2.0000      -0.580486       -15.7958
  58   2.0000      -0.575920       -15.6716
  59   2.0000      -0.564112       -15.3503
  60   2.0000      -0.555559       -15.1175
  61   2.0000      -0.546799       -14.8792
  62   2.0000      -0.540116       -14.6973
  63   2.0000      -0.535411       -14.5693
  64   2.0000      -0.520164       -14.1544
  65   2.0000      -0.511496       -13.9185
  66   2.0000      -0.498731       -13.5712
  67   2.0000      -0.492566       -13.4034
  68   2.0000      -0.482955       -13.1419
  69   2.0000      -0.467493       -12.7211
  70   2.0000      -0.456129       -12.4119
  71   2.0000      -0.449177       -12.2227
  72   2.0000      -0.354796        -9.6545
  73   2.0000      -0.347839        -9.4652
  74   2.0000      -0.329040        -8.9536
  75   2.0000      -0.319825        -8.7029
  76   2.0000      -0.318803        -8.6751
  77   0.0000       0.072866         1.9828
  78   0.0000       0.105863         2.8807
  79   0.0000       0.117746         3.2040
  80   0.0000       0.132145         3.5958
  81   0.0000       0.137378         3.7383

MULLIKEN ATOMIC CHARGES
-----------------------
   0 C :   -0.341134
   1 C :    0.044440
   2 O :   -0.383262
   3 C :    0.479212
   4 O :   -0.391591
   5 C :   -0.264053
   6 C :    0.185631
   7 C :   -0.290653
   8 N :   -0.128765
   9 C :    0.205164
  10 S :   -0.440051
  11 N :   -0.213357
  12 C :    0.058341
  13 C :    0.026915
  14 C :   -0.183308
  15 C :   -0.132534
  16 C :   -0.278897
  17 C :    0.319344
  18 O :   -0.359085
  19 C :   -0.266047
  20 H :    0.127779
  21 H :    0.118182
  22 H :    0.106416
  23 H :    0.115620
  24 H :    0.097069
  25 H :    0.117971
  26 H :    0.136070
  27 H :    0.107773
  28 H :    0.198301
  29 H :    0.199600
  30 H :    0.157925
  31 H :    0.166614
  32 H :    0.162536
  33 H :    0.130644
  34 H :    0.240732
  35 H :    0.170457
Sum of atomic charges:   -0.0000000

LOEWDIN ATOMIC CHARGES
----------------------
   0 C :    0.105449
   1 C :   -0.013804
   2 O :    0.285546
   3 C :   -0.424610
   4 O :    0.124907
   5 C :   -0.094927
   6 C :   -0.069141
   7 C :    0.127062
   8 N :    0.405492
   9 C :   -0.458299
  10 S :   -0.036047
  11 N :    0.396317
  12 C :   -0.048457
  13 C :   -0.042065
  14 C :    0.023912
  15 C :    0.041528
  16 C :   -0.001162
  17 C :   -0.193547
  18 O :    0.393732
  19 C :    0.030319
  20 H :   -0.019489
  21 H :   -0.021834
  22 H :   -0.032382
  23 H :   -0.025012
  24 H :   -0.030972
  25 H :   -0.012087
  26 H :   -0.005809
  27 H :   -0.019588
  28 H :   -0.058487
  29 H :   -0.063340
  30 H :   -0.006610
  31 H :   -0.022665
  32 H :   -0.019920
  33 H :   -0.035468
  34 H :   -0.154045
  35 H :   -0.024496

  Mayer bond orders larger than 0.100000
B(  0-C ,  1-C ) :   0.9592 B(  0-C , 20-H ) :   0.9662 B(  0-C , 21-H ) :   0.9745
B(  0-C , 22-H ) :   0.9699 B(  1-C ,  2-O ) :   0.9026 B(  1-C , 23-H ) :   0.9848
B(  1-C , 24-H ) :   0.9792 B(  2-O ,  3-C ) :   1.0823 B(  3-C ,  4-O ) :   2.0539
B(  3-C ,  5-C ) :   0.9941 B(  5-C ,  6-C ) :   1.6655 B(  5-C , 12-C ) :   0.9510
B(  6-C ,  7-C ) :   0.9501 B(  6-C ,  8-N ) :   1.1368 B(  7-C , 25-H ) :   0.9676
B(  7-C , 26-H ) :   0.9637 B(  7-C , 27-H ) :   0.9898 B(  8-N ,  9-C ) :   1.1855
B(  8-N , 28-H ) :   0.9470 B(  9-C , 10-S ) :   1.6121 B(  9-C , 11-N ) :   1.3019
B( 11-N , 12-C ) :   0.9800 B( 11-N , 29-H ) :   0.9488 B( 12-C , 13-C ) :   0.9663
B( 12-C , 30-H ) :   0.9956 B( 13-C , 14-C ) :   1.3845 B( 13-C , 19-C ) :   1.3525
B( 14-C , 15-C ) :   1.3956 B( 14-C , 31-H ) :   0.9606 B( 15-C , 16-C ) :   1.3598
B( 15-C , 32-H ) :   0.9706 B( 16-C , 17-C ) :   1.3316 B( 16-C , 33-H ) :   0.9851
B( 17-C , 18-O ) :   1.1061 B( 17-C , 19-C ) :   1.3621 B( 18-O , 34-H ) :   0.9802
B( 19-C , 35-H ) :   0.9596

MP2 TOTAL ENERGY:    -1274.324248436 Eh
FINAL SINGLE POINT ENERGY     -1274.324248435502

DIPOLE MOMENT
-------------
                                X             Y             Z
Electronic contribution:      9.00373       8.15089       6.95451
Nuclear contribution   :    -10.48653      -9.33649      -7.62839
                        -----------------------------------------
Total Dipole Moment    :     -1.48280      -1.18559      -0.67388
                        -----------------------------------------
Magnitude (a.u.)       :      2.01456
Magnitude (Debye)      :      5.12060

Rotational constants in cm-1:     0.011371     0.009353     0.006383
Rotational constants in MHz :   340.907134   280.404439   191.351835

                             ****ORCA TERMINATED NORMALLY****
TOTAL RUN TIME: 0 days 1 hours 49 minutes 7 seconds 42 msec
