                         Program Version 4.2.0 -  RELEASE  -
|  1> ! ri-mp2 cc-pvtz cc-pvtz/c TightSCF NoKeepInts
|  2>
|  3> %scf
|  4>   MaxCore 4096
|  5> end
|  6> *xyz  0  1
|  7>     C       14.3918773   16.4304550   15.8721728
|  8>     C       15.4506340   15.3130332   15.9997029
|  9>     O       16.6765245   15.6215712   15.2941408
| 10>     C       17.3241336   16.8299774   15.2321596
| 11>     O       18.0310831   17.0989121   14.2785903
| 12>     C       17.1299165   17.7889253   16.3637448
| 13>     C       16.8945353   19.0859930   16.0534438
| 14>     C       16.4117209   19.6029028   14.7148908
| 15>     N       17.1031640   20.1068615   16.9817224
| 16>     C       17.7915618   19.9433918   18.1538210
| 17>     S       18.1181850   21.2122542   19.1627921
| 18>     N       18.2207268   18.6701348   18.4365861
| 19>     C       17.8567570   17.4582873   17.6757931
| 20>     C       17.2354779   16.3731203   18.5372302
| 21>     C       17.8267096   15.0989672   18.6188109
| 22>     C       17.2473027   14.0955287   19.4135215
| 23>     C       16.0720172   14.3706212   20.1340057
| 24>     C       15.4866408   15.6421508   20.0599921
| 25>     O       14.3498329   15.9092048   20.7499944
| 26>     C       16.0641554   16.6388892   19.2671713
| 27>     H       14.5903346   17.2649092   16.5534246
| 28>     H       13.4022562   16.0348117   16.1317056
| 29>     H       14.3416233   16.8081114   14.8433631
| 30>     H       15.6384367   15.1008471   17.0551506
| 31>     H       15.0386925   14.3917201   15.5679997
| 32>     H       15.7428680   18.8840931   14.2263999
| 33>     H       17.2633298   19.7640672   14.0405158
| 34>     H       15.8645011   20.5489093   14.8040053
| 35>     H       16.8375423   21.0529372   16.7583706
| 36>     H       18.7180930   18.5777174   19.3136092
| 37>     H       18.8613472   17.1418771   17.3587132
| 38>     H       18.7328786   14.8827899   18.0578658
| 39>     H       17.7089585   13.1107640   19.4691576
| 40>     H       15.6216409   13.5978664   20.7487438
| 41>     H       14.1410566   15.1281418   21.2848523
| 42>     H       15.6004845   17.6192555   19.2238363
| 43> *
| 44>
| 45>                          ****END OF INPUT****

CARTESIAN COORDINATES (ANGSTROEM)
---------------------------------
  C     14.391877   16.430455   15.872173
  C     15.450634   15.313033   15.999703
  O     16.676524   15.621571   15.294141
  C     17.324134   16.829977   15.232160
  O     18.031083   17.098912   14.278590
  C     17.129916   17.788925   16.363745
  C     16.894535   19.085993   16.053444
  C     16.411721   19.602903   14.714891
  N     17.103164   20.106862   16.981722
  C     17.791562   19.943392   18.153821
  S     18.118185   21.212254   19.162792
  N     18.220727   18.670135   18.436586
  C     17.856757   17.458287   17.675793
  C     17.235478   16.373120   18.537230
  C     17.826710   15.098967   18.618811
  C     17.247303   14.095529   19.413522
  C     16.072017   14.370621   20.134006
  C     15.486641   15.642151   20.059992
  O     14.349833   15.909205   20.749994
  C     16.064155   16.638889   19.267171
  H     14.590335   17.264909   16.553425
  H     13.402256   16.034812   16.131706
  H     14.341623   16.808111   14.843363
  H     15.638437   15.100847   17.055151
  H     15.038692   14.391720   15.568000
  H     15.742868   18.884093   14.226400
  H     17.263330   19.764067   14.040516
  H     15.864501   20.548909   14.804005
  H     16.837542   21.052937   16.758371
  H     18.718093   18.577717   19.313609
  H     18.861347   17.141877   17.358713
  H     18.732879   14.882790   18.057866
  H     17.708959   13.110764   19.469158
  H     15.621641   13.597866   20.748744
  H     14.141057   15.128142   21.284852
  H     15.600485   17.619256   19.223836

 Total Charge           Charge          ....    0
 Multiplicity           Mult            ....    1
 Number of Electrons    NEL             ....  154
 Basis Dimension        Dim             ....  828

ORBITAL ENERGIES
----------------

  NO   OCC          E(Eh)            E(eV)
   0   2.0000     -91.889872     -2500.4505
   1   2.0000     -20.606287      -560.7256
   2   2.0000     -20.593616      -560.3808
   3   2.0000     -20.548870      -559.1632
   4   2.0000     -15.626599      -425.2214
   5   2.0000     -15.610612      -424.7863
   6   2.0000     -11.396162      -310.1053
   7   2.0000     -11.385043      -309.8028
   8   2.0000     -11.328050      -308.2519
   9   2.0000     -11.324961      -308.1678
  10   2.0000     -11.316738      -307.9441
  11   2.0000     -11.300535      -307.5032
  12   2.0000     -11.270884      -306.6963
  13   2.0000     -11.265950      -306.5621
  14   2.0000     -11.256016      -306.2918
  15   2.0000     -11.255801      -306.2859
  16   2.0000     -11.254970      -306.2633
  17   2.0000     -11.249412      -306.1121
  18   2.0000     -11.249235      -306.1072
  19   2.0000     -11.232885      -305.6624
  20   2.0000      -8.894950      -242.0439
  21   2.0000      -6.576525      -178.9563
  22   2.0000      -6.574523      -178.9019
  23   2.0000      -6.573935      -178.8859
  24   2.0000      -1.441769       -39.2325
  25   2.0000      -1.426053       -38.8049
  26   2.0000      -1.355604       -36.8879
  27   2.0000      -1.340093       -36.4658
  28   2.0000      -1.240001       -33.7421
  29   2.0000      -1.168061       -31.7846
  30   2.0000      -1.124905       -30.6102
  31   2.0000      -1.051969       -28.6255
  32   2.0000      -1.034540       -28.1513
  33   2.0000      -1.025991       -27.9186
  34   2.0000      -1.003822       -27.3154
  35   2.0000      -0.989562       -26.9274
  36   2.0000      -0.927484       -25.2381
  37   2.0000      -0.898058       -24.4374
  38   2.0000      -0.851084       -23.1592
  39   2.0000      -0.845156       -22.9979
  40   2.0000      -0.844764       -22.9872
  41   2.0000      -0.828788       -22.5525
  42   2.0000      -0.751301       -20.4439
  43   2.0000      -0.740643       -20.1539
  44   2.0000      -0.719397       -19.5758
  45   2.0000      -0.704848       -19.1799
  46   2.0000      -0.692192       -18.8355
  47   2.0000      -0.678567       -18.4647
  48   2.0000      -0.676330       -18.4039
  49   2.0000      -0.663044       -18.0423
  50   2.0000      -0.651295       -17.7226
  51   2.0000      -0.649835       -17.6829
  52   2.0000      -0.637989       -17.3606
  53   2.0000      -0.619802       -16.8657
  54   2.0000      -0.614852       -16.7310
  55   2.0000      -0.608588       -16.5605
  56   2.0000      -0.603954       -16.4344
  57   2.0000      -0.584936       -15.9169
  58   2.0000      -0.577699       -15.7200
  59   2.0000      -0.567144       -15.4328
  60   2.0000      -0.562686       -15.3115
  61   2.0000      -0.550466       -14.9789
  62   2.0000      -0.539455       -14.6793
  63   2.0000      -0.535925       -14.5833
  64   2.0000      -0.530513       -14.4360
  65   2.0000      -0.517620       -14.0852
  66   2.0000      -0.505697       -13.7607
  67   2.0000      -0.501243       -13.6395
  68   2.0000      -0.486629       -13.2419
  69   2.0000      -0.465774       -12.6744
  70   2.0000      -0.451819       -12.2946
  71   2.0000      -0.446266       -12.1435
  72   2.0000      -0.359749        -9.7893
  73   2.0000      -0.351460        -9.5637
  74   2.0000      -0.334057        -9.0901
  75   2.0000      -0.328618        -8.9421
  76   2.0000      -0.319042        -8.6816
  77   0.0000       0.082583         2.2472
  78   0.0000       0.094976         2.5844
  79   0.0000       0.120113         3.2684
  80   0.0000       0.126526         3.4429
  81   0.0000       0.128595         3.4992

MULLIKEN ATOMIC CHARGES
-----------------------
   0 C :   -0.330454
   1 C :    0.035994
   2 O :   -0.323564
   3 C :    0.408643
   4 O :   -0.373166
   5 C :   -0.244373
   6 C :    0.159438
   7 C :   -0.285546
   8 N :   -0.130847
   9 C :    0.209918
  10 S :   -0.441186
  11 N :   -0.210352
  12 C :    0.040791
  13 C :   -0.002099
  14 C :   -0.177566
  15 C :   -0.131647
  16 C :   -0.271330
  17 C :    0.308141
  18 O :   -0.355061
  19 C :   -0.242830
  20 H :    0.111733
  21 H :    0.116921
  22 H :    0.107466
  23 H :    0.098762
  24 H :    0.125109
  25 H :    0.115913
  26 H :    0.147602
  27 H :    0.098222
  28 H :    0.197885
  29 H :    0.199705
  30 H :    0.161336
  31 H :    0.157227
  32 H :    0.165148
  33 H :    0.135705
  34 H :    0.242291
  35 H :    0.176073
Sum of atomic charges:   -0.0000000

LOEWDIN ATOMIC CHARGES
----------------------
   0 C :    0.101939
   1 C :   -0.013437
   2 O :    0.296832
   3 C :   -0.420333
   4 O :    0.126124
   5 C :   -0.091830
   6 C :   -0.079468
   7 C :    0.129286
   8 N :    0.405515
   9 C :   -0.455760
  10 S :   -0.036392
  11 N :    0.395729
  12 C :   -0.055881
  13 C :   -0.046689
  14 C :    0.018467
  15 C :    0.044791
  16 C :    0.002339
  17 C :   -0.191793
  18 O :    0.397591
  19 C :    0.033646
  20 H :   -0.036228
  21 H :   -0.022559
  22 H :   -0.029230
  23 H :   -0.035857
  24 H :   -0.021201
  25 H :   -0.011289
  26 H :   -0.003183
  27 H :   -0.020780
  28 H :   -0.057558
  29 H :   -0.063963
  30 H :   -0.009167
  31 H :   -0.025695
  32 H :   -0.017927
  33 H :   -0.032872
  34 H :   -0.151885
  35 H :   -0.021280

  Mayer bond orders larger than 0.100000
B(  0-C ,  1-C ) :   0.9562 B(  0-C , 20-H ) :   0.9696 B(  0-C , 21-H ) :   0.9770
B(  0-C , 22-H ) :   0.9761 B(  1-C ,  2-O ) :   0.9052 B(  1-C , 23-H ) :   0.9658
B(  1-C , 24-H ) :   0.9845 B(  2-O ,  3-C ) :   1.1865 B(  3-C ,  4-O ) :   2.1169
B(  3-C ,  5-C ) :   0.9284 B(  5-C ,  6-C ) :   1.6953 B(  5-C , 12-C ) :   0.9552
B(  6-C ,  7-C ) :   0.9431 B(  6-C ,  8-N ) :   1.1268 B(  7-C , 25-H ) :   0.9759
B(  7-C , 26-H ) :   0.9574 B(  7-C , 27-H ) :   0.9841 B(  8-N ,  9-C ) :   1.1985
B(  8-N , 28-H ) :   0.9494 B(  9-C , 10-S ) :   1.6123 B(  9-C , 11-N ) :   1.2880
B( 11-N , 12-C ) :   0.9791 B( 11-N , 29-H ) :   0.9476 B( 12-C , 13-C ) :   0.9519
B( 12-C , 30-H ) :   1.0050 B( 13-C , 14-C ) :   1.3694 B( 13-C , 19-C ) :   1.3576
B( 14-C , 15-C ) :   1.3950 B( 14-C , 31-H ) :   0.9696 B( 15-C , 16-C ) :   1.3637
B( 15-C , 32-H ) :   0.9697 B( 16-C , 17-C ) :   1.3278 B( 16-C , 33-H ) :   0.9832
B( 17-C , 18-O ) :   1.1122 B( 17-C , 19-C ) :   1.3640 B( 18-O , 34-H ) :   0.9783
B( 19-C , 35-H ) :   0.9564

MP2 TOTAL ENERGY:    -1274.320262885 Eh
FINAL SINGLE POINT ENERGY     -1274.320262884816

DIPOLE MOMENT
-------------
                                X             Y             Z
Electronic contribution:      9.10708       6.63624       6.37745
Nuclear contribution   :    -10.59374      -8.36543      -6.05074
                        -----------------------------------------
Total Dipole Moment    :     -1.48666      -1.72919       0.32672
                        -----------------------------------------
Magnitude (a.u.)       :      2.30370
Magnitude (Debye)      :      5.85554

Rotational constants in cm-1:     0.012236     0.009049     0.006430
Rotational constants in MHz :   366.818861   271.271696   192.763032

                             ****ORCA TERMINATED NORMALLY****
TOTAL RUN TIME: 0 days 1 hours 48 minutes 43 seconds 472 msec
