                         Program Version 4.2.0 -  RELEASE  -
|  1> ! ri-mp2 cc-pvtz cc-pvtz/c TightSCF NoKeepInts
|  2>
|  3> %scf
|  4>   MaxCore 4096
|  5> end
|  6> *xyz  0  1
|  7>     C       14.2457688   15.1764493   15.7173092
|  8>     C       14.9632608   16.4511238   15.2438844
|  9>     O       16.3132781   16.0703510   14.9041866
| 10>     C       17.4354954   16.4996762   15.5681312
| 11>     O       18.4866135   15.8930507   15.4771752
| 12>     C       17.2810605   17.6671677   16.4870695
| 13>     C       16.9765382   18.8908211   15.9909072
| 14>     C       16.5347822   19.2172614   14.5782197
| 15>     N       17.1303246   20.0370228   16.7728405
| 16>     C       17.8083690   20.0682915   17.9632586
| 17>     S       18.0524118   21.4798867   18.7890661
| 18>     N       18.2949634   18.8687295   18.4230518
| 19>     C       18.0096816   17.5491235   17.8243510
| 20>     C       17.3463830   16.5486188   18.7585559
| 21>     C       17.7909266   15.2149648   18.7953560
| 22>     C       17.1650924   14.2767280   19.6329065
| 23>     C       16.0832254   14.6751953   20.4367680
| 24>     C       15.6335364   16.0021654   20.3958153
| 25>     O       14.5821090   16.3868274   21.1621346
| 26>     C       16.2577660   16.9340879   19.5602920
| 27>     H       14.7252153   14.7776488   16.6207955
| 28>     H       14.2770082   14.4025298   14.9399619
| 29>     H       13.1952841   15.3875537   15.9513253
| 30>     H       14.4556441   16.8426115   14.3528572
| 31>     H       14.9047156   17.2063026   16.0360801
| 32>     H       16.8671564   18.4622420   13.8547447
| 33>     H       16.9568758   20.1717852   14.2383081
| 34>     H       15.4429479   19.2932469   14.5129207
| 35>     H       16.8115262   20.9295987   16.4298150
| 36>     H       18.7874437   18.9182786   19.3062799
| 37>     H       19.0310414   17.2199563   17.5805975
| 38>     H       18.6185040   14.9028457   18.1611775
| 39>     H       17.5165564   13.2464082   19.6521401
| 40>     H       15.5960195   13.9529909   21.0835654
| 41>     H       14.3174376   15.6230321   21.6968205
| 42>     H       15.8920369   17.9554261   19.5393314
| 43> *
| 44>
| 45>                          ****END OF INPUT****

CARTESIAN COORDINATES (ANGSTROEM)
---------------------------------
  C     14.245769   15.176449   15.717309
  C     14.963261   16.451124   15.243884
  O     16.313278   16.070351   14.904187
  C     17.435495   16.499676   15.568131
  O     18.486614   15.893051   15.477175
  C     17.281060   17.667168   16.487070
  C     16.976538   18.890821   15.990907
  C     16.534782   19.217261   14.578220
  N     17.130325   20.037023   16.772841
  C     17.808369   20.068292   17.963259
  S     18.052412   21.479887   18.789066
  N     18.294963   18.868729   18.423052
  C     18.009682   17.549124   17.824351
  C     17.346383   16.548619   18.758556
  C     17.790927   15.214965   18.795356
  C     17.165092   14.276728   19.632907
  C     16.083225   14.675195   20.436768
  C     15.633536   16.002165   20.395815
  O     14.582109   16.386827   21.162135
  C     16.257766   16.934088   19.560292
  H     14.725215   14.777649   16.620795
  H     14.277008   14.402530   14.939962
  H     13.195284   15.387554   15.951325
  H     14.455644   16.842612   14.352857
  H     14.904716   17.206303   16.036080
  H     16.867156   18.462242   13.854745
  H     16.956876   20.171785   14.238308
  H     15.442948   19.293247   14.512921
  H     16.811526   20.929599   16.429815
  H     18.787444   18.918279   19.306280
  H     19.031041   17.219956   17.580597
  H     18.618504   14.902846   18.161177
  H     17.516556   13.246408   19.652140
  H     15.596019   13.952991   21.083565
  H     14.317438   15.623032   21.696821
  H     15.892037   17.955426   19.539331

 Total Charge           Charge          ....    0
 Multiplicity           Mult            ....    1
 Number of Electrons    NEL             ....  154
 Basis Dimension        Dim             ....  828

ORBITAL ENERGIES
----------------

  NO   OCC          E(Eh)            E(eV)
   0   2.0000     -91.890138     -2500.4578
   1   2.0000     -20.605048      -560.6919
   2   2.0000     -20.599342      -560.5366
   3   2.0000     -20.548905      -559.1641
   4   2.0000     -15.628559      -425.2747
   5   2.0000     -15.609836      -424.7652
   6   2.0000     -11.399555      -310.1977
   7   2.0000     -11.386079      -309.8310
   8   2.0000     -11.334247      -308.4205
   9   2.0000     -11.316657      -307.9419
  10   2.0000     -11.310066      -307.7625
  11   2.0000     -11.306735      -307.6719
  12   2.0000     -11.268001      -306.6179
  13   2.0000     -11.264379      -306.5193
  14   2.0000     -11.263780      -306.5030
  15   2.0000     -11.256880      -306.3153
  16   2.0000     -11.245775      -306.0131
  17   2.0000     -11.242006      -305.9105
  18   2.0000     -11.239079      -305.8309
  19   2.0000     -11.231262      -305.6182
  20   2.0000      -8.895241      -242.0518
  21   2.0000      -6.576821      -178.9644
  22   2.0000      -6.574810      -178.9097
  23   2.0000      -6.574226      -178.8938
  24   2.0000      -1.448810       -39.4241
  25   2.0000      -1.419056       -38.6145
  26   2.0000      -1.361815       -37.0569
  27   2.0000      -1.341283       -36.4982
  28   2.0000      -1.239551       -33.7299
  29   2.0000      -1.161125       -31.5958
  30   2.0000      -1.126759       -30.6607
  31   2.0000      -1.048619       -28.5344
  32   2.0000      -1.040513       -28.3138
  33   2.0000      -1.018856       -27.7245
  34   2.0000      -1.006084       -27.3769
  35   2.0000      -0.990032       -26.9401
  36   2.0000      -0.926697       -25.2167
  37   2.0000      -0.886258       -24.1163
  38   2.0000      -0.855622       -23.2827
  39   2.0000      -0.842337       -22.9211
  40   2.0000      -0.837075       -22.7780
  41   2.0000      -0.835538       -22.7361
  42   2.0000      -0.755252       -20.5515
  43   2.0000      -0.740869       -20.1601
  44   2.0000      -0.731781       -19.9128
  45   2.0000      -0.697173       -18.9711
  46   2.0000      -0.689617       -18.7654
  47   2.0000      -0.682902       -18.5827
  48   2.0000      -0.675252       -18.3745
  49   2.0000      -0.662094       -18.0165
  50   2.0000      -0.655947       -17.8492
  51   2.0000      -0.645543       -17.5661
  52   2.0000      -0.638501       -17.3745
  53   2.0000      -0.613016       -16.6810
  54   2.0000      -0.607952       -16.5432
  55   2.0000      -0.605331       -16.4719
  56   2.0000      -0.602557       -16.3964
  57   2.0000      -0.583557       -15.8794
  58   2.0000      -0.578005       -15.7283
  59   2.0000      -0.569122       -15.4866
  60   2.0000      -0.561603       -15.2820
  61   2.0000      -0.557054       -15.1582
  62   2.0000      -0.550553       -14.9813
  63   2.0000      -0.530821       -14.4444
  64   2.0000      -0.519286       -14.1305
  65   2.0000      -0.514276       -13.9942
  66   2.0000      -0.505775       -13.7628
  67   2.0000      -0.501347       -13.6423
  68   2.0000      -0.488439       -13.2911
  69   2.0000      -0.471294       -12.8246
  70   2.0000      -0.454004       -12.3541
  71   2.0000      -0.451393       -12.2830
  72   2.0000      -0.356237        -9.6937
  73   2.0000      -0.351737        -9.5712
  74   2.0000      -0.329577        -8.9683
  75   2.0000      -0.324210        -8.8222
  76   2.0000      -0.319761        -8.7011
  77   0.0000       0.083554         2.2736
  78   0.0000       0.103397         2.8136
  79   0.0000       0.115925         3.1545
  80   0.0000       0.129499         3.5238
  81   0.0000       0.130830         3.5601

MULLIKEN ATOMIC CHARGES
-----------------------
   0 C :   -0.257717
   1 C :    0.018690
   2 O :   -0.316190
   3 C :    0.414225
   4 O :   -0.384857
   5 C :   -0.224387
   6 C :    0.156439
   7 C :   -0.325330
   8 N :   -0.138934
   9 C :    0.208594
  10 S :   -0.442074
  11 N :   -0.222378
  12 C :    0.063195
  13 C :    0.026544
  14 C :   -0.220147
  15 C :   -0.128204
  16 C :   -0.278208
  17 C :    0.314883
  18 O :   -0.356239
  19 C :   -0.253482
  20 H :    0.105759
  21 H :    0.103461
  22 H :    0.087399
  23 H :    0.103145
  24 H :    0.103524
  25 H :    0.137190
  26 H :    0.128088
  27 H :    0.122893
  28 H :    0.198543
  29 H :    0.202233
  30 H :    0.167326
  31 H :    0.175557
  32 H :    0.164864
  33 H :    0.131663
  34 H :    0.241335
  35 H :    0.172595
Sum of atomic charges:   -0.0000000

LOEWDIN ATOMIC CHARGES
----------------------
   0 C :    0.108635
   1 C :   -0.022253
   2 O :    0.309898
   3 C :   -0.416997
   4 O :    0.117899
   5 C :   -0.087242
   6 C :   -0.089518
   7 C :    0.127662
   8 N :    0.402661
   9 C :   -0.456469
  10 S :   -0.037679
  11 N :    0.396120
  12 C :   -0.049624
  13 C :   -0.044010
  14 C :    0.020370
  15 C :    0.044336
  16 C :   -0.000332
  17 C :   -0.191267
  18 O :    0.394898
  19 C :    0.026620
  20 H :   -0.023038
  21 H :   -0.024123
  22 H :   -0.026579
  23 H :   -0.031114
  24 H :   -0.037709
  25 H :   -0.006382
  26 H :   -0.011573
  27 H :   -0.016327
  28 H :   -0.057599
  29 H :   -0.063580
  30 H :   -0.004225
  31 H :   -0.021241
  32 H :   -0.018600
  33 H :   -0.034827
  34 H :   -0.153231
  35 H :   -0.023560

  Mayer bond orders larger than 0.100000
B(  0-C ,  1-C ) :   0.9839 B(  0-C , 20-H ) :   0.9741 B(  0-C , 21-H ) :   0.9794
B(  0-C , 22-H ) :   0.9760 B(  1-C ,  2-O ) :   0.8983 B(  1-C , 23-H ) :   0.9763
B(  1-C , 24-H ) :   0.9576 B(  2-O ,  3-C ) :   1.1854 B(  3-C ,  4-O ) :   2.0921
B(  3-C ,  5-C ) :   0.9305 B(  5-C ,  6-C ) :   1.7137 B(  5-C , 12-C ) :   0.9391
B(  6-C ,  7-C ) :   0.9347 B(  6-C ,  8-N ) :   1.1108 B(  7-C , 25-H ) :   0.9742
B(  7-C , 26-H ) :   0.9803 B(  7-C , 27-H ) :   0.9647 B(  8-N ,  9-C ) :   1.1953
B(  8-N , 28-H ) :   0.9503 B(  9-C , 10-S ) :   1.6104 B(  9-C , 11-N ) :   1.2918
B( 11-N , 12-C ) :   0.9843 B( 11-N , 29-H ) :   0.9476 B( 12-C , 13-C ) :   0.9680
B( 12-C , 30-H ) :   0.9896 B( 13-C , 14-C ) :   1.3837 B( 13-C , 19-C ) :   1.3541
B( 14-C , 15-C ) :   1.3938 B( 14-C , 31-H ) :   0.9596 B( 15-C , 16-C ) :   1.3612
B( 15-C , 32-H ) :   0.9696 B( 16-C , 17-C ) :   1.3305 B( 16-C , 33-H ) :   0.9851
B( 17-C , 18-O ) :   1.1086 B( 17-C , 19-C ) :   1.3670 B( 18-O , 34-H ) :   0.9794
B( 19-C , 35-H ) :   0.9564

MP2 TOTAL ENERGY:    -1274.331532873 Eh
FINAL SINGLE POINT ENERGY     -1274.331532872848

DIPOLE MOMENT
-------------
                                X             Y             Z
Electronic contribution:      9.97593       8.48353       7.65355
Nuclear contribution   :    -11.66150      -9.53557      -8.09286
                        -----------------------------------------
Total Dipole Moment    :     -1.68556      -1.05203      -0.43931
                        -----------------------------------------
Magnitude (a.u.)       :      2.03492
Magnitude (Debye)      :      5.17235

Rotational constants in cm-1:     0.011204     0.009067     0.006306
Rotational constants in MHz :   335.878955   271.826053   189.044058

                             ****ORCA TERMINATED NORMALLY****
TOTAL RUN TIME: 0 days 1 hours 41 minutes 5 seconds 47 msec
