                         Program Version 4.2.0 -  RELEASE  -
|  1> ! ri-mp2 cc-pvtz cc-pvtz/c TightSCF NoKeepInts
|  2>
|  3> %scf
|  4>   MaxCore 4096
|  5> end
|  6> *xyz  0  1
|  7>     C       14.5253378   16.3653905   16.2902805
|  8>     C       15.0654556   16.1158087   14.8637945
|  9>     O       16.4992721   15.9037127   14.7825374
| 10>     C       17.5303880   16.4479274   15.5151405
| 11>     O       18.6409179   15.9523017   15.4638454
| 12>     C       17.2349499   17.5696953   16.4540556
| 13>     C       16.8693467   18.7790347   15.9627942
| 14>     C       16.4835137   19.1110049   14.5355943
| 15>     N       16.9031201   19.9189743   16.7679961
| 16>     C       17.5350245   19.9825821   17.9817388
| 17>     S       17.6461968   21.3958210   18.8330457
| 18>     N       18.0956964   18.8160870   18.4405496
| 19>     C       17.9196839   17.4877069   17.8198228
| 20>     C       17.3111702   16.4301232   18.7282944
| 21>     C       17.8215717   15.1197371   18.7251138
| 22>     C       17.2509236   14.1292192   19.5415832
| 23>     C       16.1586828   14.4515449   20.3652788
| 24>     C       15.6444365   15.7554619   20.3657312
| 25>     O       14.5829551   16.0665103   21.1513112
| 26>     C       16.2142540   16.7397649   19.5518138
| 27>     H       15.0215059   15.7107135   17.0180045
| 28>     H       13.4529265   16.1376193   16.3240672
| 29>     H       14.6347000   17.4078004   16.6063303
| 30>     H       14.5730361   15.2228763   14.4568700
| 31>     H       14.7732949   16.9543092   14.2207792
| 32>     H       16.8337215   18.3577519   13.8195420
| 33>     H       16.9288092   20.0625474   14.2174398
| 34>     H       15.3956968   19.2017287   14.4331988
| 35>     H       16.5320108   20.7907908   16.4244639
| 36>     H       18.5558489   18.8879043   19.3394651
| 37>     H       18.9703287   17.2377463   17.6089966
| 38>     H       18.6587868   14.8669416   18.0772388
| 39>     H       17.6532664   13.1175877   19.5297129
| 40>     H       15.7138433   13.6886923   20.9957035
| 41>     H       14.3589617   15.2750881   21.6638678
| 42>     H       15.7973653   17.7414936   19.5619975
| 43> *
| 44>
| 45>                          ****END OF INPUT****

CARTESIAN COORDINATES (ANGSTROEM)
---------------------------------
  C     14.525338   16.365391   16.290281
  C     15.065456   16.115809   14.863794
  O     16.499272   15.903713   14.782537
  C     17.530388   16.447927   15.515140
  O     18.640918   15.952302   15.463845
  C     17.234950   17.569695   16.454056
  C     16.869347   18.779035   15.962794
  C     16.483514   19.111005   14.535594
  N     16.903120   19.918974   16.767996
  C     17.535024   19.982582   17.981739
  S     17.646197   21.395821   18.833046
  N     18.095696   18.816087   18.440550
  C     17.919684   17.487707   17.819823
  C     17.311170   16.430123   18.728294
  C     17.821572   15.119737   18.725114
  C     17.250924   14.129219   19.541583
  C     16.158683   14.451545   20.365279
  C     15.644436   15.755462   20.365731
  O     14.582955   16.066510   21.151311
  C     16.214254   16.739765   19.551814
  H     15.021506   15.710714   17.018004
  H     13.452926   16.137619   16.324067
  H     14.634700   17.407800   16.606330
  H     14.573036   15.222876   14.456870
  H     14.773295   16.954309   14.220779
  H     16.833721   18.357752   13.819542
  H     16.928809   20.062547   14.217440
  H     15.395697   19.201729   14.433199
  H     16.532011   20.790791   16.424464
  H     18.555849   18.887904   19.339465
  H     18.970329   17.237746   17.608997
  H     18.658787   14.866942   18.077239
  H     17.653266   13.117588   19.529713
  H     15.713843   13.688692   20.995704
  H     14.358962   15.275088   21.663868
  H     15.797365   17.741494   19.561997

 Total Charge           Charge          ....    0
 Multiplicity           Mult            ....    1
 Number of Electrons    NEL             ....  154
 Basis Dimension        Dim             ....  828

ORBITAL ENERGIES
----------------

  NO   OCC          E(Eh)            E(eV)
   0   2.0000     -91.889663     -2500.4449
   1   2.0000     -20.600301      -560.5627
   2   2.0000     -20.599033      -560.5282
   3   2.0000     -20.547794      -559.1339
   4   2.0000     -15.627714      -425.2517
   5   2.0000     -15.609369      -424.7525
   6   2.0000     -11.401042      -310.2381
   7   2.0000     -11.385483      -309.8148
   8   2.0000     -11.332029      -308.3602
   9   2.0000     -11.316260      -307.9311
  10   2.0000     -11.312998      -307.8423
  11   2.0000     -11.309916      -307.7585
  12   2.0000     -11.268289      -306.6257
  13   2.0000     -11.263871      -306.5055
  14   2.0000     -11.263786      -306.5032
  15   2.0000     -11.256777      -306.3125
  16   2.0000     -11.245555      -306.0071
  17   2.0000     -11.241134      -305.8868
  18   2.0000     -11.238670      -305.8198
  19   2.0000     -11.234836      -305.7154
  20   2.0000      -8.894771      -242.0390
  21   2.0000      -6.576354      -178.9517
  22   2.0000      -6.574340      -178.8969
  23   2.0000      -6.573759      -178.8811
  24   2.0000      -1.443202       -39.2715
  25   2.0000      -1.418774       -38.6068
  26   2.0000      -1.357300       -36.9340
  27   2.0000      -1.340954       -36.4892
  28   2.0000      -1.239257       -33.7219
  29   2.0000      -1.160718       -31.5847
  30   2.0000      -1.126183       -30.6450
  31   2.0000      -1.048156       -28.5218
  32   2.0000      -1.040129       -28.3034
  33   2.0000      -1.018730       -27.7210
  34   2.0000      -1.006866       -27.3982
  35   2.0000      -0.990398       -26.9501
  36   2.0000      -0.927106       -25.2278
  37   2.0000      -0.901113       -24.5205
  38   2.0000      -0.853543       -23.2261
  39   2.0000      -0.841384       -22.8952
  40   2.0000      -0.836086       -22.7511
  41   2.0000      -0.828577       -22.5467
  42   2.0000      -0.745569       -20.2880
  43   2.0000      -0.736973       -20.0541
  44   2.0000      -0.732006       -19.9189
  45   2.0000      -0.696104       -18.9420
  46   2.0000      -0.687878       -18.7181
  47   2.0000      -0.678635       -18.4666
  48   2.0000      -0.674010       -18.3407
  49   2.0000      -0.662211       -18.0197
  50   2.0000      -0.658168       -17.9097
  51   2.0000      -0.650841       -17.7103
  52   2.0000      -0.639567       -17.4035
  53   2.0000      -0.615511       -16.7489
  54   2.0000      -0.609390       -16.5823
  55   2.0000      -0.606731       -16.5100
  56   2.0000      -0.602762       -16.4020
  57   2.0000      -0.589580       -16.0433
  58   2.0000      -0.577616       -15.7177
  59   2.0000      -0.572567       -15.5803
  60   2.0000      -0.563978       -15.3466
  61   2.0000      -0.557095       -15.1593
  62   2.0000      -0.543527       -14.7901
  63   2.0000      -0.530880       -14.4460
  64   2.0000      -0.521890       -14.2013
  65   2.0000      -0.513202       -13.9649
  66   2.0000      -0.501533       -13.6474
  67   2.0000      -0.500953       -13.6316
  68   2.0000      -0.485573       -13.2131
  69   2.0000      -0.466700       -12.6996
  70   2.0000      -0.454476       -12.3669
  71   2.0000      -0.450468       -12.2579
  72   2.0000      -0.355308        -9.6684
  73   2.0000      -0.349893        -9.5211
  74   2.0000      -0.329193        -8.9578
  75   2.0000      -0.324277        -8.8240
  76   2.0000      -0.319446        -8.6926
  77   0.0000       0.085306         2.3213
  78   0.0000       0.105685         2.8758
  79   0.0000       0.114071         3.1040
  80   0.0000       0.128430         3.4947
  81   0.0000       0.130344         3.5469

MULLIKEN ATOMIC CHARGES
-----------------------
   0 C :   -0.330783
   1 C :    0.037472
   2 O :   -0.329803
   3 C :    0.432197
   4 O :   -0.383999
   5 C :   -0.222042
   6 C :    0.151648
   7 C :   -0.343321
   8 N :   -0.141808
   9 C :    0.207484
  10 S :   -0.443306
  11 N :   -0.224788
  12 C :    0.072080
  13 C :    0.011336
  14 C :   -0.217026
  15 C :   -0.130548
  16 C :   -0.277387
  17 C :    0.318092
  18 O :   -0.356735
  19 C :   -0.254204
  20 H :    0.126874
  21 H :    0.117779
  22 H :    0.109983
  23 H :    0.131525
  24 H :    0.084124
  25 H :    0.137132
  26 H :    0.133453
  27 H :    0.122483
  28 H :    0.198386
  29 H :    0.203555
  30 H :    0.169295
  31 H :    0.178257
  32 H :    0.164464
  33 H :    0.132193
  34 H :    0.241246
  35 H :    0.174692
Sum of atomic charges:   -0.0000000

LOEWDIN ATOMIC CHARGES
----------------------
   0 C :    0.101930
   1 C :   -0.013751
   2 O :    0.294153
   3 C :   -0.416279
   4 O :    0.118793
   5 C :   -0.080140
   6 C :   -0.090788
   7 C :    0.125221
   8 N :    0.402738
   9 C :   -0.457357
  10 S :   -0.038611
  11 N :    0.396731
  12 C :   -0.047950
  13 C :   -0.044247
  14 C :    0.019564
  15 C :    0.044544
  16 C :   -0.000492
  17 C :   -0.192055
  18 O :    0.395381
  19 C :    0.029108
  20 H :   -0.020700
  21 H :   -0.023478
  22 H :   -0.034648
  23 H :   -0.018103
  24 H :   -0.037487
  25 H :   -0.007211
  26 H :   -0.010271
  27 H :   -0.018477
  28 H :   -0.057520
  29 H :   -0.063461
  30 H :   -0.003527
  31 H :   -0.021039
  32 H :   -0.018472
  33 H :   -0.034824
  34 H :   -0.153348
  35 H :   -0.023926

  Mayer bond orders larger than 0.100000
B(  0-C ,  1-C ) :   0.9519 B(  0-C , 20-H ) :   0.9674 B(  0-C , 21-H ) :   0.9779
B(  0-C , 22-H ) :   0.9743 B(  1-C ,  2-O ) :   0.9077 B(  1-C , 23-H ) :   0.9806
B(  1-C , 24-H ) :   0.9733 B(  2-O ,  3-C ) :   1.1772 B(  3-C ,  4-O ) :   2.0843
B(  3-C ,  5-C ) :   0.9269 B(  5-C ,  6-C ) :   1.7249 B(  5-C , 12-C ) :   0.9359
B(  6-C ,  7-C ) :   0.9382 B(  6-C ,  8-N ) :   1.0969 B(  7-C , 25-H ) :   0.9755
B(  7-C , 26-H ) :   0.9769 B(  7-C , 27-H ) :   0.9651 B(  8-N ,  9-C ) :   1.1981
B(  8-N , 28-H ) :   0.9505 B(  9-C , 10-S ) :   1.6089 B(  9-C , 11-N ) :   1.2913
B( 11-N , 12-C ) :   0.9800 B( 11-N , 29-H ) :   0.9474 B( 12-C , 13-C ) :   0.9668
B( 12-C , 30-H ) :   0.9887 B( 13-C , 14-C ) :   1.3875 B( 13-C , 19-C ) :   1.3509
B( 14-C , 15-C ) :   1.3957 B( 14-C , 31-H ) :   0.9581 B( 15-C , 16-C ) :   1.3610
B( 15-C , 32-H ) :   0.9700 B( 16-C , 17-C ) :   1.3308 B( 16-C , 33-H ) :   0.9847
B( 17-C , 18-O ) :   1.1096 B( 17-C , 19-C ) :   1.3656 B( 18-O , 34-H ) :   0.9794
B( 19-C , 35-H ) :   0.9567

MP2 TOTAL ENERGY:    -1274.322759371 Eh
FINAL SINGLE POINT ENERGY     -1274.322759371264

DIPOLE MOMENT
-------------
                                X             Y             Z
Electronic contribution:      8.88915       6.10128       7.03870
Nuclear contribution   :    -10.56441      -7.28911      -7.60012
                        -----------------------------------------
Total Dipole Moment    :     -1.67526      -1.18783      -0.56143
                        -----------------------------------------
Magnitude (a.u.)       :      2.12900
Magnitude (Debye)      :      5.41149

Rotational constants in cm-1:     0.011484     0.009264     0.006516
Rotational constants in MHz :   344.268213   277.722127   195.339728

                             ****ORCA TERMINATED NORMALLY****
TOTAL RUN TIME: 0 days 2 hours 7 minutes 54 seconds 143 msec
