                         Program Version 4.2.0 -  RELEASE  -
|  1> ! ri-mp2 cc-pvtz cc-pvtz/c TightSCF NoKeepInts
|  2>
|  3> %scf
|  4>   MaxCore 4096
|  5> end
|  6> *xyz  0  1
|  7>     C       14.9224419   14.5461700   14.4114732
|  8>     C       14.5467171   15.9833231   14.8299093
|  9>     O       15.6959690   16.8568026   14.8812582
| 10>     C       16.7357322   16.6344650   15.7407153
| 11>     O       17.2723500   15.5483936   15.8735693
| 12>     C       17.0471832   17.7954672   16.6419716
| 13>     C       16.9191720   19.0882458   16.2416375
| 14>     C       16.2623186   19.6115603   14.9792689
| 15>     N       17.4708721   20.1264879   16.9966547
| 16>     C       18.3480033   19.9497901   18.0324874
| 17>     S       19.0478649   21.2300178   18.8113693
| 18>     N       18.6329836   18.6525605   18.3755104
| 19>     C       17.9616995   17.4583922   17.8265035
| 20>     C       17.2837047   16.6058588   18.8910256
| 21>     C       17.5881313   15.2383859   19.0157144
| 22>     C       16.9613177   14.4532040   19.9978119
| 23>     C       16.0227757   15.0409820   20.8632730
| 24>     C       15.7158155   16.4030699   20.7395630
| 25>     O       14.8063429   16.9720150   21.5704900
| 26>     C       16.3407826   17.1817667   19.7602638
| 27>     H       15.6140044   14.5560967   13.5597350
| 28>     H       14.0253680   13.9885284   14.1169865
| 29>     H       15.3932018   13.9991511   15.2374533
| 30>     H       13.8346588   16.3871245   14.0987867
| 31>     H       14.0458428   15.9610685   15.8069580
| 32>     H       16.6843724   19.1267969   14.0898070
| 33>     H       16.3957273   20.6921563   14.8464916
| 34>     H       15.1832412   19.4146371   14.9926942
| 35>     H       17.2898659   21.0840977   16.7414611
| 36>     H       19.2674966   18.5491213   19.1573543
| 37>     H       18.8246819   16.9282197   17.3976900
| 38>     H       18.3027340   14.7801512   18.3358295
| 39>     H       17.2006540   13.3945514   20.0806672
| 40>     H       15.5354712   14.4379035   21.6220814
| 41>     H       14.5146664   16.2884585   22.1922091
| 42>     H       16.0928356   18.2349788   19.6813247
| 43> *
| 44>
| 45>                          ****END OF INPUT****

CARTESIAN COORDINATES (ANGSTROEM)
---------------------------------
  C     14.922442   14.546170   14.411473
  C     14.546717   15.983323   14.829909
  O     15.695969   16.856803   14.881258
  C     16.735732   16.634465   15.740715
  O     17.272350   15.548394   15.873569
  C     17.047183   17.795467   16.641972
  C     16.919172   19.088246   16.241637
  C     16.262319   19.611560   14.979269
  N     17.470872   20.126488   16.996655
  C     18.348003   19.949790   18.032487
  S     19.047865   21.230018   18.811369
  N     18.632984   18.652560   18.375510
  C     17.961700   17.458392   17.826504
  C     17.283705   16.605859   18.891026
  C     17.588131   15.238386   19.015714
  C     16.961318   14.453204   19.997812
  C     16.022776   15.040982   20.863273
  C     15.715815   16.403070   20.739563
  O     14.806343   16.972015   21.570490
  C     16.340783   17.181767   19.760264
  H     15.614004   14.556097   13.559735
  H     14.025368   13.988528   14.116986
  H     15.393202   13.999151   15.237453
  H     13.834659   16.387124   14.098787
  H     14.045843   15.961068   15.806958
  H     16.684372   19.126797   14.089807
  H     16.395727   20.692156   14.846492
  H     15.183241   19.414637   14.992694
  H     17.289866   21.084098   16.741461
  H     19.267497   18.549121   19.157354
  H     18.824682   16.928220   17.397690
  H     18.302734   14.780151   18.335829
  H     17.200654   13.394551   20.080667
  H     15.535471   14.437903   21.622081
  H     14.514666   16.288459   22.192209
  H     16.092836   18.234979   19.681325

 Total Charge           Charge          ....    0
 Multiplicity           Mult            ....    1
 Number of Electrons    NEL             ....  154
 Basis Dimension        Dim             ....  828

ORBITAL ENERGIES
----------------

  NO   OCC          E(Eh)            E(eV)
   0   2.0000     -91.888180     -2500.4045
   1   2.0000     -20.593021      -560.3646
   2   2.0000     -20.592793      -560.3584
   3   2.0000     -20.549726      -559.1865
   4   2.0000     -15.628622      -425.2764
   5   2.0000     -15.605858      -424.6570
   6   2.0000     -11.396766      -310.1218
   7   2.0000     -11.382757      -309.7406
   8   2.0000     -11.337721      -308.5151
   9   2.0000     -11.309139      -307.7373
  10   2.0000     -11.305812      -307.6468
  11   2.0000     -11.304233      -307.6038
  12   2.0000     -11.259519      -306.3871
  13   2.0000     -11.258942      -306.3714
  14   2.0000     -11.256263      -306.2985
  15   2.0000     -11.249237      -306.1073
  16   2.0000     -11.239325      -305.8376
  17   2.0000     -11.235391      -305.7305
  18   2.0000     -11.232151      -305.6424
  19   2.0000     -11.221587      -305.3549
  20   2.0000      -8.893265      -241.9980
  21   2.0000      -6.574842      -178.9105
  22   2.0000      -6.572839      -178.8561
  23   2.0000      -6.572251      -178.8400
  24   2.0000      -1.448905       -39.4267
  25   2.0000      -1.412768       -38.4434
  26   2.0000      -1.358460       -36.9656
  27   2.0000      -1.339896       -36.4604
  28   2.0000      -1.237087       -33.6628
  29   2.0000      -1.153443       -31.3868
  30   2.0000      -1.120689       -30.4955
  31   2.0000      -1.042612       -28.3709
  32   2.0000      -1.032807       -28.1041
  33   2.0000      -1.011046       -27.5120
  34   2.0000      -0.998617       -27.1738
  35   2.0000      -0.983463       -26.7614
  36   2.0000      -0.921283       -25.0694
  37   2.0000      -0.890728       -24.2379
  38   2.0000      -0.848481       -23.0883
  39   2.0000      -0.836560       -22.7640
  40   2.0000      -0.829353       -22.5678
  41   2.0000      -0.822398       -22.3786
  42   2.0000      -0.747743       -20.3471
  43   2.0000      -0.730655       -19.8821
  44   2.0000      -0.726821       -19.7778
  45   2.0000      -0.691450       -18.8153
  46   2.0000      -0.685250       -18.6466
  47   2.0000      -0.680324       -18.5126
  48   2.0000      -0.669656       -18.2223
  49   2.0000      -0.666727       -18.1426
  50   2.0000      -0.645185       -17.5564
  51   2.0000      -0.643258       -17.5039
  52   2.0000      -0.633804       -17.2467
  53   2.0000      -0.605132       -16.4665
  54   2.0000      -0.599275       -16.3071
  55   2.0000      -0.598855       -16.2957
  56   2.0000      -0.596383       -16.2284
  57   2.0000      -0.581718       -15.8294
  58   2.0000      -0.573619       -15.6090
  59   2.0000      -0.570678       -15.5289
  60   2.0000      -0.559757       -15.2318
  61   2.0000      -0.547920       -14.9097
  62   2.0000      -0.537035       -14.6135
  63   2.0000      -0.522518       -14.2184
  64   2.0000      -0.517023       -14.0689
  65   2.0000      -0.510547       -13.8927
  66   2.0000      -0.498877       -13.5751
  67   2.0000      -0.494184       -13.4474
  68   2.0000      -0.479219       -13.0402
  69   2.0000      -0.462359       -12.5814
  70   2.0000      -0.458480       -12.4759
  71   2.0000      -0.446578       -12.1520
  72   2.0000      -0.352981        -9.6051
  73   2.0000      -0.345627        -9.4050
  74   2.0000      -0.327283        -8.9058
  75   2.0000      -0.317388        -8.6366
  76   2.0000      -0.315863        -8.5951
  77   0.0000       0.074524         2.0279
  78   0.0000       0.109673         2.9844
  79   0.0000       0.121688         3.3113
  80   0.0000       0.135037         3.6746
  81   0.0000       0.138716         3.7746

MULLIKEN ATOMIC CHARGES
-----------------------
   0 C :   -0.278035
   1 C :    0.041678
   2 O :   -0.373000
   3 C :    0.437070
   4 O :   -0.407758
   5 C :   -0.164706
   6 C :    0.151167
   7 C :   -0.280010
   8 N :   -0.127938
   9 C :    0.207209
  10 S :   -0.442303
  11 N :   -0.211238
  12 C :    0.039720
  13 C :    0.033490
  14 C :   -0.174673
  15 C :   -0.134137
  16 C :   -0.277561
  17 C :    0.313781
  18 O :   -0.358726
  19 C :   -0.252728
  20 H :    0.099796
  21 H :    0.091426
  22 H :    0.115991
  23 H :    0.099519
  24 H :    0.086743
  25 H :    0.126843
  26 H :    0.101926
  27 H :    0.125620
  28 H :    0.198810
  29 H :    0.199778
  30 H :    0.156858
  31 H :    0.161334
  32 H :    0.160714
  33 H :    0.128734
  34 H :    0.240106
  35 H :    0.164498
Sum of atomic charges:   -0.0000000

LOEWDIN ATOMIC CHARGES
----------------------
   0 C :    0.104678
   1 C :   -0.015685
   2 O :    0.290861
   3 C :   -0.413296
   4 O :    0.122795
   5 C :   -0.094404
   6 C :   -0.064786
   7 C :    0.125372
   8 N :    0.405487
   9 C :   -0.458546
  10 S :   -0.037627
  11 N :    0.396235
  12 C :   -0.048479
  13 C :   -0.040946
  14 C :    0.023709
  15 C :    0.040703
  16 C :   -0.001331
  17 C :   -0.192745
  18 O :    0.393184
  19 C :    0.029170
  20 H :   -0.024291
  21 H :   -0.030059
  22 H :   -0.026661
  23 H :   -0.023911
  24 H :   -0.030922
  25 H :   -0.008357
  26 H :   -0.021076
  27 H :   -0.009872
  28 H :   -0.058620
  29 H :   -0.063337
  30 H :   -0.008130
  31 H :   -0.023801
  32 H :   -0.020876
  33 H :   -0.036045
  34 H :   -0.154678
  35 H :   -0.023714

  Mayer bond orders larger than 0.100000
B(  0-C ,  1-C ) :   0.9785 B(  0-C , 20-H ) :   0.9750 B(  0-C , 21-H ) :   0.9749
B(  0-C , 22-H ) :   0.9717 B(  1-C ,  2-O ) :   0.9092 B(  1-C , 23-H ) :   0.9829
B(  1-C , 24-H ) :   0.9761 B(  2-O ,  3-C ) :   1.0643 B(  3-C ,  4-O ) :   2.0065
B(  3-C ,  5-C ) :   1.0417 B(  5-C ,  6-C ) :   1.6640 B(  5-C , 12-C ) :   0.9475
B(  6-C ,  7-C ) :   0.9544 B(  6-C ,  8-N ) :   1.1354 B(  7-C , 25-H ) :   0.9653
B(  7-C , 26-H ) :   0.9906 B(  7-C , 27-H ) :   0.9643 B(  8-N ,  9-C ) :   1.1857
B(  8-N , 28-H ) :   0.9470 B(  9-C , 10-S ) :   1.6086 B(  9-C , 11-N ) :   1.3054
B( 11-N , 12-C ) :   0.9760 B( 11-N , 29-H ) :   0.9485 B( 12-C , 13-C ) :   0.9707
B( 12-C , 30-H ) :   0.9966 B( 13-C , 14-C ) :   1.3775 B( 13-C , 19-C ) :   1.3644
B( 14-C , 15-C ) :   1.3967 B( 14-C , 31-H ) :   0.9631 B( 15-C , 16-C ) :   1.3591
B( 15-C , 32-H ) :   0.9709 B( 16-C , 17-C ) :   1.3330 B( 16-C , 33-H ) :   0.9858
B( 17-C , 18-O ) :   1.1042 B( 17-C , 19-C ) :   1.3670 B( 18-O , 34-H ) :   0.9805
B( 19-C , 35-H ) :   0.9600

MP2 TOTAL ENERGY:    -1274.327735656 Eh
FINAL SINGLE POINT ENERGY     -1274.327735655558

DIPOLE MOMENT
-------------
                                X             Y             Z
Electronic contribution:      9.63271      10.50454      10.45423
Nuclear contribution   :    -11.25940     -11.66400     -11.28946
                        -----------------------------------------
Total Dipole Moment    :     -1.62669      -1.15946      -0.83523
                        -----------------------------------------
Magnitude (a.u.)       :      2.16520
Magnitude (Debye)      :      5.50349

Rotational constants in cm-1:     0.010170     0.009139     0.005677
Rotational constants in MHz :   304.875680   273.981361   170.197311

                             ****ORCA TERMINATED NORMALLY****
TOTAL RUN TIME: 0 days 2 hours 10 minutes 9 seconds 954 msec
