                         Program Version 4.2.0 -  RELEASE  -
|  1> ! ri-mp2 cc-pvtz cc-pvtz/c TightSCF NoKeepInts
|  2>
|  3> %scf
|  4>   MaxCore 4096
|  5> end
|  6> *xyz  0  1
|  7>     C       14.0049785   16.3356389   15.6504120
|  8>     C       15.1748443   15.6025589   14.9694235
|  9>     O       16.1966555   16.5654550   14.6625268
| 10>     C       17.2583927   16.6112883   15.5126649
| 11>     O       18.0644382   15.7000220   15.5811868
| 12>     C       17.1992964   17.7286595   16.5085884
| 13>     C       16.8124855   18.9811734   16.1572532
| 14>     C       16.2053928   19.4208255   14.8400945
| 15>     N       17.0189989   20.0589146   17.0214834
| 16>     C       17.7954757   20.0071499   18.1483383
| 17>     S       18.0826910   21.3487841   19.0716914
| 18>     N       18.3409920   18.7866028   18.4597306
| 19>     C       18.0381690   17.5162931   17.7713862
| 20>     C       17.4632854   16.4453791   18.6879206
| 21>     C       18.0491508   15.1685619   18.7525672
| 22>     C       17.5093797   14.1765052   19.5882292
| 23>     C       16.3732843   14.4637166   20.3643052
| 24>     C       15.7848413   15.7341756   20.2978869
| 25>     O       14.6828482   16.0117766   21.0391935
| 26>     C       16.3242328   16.7194716   19.4648119
| 27>     H       14.3277015   16.7962384   16.5926714
| 28>     H       13.1948167   15.6320313   15.8778498
| 29>     H       13.6023585   17.1186116   14.9964869
| 30>     H       15.5584394   14.8005424   15.6164728
| 31>     H       14.8162856   15.1449192   14.0383183
| 32>     H       16.7888809   19.0391100   13.9926399
| 33>     H       16.1688180   20.5119754   14.7342838
| 34>     H       15.1805799   19.0449616   14.7386254
| 35>     H       16.6464882   20.9665390   16.7920715
| 36>     H       18.8953209   18.7723349   19.3066304
| 37>     H       19.0422097   17.2323069   17.4232410
| 38>     H       18.9178104   14.9409844   18.1386709
| 39>     H       17.9687287   13.1902854   19.6267427
| 40>     H       15.9522533   13.6996955   21.0093786
| 41>     H       14.4904456   15.2290516   21.5771796
| 42>     H       15.8560297   17.6974594   19.4270423
| 43> *
| 44>
| 45>                          ****END OF INPUT****

CARTESIAN COORDINATES (ANGSTROEM)
---------------------------------
  C     14.004978   16.335639   15.650412
  C     15.174844   15.602559   14.969423
  O     16.196655   16.565455   14.662527
  C     17.258393   16.611288   15.512665
  O     18.064438   15.700022   15.581187
  C     17.199296   17.728659   16.508588
  C     16.812486   18.981173   16.157253
  C     16.205393   19.420825   14.840094
  N     17.018999   20.058915   17.021483
  C     17.795476   20.007150   18.148338
  S     18.082691   21.348784   19.071691
  N     18.340992   18.786603   18.459731
  C     18.038169   17.516293   17.771386
  C     17.463285   16.445379   18.687921
  C     18.049151   15.168562   18.752567
  C     17.509380   14.176505   19.588229
  C     16.373284   14.463717   20.364305
  C     15.784841   15.734176   20.297887
  O     14.682848   16.011777   21.039193
  C     16.324233   16.719472   19.464812
  H     14.327701   16.796238   16.592671
  H     13.194817   15.632031   15.877850
  H     13.602358   17.118612   14.996487
  H     15.558439   14.800542   15.616473
  H     14.816286   15.144919   14.038318
  H     16.788881   19.039110   13.992640
  H     16.168818   20.511975   14.734284
  H     15.180580   19.044962   14.738625
  H     16.646488   20.966539   16.792071
  H     18.895321   18.772335   19.306630
  H     19.042210   17.232307   17.423241
  H     18.917810   14.940984   18.138671
  H     17.968729   13.190285   19.626743
  H     15.952253   13.699696   21.009379
  H     14.490446   15.229052   21.577180
  H     15.856030   17.697459   19.427042

 Total Charge           Charge          ....    0
 Multiplicity           Mult            ....    1
 Number of Electrons    NEL             ....  154
 Basis Dimension        Dim             ....  828

ORBITAL ENERGIES
----------------

  NO   OCC          E(Eh)            E(eV)
   0   2.0000     -91.889687     -2500.4455
   1   2.0000     -20.595968      -560.4448
   2   2.0000     -20.587458      -560.2132
   3   2.0000     -20.552799      -559.2701
   4   2.0000     -15.630094      -425.3165
   5   2.0000     -15.607643      -424.7056
   6   2.0000     -11.393914      -310.0442
   7   2.0000     -11.384659      -309.7923
   8   2.0000     -11.338153      -308.5268
   9   2.0000     -11.312423      -307.8267
  10   2.0000     -11.306181      -307.6568
  11   2.0000     -11.303278      -307.5778
  12   2.0000     -11.260700      -306.4192
  13   2.0000     -11.259370      -306.3830
  14   2.0000     -11.259209      -306.3787
  15   2.0000     -11.252402      -306.1934
  16   2.0000     -11.242327      -305.9193
  17   2.0000     -11.238532      -305.8160
  18   2.0000     -11.235148      -305.7239
  19   2.0000     -11.232003      -305.6384
  20   2.0000      -8.894763      -242.0388
  21   2.0000      -6.576336      -178.9512
  22   2.0000      -6.574336      -178.8968
  23   2.0000      -6.573745      -178.8807
  24   2.0000      -1.452811       -39.5330
  25   2.0000      -1.415725       -38.5238
  26   2.0000      -1.358943       -36.9787
  27   2.0000      -1.341207       -36.4961
  28   2.0000      -1.238534       -33.7022
  29   2.0000      -1.156729       -31.4762
  30   2.0000      -1.123161       -30.5628
  31   2.0000      -1.045103       -28.4387
  32   2.0000      -1.035954       -28.1897
  33   2.0000      -1.014208       -27.5980
  34   2.0000      -1.001706       -27.2578
  35   2.0000      -0.987275       -26.8651
  36   2.0000      -0.923434       -25.1279
  37   2.0000      -0.889623       -24.2079
  38   2.0000      -0.849068       -23.1043
  39   2.0000      -0.838740       -22.8233
  40   2.0000      -0.832480       -22.6529
  41   2.0000      -0.823704       -22.4141
  42   2.0000      -0.759251       -20.6603
  43   2.0000      -0.736960       -20.0537
  44   2.0000      -0.729053       -19.8385
  45   2.0000      -0.694118       -18.8879
  46   2.0000      -0.685990       -18.6667
  47   2.0000      -0.679863       -18.5000
  48   2.0000      -0.675869       -18.3913
  49   2.0000      -0.660248       -17.9663
  50   2.0000      -0.653603       -17.7854
  51   2.0000      -0.644648       -17.5418
  52   2.0000      -0.636052       -17.3079
  53   2.0000      -0.607451       -16.5296
  54   2.0000      -0.602376       -16.3915
  55   2.0000      -0.599368       -16.3096
  56   2.0000      -0.593694       -16.1552
  57   2.0000      -0.587242       -15.9797
  58   2.0000      -0.576158       -15.6781
  59   2.0000      -0.571877       -15.5616
  60   2.0000      -0.562194       -15.2981
  61   2.0000      -0.552206       -15.0263
  62   2.0000      -0.547181       -14.8895
  63   2.0000      -0.520383       -14.1603
  64   2.0000      -0.518029       -14.0963
  65   2.0000      -0.512476       -13.9452
  66   2.0000      -0.503864       -13.7108
  67   2.0000      -0.497163       -13.5285
  68   2.0000      -0.483378       -13.1534
  69   2.0000      -0.463967       -12.6252
  70   2.0000      -0.456245       -12.4151
  71   2.0000      -0.454702       -12.3731
  72   2.0000      -0.354356        -9.6425
  73   2.0000      -0.348572        -9.4851
  74   2.0000      -0.328777        -8.9465
  75   2.0000      -0.319489        -8.6937
  76   2.0000      -0.318714        -8.6727
  77   0.0000       0.072577         1.9749
  78   0.0000       0.104989         2.8569
  79   0.0000       0.120460         3.2779
  80   0.0000       0.132870         3.6156
  81   0.0000       0.137437         3.7399

MULLIKEN ATOMIC CHARGES
-----------------------
   0 C :   -0.307238
   1 C :    0.044991
   2 O :   -0.373244
   3 C :    0.468675
   4 O :   -0.393731
   5 C :   -0.239139
   6 C :    0.169531
   7 C :   -0.285528
   8 N :   -0.128486
   9 C :    0.205695
  10 S :   -0.440287
  11 N :   -0.211995
  12 C :    0.051130
  13 C :    0.032485
  14 C :   -0.183080
  15 C :   -0.131659
  16 C :   -0.278345
  17 C :    0.315648
  18 O :   -0.358244
  19 C :   -0.263206
  20 H :    0.107940
  21 H :    0.113342
  22 H :    0.093583
  23 H :    0.100881
  24 H :    0.107974
  25 H :    0.128549
  26 H :    0.105571
  27 H :    0.126266
  28 H :    0.198601
  29 H :    0.199586
  30 H :    0.157658
  31 H :    0.164805
  32 H :    0.162301
  33 H :    0.130136
  34 H :    0.240711
  35 H :    0.168124
Sum of atomic charges:   -0.0000000

LOEWDIN ATOMIC CHARGES
----------------------
   0 C :    0.102344
   1 C :   -0.015930
   2 O :    0.295830
   3 C :   -0.422377
   4 O :    0.123679
   5 C :   -0.096208
   6 C :   -0.068007
   7 C :    0.127261
   8 N :    0.405825
   9 C :   -0.457536
  10 S :   -0.036188
  11 N :    0.395914
  12 C :   -0.049072
  13 C :   -0.042435
  14 C :    0.023688
  15 C :    0.041898
  16 C :   -0.000898
  17 C :   -0.193135
  18 O :    0.393612
  19 C :    0.028752
  20 H :   -0.029167
  21 H :   -0.023854
  22 H :   -0.031431
  23 H :   -0.024449
  24 H :   -0.024301
  25 H :   -0.007122
  26 H :   -0.019781
  27 H :   -0.011892
  28 H :   -0.058206
  29 H :   -0.063592
  30 H :   -0.006818
  31 H :   -0.022783
  32 H :   -0.020053
  33 H :   -0.035539
  34 H :   -0.154053
  35 H :   -0.023977

  Mayer bond orders larger than 0.100000
B(  0-C ,  1-C ) :   0.9658 B(  0-C , 20-H ) :   0.9706 B(  0-C , 21-H ) :   0.9783
B(  0-C , 22-H ) :   0.9778 B(  1-C ,  2-O ) :   0.8913 B(  1-C , 23-H ) :   0.9722
B(  1-C , 24-H ) :   0.9856 B(  2-O ,  3-C ) :   1.0881 B(  3-C ,  4-O ) :   2.0494
B(  3-C ,  5-C ) :   1.0019 B(  5-C ,  6-C ) :   1.6688 B(  5-C , 12-C ) :   0.9517
B(  6-C ,  7-C ) :   0.9534 B(  6-C ,  8-N ) :   1.1387 B(  7-C , 25-H ) :   0.9666
B(  7-C , 26-H ) :   0.9884 B(  7-C , 27-H ) :   0.9649 B(  8-N ,  9-C ) :   1.1860
B(  8-N , 28-H ) :   0.9473 B(  9-C , 10-S ) :   1.6122 B(  9-C , 11-N ) :   1.3011
B( 11-N , 12-C ) :   0.9821 B( 11-N , 29-H ) :   0.9488 B( 12-C , 13-C ) :   0.9686
B( 12-C , 30-H ) :   0.9947 B( 13-C , 14-C ) :   1.3796 B( 13-C , 19-C ) :   1.3573
B( 14-C , 15-C ) :   1.3957 B( 14-C , 31-H ) :   0.9617 B( 15-C , 16-C ) :   1.3607
B( 15-C , 32-H ) :   0.9706 B( 16-C , 17-C ) :   1.3318 B( 16-C , 33-H ) :   0.9853
B( 17-C , 18-O ) :   1.1062 B( 17-C , 19-C ) :   1.3648 B( 18-O , 34-H ) :   0.9801
B( 19-C , 35-H ) :   0.9597

MP2 TOTAL ENERGY:    -1274.326949015 Eh
FINAL SINGLE POINT ENERGY     -1274.326949015073

DIPOLE MOMENT
-------------
                                X             Y             Z
Electronic contribution:     10.23096       7.27687       7.79408
Nuclear contribution   :    -11.58620      -8.58779      -8.47352
                        -----------------------------------------
Total Dipole Moment    :     -1.35524      -1.31092      -0.67943
                        -----------------------------------------
Magnitude (a.u.)       :      2.00420
Magnitude (Debye)      :      5.09428

Rotational constants in cm-1:     0.010929     0.009223     0.006365
Rotational constants in MHz :   327.647633   276.510806   190.811287

                             ****ORCA TERMINATED NORMALLY****
TOTAL RUN TIME: 0 days 1 hours 57 minutes 59 seconds 673 msec
