                         Program Version 4.2.0 -  RELEASE  -
|  1> ! ri-mp2 cc-pvtz cc-pvtz/c TightSCF NoKeepInts
|  2>
|  3> %scf
|  4>   MaxCore 4096
|  5> end
|  6> *xyz  0  1
|  7>     C       13.7032629   16.2444590   14.8520616
|  8>     C       15.0761731   15.6061258   15.1219368
|  9>     O       16.0849855   16.5671903   14.7751125
| 10>     C       17.1740629   16.6110883   15.5884304
| 11>     O       17.9757759   15.6947006   15.6306711
| 12>     C       17.1568955   17.7314872   16.5835509
| 13>     C       16.7421213   18.9804182   16.2499096
| 14>     C       16.0606030   19.4137264   14.9672681
| 15>     N       16.9889317   20.0631349   17.0973741
| 16>     C       17.8310238   20.0231999   18.1764063
| 17>     S       18.1621193   21.3717286   19.0746821
| 18>     N       18.4039546   18.8086455   18.4598990
| 19>     C       18.0687166   17.5324412   17.7981108
| 20>     C       17.5618409   16.4626137   18.7556003
| 21>     C       18.1578945   15.1891757   18.7866714
| 22>     C       17.6841944   14.1997424   19.6644354
| 23>     C       16.6050271   14.4864182   20.5180244
| 24>     C       16.0068296   15.7536491   20.4863113
| 25>     O       14.9602664   16.0310622   21.3040999
| 26>     C       16.4798324   16.7360634   19.6104543
| 27>     H       13.5473560   17.1179026   15.4967223
| 28>     H       12.9004125   15.5248033   15.0538021
| 29>     H       13.6231100   16.5627787   13.8051011
| 30>     H       15.1414023   15.3336581   16.1852012
| 31>     H       15.2046428   14.6942562   14.5237902
| 32>     H       16.6042736   19.0419077   14.0894568
| 33>     H       16.0031020   20.5044020   14.8658504
| 34>     H       15.0371415   19.0241332   14.9184648
| 35>     H       16.5963065   20.9667711   16.8865442
| 36>     H       19.0077071   18.8027317   19.2724278
| 37>     H       19.0529723   17.2546629   17.3930864
| 38>     H       18.9828140   14.9621759   18.1149321
| 39>     H       18.1506199   13.2161642   19.6762372
| 40>     H       16.2354432   13.7246546   21.1964372
| 41>     H       14.8098968   15.2502180   21.8579355
| 42>     H       16.0052885   17.7117092   19.6010006
| 43> *
| 44>
| 45>                          ****END OF INPUT****

CARTESIAN COORDINATES (ANGSTROEM)
---------------------------------
  C     13.703263   16.244459   14.852062
  C     15.076173   15.606126   15.121937
  O     16.084985   16.567190   14.775112
  C     17.174063   16.611088   15.588430
  O     17.975776   15.694701   15.630671
  C     17.156896   17.731487   16.583551
  C     16.742121   18.980418   16.249910
  C     16.060603   19.413726   14.967268
  N     16.988932   20.063135   17.097374
  C     17.831024   20.023200   18.176406
  S     18.162119   21.371729   19.074682
  N     18.403955   18.808646   18.459899
  C     18.068717   17.532441   17.798111
  C     17.561841   16.462614   18.755600
  C     18.157895   15.189176   18.786671
  C     17.684194   14.199742   19.664435
  C     16.605027   14.486418   20.518024
  C     16.006830   15.753649   20.486311
  O     14.960266   16.031062   21.304100
  C     16.479832   16.736063   19.610454
  H     13.547356   17.117903   15.496722
  H     12.900412   15.524803   15.053802
  H     13.623110   16.562779   13.805101
  H     15.141402   15.333658   16.185201
  H     15.204643   14.694256   14.523790
  H     16.604274   19.041908   14.089457
  H     16.003102   20.504402   14.865850
  H     15.037141   19.024133   14.918465
  H     16.596307   20.966771   16.886544
  H     19.007707   18.802732   19.272428
  H     19.052972   17.254663   17.393086
  H     18.982814   14.962176   18.114932
  H     18.150620   13.216164   19.676237
  H     16.235443   13.724655   21.196437
  H     14.809897   15.250218   21.857935
  H     16.005288   17.711709   19.601001

 Total Charge           Charge          ....    0
 Multiplicity           Mult            ....    1
 Number of Electrons    NEL             ....  154
 Basis Dimension        Dim             ....  828

ORBITAL ENERGIES
----------------

  NO   OCC          E(Eh)            E(eV)
   0   2.0000     -91.889669     -2500.4450
   1   2.0000     -20.595083      -560.4207
   2   2.0000     -20.587540      -560.2155
   3   2.0000     -20.552355      -559.2580
   4   2.0000     -15.630290      -425.3218
   5   2.0000     -15.607439      -424.7000
   6   2.0000     -11.393390      -310.0299
   7   2.0000     -11.384552      -309.7894
   8   2.0000     -11.338990      -308.5496
   9   2.0000     -11.311390      -307.7986
  10   2.0000     -11.305812      -307.6468
  11   2.0000     -11.303938      -307.5958
  12   2.0000     -11.260880      -306.4241
  13   2.0000     -11.259885      -306.3971
  14   2.0000     -11.258470      -306.3585
  15   2.0000     -11.251294      -306.1633
  16   2.0000     -11.241395      -305.8939
  17   2.0000     -11.237591      -305.7904
  18   2.0000     -11.236425      -305.7587
  19   2.0000     -11.234083      -305.6949
  20   2.0000      -8.894744      -242.0383
  21   2.0000      -6.576317      -178.9507
  22   2.0000      -6.574317      -178.8963
  23   2.0000      -6.573726      -178.8802
  24   2.0000      -1.453402       -39.5491
  25   2.0000      -1.414840       -38.4997
  26   2.0000      -1.358954       -36.9790
  27   2.0000      -1.341330       -36.4994
  28   2.0000      -1.238501       -33.7013
  29   2.0000      -1.155773       -31.4502
  30   2.0000      -1.122903       -30.5557
  31   2.0000      -1.045283       -28.4436
  32   2.0000      -1.038259       -28.2525
  33   2.0000      -1.013297       -27.5732
  34   2.0000      -1.001229       -27.2448
  35   2.0000      -0.986750       -26.8508
  36   2.0000      -0.922882       -25.1129
  37   2.0000      -0.885349       -24.0916
  38   2.0000      -0.849213       -23.1083
  39   2.0000      -0.838758       -22.8238
  40   2.0000      -0.831461       -22.6252
  41   2.0000      -0.827966       -22.5301
  42   2.0000      -0.760817       -20.7029
  43   2.0000      -0.736794       -20.0492
  44   2.0000      -0.728686       -19.8286
  45   2.0000      -0.692870       -18.8540
  46   2.0000      -0.685810       -18.6619
  47   2.0000      -0.683221       -18.5914
  48   2.0000      -0.675712       -18.3871
  49   2.0000      -0.656263       -17.8578
  50   2.0000      -0.653680       -17.7875
  51   2.0000      -0.641902       -17.4670
  52   2.0000      -0.634296       -17.2601
  53   2.0000      -0.611872       -16.6499
  54   2.0000      -0.605682       -16.4815
  55   2.0000      -0.601669       -16.3722
  56   2.0000      -0.598476       -16.2854
  57   2.0000      -0.577191       -15.7062
  58   2.0000      -0.574838       -15.6421
  59   2.0000      -0.570043       -15.5117
  60   2.0000      -0.560227       -15.2445
  61   2.0000      -0.552652       -15.0384
  62   2.0000      -0.548684       -14.9304
  63   2.0000      -0.519606       -14.1392
  64   2.0000      -0.516575       -14.0567
  65   2.0000      -0.511708       -13.9243
  66   2.0000      -0.506793       -13.7905
  67   2.0000      -0.496753       -13.5173
  68   2.0000      -0.482404       -13.1269
  69   2.0000      -0.464241       -12.6326
  70   2.0000      -0.460313       -12.5258
  71   2.0000      -0.453274       -12.3342
  72   2.0000      -0.354818        -9.6551
  73   2.0000      -0.347756        -9.4629
  74   2.0000      -0.328728        -8.9451
  75   2.0000      -0.319008        -8.6807
  76   2.0000      -0.318153        -8.6574
  77   0.0000       0.072830         1.9818
  78   0.0000       0.107031         2.9125
  79   0.0000       0.119951         3.2640
  80   0.0000       0.133408         3.6302
  81   0.0000       0.138026         3.7559

MULLIKEN ATOMIC CHARGES
-----------------------
   0 C :   -0.293033
   1 C :    0.046753
   2 O :   -0.369119
   3 C :    0.447343
   4 O :   -0.389818
   5 C :   -0.207520
   6 C :    0.149463
   7 C :   -0.286839
   8 N :   -0.128327
   9 C :    0.206203
  10 S :   -0.440154
  11 N :   -0.212230
  12 C :    0.051018
  13 C :    0.029872
  14 C :   -0.180872
  15 C :   -0.132356
  16 C :   -0.278200
  17 C :    0.314330
  18 O :   -0.358326
  19 C :   -0.255262
  20 H :    0.093011
  21 H :    0.110114
  22 H :    0.102547
  23 H :    0.091517
  24 H :    0.110114
  25 H :    0.129814
  26 H :    0.107113
  27 H :    0.123976
  28 H :    0.198749
  29 H :    0.199981
  30 H :    0.157653
  31 H :    0.164437
  32 H :    0.161793
  33 H :    0.129858
  34 H :    0.240523
  35 H :    0.165873
Sum of atomic charges:   -0.0000000

LOEWDIN ATOMIC CHARGES
----------------------
   0 C :    0.106343
   1 C :   -0.016634
   2 O :    0.295823
   3 C :   -0.425019
   4 O :    0.123857
   5 C :   -0.097212
   6 C :   -0.066997
   7 C :    0.126990
   8 N :    0.405673
   9 C :   -0.457822
  10 S :   -0.036095
  11 N :    0.395987
  12 C :   -0.048609
  13 C :   -0.042205
  14 C :    0.023909
  15 C :    0.041776
  16 C :   -0.001096
  17 C :   -0.193247
  18 O :    0.393360
  19 C :    0.027807
  20 H :   -0.030275
  21 H :   -0.022597
  22 H :   -0.026056
  23 H :   -0.026885
  24 H :   -0.026419
  25 H :   -0.007096
  26 H :   -0.019849
  27 H :   -0.011918
  28 H :   -0.058203
  29 H :   -0.063431
  30 H :   -0.007069
  31 H :   -0.022919
  32 H :   -0.020188
  33 H :   -0.035667
  34 H :   -0.154252
  35 H :   -0.023763

  Mayer bond orders larger than 0.100000
B(  0-C ,  1-C ) :   0.9717 B(  0-C , 20-H ) :   0.9775 B(  0-C , 21-H ) :   0.9781
B(  0-C , 22-H ) :   0.9752 B(  1-C ,  2-O ) :   0.8987 B(  1-C , 23-H ) :   0.9689
B(  1-C , 24-H ) :   0.9834 B(  2-O ,  3-C ) :   1.0736 B(  3-C ,  4-O ) :   2.0506
B(  3-C ,  5-C ) :   1.0119 B(  5-C ,  6-C ) :   1.6700 B(  5-C , 12-C ) :   0.9465
B(  6-C ,  7-C ) :   0.9520 B(  6-C ,  8-N ) :   1.1361 B(  7-C , 25-H ) :   0.9661
B(  7-C , 26-H ) :   0.9897 B(  7-C , 27-H ) :   0.9655 B(  8-N ,  9-C ) :   1.1854
B(  8-N , 28-H ) :   0.9473 B(  9-C , 10-S ) :   1.6117 B(  9-C , 11-N ) :   1.3026
B( 11-N , 12-C ) :   0.9792 B( 11-N , 29-H ) :   0.9485 B( 12-C , 13-C ) :   0.9707
B( 12-C , 30-H ) :   0.9944 B( 13-C , 14-C ) :   1.3810 B( 13-C , 19-C ) :   1.3608
B( 14-C , 15-C ) :   1.3963 B( 14-C , 31-H ) :   0.9617 B( 15-C , 16-C ) :   1.3599
B( 15-C , 32-H ) :   0.9707 B( 16-C , 17-C ) :   1.3323 B( 16-C , 33-H ) :   0.9854
B( 17-C , 18-O ) :   1.1054 B( 17-C , 19-C ) :   1.3666 B( 18-O , 34-H ) :   0.9801
B( 19-C , 35-H ) :   0.9596

MP2 TOTAL ENERGY:    -1274.326430526 Eh
FINAL SINGLE POINT ENERGY     -1274.326430526173

DIPOLE MOMENT
-------------
                                X             Y             Z
Electronic contribution:     11.04564       7.50977       9.32044
Nuclear contribution   :    -12.44737      -8.80434      -9.99624
                        -----------------------------------------
Total Dipole Moment    :     -1.40173      -1.29457      -0.67579
                        -----------------------------------------
Magnitude (a.u.)       :      2.02422
Magnitude (Debye)      :      5.14516

Rotational constants in cm-1:     0.010160     0.009289     0.006105
Rotational constants in MHz :   304.599161   278.463295   183.035886

                             ****ORCA TERMINATED NORMALLY****
TOTAL RUN TIME: 0 days 1 hours 42 minutes 53 seconds 419 msec
