                         Program Version 4.2.0 -  RELEASE  -
|  1> ! ri-mp2 cc-pvtz cc-pvtz/c TightSCF NoKeepInts
|  2>
|  3> %scf
|  4>   MaxCore 4096
|  5> end
|  6> *xyz  0  1
|  7>     C       14.4182564   16.2143986   16.0386940
|  8>     C       15.1738600   15.7424211   14.7783040
|  9>     O       16.3525195   16.5347279   14.5260489
| 10>     C       17.3279346   16.5964412   15.4768333
| 11>     O       18.1487537   15.7043333   15.5935065
| 12>     C       17.1862306   17.7110226   16.4712880
| 13>     C       16.8021295   18.9565524   16.0909317
| 14>     C       16.2690089   19.3833887   14.7373260
| 15>     N       16.9460636   20.0426286   16.9574674
| 16>     C       17.6730652   20.0135003   18.1173625
| 17>     S       17.8975130   21.3673615   19.0401475
| 18>     N       18.2259878   18.8054565   18.4614641
| 19>     C       17.9663446   17.5235198   17.7769107
| 20>     C       17.3727201   16.4545397   18.6844553
| 21>     C       17.9339137   15.1660262   18.7349321
| 22>     C       17.3781603   14.1762583   19.5626920
| 23>     C       16.2513583   14.4776534   20.3467315
| 24>     C       15.6886834   15.7603535   20.2968129
| 25>     O       14.5956304   16.0519893   21.0458063
| 26>     C       16.2439141   16.7433926   19.4715045
| 27>     H       14.9911835   15.9983025   16.9484447
| 28>     H       13.4605524   15.6864472   16.1230676
| 29>     H       14.2071254   17.2892972   15.9986421
| 30>     H       15.4560650   14.6872518   14.8967447
| 31>     H       14.5053166   15.8131751   13.9106500
| 32>     H       15.2696952   18.9692094   14.5592740
| 33>     H       16.9261603   19.0333911   13.9309731
| 34>     H       16.1958091   20.4731206   14.6356148
| 35>     H       16.5707995   20.9425051   16.7033708
| 36>     H       18.7460317   18.8076578   19.3299995
| 37>     H       18.9896026   17.2517470   17.4783607
| 38>     H       18.7967609   14.9277190   18.1167357
| 39>     H       17.8185477   13.1810203   19.5892378
| 40>     H       15.8180029   13.7153528   20.9856601
| 41>     H       14.3895749   15.2675675   21.5762288
| 42>     H       15.7937244   17.7302697   19.4457764
| 43> *
| 44>
| 45>                          ****END OF INPUT****

CARTESIAN COORDINATES (ANGSTROEM)
---------------------------------
  C     14.418256   16.214399   16.038694
  C     15.173860   15.742421   14.778304
  O     16.352519   16.534728   14.526049
  C     17.327935   16.596441   15.476833
  O     18.148754   15.704333   15.593507
  C     17.186231   17.711023   16.471288
  C     16.802129   18.956552   16.090932
  C     16.269009   19.383389   14.737326
  N     16.946064   20.042629   16.957467
  C     17.673065   20.013500   18.117362
  S     17.897513   21.367361   19.040147
  N     18.225988   18.805456   18.461464
  C     17.966345   17.523520   17.776911
  C     17.372720   16.454540   18.684455
  C     17.933914   15.166026   18.734932
  C     17.378160   14.176258   19.562692
  C     16.251358   14.477653   20.346732
  C     15.688683   15.760353   20.296813
  O     14.595630   16.051989   21.045806
  C     16.243914   16.743393   19.471505
  H     14.991183   15.998302   16.948445
  H     13.460552   15.686447   16.123068
  H     14.207125   17.289297   15.998642
  H     15.456065   14.687252   14.896745
  H     14.505317   15.813175   13.910650
  H     15.269695   18.969209   14.559274
  H     16.926160   19.033391   13.930973
  H     16.195809   20.473121   14.635615
  H     16.570799   20.942505   16.703371
  H     18.746032   18.807658   19.329999
  H     18.989603   17.251747   17.478361
  H     18.796761   14.927719   18.116736
  H     17.818548   13.181020   19.589238
  H     15.818003   13.715353   20.985660
  H     14.389575   15.267568   21.576229
  H     15.793724   17.730270   19.445776

 Total Charge           Charge          ....    0
 Multiplicity           Mult            ....    1
 Number of Electrons    NEL             ....  154
 Basis Dimension        Dim             ....  828

ORBITAL ENERGIES
----------------

  NO   OCC          E(Eh)            E(eV)
   0   2.0000     -91.889957     -2500.4528
   1   2.0000     -20.596095      -560.4482
   2   2.0000     -20.585710      -560.1657
   3   2.0000     -20.553000      -559.2756
   4   2.0000     -15.630234      -425.3203
   5   2.0000     -15.607826      -424.7106
   6   2.0000     -11.394125      -310.0499
   7   2.0000     -11.384780      -309.7956
   8   2.0000     -11.338256      -308.5296
   9   2.0000     -11.312595      -307.8314
  10   2.0000     -11.306606      -307.6684
  11   2.0000     -11.306457      -307.6643
  12   2.0000     -11.261677      -306.4458
  13   2.0000     -11.259902      -306.3975
  14   2.0000     -11.259673      -306.3913
  15   2.0000     -11.252594      -306.1987
  16   2.0000     -11.242590      -305.9264
  17   2.0000     -11.238500      -305.8151
  18   2.0000     -11.235034      -305.7208
  19   2.0000     -11.231983      -305.6378
  20   2.0000      -8.895033      -242.0462
  21   2.0000      -6.576607      -178.9586
  22   2.0000      -6.574606      -178.9041
  23   2.0000      -6.574015      -178.8880
  24   2.0000      -1.449254       -39.4362
  25   2.0000      -1.415894       -38.5284
  26   2.0000      -1.357456       -36.9383
  27   2.0000      -1.341564       -36.5058
  28   2.0000      -1.238865       -33.7112
  29   2.0000      -1.156864       -31.4799
  30   2.0000      -1.123007       -30.5586
  31   2.0000      -1.044969       -28.4350
  32   2.0000      -1.034496       -28.1501
  33   2.0000      -1.014568       -27.6078
  34   2.0000      -1.002690       -27.2846
  35   2.0000      -0.988165       -26.8893
  36   2.0000      -0.924091       -25.1458
  37   2.0000      -0.895626       -24.3712
  38   2.0000      -0.849905       -23.1271
  39   2.0000      -0.839011       -22.8306
  40   2.0000      -0.832602       -22.6562
  41   2.0000      -0.820946       -22.3391
  42   2.0000      -0.751947       -20.4615
  43   2.0000      -0.735362       -20.0102
  44   2.0000      -0.728791       -19.8314
  45   2.0000      -0.693987       -18.8844
  46   2.0000      -0.686990       -18.6940
  47   2.0000      -0.677298       -18.4302
  48   2.0000      -0.672946       -18.3118
  49   2.0000      -0.663613       -18.0578
  50   2.0000      -0.653219       -17.7750
  51   2.0000      -0.647143       -17.6096
  52   2.0000      -0.637282       -17.3413
  53   2.0000      -0.612943       -16.6790
  54   2.0000      -0.603424       -16.4200
  55   2.0000      -0.601965       -16.3803
  56   2.0000      -0.599832       -16.3223
  57   2.0000      -0.583849       -15.8873
  58   2.0000      -0.575821       -15.6689
  59   2.0000      -0.563905       -15.3446
  60   2.0000      -0.562807       -15.3148
  61   2.0000      -0.550080       -14.9684
  62   2.0000      -0.548401       -14.9228
  63   2.0000      -0.527780       -14.3616
  64   2.0000      -0.520185       -14.1550
  65   2.0000      -0.512222       -13.9383
  66   2.0000      -0.499016       -13.5789
  67   2.0000      -0.493061       -13.4169
  68   2.0000      -0.483185       -13.1481
  69   2.0000      -0.464732       -12.6460
  70   2.0000      -0.458143       -12.4667
  71   2.0000      -0.451968       -12.2987
  72   2.0000      -0.354746        -9.6531
  73   2.0000      -0.348010        -9.4698
  74   2.0000      -0.329070        -8.9544
  75   2.0000      -0.320154        -8.7118
  76   2.0000      -0.319014        -8.6808
  77   0.0000       0.072883         1.9833
  78   0.0000       0.106517         2.8985
  79   0.0000       0.118937         3.2364
  80   0.0000       0.132498         3.6055
  81   0.0000       0.135219         3.6795

MULLIKEN ATOMIC CHARGES
-----------------------
   0 C :   -0.328493
   1 C :    0.037757
   2 O :   -0.377691
   3 C :    0.465734
   4 O :   -0.388219
   5 C :   -0.231985
   6 C :    0.149627
   7 C :   -0.284072
   8 N :   -0.129085
   9 C :    0.205629
  10 S :   -0.439923
  11 N :   -0.213974
  12 C :    0.067784
  13 C :    0.019901
  14 C :   -0.184445
  15 C :   -0.134218
  16 C :   -0.277026
  17 C :    0.323523
  18 O :   -0.359094
  19 C :   -0.267564
  20 H :    0.123918
  21 H :    0.118890
  22 H :    0.097436
  23 H :    0.107359
  24 H :    0.110908
  25 H :    0.119725
  26 H :    0.132269
  27 H :    0.105582
  28 H :    0.197739
  29 H :    0.200044
  30 H :    0.158479
  31 H :    0.169142
  32 H :    0.162506
  33 H :    0.131031
  34 H :    0.240629
  35 H :    0.170175
Sum of atomic charges:    0.0000000

LOEWDIN ATOMIC CHARGES
----------------------
   0 C :    0.103633
   1 C :   -0.019124
   2 O :    0.288438
   3 C :   -0.419710
   4 O :    0.125963
   5 C :   -0.094211
   6 C :   -0.069108
   7 C :    0.126413
   8 N :    0.405930
   9 C :   -0.458295
  10 S :   -0.035983
  11 N :    0.396239
  12 C :   -0.048345
  13 C :   -0.043717
  14 C :    0.023532
  15 C :    0.042437
  16 C :   -0.000851
  17 C :   -0.193938
  18 O :    0.394072
  19 C :    0.028936
  20 H :   -0.025819
  21 H :   -0.023131
  22 H :   -0.031574
  23 H :   -0.025906
  24 H :   -0.022374
  25 H :   -0.014058
  26 H :   -0.006183
  27 H :   -0.019741
  28 H :   -0.058486
  29 H :   -0.063376
  30 H :   -0.006407
  31 H :   -0.022351
  32 H :   -0.019764
  33 H :   -0.035384
  34 H :   -0.153997
  35 H :   -0.023760

  Mayer bond orders larger than 0.100000
B(  0-C ,  1-C ) :   0.9619 B(  0-C , 20-H ) :   0.9652 B(  0-C , 21-H ) :   0.9779
B(  0-C , 22-H ) :   0.9733 B(  1-C ,  2-O ) :   0.9024 B(  1-C , 23-H ) :   0.9836
B(  1-C , 24-H ) :   0.9827 B(  2-O ,  3-C ) :   1.0784 B(  3-C ,  4-O ) :   2.0506
B(  3-C ,  5-C ) :   0.9976 B(  5-C ,  6-C ) :   1.6874 B(  5-C , 12-C ) :   0.9398
B(  6-C ,  7-C ) :   0.9506 B(  6-C ,  8-N ) :   1.1335 B(  7-C , 25-H ) :   0.9652
B(  7-C , 26-H ) :   0.9655 B(  7-C , 27-H ) :   0.9894 B(  8-N ,  9-C ) :   1.1858
B(  8-N , 28-H ) :   0.9473 B(  9-C , 10-S ) :   1.6126 B(  9-C , 11-N ) :   1.3000
B( 11-N , 12-C ) :   0.9802 B( 11-N , 29-H ) :   0.9486 B( 12-C , 13-C ) :   0.9662
B( 12-C , 30-H ) :   0.9946 B( 13-C , 14-C ) :   1.3859 B( 13-C , 19-C ) :   1.3528
B( 14-C , 15-C ) :   1.3974 B( 14-C , 31-H ) :   0.9592 B( 15-C , 16-C ) :   1.3601
B( 15-C , 32-H ) :   0.9707 B( 16-C , 17-C ) :   1.3323 B( 16-C , 33-H ) :   0.9848
B( 17-C , 18-O ) :   1.1062 B( 17-C , 19-C ) :   1.3602 B( 18-O , 34-H ) :   0.9801
B( 19-C , 35-H ) :   0.9605

MP2 TOTAL ENERGY:    -1274.325545053 Eh
FINAL SINGLE POINT ENERGY     -1274.325545053043

DIPOLE MOMENT
-------------
                                X             Y             Z
Electronic contribution:      9.20814       7.40719       7.20620
Nuclear contribution   :    -10.60688      -8.67505      -7.89953
                        -----------------------------------------
Total Dipole Moment    :     -1.39874      -1.26786      -0.69333
                        -----------------------------------------
Magnitude (a.u.)       :      2.01113
Magnitude (Debye)      :      5.11190

Rotational constants in cm-1:     0.011182     0.009371     0.006401
Rotational constants in MHz :   335.242846   280.934089   191.901014

                             ****ORCA TERMINATED NORMALLY****
TOTAL RUN TIME: 0 days 1 hours 48 minutes 36 seconds 490 msec
