                         Program Version 4.2.0 -  RELEASE  -
|  1> ! ri-mp2 cc-pvtz cc-pvtz/c TightSCF NoKeepInts
|  2>
|  3> %scf
|  4>   MaxCore 4096
|  5> end
|  6> *xyz  0  1
|  7>     C       14.5576454   16.2494633   16.1114232
|  8>     C       15.5624743   15.1181028   15.7927565
|  9>     O       16.9298986   15.5416585   15.5510385
| 10>     C       17.2842962   16.8164753   15.2151173
| 11>     O       17.6117870   17.0863062   14.0742423
| 12>     C       17.1500496   17.8240577   16.3214441
| 13>     C       16.9862676   19.1339761   16.0109035
| 14>     C       16.5208622   19.6962851   14.6841509
| 15>     N       17.2370968   20.1374367   16.9482238
| 16>     C       17.8922899   19.9345304   18.1327482
| 17>     S       18.2719948   21.1822935   19.1494076
| 18>     N       18.2408500   18.6391915   18.4232483
| 19>     C       17.8208009   17.4488543   17.6574086
| 20>     C       17.1274292   16.4028070   18.5222741
| 21>     C       17.5803415   15.0703833   18.5335222
| 22>     C       16.9538281   14.1086889   19.3437013
| 23>     C       15.8725412   14.4845041   20.1587724
| 24>     C       15.4308270   15.8145749   20.1644008
| 25>     O       14.3893144   16.1816410   20.9522000
| 26>     C       16.0570197   16.7694845   19.3571732
| 27>     H       14.7925770   16.7638270   17.0460945
| 28>     H       13.5507204   15.8284961   16.2204693
| 29>     H       14.5176939   16.9854497   15.2990988
| 30>     H       15.5522704   14.3840615   16.6089100
| 31>     H       15.2055353   14.5999971   14.8930542
| 32>     H       17.3667908   19.7887929   13.9904293
| 33>     H       16.0541333   20.6833053   14.7846626
| 34>     H       15.7839382   19.0356249   14.2111188
| 35>     H       17.0241943   21.0968345   16.7255493
| 36>     H       18.7114091   18.5183701   19.3115773
| 37>     H       18.8124267   17.0724443   17.3674462
| 38>     H       18.4144672   14.7765136   17.9008843
| 39>     H       17.3078030   13.0789769   19.3390121
| 40>     H       15.3856259   13.7452296   20.7864884
| 41>     H       14.1255805   15.4056574   21.4695114
| 42>     H       15.7042197   17.7957044   19.3795369
| 43> *
| 44>
| 45>                          ****END OF INPUT****

CARTESIAN COORDINATES (ANGSTROEM)
---------------------------------
  C     14.557645   16.249463   16.111423
  C     15.562474   15.118103   15.792756
  O     16.929899   15.541659   15.551038
  C     17.284296   16.816475   15.215117
  O     17.611787   17.086306   14.074242
  C     17.150050   17.824058   16.321444
  C     16.986268   19.133976   16.010904
  C     16.520862   19.696285   14.684151
  N     17.237097   20.137437   16.948224
  C     17.892290   19.934530   18.132748
  S     18.271995   21.182293   19.149408
  N     18.240850   18.639191   18.423248
  C     17.820801   17.448854   17.657409
  C     17.127429   16.402807   18.522274
  C     17.580341   15.070383   18.533522
  C     16.953828   14.108689   19.343701
  C     15.872541   14.484504   20.158772
  C     15.430827   15.814575   20.164401
  O     14.389314   16.181641   20.952200
  C     16.057020   16.769485   19.357173
  H     14.792577   16.763827   17.046094
  H     13.550720   15.828496   16.220469
  H     14.517694   16.985450   15.299099
  H     15.552270   14.384061   16.608910
  H     15.205535   14.599997   14.893054
  H     17.366791   19.788793   13.990429
  H     16.054133   20.683305   14.784663
  H     15.783938   19.035625   14.211119
  H     17.024194   21.096834   16.725549
  H     18.711409   18.518370   19.311577
  H     18.812427   17.072444   17.367446
  H     18.414467   14.776514   17.900884
  H     17.307803   13.078977   19.339012
  H     15.385626   13.745230   20.786488
  H     14.125580   15.405657   21.469511
  H     15.704220   17.795704   19.379537

 Total Charge           Charge          ....    0
 Multiplicity           Mult            ....    1
 Number of Electrons    NEL             ....  154
 Basis Dimension        Dim             ....  828

ORBITAL ENERGIES
----------------

  NO   OCC          E(Eh)            E(eV)
   0   2.0000     -91.890838     -2500.4768
   1   2.0000     -20.601929      -560.6070
   2   2.0000     -20.582521      -560.0789
   3   2.0000     -20.551909      -559.2459
   4   2.0000     -15.628756      -425.2801
   5   2.0000     -15.610150      -424.7738
   6   2.0000     -11.394070      -310.0484
   7   2.0000     -11.385536      -309.8162
   8   2.0000     -11.333191      -308.3918
   9   2.0000     -11.319584      -308.0215
  10   2.0000     -11.314658      -307.8875
  11   2.0000     -11.304286      -307.6053
  12   2.0000     -11.267318      -306.5993
  13   2.0000     -11.260320      -306.4089
  14   2.0000     -11.257077      -306.3206
  15   2.0000     -11.254647      -306.2545
  16   2.0000     -11.249833      -306.1235
  17   2.0000     -11.245314      -306.0006
  18   2.0000     -11.243949      -305.9634
  19   2.0000     -11.232661      -305.6563
  20   2.0000      -8.895897      -242.0697
  21   2.0000      -6.577466      -178.9820
  22   2.0000      -6.575471      -178.9277
  23   2.0000      -6.574876      -178.9115
  24   2.0000      -1.442990       -39.2658
  25   2.0000      -1.421745       -38.6877
  26   2.0000      -1.353838       -36.8398
  27   2.0000      -1.341344       -36.4998
  28   2.0000      -1.240461       -33.7547
  29   2.0000      -1.162891       -31.6439
  30   2.0000      -1.122795       -30.5528
  31   2.0000      -1.047707       -28.5096
  32   2.0000      -1.034401       -28.1475
  33   2.0000      -1.021287       -27.7906
  34   2.0000      -1.002742       -27.2860
  35   2.0000      -0.988723       -26.9045
  36   2.0000      -0.925501       -25.1842
  37   2.0000      -0.899673       -24.4813
  38   2.0000      -0.849460       -23.1150
  39   2.0000      -0.843132       -22.9428
  40   2.0000      -0.840150       -22.8616
  41   2.0000      -0.822047       -22.3690
  42   2.0000      -0.746886       -20.3238
  43   2.0000      -0.737656       -20.0726
  44   2.0000      -0.723199       -19.6792
  45   2.0000      -0.699998       -19.0479
  46   2.0000      -0.689368       -18.7586
  47   2.0000      -0.675428       -18.3793
  48   2.0000      -0.672793       -18.3076
  49   2.0000      -0.663456       -18.0535
  50   2.0000      -0.654099       -17.7989
  51   2.0000      -0.647079       -17.6079
  52   2.0000      -0.639340       -17.3973
  53   2.0000      -0.620049       -16.8724
  54   2.0000      -0.611527       -16.6405
  55   2.0000      -0.604631       -16.4528
  56   2.0000      -0.601810       -16.3761
  57   2.0000      -0.581048       -15.8111
  58   2.0000      -0.575228       -15.6528
  59   2.0000      -0.565726       -15.3942
  60   2.0000      -0.557516       -15.1708
  61   2.0000      -0.552875       -15.0445
  62   2.0000      -0.542819       -14.7709
  63   2.0000      -0.530680       -14.4405
  64   2.0000      -0.526238       -14.3197
  65   2.0000      -0.515404       -14.0249
  66   2.0000      -0.503711       -13.7067
  67   2.0000      -0.494269       -13.4497
  68   2.0000      -0.482372       -13.1260
  69   2.0000      -0.468935       -12.7604
  70   2.0000      -0.453039       -12.3278
  71   2.0000      -0.449060       -12.2196
  72   2.0000      -0.357743        -9.7347
  73   2.0000      -0.349069        -9.4987
  74   2.0000      -0.330039        -8.9808
  75   2.0000      -0.326796        -8.8926
  76   2.0000      -0.320678        -8.7261
  77   0.0000       0.075943         2.0665
  78   0.0000       0.099127         2.6974
  79   0.0000       0.120684         3.2840
  80   0.0000       0.127864         3.4794
  81   0.0000       0.129849         3.5334

MULLIKEN ATOMIC CHARGES
-----------------------
   0 C :   -0.328344
   1 C :    0.029776
   2 O :   -0.369482
   3 C :    0.436210
   4 O :   -0.371180
   5 C :   -0.253338
   6 C :    0.170046
   7 C :   -0.278779
   8 N :   -0.130260
   9 C :    0.208487
  10 S :   -0.438354
  11 N :   -0.217191
  12 C :    0.061391
  13 C :    0.030005
  14 C :   -0.205537
  15 C :   -0.138382
  16 C :   -0.274211
  17 C :    0.320191
  18 O :   -0.355799
  19 C :   -0.254680
  20 H :    0.118138
  21 H :    0.119769
  22 H :    0.099171
  23 H :    0.113492
  24 H :    0.121264
  25 H :    0.141768
  26 H :    0.095933
  27 H :    0.120180
  28 H :    0.198528
  29 H :    0.201635
  30 H :    0.152141
  31 H :    0.157129
  32 H :    0.167208
  33 H :    0.134323
  34 H :    0.241262
  35 H :    0.177489
Sum of atomic charges:   -0.0000000

LOEWDIN ATOMIC CHARGES
----------------------
   0 C :    0.104383
   1 C :   -0.011230
   2 O :    0.286860
   3 C :   -0.427847
   4 O :    0.129048
   5 C :   -0.097219
   6 C :   -0.066954
   7 C :    0.129043
   8 N :    0.406746
   9 C :   -0.457184
  10 S :   -0.034316
  11 N :    0.395476
  12 C :   -0.052546
  13 C :   -0.042352
  14 C :    0.023296
  15 C :    0.040128
  16 C :   -0.000605
  17 C :   -0.192673
  18 O :    0.396104
  19 C :    0.032093
  20 H :   -0.034614
  21 H :   -0.020688
  22 H :   -0.030537
  23 H :   -0.025030
  24 H :   -0.026782
  25 H :   -0.003995
  26 H :   -0.022035
  27 H :   -0.010483
  28 H :   -0.056985
  29 H :   -0.063625
  30 H :   -0.010921
  31 H :   -0.025788
  32 H :   -0.019577
  33 H :   -0.034184
  34 H :   -0.152890
  35 H :   -0.022117

  Mayer bond orders larger than 0.100000
B(  0-C ,  1-C ) :   0.9615 B(  0-C , 20-H ) :   0.9677 B(  0-C , 21-H ) :   0.9756
B(  0-C , 22-H ) :   0.9732 B(  1-C ,  2-O ) :   0.8951 B(  1-C , 23-H ) :   0.9743
B(  1-C , 24-H ) :   0.9852 B(  2-O ,  3-C ) :   1.1227 B(  3-C ,  4-O ) :   2.1013
B(  3-C ,  5-C ) :   0.9779 B(  5-C ,  6-C ) :   1.6577 B(  5-C , 12-C ) :   0.9559
B(  6-C ,  7-C ) :   0.9561 B(  6-C ,  8-N ) :   1.1417 B(  7-C , 25-H ) :   0.9553
B(  7-C , 26-H ) :   0.9851 B(  7-C , 27-H ) :   0.9728 B(  8-N ,  9-C ) :   1.1922
B(  8-N , 28-H ) :   0.9488 B(  9-C , 10-S ) :   1.6142 B(  9-C , 11-N ) :   1.2928
B( 11-N , 12-C ) :   0.9790 B( 11-N , 29-H ) :   0.9469 B( 12-C , 13-C ) :   0.9625
B( 12-C , 30-H ) :   1.0023 B( 13-C , 14-C ) :   1.3575 B( 13-C , 19-C ) :   1.3484
B( 14-C , 15-C ) :   1.3981 B( 14-C , 31-H ) :   0.9711 B( 15-C , 16-C ) :   1.3538
B( 15-C , 32-H ) :   0.9696 B( 16-C , 17-C ) :   1.3330 B( 16-C , 33-H ) :   0.9838
B( 17-C , 18-O ) :   1.1090 B( 17-C , 19-C ) :   1.3605 B( 18-O , 34-H ) :   0.9792
B( 19-C , 35-H ) :   0.9580

MP2 TOTAL ENERGY:    -1274.316073981 Eh
FINAL SINGLE POINT ENERGY     -1274.316073981283

DIPOLE MOMENT
-------------
                                X             Y             Z
Electronic contribution:      9.04698       7.26190       6.32803
Nuclear contribution   :    -10.43885      -8.89361      -6.23672
                        -----------------------------------------
Total Dipole Moment    :     -1.39186      -1.63172       0.09131
                        -----------------------------------------
Magnitude (a.u.)       :      2.14666
Magnitude (Debye)      :      5.45636

Rotational constants in cm-1:     0.012270     0.009203     0.006284
Rotational constants in MHz :   367.848625   275.887700   188.374736

                             ****ORCA TERMINATED NORMALLY****
TOTAL RUN TIME: 0 days 2 hours 6 minutes 42 seconds 586 msec
