                         Program Version 4.2.0 -  RELEASE  -
|  1> ! ri-mp2 cc-pvtz cc-pvtz/c TightSCF NoKeepInts
|  2>
|  3> %scf
|  4>   MaxCore 4096
|  5> end
|  6> *xyz  0  1
|  7>     C       14.1745566   15.7197017   15.1941665
|  8>     C       15.3530530   15.5918967   16.1747393
|  9>     O       16.5665550   15.7906387   15.4212728
| 10>     C       17.1393281   17.0236460   15.2664254
| 11>     O       17.6617917   17.3407613   14.2140035
| 12>     C       17.0780825   17.9384958   16.4508466
| 13>     C       16.8630648   19.2573146   16.2321007
| 14>     C       16.2788137   19.8647741   14.9746859
| 15>     N       17.1827948   20.2151694   17.1954764
| 16>     C       17.9519395   19.9615660   18.2997022
| 17>     S       18.4015143   21.1587458   19.3480657
| 18>     N       18.3521551   18.6603491   18.4802024
| 19>     C       17.8884326   17.5061135   17.6846636
| 20>     C       17.3008371   16.3854291   18.5292684
| 21>     C       17.7789878   15.0685985   18.3994803
| 22>     C       17.2295133   14.0312880   19.1713173
| 23>     C       16.1979630   14.3142763   20.0830160
| 24>     C       15.7253175   15.6266939   20.2196192
| 25>     O       14.7266398   15.9023052   21.0950656
| 26>     C       16.2721207   16.6571224   19.4481399
| 27>     H       14.1309540   16.7283972   14.7652200
| 28>     H       13.2248179   15.5230403   15.7063458
| 29>     H       14.2768028   14.9994953   14.3724513
| 30>     H       15.2275176   16.3113498   16.9904300
| 31>     H       15.3526684   14.5818594   16.6050540
| 32>     H       15.5386262   19.1966474   14.5173842
| 33>     H       17.0686276   20.0328809   14.2304678
| 34>     H       15.7803091   20.8228536   15.1641861
| 35>     H       16.9348225   21.1806236   17.0471268
| 36>     H       18.9114062   18.5021397   19.3093697
| 37>     H       18.8545626   17.1773378   17.2743389
| 38>     H       18.5715594   14.8460477   17.6888185
| 39>     H       17.6032315   13.0143247   19.0613034
| 40>     H       15.7711169   13.5156735   20.6812914
| 41>     H       14.5223683   15.0847682   21.5742248
| 42>     H       15.8941480   17.6676748   19.5677294
| 43> *
| 44>
| 45>                          ****END OF INPUT****

CARTESIAN COORDINATES (ANGSTROEM)
---------------------------------
  C     14.174557   15.719702   15.194166
  C     15.353053   15.591897   16.174739
  O     16.566555   15.790639   15.421273
  C     17.139328   17.023646   15.266425
  O     17.661792   17.340761   14.214003
  C     17.078083   17.938496   16.450847
  C     16.863065   19.257315   16.232101
  C     16.278814   19.864774   14.974686
  N     17.182795   20.215169   17.195476
  C     17.951939   19.961566   18.299702
  S     18.401514   21.158746   19.348066
  N     18.352155   18.660349   18.480202
  C     17.888433   17.506114   17.684664
  C     17.300837   16.385429   18.529268
  C     17.778988   15.068599   18.399480
  C     17.229513   14.031288   19.171317
  C     16.197963   14.314276   20.083016
  C     15.725317   15.626694   20.219619
  O     14.726640   15.902305   21.095066
  C     16.272121   16.657122   19.448140
  H     14.130954   16.728397   14.765220
  H     13.224818   15.523040   15.706346
  H     14.276803   14.999495   14.372451
  H     15.227518   16.311350   16.990430
  H     15.352668   14.581859   16.605054
  H     15.538626   19.196647   14.517384
  H     17.068628   20.032881   14.230468
  H     15.780309   20.822854   15.164186
  H     16.934822   21.180624   17.047127
  H     18.911406   18.502140   19.309370
  H     18.854563   17.177338   17.274339
  H     18.571559   14.846048   17.688819
  H     17.603231   13.014325   19.061303
  H     15.771117   13.515673   20.681291
  H     14.522368   15.084768   21.574225
  H     15.894148   17.667675   19.567729

 Total Charge           Charge          ....    0
 Multiplicity           Mult            ....    1
 Number of Electrons    NEL             ....  154
 Basis Dimension        Dim             ....  828

ORBITAL ENERGIES
----------------

  NO   OCC          E(Eh)            E(eV)
   0   2.0000     -91.890960     -2500.4801
   1   2.0000     -20.604425      -560.6749
   2   2.0000     -20.595648      -560.4361
   3   2.0000     -20.550010      -559.1942
   4   2.0000     -15.628330      -425.2685
   5   2.0000     -15.611333      -424.8060
   6   2.0000     -11.395129      -310.0772
   7   2.0000     -11.386169      -309.8334
   8   2.0000     -11.331696      -308.3511
   9   2.0000     -11.322751      -308.1077
  10   2.0000     -11.317027      -307.9520
  11   2.0000     -11.298470      -307.4470
  12   2.0000     -11.269659      -306.6630
  13   2.0000     -11.263679      -306.5003
  14   2.0000     -11.257830      -306.3411
  15   2.0000     -11.256496      -306.3048
  16   2.0000     -11.252589      -306.1985
  17   2.0000     -11.247219      -306.0524
  18   2.0000     -11.247102      -306.0492
  19   2.0000     -11.229708      -305.5759
  20   2.0000      -8.896023      -242.0731
  21   2.0000      -6.577593      -178.9854
  22   2.0000      -6.575595      -178.9310
  23   2.0000      -6.575002      -178.9149
  24   2.0000      -1.446512       -39.3616
  25   2.0000      -1.424197       -38.7544
  26   2.0000      -1.359031       -36.9811
  27   2.0000      -1.341206       -36.4961
  28   2.0000      -1.240828       -33.7647
  29   2.0000      -1.165978       -31.7279
  30   2.0000      -1.125000       -30.6128
  31   2.0000      -1.050691       -28.5908
  32   2.0000      -1.035292       -28.1717
  33   2.0000      -1.024109       -27.8674
  34   2.0000      -1.003161       -27.2974
  35   2.0000      -0.989590       -26.9281
  36   2.0000      -0.927236       -25.2314
  37   2.0000      -0.886631       -24.1265
  38   2.0000      -0.852296       -23.1921
  39   2.0000      -0.844535       -22.9810
  40   2.0000      -0.842894       -22.9363
  41   2.0000      -0.835560       -22.7368
  42   2.0000      -0.757754       -20.6195
  43   2.0000      -0.739224       -20.1153
  44   2.0000      -0.721301       -19.6276
  45   2.0000      -0.702848       -19.1255
  46   2.0000      -0.693037       -18.8585
  47   2.0000      -0.678382       -18.4597
  48   2.0000      -0.676528       -18.4093
  49   2.0000      -0.669600       -18.2208
  50   2.0000      -0.650316       -17.6960
  51   2.0000      -0.647992       -17.6328
  52   2.0000      -0.634956       -17.2780
  53   2.0000      -0.614028       -16.7086
  54   2.0000      -0.609848       -16.5948
  55   2.0000      -0.604842       -16.4586
  56   2.0000      -0.603386       -16.4190
  57   2.0000      -0.583677       -15.8827
  58   2.0000      -0.577681       -15.7195
  59   2.0000      -0.568481       -15.4691
  60   2.0000      -0.558567       -15.1994
  61   2.0000      -0.553470       -15.0607
  62   2.0000      -0.547576       -14.9003
  63   2.0000      -0.530017       -14.4225
  64   2.0000      -0.526414       -14.3245
  65   2.0000      -0.517824       -14.0907
  66   2.0000      -0.506000       -13.7690
  67   2.0000      -0.502418       -13.6715
  68   2.0000      -0.487231       -13.2582
  69   2.0000      -0.467369       -12.7178
  70   2.0000      -0.454358       -12.3637
  71   2.0000      -0.448597       -12.2069
  72   2.0000      -0.358683        -9.7603
  73   2.0000      -0.351827        -9.5737
  74   2.0000      -0.331463        -9.0196
  75   2.0000      -0.329252        -8.9594
  76   2.0000      -0.320968        -8.7340
  77   0.0000       0.081434         2.2159
  78   0.0000       0.095069         2.5870
  79   0.0000       0.120629         3.2825
  80   0.0000       0.126883         3.4527
  81   0.0000       0.128031         3.4839

MULLIKEN ATOMIC CHARGES
-----------------------
   0 C :   -0.265416
   1 C :    0.018350
   2 O :   -0.328232
   3 C :    0.401209
   4 O :   -0.372233
   5 C :   -0.222883
   6 C :    0.150521
   7 C :   -0.278139
   8 N :   -0.132346
   9 C :    0.211062
  10 S :   -0.438677
  11 N :   -0.214298
  12 C :    0.034061
  13 C :   -0.001658
  14 C :   -0.166866
  15 C :   -0.150658
  16 C :   -0.267743
  17 C :    0.307266
  18 O :   -0.353836
  19 C :   -0.230822
  20 H :    0.084485
  21 H :    0.094194
  22 H :    0.108850
  23 H :    0.102134
  24 H :    0.121231
  25 H :    0.116049
  26 H :    0.143024
  27 H :    0.098046
  28 H :    0.198694
  29 H :    0.200874
  30 H :    0.159899
  31 H :    0.153203
  32 H :    0.166519
  33 H :    0.135683
  34 H :    0.241759
  35 H :    0.176696
Sum of atomic charges:   -0.0000000

LOEWDIN ATOMIC CHARGES
----------------------
   0 C :    0.105414
   1 C :   -0.023300
   2 O :    0.307035
   3 C :   -0.423990
   4 O :    0.125494
   5 C :   -0.100285
   6 C :   -0.075867
   7 C :    0.129527
   8 N :    0.405691
   9 C :   -0.455583
  10 S :   -0.034458
  11 N :    0.395426
  12 C :   -0.053782
  13 C :   -0.044559
  14 C :    0.021740
  15 C :    0.043805
  16 C :    0.001197
  17 C :   -0.191765
  18 O :    0.396926
  19 C :    0.031639
  20 H :   -0.031811
  21 H :   -0.026335
  22 H :   -0.023118
  23 H :   -0.039084
  24 H :   -0.022483
  25 H :   -0.010525
  26 H :   -0.003600
  27 H :   -0.021002
  28 H :   -0.057097
  29 H :   -0.063653
  30 H :   -0.009994
  31 H :   -0.025797
  32 H :   -0.018511
  33 H :   -0.033551
  34 H :   -0.152227
  35 H :   -0.021517

  Mayer bond orders larger than 0.100000
B(  0-C ,  1-C ) :   0.9824 B(  0-C , 20-H ) :   0.9771 B(  0-C , 21-H ) :   0.9772
B(  0-C , 22-H ) :   0.9791 B(  1-C ,  2-O ) :   0.8795 B(  1-C , 23-H ) :   0.9546
B(  1-C , 24-H ) :   0.9776 B(  2-O ,  3-C ) :   1.1713 B(  3-C ,  4-O ) :   2.1224
B(  3-C ,  5-C ) :   0.9338 B(  5-C ,  6-C ) :   1.6842 B(  5-C , 12-C ) :   0.9564
B(  6-C ,  7-C ) :   0.9504 B(  6-C ,  8-N ) :   1.1329 B(  7-C , 25-H ) :   0.9755
B(  7-C , 26-H ) :   0.9556 B(  7-C , 27-H ) :   0.9844 B(  8-N ,  9-C ) :   1.1954
B(  8-N , 28-H ) :   0.9489 B(  9-C , 10-S ) :   1.6145 B(  9-C , 11-N ) :   1.2892
B( 11-N , 12-C ) :   0.9814 B( 11-N , 29-H ) :   0.9467 B( 12-C , 13-C ) :   0.9619
B( 12-C , 30-H ) :   1.0060 B( 13-C , 14-C ) :   1.3657 B( 13-C , 19-C ) :   1.3494
B( 14-C , 15-C ) :   1.3997 B( 14-C , 31-H ) :   0.9731 B( 15-C , 16-C ) :   1.3600
B( 15-C , 32-H ) :   0.9696 B( 16-C , 17-C ) :   1.3294 B( 16-C , 33-H ) :   0.9829
B( 17-C , 18-O ) :   1.1115 B( 17-C , 19-C ) :   1.3653 B( 18-O , 34-H ) :   0.9787
B( 19-C , 35-H ) :   0.9568

MP2 TOTAL ENERGY:    -1274.325209227 Eh
FINAL SINGLE POINT ENERGY     -1274.325209226708

DIPOLE MOMENT
-------------
                                X             Y             Z
Electronic contribution:     10.12015       7.82971       7.91926
Nuclear contribution   :    -11.55769      -9.48371      -7.67634
                        -----------------------------------------
Total Dipole Moment    :     -1.43754      -1.65400       0.24292
                        -----------------------------------------
Magnitude (a.u.)       :      2.20482
Magnitude (Debye)      :      5.60421

Rotational constants in cm-1:     0.011692     0.009071     0.006125
Rotational constants in MHz :   350.502749   271.943036   183.628927

                             ****ORCA TERMINATED NORMALLY****
TOTAL RUN TIME: 0 days 1 hours 51 minutes 30 seconds 120 msec
