                         Program Version 4.2.0 -  RELEASE  -
|  1> ! ri-mp2 cc-pvtz cc-pvtz/c TightSCF NoKeepInts
|  2>
|  3> %scf
|  4>   MaxCore 4096
|  5> end
|  6> *xyz  0  1
|  7>     C       14.2631326   16.6961606   15.9734142
|  8>     C       15.2791498   15.5383388   15.8743277
|  9>     O       16.4082915   15.8595214   15.0293535
| 10>     C       17.4323318   16.7174767   15.3454664
| 11>     O       18.5016094   16.6737495   14.7675986
| 12>     C       17.1705842   17.7159229   16.4139671
| 13>     C       16.8254142   18.9667557   16.0354917
| 14>     C       16.3733055   19.3767049   14.6504979
| 15>     N       16.9446944   20.0450108   16.9134185
| 16>     C       17.6249432   19.9893447   18.1020389
| 17>     S       17.8287825   21.3254304   19.0548868
| 18>     N       18.1525782   18.7690156   18.4505070
| 19>     C       17.9133949   17.5016944   17.7310882
| 20>     C       17.3379329   16.3795262   18.5781021
| 21>     C       17.9224936   15.1005456   18.5533379
| 22>     C       17.3729433   14.0518303   19.3096121
| 23>     C       16.2294686   14.2845670   20.0932823
| 24>     C       15.6444539   15.5581569   20.1169016
| 25>     O       14.5343539   15.7830343   20.8632438
| 26>     C       16.1926302   16.6000476   19.3621681
| 27>     H       14.5826476   17.4677978   16.6813630
| 28>     H       13.3007459   16.3132495   16.3346662
| 29>     H       14.0918377   17.1535692   14.9916486
| 30>     H       15.6100701   15.2316487   16.8738346
| 31>     H       14.7644430   14.6767737   15.4295730
| 32>     H       15.8729036   18.5559016   14.1229863
| 33>     H       17.2369826   19.6751050   14.0419212
| 34>     H       15.6706410   20.2182138   14.6801898
| 35>     H       16.6088635   20.9560810   16.6434830
| 36>     H       18.6472522   18.7566204   19.3337559
| 37>     H       18.9448560   17.2542932   17.4377600
| 38>     H       18.8015055   14.9170601   17.9392145
| 39>     H       17.8321566   13.0646609   19.2852679
| 40>     H       15.8015804   13.4766769   20.6781158
| 41>     H       14.3434724   14.9705924   21.3563707
| 42>     H       15.7245534   17.5789215   19.3891449
| 43> *
| 44>
| 45>                          ****END OF INPUT****

CARTESIAN COORDINATES (ANGSTROEM)
---------------------------------
  C     14.263133   16.696161   15.973414
  C     15.279150   15.538339   15.874328
  O     16.408292   15.859521   15.029353
  C     17.432332   16.717477   15.345466
  O     18.501609   16.673749   14.767599
  C     17.170584   17.715923   16.413967
  C     16.825414   18.966756   16.035492
  C     16.373306   19.376705   14.650498
  N     16.944694   20.045011   16.913418
  C     17.624943   19.989345   18.102039
  S     17.828782   21.325430   19.054887
  N     18.152578   18.769016   18.450507
  C     17.913395   17.501694   17.731088
  C     17.337933   16.379526   18.578102
  C     17.922494   15.100546   18.553338
  C     17.372943   14.051830   19.309612
  C     16.229469   14.284567   20.093282
  C     15.644454   15.558157   20.116902
  O     14.534354   15.783034   20.863244
  C     16.192630   16.600048   19.362168
  H     14.582648   17.467798   16.681363
  H     13.300746   16.313250   16.334666
  H     14.091838   17.153569   14.991649
  H     15.610070   15.231649   16.873835
  H     14.764443   14.676774   15.429573
  H     15.872904   18.555902   14.122986
  H     17.236983   19.675105   14.041921
  H     15.670641   20.218214   14.680190
  H     16.608863   20.956081   16.643483
  H     18.647252   18.756620   19.333756
  H     18.944856   17.254293   17.437760
  H     18.801506   14.917060   17.939214
  H     17.832157   13.064661   19.285268
  H     15.801580   13.476677   20.678116
  H     14.343472   14.970592   21.356371
  H     15.724553   17.578921   19.389145

 Total Charge           Charge          ....    0
 Multiplicity           Mult            ....    1
 Number of Electrons    NEL             ....  154
 Basis Dimension        Dim             ....  828

ORBITAL ENERGIES
----------------

  NO   OCC          E(Eh)            E(eV)
   0   2.0000     -91.888909     -2500.4243
   1   2.0000     -20.606011      -560.7181
   2   2.0000     -20.598443      -560.5121
   3   2.0000     -20.552648      -559.2660
   4   2.0000     -15.625086      -425.1802
   5   2.0000     -15.610334      -424.7788
   6   2.0000     -11.398206      -310.1610
   7   2.0000     -11.384912      -309.7992
   8   2.0000     -11.324961      -308.1678
   9   2.0000     -11.324705      -308.1609
  10   2.0000     -11.314656      -307.8875
  11   2.0000     -11.303967      -307.5966
  12   2.0000     -11.271279      -306.7071
  13   2.0000     -11.265800      -306.5580
  14   2.0000     -11.260437      -306.4121
  15   2.0000     -11.256230      -306.2976
  16   2.0000     -11.254032      -306.2378
  17   2.0000     -11.248832      -306.0963
  18   2.0000     -11.248694      -306.0925
  19   2.0000     -11.232204      -305.6438
  20   2.0000      -8.894008      -242.0183
  21   2.0000      -6.575590      -178.9309
  22   2.0000      -6.573580      -178.8762
  23   2.0000      -6.572999      -178.8604
  24   2.0000      -1.445172       -39.3251
  25   2.0000      -1.425724       -38.7959
  26   2.0000      -1.360450       -37.0197
  27   2.0000      -1.338626       -36.4259
  28   2.0000      -1.238598       -33.7040
  29   2.0000      -1.168232       -31.7892
  30   2.0000      -1.127141       -30.6711
  31   2.0000      -1.052814       -28.6485
  32   2.0000      -1.036258       -28.1980
  33   2.0000      -1.025974       -27.9182
  34   2.0000      -1.005434       -27.3592
  35   2.0000      -0.990405       -26.9503
  36   2.0000      -0.928032       -25.2530
  37   2.0000      -0.894865       -24.3505
  38   2.0000      -0.852134       -23.1878
  39   2.0000      -0.844820       -22.9887
  40   2.0000      -0.844086       -22.9687
  41   2.0000      -0.832383       -22.6503
  42   2.0000      -0.754418       -20.5287
  43   2.0000      -0.739898       -20.1337
  44   2.0000      -0.726651       -19.7732
  45   2.0000      -0.704393       -19.1675
  46   2.0000      -0.693565       -18.8729
  47   2.0000      -0.679787       -18.4979
  48   2.0000      -0.676665       -18.4130
  49   2.0000      -0.664476       -18.0813
  50   2.0000      -0.653417       -17.7804
  51   2.0000      -0.643148       -17.5009
  52   2.0000      -0.637506       -17.3474
  53   2.0000      -0.617395       -16.8002
  54   2.0000      -0.612452       -16.6657
  55   2.0000      -0.607648       -16.5350
  56   2.0000      -0.607123       -16.5207
  57   2.0000      -0.585434       -15.9305
  58   2.0000      -0.580855       -15.8059
  59   2.0000      -0.577856       -15.7243
  60   2.0000      -0.567031       -15.4297
  61   2.0000      -0.554269       -15.0824
  62   2.0000      -0.538962       -14.6659
  63   2.0000      -0.535326       -14.5670
  64   2.0000      -0.527123       -14.3438
  65   2.0000      -0.516856       -14.0644
  66   2.0000      -0.505133       -13.7454
  67   2.0000      -0.502094       -13.6627
  68   2.0000      -0.492148       -13.3920
  69   2.0000      -0.461869       -12.5681
  70   2.0000      -0.454032       -12.3548
  71   2.0000      -0.452724       -12.3193
  72   2.0000      -0.358755        -9.7622
  73   2.0000      -0.351983        -9.5779
  74   2.0000      -0.333604        -9.0778
  75   2.0000      -0.328049        -8.9267
  76   2.0000      -0.318050        -8.6546
  77   0.0000       0.089077         2.4239
  78   0.0000       0.097473         2.6524
  79   0.0000       0.119449         3.2504
  80   0.0000       0.126112         3.4317
  81   0.0000       0.127471         3.4687

MULLIKEN ATOMIC CHARGES
-----------------------
   0 C :   -0.329905
   1 C :    0.033103
   2 O :   -0.321012
   3 C :    0.419043
   4 O :   -0.379438
   5 C :   -0.215675
   6 C :    0.145266
   7 C :   -0.306187
   8 N :   -0.136734
   9 C :    0.212348
  10 S :   -0.443712
  11 N :   -0.217895
  12 C :    0.046880
  13 C :    0.000251
  14 C :   -0.207706
  15 C :   -0.128554
  16 C :   -0.274093
  17 C :    0.310882
  18 O :   -0.353888
  19 C :   -0.240236
  20 H :    0.110193
  21 H :    0.119292
  22 H :    0.107668
  23 H :    0.102022
  24 H :    0.125530
  25 H :    0.117364
  26 H :    0.147931
  27 H :    0.102111
  28 H :    0.197445
  29 H :    0.200232
  30 H :    0.168156
  31 H :    0.167571
  32 H :    0.165943
  33 H :    0.135437
  34 H :    0.242237
  35 H :    0.178130
Sum of atomic charges:    0.0000000

LOEWDIN ATOMIC CHARGES
----------------------
   0 C :    0.101548
   1 C :   -0.013960
   2 O :    0.296967
   3 C :   -0.416243
   4 O :    0.126428
   5 C :   -0.084835
   6 C :   -0.092566
   7 C :    0.128981
   8 N :    0.403535
   9 C :   -0.454057
  10 S :   -0.038886
  11 N :    0.395577
  12 C :   -0.054935
  13 C :   -0.046856
  14 C :    0.015105
  15 C :    0.045578
  16 C :    0.001706
  17 C :   -0.190835
  18 O :    0.397544
  19 C :    0.031603
  20 H :   -0.036353
  21 H :   -0.023162
  22 H :   -0.029921
  23 H :   -0.031930
  24 H :   -0.019767
  25 H :   -0.011521
  26 H :   -0.004688
  27 H :   -0.017980
  28 H :   -0.058335
  29 H :   -0.064631
  30 H :   -0.005086
  31 H :   -0.023846
  32 H :   -0.017547
  33 H :   -0.033168
  34 H :   -0.151939
  35 H :   -0.021523

  Mayer bond orders larger than 0.100000
B(  0-C ,  1-C ) :   0.9535 B(  0-C , 20-H ) :   0.9727 B(  0-C , 21-H ) :   0.9783
B(  0-C , 22-H ) :   0.9768 B(  1-C ,  2-O ) :   0.9047 B(  1-C , 23-H ) :   0.9685
B(  1-C , 24-H ) :   0.9852 B(  2-O ,  3-C ) :   1.1844 B(  3-C ,  4-O ) :   2.1235
B(  3-C ,  5-C ) :   0.9051 B(  5-C ,  6-C ) :   1.7364 B(  5-C , 12-C ) :   0.9412
B(  6-C ,  7-C ) :   0.9448 B(  6-C ,  8-N ) :   1.1044 B(  7-C , 25-H ) :   0.9780
B(  7-C , 26-H ) :   0.9616 B(  7-C , 27-H ) :   0.9797 B(  8-N ,  9-C ) :   1.2023
B(  8-N , 28-H ) :   0.9495 B(  9-C , 10-S ) :   1.6106 B(  9-C , 11-N ) :   1.2843
B( 11-N , 12-C ) :   0.9843 B( 11-N , 29-H ) :   0.9478 B( 12-C , 13-C ) :   0.9605
B( 12-C , 30-H ) :   0.9957 B( 13-C , 14-C ) :   1.3782 B( 13-C , 19-C ) :   1.3547
B( 14-C , 15-C ) :   1.3935 B( 14-C , 31-H ) :   0.9656 B( 15-C , 16-C ) :   1.3658
B( 15-C , 32-H ) :   0.9693 B( 16-C , 17-C ) :   1.3274 B( 16-C , 33-H ) :   0.9834
B( 17-C , 18-O ) :   1.1139 B( 17-C , 19-C ) :   1.3641 B( 18-O , 34-H ) :   0.9783
B( 19-C , 35-H ) :   0.9551

MP2 TOTAL ENERGY:    -1274.323794061 Eh
FINAL SINGLE POINT ENERGY     -1274.323794061097

DIPOLE MOMENT
-------------
                                X             Y             Z
Electronic contribution:      9.20813       6.17319       6.44294
Nuclear contribution   :    -10.74394      -7.89037      -6.32381
                        -----------------------------------------
Total Dipole Moment    :     -1.53581      -1.71718       0.11912
                        -----------------------------------------
Magnitude (a.u.)       :      2.30686
Magnitude (Debye)      :      5.86357

Rotational constants in cm-1:     0.012101     0.009021     0.006587
Rotational constants in MHz :   362.771616   270.446801   197.472875

                             ****ORCA TERMINATED NORMALLY****
TOTAL RUN TIME: 0 days 1 hours 46 minutes 33 seconds 690 msec
