                         Program Version 4.2.0 -  RELEASE  -
|  1> ! ri-mp2 cc-pvtz cc-pvtz/c TightSCF NoKeepInts
|  2>
|  3> %scf
|  4>   MaxCore 4096
|  5> end
|  6> *xyz  0  1
|  7>     C       13.9224420   15.9370189   15.3454392
|  8>     C       15.2075658   15.5751343   14.5801378
|  9>     O       16.1047575   16.6932216   14.6847261
| 10>     C       17.1156793   16.6210426   15.5953736
| 11>     O       17.8160257   15.6287944   15.7051346
| 12>     C       17.1567620   17.7592182   16.5733020
| 13>     C       16.8164089   19.0294525   16.2312422
| 14>     C       16.1484989   19.5002870   14.9544177
| 15>     N       17.1207417   20.1003952   17.0753205
| 16>     C       17.9474802   20.0180696   18.1633181
| 17>     S       18.3491674   21.3507010   19.0567027
| 18>     N       18.4430362   18.7736968   18.4605724
| 19>     C       18.0414762   17.5157969   17.8012916
| 20>     C       17.4618112   16.4886785   18.7645971
| 21>     C       18.0129542   15.1978284   18.8538084
| 22>     C       17.4736929   14.2503544   19.7400674
| 23>     C       16.3741044   14.5970861   20.5438840
| 24>     C       15.8211557   15.8820219   20.4545426
| 25>     O       14.7556441   16.2175715   21.2248096
| 26>     C       16.3599367   16.8227782   19.5710740
| 27>     H       14.1375315   16.0966308   16.4098407
| 28>     H       13.1868873   15.1274589   15.2640621
| 29>     H       13.4725071   16.8516288   14.9400100
| 30>     H       15.6499144   14.6518341   14.9798100
| 31>     H       14.9597210   15.4048075   13.5245234
| 32>     H       16.7042112   19.1559714   14.0730682
| 33>     H       16.0850304   20.5930694   14.8850664
| 34>     H       15.1264795   19.1079218   14.8840071
| 35>     H       16.7833682   21.0241078   16.8565152
| 36>     H       19.0336456   18.7365715   19.2817970
| 37>     H       19.0123797   17.1777741   17.4104712
| 38>     H       18.8529647   14.9242644   18.2195147
| 39>     H       17.9048418   13.2524108   19.7960814
| 40>     H       15.9535432   13.8677617   21.2281304
| 41>     H       14.5539752   15.4553599   21.7880782
| 42>     H       15.9206582   17.8132790   19.5172622
| 43> *
| 44>
| 45>                          ****END OF INPUT****

CARTESIAN COORDINATES (ANGSTROEM)
---------------------------------
  C     13.922442   15.937019   15.345439
  C     15.207566   15.575134   14.580138
  O     16.104758   16.693222   14.684726
  C     17.115679   16.621043   15.595374
  O     17.816026   15.628794   15.705135
  C     17.156762   17.759218   16.573302
  C     16.816409   19.029453   16.231242
  C     16.148499   19.500287   14.954418
  N     17.120742   20.100395   17.075321
  C     17.947480   20.018070   18.163318
  S     18.349167   21.350701   19.056703
  N     18.443036   18.773697   18.460572
  C     18.041476   17.515797   17.801292
  C     17.461811   16.488678   18.764597
  C     18.012954   15.197828   18.853808
  C     17.473693   14.250354   19.740067
  C     16.374104   14.597086   20.543884
  C     15.821156   15.882022   20.454543
  O     14.755644   16.217571   21.224810
  C     16.359937   16.822778   19.571074
  H     14.137531   16.096631   16.409841
  H     13.186887   15.127459   15.264062
  H     13.472507   16.851629   14.940010
  H     15.649914   14.651834   14.979810
  H     14.959721   15.404807   13.524523
  H     16.704211   19.155971   14.073068
  H     16.085030   20.593069   14.885066
  H     15.126479   19.107922   14.884007
  H     16.783368   21.024108   16.856515
  H     19.033646   18.736572   19.281797
  H     19.012380   17.177774   17.410471
  H     18.852965   14.924264   18.219515
  H     17.904842   13.252411   19.796081
  H     15.953543   13.867762   21.228130
  H     14.553975   15.455360   21.788078
  H     15.920658   17.813279   19.517262

 Total Charge           Charge          ....    0
 Multiplicity           Mult            ....    1
 Number of Electrons    NEL             ....  154
 Basis Dimension        Dim             ....  828

ORBITAL ENERGIES
----------------

  NO   OCC          E(Eh)            E(eV)
   0   2.0000     -91.888799     -2500.4213
   1   2.0000     -20.594231      -560.3975
   2   2.0000     -20.593714      -560.3834
   3   2.0000     -20.548821      -559.1618
   4   2.0000     -15.629449      -425.2989
   5   2.0000     -15.606519      -424.6750
   6   2.0000     -11.394791      -310.0680
   7   2.0000     -11.383492      -309.7606
   8   2.0000     -11.338536      -308.5372
   9   2.0000     -11.309872      -307.7573
  10   2.0000     -11.305006      -307.6248
  11   2.0000     -11.300759      -307.5093
  12   2.0000     -11.260173      -306.4049
  13   2.0000     -11.259762      -306.3937
  14   2.0000     -11.256874      -306.3151
  15   2.0000     -11.249812      -306.1230
  16   2.0000     -11.239961      -305.8549
  17   2.0000     -11.236168      -305.7517
  18   2.0000     -11.232786      -305.6596
  19   2.0000     -11.231786      -305.6324
  20   2.0000      -8.893877      -242.0147
  21   2.0000      -6.575452      -178.9272
  22   2.0000      -6.573451      -178.8727
  23   2.0000      -6.572861      -178.8567
  24   2.0000      -1.453523       -39.5524
  25   2.0000      -1.413476       -38.4626
  26   2.0000      -1.357786       -36.9472
  27   2.0000      -1.340576       -36.4789
  28   2.0000      -1.237757       -33.6811
  29   2.0000      -1.154274       -31.4094
  30   2.0000      -1.121753       -30.5245
  31   2.0000      -1.044034       -28.4096
  32   2.0000      -1.035959       -28.1899
  33   2.0000      -1.011789       -27.5322
  34   2.0000      -1.000186       -27.2164
  35   2.0000      -0.985347       -26.8126
  36   2.0000      -0.921948       -25.0875
  37   2.0000      -0.891343       -24.2547
  38   2.0000      -0.848060       -23.0769
  39   2.0000      -0.836503       -22.7624
  40   2.0000      -0.829998       -22.5854
  41   2.0000      -0.818523       -22.2731
  42   2.0000      -0.759535       -20.6680
  43   2.0000      -0.736751       -20.0480
  44   2.0000      -0.727511       -19.7966
  45   2.0000      -0.692262       -18.8374
  46   2.0000      -0.685343       -18.6491
  47   2.0000      -0.679049       -18.4779
  48   2.0000      -0.673913       -18.3381
  49   2.0000      -0.660682       -17.9781
  50   2.0000      -0.651640       -17.7320
  51   2.0000      -0.644404       -17.5351
  52   2.0000      -0.634507       -17.2658
  53   2.0000      -0.605504       -16.4766
  54   2.0000      -0.600472       -16.3397
  55   2.0000      -0.597207       -16.2508
  56   2.0000      -0.593418       -16.1477
  57   2.0000      -0.584448       -15.9036
  58   2.0000      -0.574583       -15.6352
  59   2.0000      -0.565735       -15.3944
  60   2.0000      -0.561494       -15.2790
  61   2.0000      -0.555304       -15.1106
  62   2.0000      -0.543510       -14.7897
  63   2.0000      -0.522842       -14.2273
  64   2.0000      -0.517847       -14.0913
  65   2.0000      -0.510932       -13.9032
  66   2.0000      -0.501516       -13.6469
  67   2.0000      -0.495482       -13.4827
  68   2.0000      -0.481778       -13.1098
  69   2.0000      -0.463616       -12.6156
  70   2.0000      -0.457678       -12.4541
  71   2.0000      -0.452649       -12.3172
  72   2.0000      -0.353718        -9.6251
  73   2.0000      -0.346372        -9.4253
  74   2.0000      -0.327863        -8.9216
  75   2.0000      -0.317986        -8.6528
  76   2.0000      -0.316510        -8.6127
  77   0.0000       0.074293         2.0216
  78   0.0000       0.108107         2.9417
  79   0.0000       0.120149         3.2694
  80   0.0000       0.134516         3.6604
  81   0.0000       0.140159         3.8139

MULLIKEN ATOMIC CHARGES
-----------------------
   0 C :   -0.288812
   1 C :    0.029867
   2 O :   -0.363028
   3 C :    0.450489
   4 O :   -0.408277
   5 C :   -0.192750
   6 C :    0.151800
   7 C :   -0.283099
   8 N :   -0.127929
   9 C :    0.207622
  10 S :   -0.441210
  11 N :   -0.210203
  12 C :    0.044003
  13 C :    0.033893
  14 C :   -0.171607
  15 C :   -0.133399
  16 C :   -0.277920
  17 C :    0.315058
  18 O :   -0.358856
  19 C :   -0.258615
  20 H :    0.105416
  21 H :    0.105158
  22 H :    0.090879
  23 H :    0.110415
  24 H :    0.103813
  25 H :    0.127533
  26 H :    0.103071
  27 H :    0.126409
  28 H :    0.198727
  29 H :    0.199606
  30 H :    0.155804
  31 H :    0.160735
  32 H :    0.160859
  33 H :    0.129080
  34 H :    0.240315
  35 H :    0.165154
Sum of atomic charges:   -0.0000000

LOEWDIN ATOMIC CHARGES
----------------------
   0 C :    0.102807
   1 C :   -0.016865
   2 O :    0.303124
   3 C :   -0.418539
   4 O :    0.113663
   5 C :   -0.095296
   6 C :   -0.065366
   7 C :    0.125938
   8 N :    0.405701
   9 C :   -0.458131
  10 S :   -0.036881
  11 N :    0.396224
  12 C :   -0.048473
  13 C :   -0.041283
  14 C :    0.024675
  15 C :    0.041406
  16 C :   -0.001110
  17 C :   -0.193204
  18 O :    0.393196
  19 C :    0.028841
  20 H :   -0.025844
  21 H :   -0.024796
  22 H :   -0.030430
  23 H :   -0.025151
  24 H :   -0.026649
  25 H :   -0.007948
  26 H :   -0.020785
  27 H :   -0.010926
  28 H :   -0.058478
  29 H :   -0.063339
  30 H :   -0.007636
  31 H :   -0.023493
  32 H :   -0.020666
  33 H :   -0.035914
  34 H :   -0.154530
  35 H :   -0.023842

  Mayer bond orders larger than 0.100000
B(  0-C ,  1-C ) :   0.9660 B(  0-C , 20-H ) :   0.9738 B(  0-C , 21-H ) :   0.9775
B(  0-C , 22-H ) :   0.9788 B(  1-C ,  2-O ) :   0.8926 B(  1-C , 23-H ) :   0.9732
B(  1-C , 24-H ) :   0.9854 B(  2-O ,  3-C ) :   1.1052 B(  3-C ,  4-O ) :   2.0149
B(  3-C ,  5-C ) :   1.0261 B(  5-C ,  6-C ) :   1.6634 B(  5-C , 12-C ) :   0.9511
B(  6-C ,  7-C ) :   0.9559 B(  6-C ,  8-N ) :   1.1391 B(  7-C , 25-H ) :   0.9654
B(  7-C , 26-H ) :   0.9895 B(  7-C , 27-H ) :   0.9646 B(  8-N ,  9-C ) :   1.1848
B(  8-N , 28-H ) :   0.9470 B(  9-C , 10-S ) :   1.6101 B(  9-C , 11-N ) :   1.3044
B( 11-N , 12-C ) :   0.9800 B( 11-N , 29-H ) :   0.9487 B( 12-C , 13-C ) :   0.9708
B( 12-C , 30-H ) :   0.9954 B( 13-C , 14-C ) :   1.3785 B( 13-C , 19-C ) :   1.3624
B( 14-C , 15-C ) :   1.3968 B( 14-C , 31-H ) :   0.9630 B( 15-C , 16-C ) :   1.3595
B( 15-C , 32-H ) :   0.9709 B( 16-C , 17-C ) :   1.3332 B( 16-C , 33-H ) :   0.9856
B( 17-C , 18-O ) :   1.1045 B( 17-C , 19-C ) :   1.3653 B( 18-O , 34-H ) :   0.9803
B( 19-C , 35-H ) :   0.9600

MP2 TOTAL ENERGY:    -1274.333031449 Eh
FINAL SINGLE POINT ENERGY     -1274.333031448819

DIPOLE MOMENT
-------------
                                X             Y             Z
Electronic contribution:     10.56993       8.18480       8.86514
Nuclear contribution   :    -11.94214      -9.50919      -9.77460
                        -----------------------------------------
Total Dipole Moment    :     -1.37221      -1.32439      -0.90946
                        -----------------------------------------
Magnitude (a.u.)       :      2.11284
Magnitude (Debye)      :      5.37042

Rotational constants in cm-1:     0.010341     0.009290     0.006075
Rotational constants in MHz :   310.006299   278.520483   182.109945

                             ****ORCA TERMINATED NORMALLY****
TOTAL RUN TIME: 0 days 1 hours 59 minutes 59 seconds 925 msec
