                         Program Version 4.2.0 -  RELEASE  -
|  1> ! ri-mp2 cc-pvtz cc-pvtz/c TightSCF NoKeepInts
|  2>
|  3> %scf
|  4>   MaxCore 4096
|  5> end
|  6> *xyz  0  1
|  7>     C       13.7246499   16.0519137   14.7876293
|  8>     C       15.1633791   15.5195108   14.6771882
|  9>     O       16.0468181   16.6494664   14.7614397
| 10>     C       17.0698405   16.5910996   15.6583077
| 11>     O       17.7731609   15.6005083   15.7631565
| 12>     C       17.1246251   17.7372100   16.6270645
| 13>     C       16.7537078   19.0000171   16.2880057
| 14>     C       16.0326186   19.4527678   15.0336168
| 15>     N       17.0718715   20.0818999   17.1128906
| 16>     C       17.9398827   20.0211682   18.1695890
| 17>     S       18.3546312   21.3671228   19.0366317
| 18>     N       18.4651808   18.7869511   18.4573877
| 19>     C       18.0568503   17.5176557   17.8247127
| 20>     C       17.5317789   16.4911601   18.8196957
| 21>     C       18.1043342   15.2088338   18.8969965
| 22>     C       17.6178267   14.2631274   19.8151045
| 23>     C       16.5502465   14.6032109   20.6636458
| 24>     C       15.9763267   15.8797433   20.5868863
| 25>     O       14.9421671   16.2091021   21.4013230
| 26>     C       16.4623903   16.8186475   19.6714006
| 27>     H       13.5732990   16.5619768   15.7472402
| 28>     H       13.0042871   15.2274590   14.7207037
| 29>     H       13.5108334   16.7610182   13.9782902
| 30>     H       15.3480205   14.8053684   15.4924259
| 31>     H       15.3079174   14.9985292   13.7217599
| 32>     H       16.5665519   19.1200324   14.1345272
| 33>     H       15.9408960   20.5435950   14.9651599
| 34>     H       15.0182048   19.0367227   14.9977700
| 35>     H       16.7126175   20.9986669   16.8997965
| 36>     H       19.0865824   18.7654148   19.2561549
| 37>     H       19.0177138   17.1908639   17.4009328
| 38>     H       18.9197966   14.9403625   18.2293728
| 39>     H       18.0649317   13.2717386   19.8615467
| 40>     H       16.1706063   13.8753501   21.3729157
| 41>     H       14.7745989   15.4490178   21.9784398
| 42>     H       16.0078559   17.8027672   19.6282912
| 43> *
| 44>
| 45>                          ****END OF INPUT****

CARTESIAN COORDINATES (ANGSTROEM)
---------------------------------
  C     13.724650   16.051914   14.787629
  C     15.163379   15.519511   14.677188
  O     16.046818   16.649466   14.761440
  C     17.069841   16.591100   15.658308
  O     17.773161   15.600508   15.763156
  C     17.124625   17.737210   16.627064
  C     16.753708   19.000017   16.288006
  C     16.032619   19.452768   15.033617
  N     17.071872   20.081900   17.112891
  C     17.939883   20.021168   18.169589
  S     18.354631   21.367123   19.036632
  N     18.465181   18.786951   18.457388
  C     18.056850   17.517656   17.824713
  C     17.531779   16.491160   18.819696
  C     18.104334   15.208834   18.896997
  C     17.617827   14.263127   19.815105
  C     16.550247   14.603211   20.663646
  C     15.976327   15.879743   20.586886
  O     14.942167   16.209102   21.401323
  C     16.462390   16.818648   19.671401
  H     13.573299   16.561977   15.747240
  H     13.004287   15.227459   14.720704
  H     13.510833   16.761018   13.978290
  H     15.348020   14.805368   15.492426
  H     15.307917   14.998529   13.721760
  H     16.566552   19.120032   14.134527
  H     15.940896   20.543595   14.965160
  H     15.018205   19.036723   14.997770
  H     16.712618   20.998667   16.899797
  H     19.086582   18.765415   19.256155
  H     19.017714   17.190864   17.400933
  H     18.919797   14.940362   18.229373
  H     18.064932   13.271739   19.861547
  H     16.170606   13.875350   21.372916
  H     14.774599   15.449018   21.978440
  H     16.007856   17.802767   19.628291

 Total Charge           Charge          ....    0
 Multiplicity           Mult            ....    1
 Number of Electrons    NEL             ....  154
 Basis Dimension        Dim             ....  828

ORBITAL ENERGIES
----------------

  NO   OCC          E(Eh)            E(eV)
   0   2.0000     -91.888825     -2500.4220
   1   2.0000     -20.594403      -560.4022
   2   2.0000     -20.593206      -560.3696
   3   2.0000     -20.548145      -559.1434
   4   2.0000     -15.629600      -425.3030
   5   2.0000     -15.606442      -424.6729
   6   2.0000     -11.394234      -310.0529
   7   2.0000     -11.383452      -309.7595
   8   2.0000     -11.338965      -308.5489
   9   2.0000     -11.309253      -307.7404
  10   2.0000     -11.304887      -307.6216
  11   2.0000     -11.301681      -307.5344
  12   2.0000     -11.260595      -306.4164
  13   2.0000     -11.259789      -306.3944
  14   2.0000     -11.256392      -306.3020
  15   2.0000     -11.249223      -306.1069
  16   2.0000     -11.239423      -305.8403
  17   2.0000     -11.235623      -305.7369
  18   2.0000     -11.234574      -305.7083
  19   2.0000     -11.232221      -305.6443
  20   2.0000      -8.893902      -242.0154
  21   2.0000      -6.575477      -178.9278
  22   2.0000      -6.573476      -178.8734
  23   2.0000      -6.572886      -178.8573
  24   2.0000      -1.454021       -39.5659
  25   2.0000      -1.412956       -38.4485
  26   2.0000      -1.357362       -36.9357
  27   2.0000      -1.340699       -36.4823
  28   2.0000      -1.237793       -33.6821
  29   2.0000      -1.153743       -31.3949
  30   2.0000      -1.121636       -30.5213
  31   2.0000      -1.044598       -28.4250
  32   2.0000      -1.037299       -28.2263
  33   2.0000      -1.011287       -27.5185
  34   2.0000      -0.999951       -27.2100
  35   2.0000      -0.985215       -26.8091
  36   2.0000      -0.921640       -25.0791
  37   2.0000      -0.888661       -24.1817
  38   2.0000      -0.847957       -23.0741
  39   2.0000      -0.836300       -22.7569
  40   2.0000      -0.829433       -22.5700
  41   2.0000      -0.821156       -22.3448
  42   2.0000      -0.761649       -20.7255
  43   2.0000      -0.736543       -20.0424
  44   2.0000      -0.727221       -19.7887
  45   2.0000      -0.691640       -18.8205
  46   2.0000      -0.684228       -18.6188
  47   2.0000      -0.681345       -18.5404
  48   2.0000      -0.675816       -18.3899
  49   2.0000      -0.659544       -17.9471
  50   2.0000      -0.651218       -17.7205
  51   2.0000      -0.642859       -17.4931
  52   2.0000      -0.634433       -17.2638
  53   2.0000      -0.604656       -16.4535
  54   2.0000      -0.600044       -16.3280
  55   2.0000      -0.597356       -16.2549
  56   2.0000      -0.596485       -16.2312
  57   2.0000      -0.578741       -15.7484
  58   2.0000      -0.574186       -15.6244
  59   2.0000      -0.569002       -15.4833
  60   2.0000      -0.560217       -15.2443
  61   2.0000      -0.556914       -15.1544
  62   2.0000      -0.544520       -14.8171
  63   2.0000      -0.518345       -14.1049
  64   2.0000      -0.517247       -14.0750
  65   2.0000      -0.511397       -13.9158
  66   2.0000      -0.504661       -13.7325
  67   2.0000      -0.495299       -13.4778
  68   2.0000      -0.481164       -13.0931
  69   2.0000      -0.463571       -12.6144
  70   2.0000      -0.457958       -12.4617
  71   2.0000      -0.454651       -12.3717
  72   2.0000      -0.353817        -9.6279
  73   2.0000      -0.345889        -9.4121
  74   2.0000      -0.327867        -8.9217
  75   2.0000      -0.317982        -8.6527
  76   2.0000      -0.315896        -8.5960
  77   0.0000       0.074263         2.0208
  78   0.0000       0.109117         2.9692
  79   0.0000       0.120202         3.2709
  80   0.0000       0.134933         3.6717
  81   0.0000       0.138905         3.7798

MULLIKEN ATOMIC CHARGES
-----------------------
   0 C :   -0.288095
   1 C :    0.043328
   2 O :   -0.358167
   3 C :    0.436885
   4 O :   -0.405137
   5 C :   -0.189658
   6 C :    0.153786
   7 C :   -0.284559
   8 N :   -0.127907
   9 C :    0.207107
  10 S :   -0.441194
  11 N :   -0.210570
  12 C :    0.043060
  13 C :    0.031776
  14 C :   -0.170399
  15 C :   -0.134286
  16 C :   -0.277626
  17 C :    0.313767
  18 O :   -0.359015
  19 C :   -0.253286
  20 H :    0.098995
  21 H :    0.108087
  22 H :    0.094866
  23 H :    0.097036
  24 H :    0.103115
  25 H :    0.128511
  26 H :    0.104926
  27 H :    0.125859
  28 H :    0.198898
  29 H :    0.199900
  30 H :    0.155814
  31 H :    0.160376
  32 H :    0.160838
  33 H :    0.128798
  34 H :    0.240207
  35 H :    0.163964
Sum of atomic charges:   -0.0000000

LOEWDIN ATOMIC CHARGES
----------------------
   0 C :    0.103608
   1 C :   -0.014942
   2 O :    0.302775
   3 C :   -0.421181
   4 O :    0.113600
   5 C :   -0.095465
   6 C :   -0.064628
   7 C :    0.125847
   8 N :    0.405749
   9 C :   -0.458380
  10 S :   -0.036779
  11 N :    0.396271
  12 C :   -0.048401
  13 C :   -0.041031
  14 C :    0.024787
  15 C :    0.041112
  16 C :   -0.001253
  17 C :   -0.192919
  18 O :    0.393019
  19 C :    0.028671
  20 H :   -0.027230
  21 H :   -0.023519
  22 H :   -0.029337
  23 H :   -0.024832
  24 H :   -0.028042
  25 H :   -0.008046
  26 H :   -0.020811
  27 H :   -0.010315
  28 H :   -0.058482
  29 H :   -0.063221
  30 H :   -0.007726
  31 H :   -0.023552
  32 H :   -0.020734
  33 H :   -0.036011
  34 H :   -0.154650
  35 H :   -0.023953

  Mayer bond orders larger than 0.100000
B(  0-C ,  1-C ) :   0.9699 B(  0-C , 20-H ) :   0.9762 B(  0-C , 21-H ) :   0.9784
B(  0-C , 22-H ) :   0.9773 B(  1-C ,  2-O ) :   0.8984 B(  1-C , 23-H ) :   0.9713
B(  1-C , 24-H ) :   0.9844 B(  2-O ,  3-C ) :   1.1042 B(  3-C ,  4-O ) :   2.0205
B(  3-C ,  5-C ) :   1.0317 B(  5-C ,  6-C ) :   1.6579 B(  5-C , 12-C ) :   0.9493
B(  6-C ,  7-C ) :   0.9557 B(  6-C ,  8-N ) :   1.1388 B(  7-C , 25-H ) :   0.9650
B(  7-C , 26-H ) :   0.9901 B(  7-C , 27-H ) :   0.9652 B(  8-N ,  9-C ) :   1.1846
B(  8-N , 28-H ) :   0.9469 B(  9-C , 10-S ) :   1.6098 B(  9-C , 11-N ) :   1.3055
B( 11-N , 12-C ) :   0.9773 B( 11-N , 29-H ) :   0.9486 B( 12-C , 13-C ) :   0.9712
B( 12-C , 30-H ) :   0.9959 B( 13-C , 14-C ) :   1.3774 B( 13-C , 19-C ) :   1.3642
B( 14-C , 15-C ) :   1.3972 B( 14-C , 31-H ) :   0.9632 B( 15-C , 16-C ) :   1.3589
B( 15-C , 32-H ) :   0.9709 B( 16-C , 17-C ) :   1.3331 B( 16-C , 33-H ) :   0.9858
B( 17-C , 18-O ) :   1.1039 B( 17-C , 19-C ) :   1.3673 B( 18-O , 34-H ) :   0.9804
B( 19-C , 35-H ) :   0.9603

MP2 TOTAL ENERGY:    -1274.332389902 Eh
FINAL SINGLE POINT ENERGY     -1274.332389901573

DIPOLE MOMENT
-------------
                                X             Y             Z
Electronic contribution:     11.03888       8.02263       9.93352
Nuclear contribution   :    -12.43236      -9.34828     -10.82804
                        -----------------------------------------
Total Dipole Moment    :     -1.39348      -1.32564      -0.89453
                        -----------------------------------------
Magnitude (a.u.)       :      2.12115
Magnitude (Debye)      :      5.39155

Rotational constants in cm-1:     0.009811     0.009377     0.005925
Rotational constants in MHz :   294.121331   281.106818   177.641469

                             ****ORCA TERMINATED NORMALLY****
TOTAL RUN TIME: 0 days 1 hours 47 minutes 22 seconds 399 msec
