                         Program Version 4.2.0 -  RELEASE  -
|  1> ! ri-mp2 cc-pvtz cc-pvtz/c TightSCF NoKeepInts
|  2>
|  3> %scf
|  4>   MaxCore 4096
|  5> end
|  6> *xyz  0  1
|  7>     C       14.5139460   16.2307423   16.1195556
|  8>     C       15.1182045   15.8812225   14.7416291
|  9>     O       16.4313256   16.4431976   14.5042126
| 10>     C       17.3736524   16.5425742   15.4886025
| 11>     O       18.2327691   15.6890271   15.6146522
| 12>     C       17.1998761   17.6692949   16.4652696
| 13>     C       16.8151793   18.9057764   16.0569368
| 14>     C       16.3061720   19.3058038   14.6860535
| 15>     N       16.9326618   20.0068220   16.9083724
| 16>     C       17.6386595   20.0029662   18.0815057
| 17>     S       17.8342648   21.3736081   18.9858264
| 18>     N       18.1956876   18.8056106   18.4550110
| 19>     C       17.9576391   17.5103762   17.7878042
| 20>     C       17.3579438   16.4503188   18.7014687
| 21>     C       17.9187180   15.1623309   18.7668831
| 22>     C       17.3565607   14.1794696   19.5985088
| 23>     C       16.2235303   14.4872056   20.3710315
| 24>     C       15.6610178   15.7692872   20.3058512
| 25>     O       14.5616847   16.0667979   21.0432403
| 26>     C       16.2226024   16.7455042   19.4767574
| 27>     H       15.1131458   15.8078565   16.9352796
| 28>     H       13.5067363   15.8047139   16.2039131
| 29>     H       14.4260324   17.3140105   16.2603880
| 30>     H       15.1910817   14.7876143   14.6716463
| 31>     H       14.4368815   16.2128308   13.9475392
| 32>     H       15.3057086   18.8971084   14.5025556
| 33>     H       16.9725805   18.9333860   13.8974509
| 34>     H       16.2451069   20.3937009   14.5591700
| 35>     H       16.5556398   20.8994998   16.6323371
| 36>     H       18.7013056   18.8264910   19.3317980
| 37>     H       18.9883615   17.2425279   17.5120472
| 38>     H       18.7865004   14.9189722   18.1574943
| 39>     H       17.7968482   13.1845482   19.6367948
| 40>     H       15.7852071   13.7301265   21.0127840
| 41>     H       14.3518419   15.2869360   21.5789110
| 42>     H       15.7719262   17.7317408   19.4387182
| 43> *
| 44>
| 45>                          ****END OF INPUT****

CARTESIAN COORDINATES (ANGSTROEM)
---------------------------------
  C     14.513946   16.230742   16.119556
  C     15.118204   15.881222   14.741629
  O     16.431326   16.443198   14.504213
  C     17.373652   16.542574   15.488603
  O     18.232769   15.689027   15.614652
  C     17.199876   17.669295   16.465270
  C     16.815179   18.905776   16.056937
  C     16.306172   19.305804   14.686053
  N     16.932662   20.006822   16.908372
  C     17.638659   20.002966   18.081506
  S     17.834265   21.373608   18.985826
  N     18.195688   18.805611   18.455011
  C     17.957639   17.510376   17.787804
  C     17.357944   16.450319   18.701469
  C     17.918718   15.162331   18.766883
  C     17.356561   14.179470   19.598509
  C     16.223530   14.487206   20.371032
  C     15.661018   15.769287   20.305851
  O     14.561685   16.066798   21.043240
  C     16.222602   16.745504   19.476757
  H     15.113146   15.807856   16.935280
  H     13.506736   15.804714   16.203913
  H     14.426032   17.314010   16.260388
  H     15.191082   14.787614   14.671646
  H     14.436882   16.212831   13.947539
  H     15.305709   18.897108   14.502556
  H     16.972580   18.933386   13.897451
  H     16.245107   20.393701   14.559170
  H     16.555640   20.899500   16.632337
  H     18.701306   18.826491   19.331798
  H     18.988361   17.242528   17.512047
  H     18.786500   14.918972   18.157494
  H     17.796848   13.184548   19.636795
  H     15.785207   13.730126   21.012784
  H     14.351842   15.286936   21.578911
  H     15.771926   17.731741   19.438718

 Total Charge           Charge          ....    0
 Multiplicity           Mult            ....    1
 Number of Electrons    NEL             ....  154
 Basis Dimension        Dim             ....  828

ORBITAL ENERGIES
----------------

  NO   OCC          E(Eh)            E(eV)
   0   2.0000     -91.890071     -2500.4560
   1   2.0000     -20.596463      -560.4582
   2   2.0000     -20.586245      -560.1802
   3   2.0000     -20.551728      -559.2409
   4   2.0000     -15.630300      -425.3221
   5   2.0000     -15.607995      -424.7151
   6   2.0000     -11.394931      -310.0718
   7   2.0000     -11.384918      -309.7994
   8   2.0000     -11.337840      -308.5183
   9   2.0000     -11.312943      -307.8408
  10   2.0000     -11.309620      -307.7504
  11   2.0000     -11.306659      -307.6698
  12   2.0000     -11.262922      -306.4797
  13   2.0000     -11.260372      -306.4103
  14   2.0000     -11.259921      -306.3980
  15   2.0000     -11.252962      -306.2087
  16   2.0000     -11.242943      -305.9360
  17   2.0000     -11.238734      -305.8215
  18   2.0000     -11.235266      -305.7271
  19   2.0000     -11.234726      -305.7124
  20   2.0000      -8.895151      -242.0494
  21   2.0000      -6.576725      -178.9618
  22   2.0000      -6.574723      -178.9073
  23   2.0000      -6.574133      -178.8912
  24   2.0000      -1.445957       -39.3465
  25   2.0000      -1.416259       -38.5384
  26   2.0000      -1.356202       -36.9041
  27   2.0000      -1.341728       -36.5103
  28   2.0000      -1.239023       -33.7155
  29   2.0000      -1.157214       -31.4894
  30   2.0000      -1.123194       -30.5637
  31   2.0000      -1.045244       -28.4425
  32   2.0000      -1.036333       -28.2001
  33   2.0000      -1.014988       -27.6192
  34   2.0000      -1.003483       -27.3062
  35   2.0000      -0.988695       -26.9038
  36   2.0000      -0.924660       -25.1613
  37   2.0000      -0.898379       -24.4461
  38   2.0000      -0.850709       -23.1490
  39   2.0000      -0.839402       -22.8413
  40   2.0000      -0.832923       -22.6650
  41   2.0000      -0.821870       -22.3642
  42   2.0000      -0.748234       -20.3605
  43   2.0000      -0.734051       -19.9746
  44   2.0000      -0.728596       -19.8261
  45   2.0000      -0.693894       -18.8818
  46   2.0000      -0.687255       -18.7012
  47   2.0000      -0.677040       -18.4232
  48   2.0000      -0.672514       -18.3000
  49   2.0000      -0.665278       -18.1031
  50   2.0000      -0.652185       -17.7469
  51   2.0000      -0.649396       -17.6710
  52   2.0000      -0.638591       -17.3769
  53   2.0000      -0.616664       -16.7803
  54   2.0000      -0.604873       -16.4594
  55   2.0000      -0.602634       -16.3985
  56   2.0000      -0.600282       -16.3345
  57   2.0000      -0.583601       -15.8806
  58   2.0000      -0.576087       -15.6761
  59   2.0000      -0.563646       -15.3376
  60   2.0000      -0.562379       -15.3031
  61   2.0000      -0.550098       -14.9689
  62   2.0000      -0.548237       -14.9183
  63   2.0000      -0.531623       -14.4662
  64   2.0000      -0.520785       -14.1713
  65   2.0000      -0.512246       -13.9389
  66   2.0000      -0.498959       -13.5774
  67   2.0000      -0.490762       -13.3543
  68   2.0000      -0.484186       -13.1754
  69   2.0000      -0.466877       -12.7044
  70   2.0000      -0.458053       -12.4643
  71   2.0000      -0.449598       -12.2342
  72   2.0000      -0.354715        -9.6523
  73   2.0000      -0.348105        -9.4724
  74   2.0000      -0.329218        -8.9585
  75   2.0000      -0.320527        -8.7220
  76   2.0000      -0.319222        -8.6865
  77   0.0000       0.073755         2.0070
  78   0.0000       0.106383         2.8948
  79   0.0000       0.117447         3.1959
  80   0.0000       0.132088         3.5943
  81   0.0000       0.134159         3.6507

MULLIKEN ATOMIC CHARGES
-----------------------
   0 C :   -0.335526
   1 C :    0.031739
   2 O :   -0.375984
   3 C :    0.461205
   4 O :   -0.382734
   5 C :   -0.239266
   6 C :    0.150747
   7 C :   -0.291363
   8 N :   -0.129364
   9 C :    0.204975
  10 S :   -0.440206
  11 N :   -0.214997
  12 C :    0.071642
  13 C :    0.011716
  14 C :   -0.184145
  15 C :   -0.134345
  16 C :   -0.277304
  17 C :    0.319923
  18 O :   -0.358716
  19 C :   -0.259488
  20 H :    0.126237
  21 H :    0.122482
  22 H :    0.102775
  23 H :    0.113996
  24 H :    0.110059
  25 H :    0.116057
  26 H :    0.137471
  27 H :    0.108601
  28 H :    0.197772
  29 H :    0.200312
  30 H :    0.159924
  31 H :    0.170643
  32 H :    0.162771
  33 H :    0.131185
  34 H :    0.240791
  35 H :    0.170416
Sum of atomic charges:   -0.0000000

LOEWDIN ATOMIC CHARGES
----------------------
   0 C :    0.103271
   1 C :   -0.017215
   2 O :    0.285288
   3 C :   -0.420351
   4 O :    0.126181
   5 C :   -0.093037
   6 C :   -0.071730
   7 C :    0.126890
   8 N :    0.405577
   9 C :   -0.458473
  10 S :   -0.036172
  11 N :    0.396408
  12 C :   -0.048349
  13 C :   -0.043965
  14 C :    0.023243
  15 C :    0.042560
  16 C :   -0.000894
  17 C :   -0.194007
  18 O :    0.394071
  19 C :    0.029204
  20 H :   -0.023142
  21 H :   -0.021532
  22 H :   -0.032754
  23 H :   -0.025112
  24 H :   -0.024660
  25 H :   -0.014003
  26 H :   -0.005466
  27 H :   -0.019007
  28 H :   -0.058641
  29 H :   -0.063289
  30 H :   -0.006101
  31 H :   -0.022030
  32 H :   -0.019566
  33 H :   -0.035306
  34 H :   -0.153944
  35 H :   -0.023949

  Mayer bond orders larger than 0.100000
B(  0-C ,  1-C ) :   0.9610 B(  0-C , 20-H ) :   0.9652 B(  0-C , 21-H ) :   0.9765
B(  0-C , 22-H ) :   0.9709 B(  1-C ,  2-O ) :   0.9032 B(  1-C , 23-H ) :   0.9852
B(  1-C , 24-H ) :   0.9807 B(  2-O ,  3-C ) :   1.0872 B(  3-C ,  4-O ) :   2.0632
B(  3-C ,  5-C ) :   0.9830 B(  5-C ,  6-C ) :   1.6954 B(  5-C , 12-C ) :   0.9379
B(  6-C ,  7-C ) :   0.9497 B(  6-C ,  8-N ) :   1.1277 B(  7-C , 25-H ) :   0.9665
B(  7-C , 26-H ) :   0.9645 B(  7-C , 27-H ) :   0.9894 B(  8-N ,  9-C ) :   1.1864
B(  8-N , 28-H ) :   0.9471 B(  9-C , 10-S ) :   1.6122 B(  9-C , 11-N ) :   1.2996
B( 11-N , 12-C ) :   0.9790 B( 11-N , 29-H ) :   0.9486 B( 12-C , 13-C ) :   0.9662
B( 12-C , 30-H ) :   0.9946 B( 13-C , 14-C ) :   1.3869 B( 13-C , 19-C ) :   1.3538
B( 14-C , 15-C ) :   1.3970 B( 14-C , 31-H ) :   0.9588 B( 15-C , 16-C ) :   1.3604
B( 15-C , 32-H ) :   0.9706 B( 16-C , 17-C ) :   1.3316 B( 16-C , 33-H ) :   0.9848
B( 17-C , 18-O ) :   1.1069 B( 17-C , 19-C ) :   1.3630 B( 18-O , 34-H ) :   0.9800
B( 19-C , 35-H ) :   0.9594

MP2 TOTAL ENERGY:    -1274.323357851 Eh
FINAL SINGLE POINT ENERGY     -1274.323357851104

DIPOLE MOMENT
-------------
                                X             Y             Z
Electronic contribution:      9.07949       7.14876       7.10690
Nuclear contribution   :    -10.56018      -8.36284      -7.76065
                        -----------------------------------------
Total Dipole Moment    :     -1.48069      -1.21408      -0.65375
                        -----------------------------------------
Magnitude (a.u.)       :      2.02332
Magnitude (Debye)      :      5.14288

Rotational constants in cm-1:     0.011223     0.009382     0.006434
Rotational constants in MHz :   336.469733   281.250740   192.891773

                             ****ORCA TERMINATED NORMALLY****
TOTAL RUN TIME: 0 days 1 hours 45 minutes 40 seconds 850 msec
