                         Program Version 4.2.0 -  RELEASE  -
|  1> ! ri-mp2 cc-pvtz cc-pvtz/c TightSCF NoKeepInts
|  2>
|  3> %scf
|  4>   MaxCore 4096
|  5> end
|  6> *xyz  0  1
|  7>     C       13.9027057   16.6002650   15.1577610
|  8>     C       15.0606210   15.8550052   15.8447203
|  9>     O       16.2561869   15.9870418   15.0443956
| 10>     C       17.3770658   16.6494640   15.4753885
| 11>     O       18.4882914   16.3587381   15.0748968
| 12>     C       17.1608385   17.6875795   16.5201607
| 13>     C       16.7213810   18.9134653   16.1532553
| 14>     C       16.1956912   19.3209483   14.7926497
| 15>     N       16.8358523   20.0026791   17.0183771
| 16>     C       17.5874596   19.9952975   18.1646046
| 17>     S       17.7744863   21.3506427   19.0932387
| 18>     N       18.2012670   18.8092163   18.4881595
| 19>     C       17.9891552   17.5243929   17.7916259
| 20>     C       17.4987710   16.3820235   18.6670440
| 21>     C       18.0491554   15.0962703   18.5202053
| 22>     C       17.5815305   14.0267167   19.3017501
| 23>     C       16.5524127   14.2447853   20.2338896
| 24>     C       15.9974325   15.5240100   20.3764566
| 25>     O       14.9957891   15.7347975   21.2667004
| 26>     C       16.4634436   16.5867923   19.5956841
| 27>     H       14.0114336   17.6843619   15.2602935
| 28>     H       12.9464088   16.3176135   15.6148064
| 29>     H       13.8570864   16.3491053   14.0904421
| 30>     H       15.1899167   16.2061273   16.8764288
| 31>     H       14.8017086   14.7894349   15.8987234
| 32>     H       16.0458037   18.4686322   14.1196318
| 33>     H       16.9045985   19.9953393   14.2952110
| 34>     H       15.2352879   19.8438523   14.8771512
| 35>     H       16.4325767   20.8914230   16.7664086
| 36>     H       18.7501689   18.8312219   19.3386278
| 37>     H       19.0145766   17.3192363   17.4484317
| 38>     H       18.8378514   14.9248041   17.7900812
| 39>     H       18.0150140   13.0350958   19.1811336
| 40>     H       16.1879447   13.4209566   20.8389147
| 41>     H       14.8497537   14.9039104   21.7440165
| 42>     H       16.0173330   17.5687539   19.7167338
| 43> *
| 44>
| 45>                          ****END OF INPUT****

CARTESIAN COORDINATES (ANGSTROEM)
---------------------------------
  C     13.902706   16.600265   15.157761
  C     15.060621   15.855005   15.844720
  O     16.256187   15.987042   15.044396
  C     17.377066   16.649464   15.475388
  O     18.488291   16.358738   15.074897
  C     17.160839   17.687579   16.520161
  C     16.721381   18.913465   16.153255
  C     16.195691   19.320948   14.792650
  N     16.835852   20.002679   17.018377
  C     17.587460   19.995297   18.164605
  S     17.774486   21.350643   19.093239
  N     18.201267   18.809216   18.488159
  C     17.989155   17.524393   17.791626
  C     17.498771   16.382023   18.667044
  C     18.049155   15.096270   18.520205
  C     17.581530   14.026717   19.301750
  C     16.552413   14.244785   20.233890
  C     15.997432   15.524010   20.376457
  O     14.995789   15.734798   21.266700
  C     16.463444   16.586792   19.595684
  H     14.011434   17.684362   15.260293
  H     12.946409   16.317614   15.614806
  H     13.857086   16.349105   14.090442
  H     15.189917   16.206127   16.876429
  H     14.801709   14.789435   15.898723
  H     16.045804   18.468632   14.119632
  H     16.904598   19.995339   14.295211
  H     15.235288   19.843852   14.877151
  H     16.432577   20.891423   16.766409
  H     18.750169   18.831222   19.338628
  H     19.014577   17.319236   17.448432
  H     18.837851   14.924804   17.790081
  H     18.015014   13.035096   19.181134
  H     16.187945   13.420957   20.838915
  H     14.849754   14.903910   21.744017
  H     16.017333   17.568754   19.716734

 Total Charge           Charge          ....    0
 Multiplicity           Mult            ....    1
 Number of Electrons    NEL             ....  154
 Basis Dimension        Dim             ....  828

ORBITAL ENERGIES
----------------

  NO   OCC          E(Eh)            E(eV)
   0   2.0000     -91.889294     -2500.4348
   1   2.0000     -20.602610      -560.6255
   2   2.0000     -20.602232      -560.6152
   3   2.0000     -20.552881      -559.2723
   4   2.0000     -15.625808      -425.1999
   5   2.0000     -15.610181      -424.7746
   6   2.0000     -11.399280      -310.1902
   7   2.0000     -11.385566      -309.8170
   8   2.0000     -11.329715      -308.2972
   9   2.0000     -11.320666      -308.0510
  10   2.0000     -11.312587      -307.8311
  11   2.0000     -11.304894      -307.6218
  12   2.0000     -11.268316      -306.6265
  13   2.0000     -11.263972      -306.5083
  14   2.0000     -11.262273      -306.4620
  15   2.0000     -11.261339      -306.4366
  16   2.0000     -11.249397      -306.1117
  17   2.0000     -11.245203      -305.9975
  18   2.0000     -11.243771      -305.9586
  19   2.0000     -11.236459      -305.7596
  20   2.0000      -8.894403      -242.0290
  21   2.0000      -6.575986      -178.9417
  22   2.0000      -6.573972      -178.8869
  23   2.0000      -6.573392      -178.8711
  24   2.0000      -1.448691       -39.4209
  25   2.0000      -1.422312       -38.7031
  26   2.0000      -1.363030       -37.0899
  27   2.0000      -1.339731       -36.4559
  28   2.0000      -1.239061       -33.7166
  29   2.0000      -1.164651       -31.6918
  30   2.0000      -1.127186       -30.6723
  31   2.0000      -1.050496       -28.5855
  32   2.0000      -1.040932       -28.3252
  33   2.0000      -1.022336       -27.8192
  34   2.0000      -1.006129       -27.3782
  35   2.0000      -0.990131       -26.9428
  36   2.0000      -0.927407       -25.2360
  37   2.0000      -0.889530       -24.2053
  38   2.0000      -0.853307       -23.2197
  39   2.0000      -0.843235       -22.9456
  40   2.0000      -0.840348       -22.8670
  41   2.0000      -0.837311       -22.7844
  42   2.0000      -0.758412       -20.6374
  43   2.0000      -0.737881       -20.0788
  44   2.0000      -0.732156       -19.9230
  45   2.0000      -0.700219       -19.0539
  46   2.0000      -0.691898       -18.8275
  47   2.0000      -0.682281       -18.5658
  48   2.0000      -0.675616       -18.3844
  49   2.0000      -0.666374       -18.1330
  50   2.0000      -0.652930       -17.7671
  51   2.0000      -0.639897       -17.4125
  52   2.0000      -0.632864       -17.2211
  53   2.0000      -0.621765       -16.9191
  54   2.0000      -0.612601       -16.6697
  55   2.0000      -0.607598       -16.5336
  56   2.0000      -0.605715       -16.4823
  57   2.0000      -0.584593       -15.9076
  58   2.0000      -0.579131       -15.7590
  59   2.0000      -0.574580       -15.6351
  60   2.0000      -0.565275       -15.3819
  61   2.0000      -0.558413       -15.1952
  62   2.0000      -0.540433       -14.7059
  63   2.0000      -0.538084       -14.6420
  64   2.0000      -0.525333       -14.2950
  65   2.0000      -0.516549       -14.0560
  66   2.0000      -0.503480       -13.7004
  67   2.0000      -0.500954       -13.6317
  68   2.0000      -0.490459       -13.3461
  69   2.0000      -0.469328       -12.7711
  70   2.0000      -0.455909       -12.4059
  71   2.0000      -0.452828       -12.3221
  72   2.0000      -0.356250        -9.6940
  73   2.0000      -0.354313        -9.6413
  74   2.0000      -0.329460        -8.9651
  75   2.0000      -0.327869        -8.9218
  76   2.0000      -0.319635        -8.6977
  77   0.0000       0.090190         2.4542
  78   0.0000       0.101448         2.7605
  79   0.0000       0.119044         3.2394
  80   0.0000       0.125008         3.4016
  81   0.0000       0.127974         3.4824

MULLIKEN ATOMIC CHARGES
-----------------------
   0 C :   -0.297489
   1 C :    0.028564
   2 O :   -0.321884
   3 C :    0.416821
   4 O :   -0.377700
   5 C :   -0.216059
   6 C :    0.154293
   7 C :   -0.346998
   8 N :   -0.137872
   9 C :    0.210418
  10 S :   -0.443690
  11 N :   -0.225215
  12 C :    0.067240
  13 C :    0.014249
  14 C :   -0.223767
  15 C :   -0.129420
  16 C :   -0.274911
  17 C :    0.316647
  18 O :   -0.354545
  19 C :   -0.249481
  20 H :    0.090560
  21 H :    0.108913
  22 H :    0.111484
  23 H :    0.103371
  24 H :    0.120585
  25 H :    0.129300
  26 H :    0.151253
  27 H :    0.116352
  28 H :    0.196718
  29 H :    0.202323
  30 H :    0.167742
  31 H :    0.174305
  32 H :    0.165555
  33 H :    0.133306
  34 H :    0.241729
  35 H :    0.177302
Sum of atomic charges:   -0.0000000

LOEWDIN ATOMIC CHARGES
----------------------
   0 C :    0.105156
   1 C :   -0.015528
   2 O :    0.303288
   3 C :   -0.416923
   4 O :    0.122803
   5 C :   -0.084750
   6 C :   -0.095655
   7 C :    0.123445
   8 N :    0.402937
   9 C :   -0.454910
  10 S :   -0.038869
  11 N :    0.395699
  12 C :   -0.051013
  13 C :   -0.044992
  14 C :    0.017557
  15 C :    0.046109
  16 C :    0.000779
  17 C :   -0.190896
  18 O :    0.396196
  19 C :    0.027315
  20 H :   -0.033271
  21 H :   -0.022804
  22 H :   -0.023370
  23 H :   -0.034099
  24 H :   -0.023733
  25 H :   -0.010262
  26 H :   -0.007993
  27 H :   -0.018460
  28 H :   -0.057032
  29 H :   -0.064246
  30 H :   -0.003549
  31 H :   -0.021773
  32 H :   -0.017890
  33 H :   -0.034202
  34 H :   -0.152521
  35 H :   -0.022544

  Mayer bond orders larger than 0.100000
B(  0-C ,  1-C ) :   0.9697 B(  0-C , 20-H ) :   0.9775 B(  0-C , 21-H ) :   0.9781
B(  0-C , 22-H ) :   0.9742 B(  1-C ,  2-O ) :   0.9018 B(  1-C , 23-H ) :   0.9557
B(  1-C , 24-H ) :   0.9837 B(  2-O ,  3-C ) :   1.1751 B(  3-C ,  4-O ) :   2.1122
B(  3-C ,  5-C ) :   0.9035 B(  5-C ,  6-C ) :   1.7214 B(  5-C , 12-C ) :   0.9409
B(  6-C ,  7-C ) :   0.9460 B(  6-C ,  8-N ) :   1.1056 B(  7-C , 25-H ) :   0.9772
B(  7-C , 26-H ) :   0.9639 B(  7-C , 27-H ) :   0.9710 B(  8-N ,  9-C ) :   1.2013
B(  8-N , 28-H ) :   0.9507 B(  9-C , 10-S ) :   1.6095 B(  9-C , 11-N ) :   1.2877
B( 11-N , 12-C ) :   0.9847 B( 11-N , 29-H ) :   0.9472 B( 12-C , 13-C ) :   0.9656
B( 12-C , 30-H ) :   0.9911 B( 13-C , 14-C ) :   1.3840 B( 13-C , 19-C ) :   1.3487
B( 14-C , 15-C ) :   1.3958 B( 14-C , 31-H ) :   0.9610 B( 15-C , 16-C ) :   1.3634
B( 15-C , 32-H ) :   0.9693 B( 16-C , 17-C ) :   1.3303 B( 16-C , 33-H ) :   0.9842
B( 17-C , 18-O ) :   1.1115 B( 17-C , 19-C ) :   1.3612 B( 18-O , 34-H ) :   0.9789
B( 19-C , 35-H ) :   0.9560

MP2 TOTAL ENERGY:    -1274.329851814 Eh
FINAL SINGLE POINT ENERGY     -1274.329851813740

DIPOLE MOMENT
-------------
                                X             Y             Z
Electronic contribution:     10.28915       5.95875       8.42957
Nuclear contribution   :    -11.84548      -7.44681      -8.56547
                        -----------------------------------------
Total Dipole Moment    :     -1.55633      -1.48805      -0.13591
                        -----------------------------------------
Magnitude (a.u.)       :      2.15753
Magnitude (Debye)      :      5.48401

Rotational constants in cm-1:     0.011105     0.009070     0.006418
Rotational constants in MHz :   332.918111   271.907354   192.419805

                             ****ORCA TERMINATED NORMALLY****
TOTAL RUN TIME: 0 days 1 hours 45 minutes 45 seconds 241 msec
