                         Program Version 4.2.0 -  RELEASE  -
|  1> ! ri-mp2 cc-pvtz cc-pvtz/c TightSCF NoKeepInts
|  2>
|  3> %scf
|  4>   MaxCore 4096
|  5> end
|  6> *xyz  0  1
|  7>     C       14.1875496   15.0947325   14.2533466
|  8>     C       14.8468348   15.9287783   15.3638660
|  9>     O       16.1159460   16.3788783   14.8662243
| 10>     C       17.1383960   16.4092920   15.7620770
| 11>     O       17.8489807   15.4376670   15.9458110
| 12>     C       17.2049835   17.6494779   16.6032094
| 13>     C       16.9311734   18.8805558   16.0990904
| 14>     C       16.3321780   19.2141145   14.7469645
| 15>     N       17.2614850   20.0331645   16.8159928
| 16>     C       18.0608084   20.0495768   17.9275443
| 17>     S       18.4994107   21.4631906   18.6651518
| 18>     N       18.4962407   18.8311809   18.3849228
| 19>     C       18.0524750   17.5198508   17.8727725
| 20>     C       17.4073813   16.6377650   18.9330739
| 21>     C       17.8601055   15.3228538   19.1425473
| 22>     C       17.2588766   14.5064726   20.1150872
| 23>     C       16.1957519   15.0094897   20.8845597
| 24>     C       15.7403321   16.3184591   20.6753252
| 25>     O       14.7092831   16.8044817   21.4113291
| 26>     C       16.3399042   17.1282453   19.7053580
| 27>     H       14.8204954   14.2379494   13.9889829
| 28>     H       14.0331335   15.7012975   13.3523718
| 29>     H       13.2137804   14.7129805   14.5833905
| 30>     H       14.2137928   16.7822509   15.6390537
| 31>     H       14.9807124   15.2922967   16.2505578
| 32>     H       16.8675368   18.6935691   13.9424649
| 33>     H       16.3796767   20.2853840   14.5156691
| 34>     H       15.2784970   18.9145282   14.6999849
| 35>     H       16.9724290   20.9369190   16.4769537
| 36>     H       19.0713994   18.8701065   19.2171232
| 37>     H       19.0153704   17.0968092   17.5502482
| 38>     H       18.6723936   14.9278957   18.5362539
| 39>     H       17.6147110   13.4885222   20.2645170
| 40>     H       15.7278834   14.3815964   21.6355555
| 41>     H       14.4618886   16.1200986   22.0513306
| 42>     H       15.9752029   18.1395691   19.5592884
| 43> *
| 44>
| 45>                          ****END OF INPUT****

CARTESIAN COORDINATES (ANGSTROEM)
---------------------------------
  C     14.187550   15.094732   14.253347
  C     14.846835   15.928778   15.363866
  O     16.115946   16.378878   14.866224
  C     17.138396   16.409292   15.762077
  O     17.848981   15.437667   15.945811
  C     17.204983   17.649478   16.603209
  C     16.931173   18.880556   16.099090
  C     16.332178   19.214115   14.746965
  N     17.261485   20.033165   16.815993
  C     18.060808   20.049577   17.927544
  S     18.499411   21.463191   18.665152
  N     18.496241   18.831181   18.384923
  C     18.052475   17.519851   17.872772
  C     17.407381   16.637765   18.933074
  C     17.860105   15.322854   19.142547
  C     17.258877   14.506473   20.115087
  C     16.195752   15.009490   20.884560
  C     15.740332   16.318459   20.675325
  O     14.709283   16.804482   21.411329
  C     16.339904   17.128245   19.705358
  H     14.820495   14.237949   13.988983
  H     14.033133   15.701297   13.352372
  H     13.213780   14.712980   14.583390
  H     14.213793   16.782251   15.639054
  H     14.980712   15.292297   16.250558
  H     16.867537   18.693569   13.942465
  H     16.379677   20.285384   14.515669
  H     15.278497   18.914528   14.699985
  H     16.972429   20.936919   16.476954
  H     19.071399   18.870106   19.217123
  H     19.015370   17.096809   17.550248
  H     18.672394   14.927896   18.536254
  H     17.614711   13.488522   20.264517
  H     15.727883   14.381596   21.635555
  H     14.461889   16.120099   22.051331
  H     15.975203   18.139569   19.559288

 Total Charge           Charge          ....    0
 Multiplicity           Mult            ....    1
 Number of Electrons    NEL             ....  154
 Basis Dimension        Dim             ....  828

ORBITAL ENERGIES
----------------

  NO   OCC          E(Eh)            E(eV)
   0   2.0000     -91.890064     -2500.4558
   1   2.0000     -20.595019      -560.4190
   2   2.0000     -20.588111      -560.2310
   3   2.0000     -20.553317      -559.2842
   4   2.0000     -15.631013      -425.3415
   5   2.0000     -15.607664      -424.7061
   6   2.0000     -11.393806      -310.0412
   7   2.0000     -11.384901      -309.7989
   8   2.0000     -11.340368      -308.5871
   9   2.0000     -11.311285      -307.7957
  10   2.0000     -11.306196      -307.6572
  11   2.0000     -11.305712      -307.6441
  12   2.0000     -11.263046      -306.4831
  13   2.0000     -11.260527      -306.4145
  14   2.0000     -11.258480      -306.3588
  15   2.0000     -11.251211      -306.1610
  16   2.0000     -11.241288      -305.8910
  17   2.0000     -11.237534      -305.7888
  18   2.0000     -11.233973      -305.6919
  19   2.0000     -11.232463      -305.6509
  20   2.0000      -8.895139      -242.0490
  21   2.0000      -6.576713      -178.9614
  22   2.0000      -6.574712      -178.9070
  23   2.0000      -6.574120      -178.8909
  24   2.0000      -1.453491       -39.5515
  25   2.0000      -1.414765       -38.4977
  26   2.0000      -1.360627       -37.0245
  27   2.0000      -1.341957       -36.5165
  28   2.0000      -1.238972       -33.7141
  29   2.0000      -1.155767       -31.4500
  30   2.0000      -1.123037       -30.5594
  31   2.0000      -1.045096       -28.4385
  32   2.0000      -1.037609       -28.2348
  33   2.0000      -1.013408       -27.5762
  34   2.0000      -1.001912       -27.2634
  35   2.0000      -0.986670       -26.8487
  36   2.0000      -0.923315       -25.1247
  37   2.0000      -0.880362       -23.9559
  38   2.0000      -0.852167       -23.1886
  39   2.0000      -0.840600       -22.8739
  40   2.0000      -0.832235       -22.6463
  41   2.0000      -0.830954       -22.6114
  42   2.0000      -0.760085       -20.6830
  43   2.0000      -0.737012       -20.0551
  44   2.0000      -0.729101       -19.8398
  45   2.0000      -0.693099       -18.8602
  46   2.0000      -0.688667       -18.7396
  47   2.0000      -0.681549       -18.5459
  48   2.0000      -0.673098       -18.3159
  49   2.0000      -0.659020       -17.9329
  50   2.0000      -0.649211       -17.6659
  51   2.0000      -0.645660       -17.5693
  52   2.0000      -0.636642       -17.3239
  53   2.0000      -0.612706       -16.6726
  54   2.0000      -0.604789       -16.4571
  55   2.0000      -0.601923       -16.3792
  56   2.0000      -0.598296       -16.2805
  57   2.0000      -0.581422       -15.8213
  58   2.0000      -0.576080       -15.6759
  59   2.0000      -0.563517       -15.3341
  60   2.0000      -0.562917       -15.3178
  61   2.0000      -0.554137       -15.0788
  62   2.0000      -0.540874       -14.7179
  63   2.0000      -0.520348       -14.1594
  64   2.0000      -0.516741       -14.0612
  65   2.0000      -0.512141       -13.9361
  66   2.0000      -0.503944       -13.7130
  67   2.0000      -0.496801       -13.5187
  68   2.0000      -0.483675       -13.1615
  69   2.0000      -0.466726       -12.7003
  70   2.0000      -0.460655       -12.5351
  71   2.0000      -0.453527       -12.3411
  72   2.0000      -0.355617        -9.6768
  73   2.0000      -0.347716        -9.4618
  74   2.0000      -0.329109        -8.9555
  75   2.0000      -0.319442        -8.6924
  76   2.0000      -0.318096        -8.6558
  77   0.0000       0.072643         1.9767
  78   0.0000       0.107496         2.9251
  79   0.0000       0.118159         3.2153
  80   0.0000       0.133403         3.6301
  81   0.0000       0.138718         3.7747

MULLIKEN ATOMIC CHARGES
-----------------------
   0 C :   -0.256739
   1 C :    0.030074
   2 O :   -0.366859
   3 C :    0.451745
   4 O :   -0.382993
   5 C :   -0.226588
   6 C :    0.159816
   7 C :   -0.289244
   8 N :   -0.128737
   9 C :    0.205971
  10 S :   -0.439578
  11 N :   -0.212369
  12 C :    0.050335
  13 C :    0.029110
  14 C :   -0.181972
  15 C :   -0.132683
  16 C :   -0.278013
  17 C :    0.313742
  18 O :   -0.358484
  19 C :   -0.253577
  20 H :    0.108626
  21 H :    0.093127
  22 H :    0.088179
  23 H :    0.091899
  24 H :    0.104206
  25 H :    0.133625
  26 H :    0.108140
  27 H :    0.120109
  28 H :    0.198456
  29 H :    0.199988
  30 H :    0.157685
  31 H :    0.165145
  32 H :    0.161953
  33 H :    0.129709
  34 H :    0.240569
  35 H :    0.165628
Sum of atomic charges:   -0.0000000

LOEWDIN ATOMIC CHARGES
----------------------
   0 C :    0.110607
   1 C :   -0.022468
   2 O :    0.299378
   3 C :   -0.426820
   4 O :    0.126731
   5 C :   -0.097098
   6 C :   -0.066850
   7 C :    0.126886
   8 N :    0.405641
   9 C :   -0.458174
  10 S :   -0.035620
  11 N :    0.396135
  12 C :   -0.049129
  13 C :   -0.042193
  14 C :    0.023793
  15 C :    0.041719
  16 C :   -0.001058
  17 C :   -0.193086
  18 O :    0.393250
  19 C :    0.027962
  20 H :   -0.020669
  21 H :   -0.027943
  22 H :   -0.025972
  23 H :   -0.037325
  24 H :   -0.024578
  25 H :   -0.006357
  26 H :   -0.019318
  27 H :   -0.012240
  28 H :   -0.058224
  29 H :   -0.063278
  30 H :   -0.007007
  31 H :   -0.022842
  32 H :   -0.020141
  33 H :   -0.035661
  34 H :   -0.154158
  35 H :   -0.023895

  Mayer bond orders larger than 0.100000
B(  0-C ,  1-C ) :   0.9818 B(  0-C , 20-H ) :   0.9767 B(  0-C , 21-H ) :   0.9788
B(  0-C , 22-H ) :   0.9756 B(  1-C ,  2-O ) :   0.8892 B(  1-C , 23-H ) :   0.9743
B(  1-C , 24-H ) :   0.9719 B(  2-O ,  3-C ) :   1.0915 B(  3-C ,  4-O ) :   2.0658
B(  3-C ,  5-C ) :   1.0024 B(  5-C ,  6-C ) :   1.6665 B(  5-C , 12-C ) :   0.9502
B(  6-C ,  7-C ) :   0.9490 B(  6-C ,  8-N ) :   1.1370 B(  7-C , 25-H ) :   0.9652
B(  7-C , 26-H ) :   0.9887 B(  7-C , 27-H ) :   0.9677 B(  8-N ,  9-C ) :   1.1840
B(  8-N , 28-H ) :   0.9473 B(  9-C , 10-S ) :   1.6125 B(  9-C , 11-N ) :   1.3027
B( 11-N , 12-C ) :   0.9808 B( 11-N , 29-H ) :   0.9486 B( 12-C , 13-C ) :   0.9722
B( 12-C , 30-H ) :   0.9940 B( 13-C , 14-C ) :   1.3802 B( 13-C , 19-C ) :   1.3618
B( 14-C , 15-C ) :   1.3961 B( 14-C , 31-H ) :   0.9615 B( 15-C , 16-C ) :   1.3598
B( 15-C , 32-H ) :   0.9706 B( 16-C , 17-C ) :   1.3322 B( 16-C , 33-H ) :   0.9855
B( 17-C , 18-O ) :   1.1051 B( 17-C , 19-C ) :   1.3675 B( 18-O , 34-H ) :   0.9801
B( 19-C , 35-H ) :   0.9596

MP2 TOTAL ENERGY:    -1274.326460281 Eh
FINAL SINGLE POINT ENERGY     -1274.326460280721

DIPOLE MOMENT
-------------
                                X             Y             Z
Electronic contribution:     10.64520       9.50462      10.07923
Nuclear contribution   :    -12.17814     -10.63434     -10.63781
                        -----------------------------------------
Total Dipole Moment    :     -1.53294      -1.12972      -0.55858
                        -----------------------------------------
Magnitude (a.u.)       :      1.98449
Magnitude (Debye)      :      5.04417

Rotational constants in cm-1:     0.009930     0.009340     0.005860
Rotational constants in MHz :   297.680027   280.009958   175.669645

                             ****ORCA TERMINATED NORMALLY****
TOTAL RUN TIME: 0 days 1 hours 35 minutes 53 seconds 766 msec
