                         Program Version 4.2.0 -  RELEASE  -
|  1> ! ri-mp2 cc-pvtz cc-pvtz/c TightSCF NoKeepInts
|  2>
|  3> %scf
|  4>   MaxCore 4096
|  5> end
|  6> *xyz  0  1
|  7>     C       14.0661689   15.1507615   15.4891555
|  8>     C       15.0047965   16.3631510   15.3804013
|  9>     O       16.3395797   15.8458492   15.2234326
| 10>     C       17.4777075   16.5209000   15.5839984
| 11>     O       18.5846830   16.1009941   15.3046707
| 12>     C       17.2895499   17.6759529   16.5055672
| 13>     C       16.9873636   18.8928245   15.9965603
| 14>     C       16.5431322   19.1968860   14.5804645
| 15>     N       17.1326140   20.0468849   16.7680674
| 16>     C       17.8056441   20.0897816   17.9613835
| 17>     S       18.0426104   21.5087534   18.7765793
| 18>     N       18.2935010   18.8950728   18.4337296
| 19>     C       18.0132454   17.5697655   17.8448319
| 20>     C       17.3607564   16.5664414   18.7828033
| 21>     C       17.8069218   15.2330464   18.8090043
| 22>     C       17.1927573   14.2916730   19.6517002
| 23>     C       16.1212059   14.6867710   20.4709491
| 24>     C       15.6698518   16.0134793   20.4401904
| 25>     O       14.6284905   16.3948734   21.2217344
| 26>     C       16.2825146   16.9487103   19.5998054
| 27>     H       14.3357870   14.5314844   16.3542861
| 28>     H       14.1303338   14.5295699   14.5869044
| 29>     H       13.0258067   15.4760010   15.6104431
| 30>     H       14.7263397   16.9876472   14.5222601
| 31>     H       14.9003909   16.9497440   16.3023649
| 32>     H       16.7838690   18.3861680   13.8815086
| 33>     H       17.0449486   20.0935734   14.1942044
| 34>     H       15.4616022   19.3729945   14.5363730
| 35>     H       16.8149533   20.9356493   16.4141693
| 36>     H       18.7833295   18.9536973   19.3178832
| 37>     H       19.0363634   17.2454802   17.6013465
| 38>     H       18.6271098   14.9237338   18.1641710
| 39>     H       17.5449985   13.2614991   19.6633516
| 40>     H       15.6429889   13.9621033   21.1216953
| 41>     H       14.3692530   15.6282101   21.7549701
| 42>     H       15.9158313   17.9698722   19.5870393
| 43> *
| 44>
| 45>                          ****END OF INPUT****

CARTESIAN COORDINATES (ANGSTROEM)
---------------------------------
  C     14.066169   15.150761   15.489156
  C     15.004796   16.363151   15.380401
  O     16.339580   15.845849   15.223433
  C     17.477707   16.520900   15.583998
  O     18.584683   16.100994   15.304671
  C     17.289550   17.675953   16.505567
  C     16.987364   18.892824   15.996560
  C     16.543132   19.196886   14.580464
  N     17.132614   20.046885   16.768067
  C     17.805644   20.089782   17.961384
  S     18.042610   21.508753   18.776579
  N     18.293501   18.895073   18.433730
  C     18.013245   17.569765   17.844832
  C     17.360756   16.566441   18.782803
  C     17.806922   15.233046   18.809004
  C     17.192757   14.291673   19.651700
  C     16.121206   14.686771   20.470949
  C     15.669852   16.013479   20.440190
  O     14.628490   16.394873   21.221734
  C     16.282515   16.948710   19.599805
  H     14.335787   14.531484   16.354286
  H     14.130334   14.529570   14.586904
  H     13.025807   15.476001   15.610443
  H     14.726340   16.987647   14.522260
  H     14.900391   16.949744   16.302365
  H     16.783869   18.386168   13.881509
  H     17.044949   20.093573   14.194204
  H     15.461602   19.372994   14.536373
  H     16.814953   20.935649   16.414169
  H     18.783330   18.953697   19.317883
  H     19.036363   17.245480   17.601346
  H     18.627110   14.923734   18.164171
  H     17.544998   13.261499   19.663352
  H     15.642989   13.962103   21.121695
  H     14.369253   15.628210   21.754970
  H     15.915831   17.969872   19.587039

 Total Charge           Charge          ....    0
 Multiplicity           Mult            ....    1
 Number of Electrons    NEL             ....  154
 Basis Dimension        Dim             ....  828

ORBITAL ENERGIES
----------------

  NO   OCC          E(Eh)            E(eV)
   0   2.0000     -91.888915     -2500.4245
   1   2.0000     -20.605761      -560.7113
   2   2.0000     -20.600166      -560.5590
   3   2.0000     -20.552194      -559.2536
   4   2.0000     -15.625826      -425.2003
   5   2.0000     -15.609597      -424.7587
   6   2.0000     -11.399519      -310.1967
   7   2.0000     -11.385159      -309.8059
   8   2.0000     -11.329239      -308.2843
   9   2.0000     -11.317721      -307.9709
  10   2.0000     -11.311852      -307.8111
  11   2.0000     -11.306601      -307.6683
  12   2.0000     -11.268577      -306.6336
  13   2.0000     -11.265743      -306.5565
  14   2.0000     -11.261972      -306.4538
  15   2.0000     -11.258272      -306.3531
  16   2.0000     -11.246654      -306.0370
  17   2.0000     -11.242749      -305.9308
  18   2.0000     -11.240935      -305.8814
  19   2.0000     -11.233801      -305.6873
  20   2.0000      -8.894033      -242.0189
  21   2.0000      -6.575618      -178.9317
  22   2.0000      -6.573602      -178.8768
  23   2.0000      -6.573024      -178.8611
  24   2.0000      -1.450266       -39.4638
  25   2.0000      -1.419854       -38.6362
  26   2.0000      -1.364319       -37.1250
  27   2.0000      -1.339419       -36.4475
  28   2.0000      -1.238497       -33.7012
  29   2.0000      -1.162109       -31.6226
  30   2.0000      -1.126780       -30.6612
  31   2.0000      -1.049270       -28.5521
  32   2.0000      -1.042542       -28.3690
  33   2.0000      -1.019897       -27.7528
  34   2.0000      -1.006206       -27.3802
  35   2.0000      -0.989466       -26.9248
  36   2.0000      -0.926765       -25.2185
  37   2.0000      -0.883381       -24.0380
  38   2.0000      -0.855577       -23.2814
  39   2.0000      -0.841975       -22.9113
  40   2.0000      -0.838179       -22.8080
  41   2.0000      -0.836819       -22.7710
  42   2.0000      -0.758462       -20.6388
  43   2.0000      -0.739844       -20.1322
  44   2.0000      -0.732247       -19.9255
  45   2.0000      -0.698214       -18.9994
  46   2.0000      -0.691086       -18.8054
  47   2.0000      -0.684556       -18.6277
  48   2.0000      -0.674671       -18.3587
  49   2.0000      -0.662776       -18.0350
  50   2.0000      -0.657587       -17.8939
  51   2.0000      -0.647369       -17.6158
  52   2.0000      -0.638148       -17.3649
  53   2.0000      -0.613542       -16.6953
  54   2.0000      -0.610033       -16.5998
  55   2.0000      -0.603558       -16.4237
  56   2.0000      -0.600043       -16.3280
  57   2.0000      -0.583545       -15.8791
  58   2.0000      -0.578676       -15.7466
  59   2.0000      -0.568398       -15.4669
  60   2.0000      -0.561049       -15.2669
  61   2.0000      -0.557032       -15.1576
  62   2.0000      -0.552605       -15.0371
  63   2.0000      -0.531358       -14.4590
  64   2.0000      -0.520559       -14.1651
  65   2.0000      -0.514296       -13.9947
  66   2.0000      -0.507464       -13.8088
  67   2.0000      -0.501997       -13.6600
  68   2.0000      -0.488858       -13.3025
  69   2.0000      -0.469815       -12.7843
  70   2.0000      -0.457257       -12.4426
  71   2.0000      -0.452543       -12.3143
  72   2.0000      -0.355056        -9.6616
  73   2.0000      -0.352212        -9.5842
  74   2.0000      -0.328580        -8.9411
  75   2.0000      -0.325309        -8.8521
  76   2.0000      -0.318638        -8.6706
  77   0.0000       0.090382         2.4594
  78   0.0000       0.103004         2.8029
  79   0.0000       0.115126         3.1327
  80   0.0000       0.128934         3.5085
  81   0.0000       0.129970         3.5367

MULLIKEN ATOMIC CHARGES
-----------------------
   0 C :   -0.256347
   1 C :    0.025386
   2 O :   -0.303581
   3 C :    0.407452
   4 O :   -0.380588
   5 C :   -0.203252
   6 C :    0.157245
   7 C :   -0.336962
   8 N :   -0.140236
   9 C :    0.211330
  10 S :   -0.444438
  11 N :   -0.223813
  12 C :    0.049804
  13 C :    0.036204
  14 C :   -0.221380
  15 C :   -0.127587
  16 C :   -0.277619
  17 C :    0.316119
  18 O :   -0.355433
  19 C :   -0.258420
  20 H :    0.106207
  21 H :    0.102168
  22 H :    0.086642
  23 H :    0.090820
  24 H :    0.102107
  25 H :    0.128664
  26 H :    0.132733
  27 H :    0.126111
  28 H :    0.197251
  29 H :    0.202461
  30 H :    0.168742
  31 H :    0.170748
  32 H :    0.164582
  33 H :    0.131722
  34 H :    0.241404
  35 H :    0.173755
Sum of atomic charges:   -0.0000000

LOEWDIN ATOMIC CHARGES
----------------------
   0 C :    0.111676
   1 C :   -0.023627
   2 O :    0.312583
   3 C :   -0.417488
   4 O :    0.121029
   5 C :   -0.082206
   6 C :   -0.097261
   7 C :    0.125165
   8 N :    0.401692
   9 C :   -0.455210
  10 S :   -0.039555
  11 N :    0.396023
  12 C :   -0.050475
  13 C :   -0.043326
  14 C :    0.019495
  15 C :    0.045682
  16 C :    0.000170
  17 C :   -0.190526
  18 O :    0.395311
  19 C :    0.027452
  20 H :   -0.022023
  21 H :   -0.025210
  22 H :   -0.025513
  23 H :   -0.036426
  24 H :   -0.035249
  25 H :   -0.008125
  26 H :   -0.010165
  27 H :   -0.017016
  28 H :   -0.058036
  29 H :   -0.063964
  30 H :   -0.003552
  31 H :   -0.021993
  32 H :   -0.018405
  33 H :   -0.034685
  34 H :   -0.153086
  35 H :   -0.023154

  Mayer bond orders larger than 0.100000
B(  0-C ,  1-C ) :   0.9824 B(  0-C , 20-H ) :   0.9775 B(  0-C , 21-H ) :   0.9794
B(  0-C , 22-H ) :   0.9766 B(  1-C ,  2-O ) :   0.9165 B(  1-C , 23-H ) :   0.9722
B(  1-C , 24-H ) :   0.9567 B(  2-O ,  3-C ) :   1.1808 B(  3-C ,  4-O ) :   2.1101
B(  3-C ,  5-C ) :   0.9103 B(  5-C ,  6-C ) :   1.7263 B(  5-C , 12-C ) :   0.9432
B(  6-C ,  7-C ) :   0.9293 B(  6-C ,  8-N ) :   1.1030 B(  7-C , 25-H ) :   0.9785
B(  7-C , 26-H ) :   0.9754 B(  7-C , 27-H ) :   0.9670 B(  8-N ,  9-C ) :   1.2006
B(  8-N , 28-H ) :   0.9517 B(  9-C , 10-S ) :   1.6085 B(  9-C , 11-N ) :   1.2884
B( 11-N , 12-C ) :   0.9834 B( 11-N , 29-H ) :   0.9470 B( 12-C , 13-C ) :   0.9678
B( 12-C , 30-H ) :   0.9897 B( 13-C , 14-C ) :   1.3813 B( 13-C , 19-C ) :   1.3535
B( 14-C , 15-C ) :   1.3952 B( 14-C , 31-H ) :   0.9627 B( 15-C , 16-C ) :   1.3626
B( 15-C , 32-H ) :   0.9693 B( 16-C , 17-C ) :   1.3300 B( 16-C , 33-H ) :   0.9851
B( 17-C , 18-O ) :   1.1096 B( 17-C , 19-C ) :   1.3650 B( 18-O , 34-H ) :   0.9792
B( 19-C , 35-H ) :   0.9563

MP2 TOTAL ENERGY:    -1274.328658212 Eh
FINAL SINGLE POINT ENERGY     -1274.328658212229

DIPOLE MOMENT
-------------
                                X             Y             Z
Electronic contribution:     10.32761       8.50410       8.22655
Nuclear contribution   :    -12.06198      -9.69596      -8.63651
                        -----------------------------------------
Total Dipole Moment    :     -1.73437      -1.19186      -0.40996
                        -----------------------------------------
Magnitude (a.u.)       :      2.14398
Magnitude (Debye)      :      5.44956

Rotational constants in cm-1:     0.011088     0.008980     0.006254
Rotational constants in MHz :   332.407002   269.203074   187.480765

                             ****ORCA TERMINATED NORMALLY****
TOTAL RUN TIME: 0 days 1 hours 44 minutes 53 seconds 147 msec
