                         Program Version 4.2.0 -  RELEASE  -
|  1> ! ri-mp2 cc-pvtz cc-pvtz/c TightSCF NoKeepInts
|  2>
|  3> %scf
|  4>   MaxCore 4096
|  5> end
|  6> *xyz  0  1
|  7>     C       14.2532934   15.0844359   14.0127808
|  8>     C       14.8117950   15.7604031   15.2757493
|  9>     O       16.0183332   16.4412003   14.9001246
| 10>     C       17.0356526   16.4202573   15.8021513
| 11>     O       17.6714321   15.4035298   16.0171048
| 12>     C       17.1649860   17.6610721   16.6364861
| 13>     C       16.9162799   18.9006128   16.1388786
| 14>     C       16.2790250   19.2556734   14.8099087
| 15>     N       17.3052356   20.0424616   16.8436763
| 16>     C       18.1361119   20.0344695   17.9317111
| 17>     S       18.6428271   21.4340192   18.6524769
| 18>     N       18.5436662   18.8032114   18.3795796
| 19>     C       18.0425682   17.5065006   17.8836662
| 20>     C       17.4014116   16.6507209   18.9679560
| 21>     C       17.8374812   15.3325590   19.1922179
| 22>     C       17.2422199   14.5428872   20.1901930
| 23>     C       16.2023976   15.0763554   20.9709244
| 24>     C       15.7640694   16.3888563   20.7475877
| 25>     O       14.7561810   16.9045478   21.4954724
| 26>     C       16.3577647   17.1720013   19.7524810
| 27>     H       14.9803749   14.3701153   13.6058631
| 28>     H       14.0306385   15.8301160   13.2395888
| 29>     H       13.3295846   14.5398077   14.2430562
| 30>     H       14.0845315   16.4686504   15.6935312
| 31>     H       15.0179647   14.9862440   16.0289010
| 32>     H       16.7951980   18.7524605   13.9822929
| 33>     H       16.3110043   20.3312764   14.5971740
| 34>     H       15.2263042   18.9485526   14.7877315
| 35>     H       17.0352670   20.9546139   16.5116771
| 36>     H       19.1414217   18.8244658   19.1962927
| 37>     H       18.9818336   17.0519526   17.5356901
| 38>     H       18.6313589   14.9141908   18.5775356
| 39>     H       17.5844615   13.5220011   20.3505770
| 40>     H       15.7391905   14.4692811   21.7416210
| 41>     H       14.5078658   16.2337333   22.1492368
| 42>     H       16.0072687   18.1867634   19.5961042
| 43> *
| 44>
| 45>                          ****END OF INPUT****

CARTESIAN COORDINATES (ANGSTROEM)
---------------------------------
  C     14.253293   15.084436   14.012781
  C     14.811795   15.760403   15.275749
  O     16.018333   16.441200   14.900125
  C     17.035653   16.420257   15.802151
  O     17.671432   15.403530   16.017105
  C     17.164986   17.661072   16.636486
  C     16.916280   18.900613   16.138879
  C     16.279025   19.255673   14.809909
  N     17.305236   20.042462   16.843676
  C     18.136112   20.034470   17.931711
  S     18.642827   21.434019   18.652477
  N     18.543666   18.803211   18.379580
  C     18.042568   17.506501   17.883666
  C     17.401412   16.650721   18.967956
  C     17.837481   15.332559   19.192218
  C     17.242220   14.542887   20.190193
  C     16.202398   15.076355   20.970924
  C     15.764069   16.388856   20.747588
  O     14.756181   16.904548   21.495472
  C     16.357765   17.172001   19.752481
  H     14.980375   14.370115   13.605863
  H     14.030639   15.830116   13.239589
  H     13.329585   14.539808   14.243056
  H     14.084532   16.468650   15.693531
  H     15.017965   14.986244   16.028901
  H     16.795198   18.752461   13.982293
  H     16.311004   20.331276   14.597174
  H     15.226304   18.948553   14.787731
  H     17.035267   20.954614   16.511677
  H     19.141422   18.824466   19.196293
  H     18.981834   17.051953   17.535690
  H     18.631359   14.914191   18.577536
  H     17.584461   13.522001   20.350577
  H     15.739190   14.469281   21.741621
  H     14.507866   16.233733   22.149237
  H     16.007269   18.186763   19.596104

 Total Charge           Charge          ....    0
 Multiplicity           Mult            ....    1
 Number of Electrons    NEL             ....  154
 Basis Dimension        Dim             ....  828

ORBITAL ENERGIES
----------------

  NO   OCC          E(Eh)            E(eV)
   0   2.0000     -91.889668     -2500.4450
   1   2.0000     -20.594036      -560.3922
   2   2.0000     -20.588328      -560.2369
   3   2.0000     -20.551929      -559.2464
   4   2.0000     -15.630745      -425.3342
   5   2.0000     -15.607140      -424.6919
   6   2.0000     -11.393714      -310.0387
   7   2.0000     -11.384373      -309.7845
   8   2.0000     -11.340241      -308.5836
   9   2.0000     -11.310173      -307.7654
  10   2.0000     -11.305216      -307.6306
  11   2.0000     -11.304068      -307.5993
  12   2.0000     -11.261772      -306.4484
  13   2.0000     -11.260298      -306.4083
  14   2.0000     -11.257382      -306.3289
  15   2.0000     -11.250131      -306.1316
  16   2.0000     -11.240274      -305.8634
  17   2.0000     -11.236518      -305.7612
  18   2.0000     -11.233035      -305.6664
  19   2.0000     -11.231519      -305.6252
  20   2.0000      -8.894741      -242.0382
  21   2.0000      -6.576314      -178.9506
  22   2.0000      -6.574314      -178.8962
  23   2.0000      -6.573723      -178.8801
  24   2.0000      -1.453680       -39.5566
  25   2.0000      -1.413781       -38.4709
  26   2.0000      -1.359118       -36.9835
  27   2.0000      -1.341605       -36.5069
  28   2.0000      -1.238559       -33.7029
  29   2.0000      -1.154685       -31.4206
  30   2.0000      -1.122392       -30.5418
  31   2.0000      -1.044535       -28.4232
  32   2.0000      -1.036728       -28.2108
  33   2.0000      -1.012286       -27.5457
  34   2.0000      -1.000856       -27.2347
  35   2.0000      -0.985760       -26.8239
  36   2.0000      -0.922512       -25.1028
  37   2.0000      -0.881578       -23.9890
  38   2.0000      -0.850424       -23.1412
  39   2.0000      -0.838854       -22.8264
  40   2.0000      -0.830500       -22.5991
  41   2.0000      -0.829058       -22.5598
  42   2.0000      -0.760377       -20.6909
  43   2.0000      -0.736607       -20.0441
  44   2.0000      -0.728246       -19.8166
  45   2.0000      -0.692251       -18.8371
  46   2.0000      -0.688296       -18.7295
  47   2.0000      -0.680864       -18.5272
  48   2.0000      -0.672570       -18.3016
  49   2.0000      -0.656826       -17.8732
  50   2.0000      -0.648038       -17.6340
  51   2.0000      -0.643183       -17.5019
  52   2.0000      -0.633583       -17.2407
  53   2.0000      -0.616720       -16.7818
  54   2.0000      -0.604775       -16.4568
  55   2.0000      -0.600882       -16.3508
  56   2.0000      -0.597325       -16.2540
  57   2.0000      -0.580798       -15.8043
  58   2.0000      -0.575238       -15.6530
  59   2.0000      -0.563110       -15.3230
  60   2.0000      -0.562055       -15.2943
  61   2.0000      -0.551653       -15.0112
  62   2.0000      -0.538099       -14.6424
  63   2.0000      -0.519770       -14.1437
  64   2.0000      -0.517166       -14.0728
  65   2.0000      -0.511415       -13.9163
  66   2.0000      -0.504984       -13.7413
  67   2.0000      -0.496020       -13.4974
  68   2.0000      -0.481656       -13.1065
  69   2.0000      -0.464096       -12.6287
  70   2.0000      -0.460528       -12.5316
  71   2.0000      -0.453699       -12.3458
  72   2.0000      -0.354923        -9.6580
  73   2.0000      -0.346752        -9.4356
  74   2.0000      -0.328679        -8.9438
  75   2.0000      -0.318889        -8.6774
  76   2.0000      -0.316920        -8.6238
  77   0.0000       0.072166         1.9637
  78   0.0000       0.108482         2.9520
  79   0.0000       0.118780         3.2322
  80   0.0000       0.134119         3.6496
  81   0.0000       0.138862         3.7786

MULLIKEN ATOMIC CHARGES
-----------------------
   0 C :   -0.258692
   1 C :    0.033269
   2 O :   -0.372135
   3 C :    0.456040
   4 O :   -0.391037
   5 C :   -0.216138
   6 C :    0.156333
   7 C :   -0.283345
   8 N :   -0.127925
   9 C :    0.206376
  10 S :   -0.439884
  11 N :   -0.211318
  12 C :    0.044388
  13 C :    0.032200
  14 C :   -0.176145
  15 C :   -0.133716
  16 C :   -0.277706
  17 C :    0.313554
  18 O :   -0.358836
  19 C :   -0.253359
  20 H :    0.107212
  21 H :    0.091799
  22 H :    0.088084
  23 H :    0.093205
  24 H :    0.105891
  25 H :    0.130917
  26 H :    0.105541
  27 H :    0.121903
  28 H :    0.198817
  29 H :    0.199898
  30 H :    0.156723
  31 H :    0.162560
  32 H :    0.161349
  33 H :    0.129168
  34 H :    0.240390
  35 H :    0.164619
Sum of atomic charges:   -0.0000000

LOEWDIN ATOMIC CHARGES
----------------------
   0 C :    0.109343
   1 C :   -0.020321
   2 O :    0.299709
   3 C :   -0.424819
   4 O :    0.122877
   5 C :   -0.097275
   6 C :   -0.064915
   7 C :    0.126185
   8 N :    0.405884
   9 C :   -0.458292
  10 S :   -0.035817
  11 N :    0.396171
  12 C :   -0.048851
  13 C :   -0.041516
  14 C :    0.024261
  15 C :    0.041339
  16 C :   -0.001133
  17 C :   -0.192959
  18 O :    0.393089
  19 C :    0.028373
  20 H :   -0.021402
  21 H :   -0.028860
  22 H :   -0.026079
  23 H :   -0.035668
  24 H :   -0.024467
  25 H :   -0.006994
  26 H :   -0.020188
  27 H :   -0.010816
  28 H :   -0.058278
  29 H :   -0.063243
  30 H :   -0.007405
  31 H :   -0.023272
  32 H :   -0.020464
  33 H :   -0.035846
  34 H :   -0.154391
  35 H :   -0.023959

  Mayer bond orders larger than 0.100000
B(  0-C ,  1-C ) :   0.9808 B(  0-C , 20-H ) :   0.9769 B(  0-C , 21-H ) :   0.9792
B(  0-C , 22-H ) :   0.9756 B(  1-C ,  2-O ) :   0.8879 B(  1-C , 23-H ) :   0.9750
B(  1-C , 24-H ) :   0.9718 B(  2-O ,  3-C ) :   1.0820 B(  3-C ,  4-O ) :   2.0484
B(  3-C ,  5-C ) :   1.0211 B(  5-C ,  6-C ) :   1.6585 B(  5-C , 12-C ) :   0.9514
B(  6-C ,  7-C ) :   0.9518 B(  6-C ,  8-N ) :   1.1395 B(  7-C , 25-H ) :   0.9652
B(  7-C , 26-H ) :   0.9894 B(  7-C , 27-H ) :   0.9667 B(  8-N ,  9-C ) :   1.1834
B(  8-N , 28-H ) :   0.9471 B(  9-C , 10-S ) :   1.6117 B(  9-C , 11-N ) :   1.3045
B( 11-N , 12-C ) :   0.9782 B( 11-N , 29-H ) :   0.9486 B( 12-C , 13-C ) :   0.9723
B( 12-C , 30-H ) :   0.9952 B( 13-C , 14-C ) :   1.3787 B( 13-C , 19-C ) :   1.3629
B( 14-C , 15-C ) :   1.3969 B( 14-C , 31-H ) :   0.9624 B( 15-C , 16-C ) :   1.3593
B( 15-C , 32-H ) :   0.9707 B( 16-C , 17-C ) :   1.3327 B( 16-C , 33-H ) :   0.9857
B( 17-C , 18-O ) :   1.1044 B( 17-C , 19-C ) :   1.3677 B( 18-O , 34-H ) :   0.9802
B( 19-C , 35-H ) :   0.9600

MP2 TOTAL ENERGY:    -1274.326897332 Eh
FINAL SINGLE POINT ENERGY     -1274.326897332072

DIPOLE MOMENT
-------------
                                X             Y             Z
Electronic contribution:     10.61364       9.74915      10.67302
Nuclear contribution   :    -12.13712     -10.92314     -11.30465
                        -----------------------------------------
Total Dipole Moment    :     -1.52347      -1.17399      -0.63163
                        -----------------------------------------
Magnitude (a.u.)       :      2.02440
Magnitude (Debye)      :      5.14561

Rotational constants in cm-1:     0.009800     0.009294     0.005734
Rotational constants in MHz :   293.797423   278.629246   171.914318

                             ****ORCA TERMINATED NORMALLY****
TOTAL RUN TIME: 0 days 1 hours 34 minutes 37 seconds 423 msec
