                         Program Version 4.2.0 -  RELEASE  -
|  1> ! ri-mp2 cc-pvtz cc-pvtz/c TightSCF NoKeepInts
|  2>
|  3> %scf
|  4>   MaxCore 4096
|  5> end
|  6> *xyz  0  1
|  7>     C       14.3603372   14.6443881   15.5740913
|  8>     C       15.0814041   15.9028762   16.0827173
|  9>     O       16.3441862   15.9728125   15.3950461
| 10>     C       16.9496910   17.1813171   15.2030538
| 11>     O       17.3744534   17.5009417   14.1083226
| 12>     C       17.0358260   18.0661204   16.4094153
| 13>     C       16.9090955   19.4034509   16.2336483
| 14>     C       16.2879846   20.0895570   15.0354442
| 15>     N       17.3648123   20.3095037   17.1924414
| 16>     C       18.1865358   19.9716106   18.2340664
| 17>     S       18.7976762   21.1049860   19.2715685
| 18>     N       18.4976151   18.6401779   18.3588268
| 19>     C       17.8911935   17.5445162   17.5765119
| 20>     C       17.2742226   16.4589403   18.4433561
| 21>     C       17.6455596   15.1124220   18.2738818
| 22>     C       17.0679387   14.1085023   19.0689711
| 23>     C       16.1170445   14.4548056   20.0443588
| 24>     C       15.7513616   15.7964630   20.2200044
| 25>     O       14.8300762   16.1331160   21.1568836
| 26>     C       16.3248772   16.7938254   19.4247279
| 27>     H       13.3737937   14.5483469   16.0434025
| 28>     H       14.9429804   13.7454800   15.8114589
| 29>     H       14.2224108   14.6899638   14.4864083
| 30>     H       14.4675146   16.7822188   15.8453117
| 31>     H       15.2018838   15.8440058   17.1676218
| 32>     H       15.4718880   19.4907792   14.6125484
| 33>     H       17.0364458   20.2242318   14.2432346
| 34>     H       15.8745584   21.0744031   15.2835504
| 35>     H       17.1814608   21.2942393   17.0816574
| 36>     H       19.0979428   18.4190345   19.1436833
| 37>     H       18.7991147   17.1514250   17.0960018
| 38>     H       18.3744053   14.8413995   17.5137051
| 39>     H       17.3571853   13.0683156   18.9270871
| 40>     H       15.6688024   13.6820066   20.6604979
| 41>     H       14.5944514   15.3261478   21.6394855
| 42>     H       16.0302705   17.8276694   19.5750079
| 43> *
| 44>
| 45>                          ****END OF INPUT****

CARTESIAN COORDINATES (ANGSTROEM)
---------------------------------
  C     14.360337   14.644388   15.574091
  C     15.081404   15.902876   16.082717
  O     16.344186   15.972812   15.395046
  C     16.949691   17.181317   15.203054
  O     17.374453   17.500942   14.108323
  C     17.035826   18.066120   16.409415
  C     16.909095   19.403451   16.233648
  C     16.287985   20.089557   15.035444
  N     17.364812   20.309504   17.192441
  C     18.186536   19.971611   18.234066
  S     18.797676   21.104986   19.271569
  N     18.497615   18.640178   18.358827
  C     17.891193   17.544516   17.576512
  C     17.274223   16.458940   18.443356
  C     17.645560   15.112422   18.273882
  C     17.067939   14.108502   19.068971
  C     16.117044   14.454806   20.044359
  C     15.751362   15.796463   20.220004
  O     14.830076   16.133116   21.156884
  C     16.324877   16.793825   19.424728
  H     13.373794   14.548347   16.043402
  H     14.942980   13.745480   15.811459
  H     14.222411   14.689964   14.486408
  H     14.467515   16.782219   15.845312
  H     15.201884   15.844006   17.167622
  H     15.471888   19.490779   14.612548
  H     17.036446   20.224232   14.243235
  H     15.874558   21.074403   15.283550
  H     17.181461   21.294239   17.081657
  H     19.097943   18.419034   19.143683
  H     18.799115   17.151425   17.096002
  H     18.374405   14.841399   17.513705
  H     17.357185   13.068316   18.927087
  H     15.668802   13.682007   20.660498
  H     14.594451   15.326148   21.639485
  H     16.030271   17.827669   19.575008

 Total Charge           Charge          ....    0
 Multiplicity           Mult            ....    1
 Number of Electrons    NEL             ....  154
 Basis Dimension        Dim             ....  828

ORBITAL ENERGIES
----------------

  NO   OCC          E(Eh)            E(eV)
   0   2.0000     -91.890881     -2500.4780
   1   2.0000     -20.603754      -560.6567
   2   2.0000     -20.592521      -560.3510
   3   2.0000     -20.552198      -559.2537
   4   2.0000     -15.628418      -425.2709
   5   2.0000     -15.610956      -424.7957
   6   2.0000     -11.393812      -310.0414
   7   2.0000     -11.385898      -309.8260
   8   2.0000     -11.332206      -308.3650
   9   2.0000     -11.322110      -308.0903
  10   2.0000     -11.316286      -307.9318
  11   2.0000     -11.297523      -307.4212
  12   2.0000     -11.268788      -306.6393
  13   2.0000     -11.263223      -306.4879
  14   2.0000     -11.257047      -306.3198
  15   2.0000     -11.256245      -306.2980
  16   2.0000     -11.252169      -306.1871
  17   2.0000     -11.246825      -306.0417
  18   2.0000     -11.246505      -306.0330
  19   2.0000     -11.228930      -305.5547
  20   2.0000      -8.895942      -242.0709
  21   2.0000      -6.577511      -178.9832
  22   2.0000      -6.575515      -178.9288
  23   2.0000      -6.574921      -178.9127
  24   2.0000      -1.448069       -39.4039
  25   2.0000      -1.423548       -38.7367
  26   2.0000      -1.359841       -37.0032
  27   2.0000      -1.341299       -36.4986
  28   2.0000      -1.240721       -33.7617
  29   2.0000      -1.165493       -31.7147
  30   2.0000      -1.124552       -30.6006
  31   2.0000      -1.050115       -28.5751
  32   2.0000      -1.036030       -28.1918
  33   2.0000      -1.023516       -27.8513
  34   2.0000      -1.002323       -27.2746
  35   2.0000      -0.988986       -26.9117
  36   2.0000      -0.926890       -25.2220
  37   2.0000      -0.876181       -23.8421
  38   2.0000      -0.852392       -23.1948
  39   2.0000      -0.844083       -22.9687
  40   2.0000      -0.842161       -22.9164
  41   2.0000      -0.837551       -22.7909
  42   2.0000      -0.761194       -20.7131
  43   2.0000      -0.739276       -20.1167
  44   2.0000      -0.727303       -19.7909
  45   2.0000      -0.702170       -19.1070
  46   2.0000      -0.691682       -18.8216
  47   2.0000      -0.680279       -18.5113
  48   2.0000      -0.675195       -18.3730
  49   2.0000      -0.664642       -18.0858
  50   2.0000      -0.652126       -17.7452
  51   2.0000      -0.649641       -17.6776
  52   2.0000      -0.638483       -17.3740
  53   2.0000      -0.614066       -16.7096
  54   2.0000      -0.608247       -16.5513
  55   2.0000      -0.603738       -16.4285
  56   2.0000      -0.595567       -16.2062
  57   2.0000      -0.582561       -15.8523
  58   2.0000      -0.575986       -15.6734
  59   2.0000      -0.566611       -15.4183
  60   2.0000      -0.558806       -15.2059
  61   2.0000      -0.554232       -15.0814
  62   2.0000      -0.546262       -14.8645
  63   2.0000      -0.529267       -14.4021
  64   2.0000      -0.519719       -14.1423
  65   2.0000      -0.516076       -14.0432
  66   2.0000      -0.506801       -13.7908
  67   2.0000      -0.502485       -13.6733
  68   2.0000      -0.485351       -13.2071
  69   2.0000      -0.469252       -12.7690
  70   2.0000      -0.453689       -12.3455
  71   2.0000      -0.453131       -12.3303
  72   2.0000      -0.357626        -9.7315
  73   2.0000      -0.352875        -9.6022
  74   2.0000      -0.331110        -9.0100
  75   2.0000      -0.329003        -8.9526
  76   2.0000      -0.320680        -8.7262
  77   0.0000       0.079918         2.1747
  78   0.0000       0.097139         2.6433
  79   0.0000       0.120488         3.2786
  80   0.0000       0.126641         3.4461
  81   0.0000       0.128492         3.4964

MULLIKEN ATOMIC CHARGES
-----------------------
   0 C :   -0.258285
   1 C :    0.017838
   2 O :   -0.323630
   3 C :    0.397378
   4 O :   -0.367597
   5 C :   -0.213915
   6 C :    0.154349
   7 C :   -0.276998
   8 N :   -0.132251
   9 C :    0.210702
  10 S :   -0.438584
  11 N :   -0.212938
  12 C :    0.027199
  13 C :   -0.003652
  14 C :   -0.171951
  15 C :   -0.139392
  16 C :   -0.269660
  17 C :    0.304015
  18 O :   -0.355168
  19 C :   -0.227510
  20 H :    0.087270
  21 H :    0.096934
  22 H :    0.104758
  23 H :    0.093241
  24 H :    0.114984
  25 H :    0.115387
  26 H :    0.142395
  27 H :    0.097729
  28 H :    0.198942
  29 H :    0.200601
  30 H :    0.157394
  31 H :    0.156327
  32 H :    0.165654
  33 H :    0.135070
  34 H :    0.241549
  35 H :    0.171817
Sum of atomic charges:   -0.0000000

LOEWDIN ATOMIC CHARGES
----------------------
   0 C :    0.111004
   1 C :   -0.023699
   2 O :    0.304285
   3 C :   -0.425515
   4 O :    0.129104
   5 C :   -0.098908
   6 C :   -0.073020
   7 C :    0.129323
   8 N :    0.406055
   9 C :   -0.456122
  10 S :   -0.034302
  11 N :    0.395693
  12 C :   -0.053909
  13 C :   -0.046282
  14 C :    0.020272
  15 C :    0.043507
  16 C :    0.001436
  17 C :   -0.192445
  18 O :    0.396978
  19 C :    0.031447
  20 H :   -0.026068
  21 H :   -0.026596
  22 H :   -0.024319
  23 H :   -0.035033
  24 H :   -0.035375
  25 H :   -0.009930
  26 H :   -0.003856
  27 H :   -0.021151
  28 H :   -0.056955
  29 H :   -0.063585
  30 H :   -0.010497
  31 H :   -0.026053
  32 H :   -0.018523
  33 H :   -0.033462
  34 H :   -0.152352
  35 H :   -0.021149

  Mayer bond orders larger than 0.100000
B(  0-C ,  1-C ) :   0.9837 B(  0-C , 20-H ) :   0.9770 B(  0-C , 21-H ) :   0.9784
B(  0-C , 22-H ) :   0.9782 B(  1-C ,  2-O ) :   0.8907 B(  1-C , 23-H ) :   0.9778
B(  1-C , 24-H ) :   0.9613 B(  2-O ,  3-C ) :   1.1669 B(  3-C ,  4-O ) :   2.1236
B(  3-C ,  5-C ) :   0.9505 B(  5-C ,  6-C ) :   1.6719 B(  5-C , 12-C ) :   0.9636
B(  6-C ,  7-C ) :   0.9529 B(  6-C ,  8-N ) :   1.1350 B(  7-C , 25-H ) :   0.9759
B(  7-C , 26-H ) :   0.9554 B(  7-C , 27-H ) :   0.9846 B(  8-N ,  9-C ) :   1.1945
B(  8-N , 28-H ) :   0.9489 B(  9-C , 10-S ) :   1.6147 B(  9-C , 11-N ) :   1.2903
B( 11-N , 12-C ) :   0.9798 B( 11-N , 29-H ) :   0.9469 B( 12-C , 13-C ) :   0.9541
B( 12-C , 30-H ) :   1.0065 B( 13-C , 14-C ) :   1.3747 B( 13-C , 19-C ) :   1.3620
B( 14-C , 15-C ) :   1.3933 B( 14-C , 31-H ) :   0.9687 B( 15-C , 16-C ) :   1.3606
B( 15-C , 32-H ) :   0.9694 B( 16-C , 17-C ) :   1.3310 B( 16-C , 33-H ) :   0.9833
B( 17-C , 18-O ) :   1.1105 B( 17-C , 19-C ) :   1.3632 B( 18-O , 34-H ) :   0.9788
B( 19-C , 35-H ) :   0.9582

MP2 TOTAL ENERGY:    -1274.324139279 Eh
FINAL SINGLE POINT ENERGY     -1274.324139278755

DIPOLE MOMENT
-------------
                                X             Y             Z
Electronic contribution:     10.36728       9.77369       6.94318
Nuclear contribution   :    -11.88470     -11.31103      -6.70506
                        -----------------------------------------
Total Dipole Moment    :     -1.51742      -1.53733       0.23811
                        -----------------------------------------
Magnitude (a.u.)       :      2.17316
Magnitude (Debye)      :      5.52375

Rotational constants in cm-1:     0.012066     0.008835     0.005953
Rotational constants in MHz :   361.740674   264.853133   178.475241

                             ****ORCA TERMINATED NORMALLY****
TOTAL RUN TIME: 0 days 1 hours 48 minutes 39 seconds 860 msec
