                         Program Version 4.2.0 -  RELEASE  -
|  1> ! ri-mp2 cc-pvtz cc-pvtz/c TightSCF NoKeepInts
|  2>
|  3> %scf
|  4>   MaxCore 4096
|  5> end
|  6> *xyz  0  1
|  7>     C       15.3156246   14.9855453   13.8169614
|  8>     C       14.9817395   15.1297697   15.3150709
|  9>     O       15.9372647   16.0140752   15.9285889
| 10>     C       15.7937474   17.3708564   15.8235045
| 11>     O       14.9858927   17.8851947   15.0684310
| 12>     C       16.6869566   18.1213167   16.7756021
| 13>     C       16.8831856   19.4579800   16.6360194
| 14>     C       16.0999908   20.4132766   15.7591113
| 15>     N       17.9046749   20.1121233   17.3286092
| 16>     C       18.8934798   19.4779152   18.0305770
| 17>     S       20.1311494   20.3094350   18.7464887
| 18>     N       18.8173431   18.1096422   18.0912341
| 19>     C       17.7005478   17.2912187   17.5821731
| 20>     C       17.0741489   16.4198341   18.6631164
| 21>     C       17.2451957   15.0232520   18.6472022
| 22>     C       16.6691826   14.2225089   19.6478828
| 23>     C       15.9194893   14.8239550   20.6734741
| 24>     C       15.7515524   16.2156035   20.6933162
| 25>     O       15.0296665   16.7988431   21.6831676
| 26>     C       16.3260425   17.0098105   19.6959762
| 27>     H       15.1937961   15.9403324   13.2905494
| 28>     H       14.6483762   14.2539120   13.3456654
| 29>     H       16.3491997   14.6443250   13.6811803
| 30>     H       13.9575122   15.5039721   15.4497089
| 31>     H       15.0485846   14.1428119   15.7904870
| 32>     H       15.0246333   20.3302361   15.9628117
| 33>     H       16.2518674   20.1776769   14.6980782
| 34>     H       16.3795115   21.4627396   15.9089675
| 35>     H       17.9844047   21.1148982   17.2734358
| 36>     H       19.5428467   17.6717370   18.6446778
| 37>     H       18.2331015   16.6730469   16.8455780
| 38>     H       17.8203753   14.5574210   17.8515031
| 39>     H       16.8042600   13.1425645   19.6266956
| 40>     H       15.4729833   14.2099461   21.4486288
| 41>     H       14.7370432   16.0964420   22.2829779
| 42>     H       16.1916295   18.0857823   19.7305476
| 43> *
| 44>
| 45>                          ****END OF INPUT****

CARTESIAN COORDINATES (ANGSTROEM)
---------------------------------
  C     15.315625   14.985545   13.816961
  C     14.981739   15.129770   15.315071
  O     15.937265   16.014075   15.928589
  C     15.793747   17.370856   15.823504
  O     14.985893   17.885195   15.068431
  C     16.686957   18.121317   16.775602
  C     16.883186   19.457980   16.636019
  C     16.099991   20.413277   15.759111
  N     17.904675   20.112123   17.328609
  C     18.893480   19.477915   18.030577
  S     20.131149   20.309435   18.746489
  N     18.817343   18.109642   18.091234
  C     17.700548   17.291219   17.582173
  C     17.074149   16.419834   18.663116
  C     17.245196   15.023252   18.647202
  C     16.669183   14.222509   19.647883
  C     15.919489   14.823955   20.673474
  C     15.751552   16.215604   20.693316
  O     15.029666   16.798843   21.683168
  C     16.326042   17.009811   19.695976
  H     15.193796   15.940332   13.290549
  H     14.648376   14.253912   13.345665
  H     16.349200   14.644325   13.681180
  H     13.957512   15.503972   15.449709
  H     15.048585   14.142812   15.790487
  H     15.024633   20.330236   15.962812
  H     16.251867   20.177677   14.698078
  H     16.379511   21.462740   15.908967
  H     17.984405   21.114898   17.273436
  H     19.542847   17.671737   18.644678
  H     18.233102   16.673047   16.845578
  H     17.820375   14.557421   17.851503
  H     16.804260   13.142564   19.626696
  H     15.472983   14.209946   21.448629
  H     14.737043   16.096442   22.282978
  H     16.191630   18.085782   19.730548

 Total Charge           Charge          ....    0
 Multiplicity           Mult            ....    1
 Number of Electrons    NEL             ....  154
 Basis Dimension        Dim             ....  828

ORBITAL ENERGIES
----------------

  NO   OCC          E(Eh)            E(eV)
   0   2.0000     -91.888758     -2500.4202
   1   2.0000     -20.600747      -560.5748
   2   2.0000     -20.595705      -560.4376
   3   2.0000     -20.541996      -558.9761
   4   2.0000     -15.629174      -425.2914
   5   2.0000     -15.606819      -424.6831
   6   2.0000     -11.396025      -310.1016
   7   2.0000     -11.383369      -309.7572
   8   2.0000     -11.337475      -308.5084
   9   2.0000     -11.312778      -307.8363
  10   2.0000     -11.307303      -307.6874
  11   2.0000     -11.298036      -307.4352
  12   2.0000     -11.259986      -306.3998
  13   2.0000     -11.259413      -306.3842
  14   2.0000     -11.254260      -306.2440
  15   2.0000     -11.251785      -306.1766
  16   2.0000     -11.242673      -305.9287
  17   2.0000     -11.238072      -305.8035
  18   2.0000     -11.237926      -305.7995
  19   2.0000     -11.223412      -305.4046
  20   2.0000      -8.893829      -242.0134
  21   2.0000      -6.575401      -178.9258
  22   2.0000      -6.573403      -178.8714
  23   2.0000      -6.572813      -178.8553
  24   2.0000      -1.451100       -39.4864
  25   2.0000      -1.415361       -38.5139
  26   2.0000      -1.354884       -36.8683
  27   2.0000      -1.340343       -36.4726
  28   2.0000      -1.238139       -33.6915
  29   2.0000      -1.156796       -31.4780
  30   2.0000      -1.120954       -30.5027
  31   2.0000      -1.042336       -28.3634
  32   2.0000      -1.036528       -28.2054
  33   2.0000      -1.014098       -27.5950
  34   2.0000      -0.995778       -27.0965
  35   2.0000      -0.984131       -26.7796
  36   2.0000      -0.921510       -25.0756
  37   2.0000      -0.893061       -24.3014
  38   2.0000      -0.846561       -23.0361
  39   2.0000      -0.837397       -22.7867
  40   2.0000      -0.833344       -22.6765
  41   2.0000      -0.817954       -22.2576
  42   2.0000      -0.757394       -20.6097
  43   2.0000      -0.732657       -19.9366
  44   2.0000      -0.722112       -19.6497
  45   2.0000      -0.694777       -18.9058
  46   2.0000      -0.688379       -18.7317
  47   2.0000      -0.680000       -18.5038
  48   2.0000      -0.671251       -18.2657
  49   2.0000      -0.652739       -17.7619
  50   2.0000      -0.646805       -17.6005
  51   2.0000      -0.643233       -17.5033
  52   2.0000      -0.630409       -17.1543
  53   2.0000      -0.611258       -16.6332
  54   2.0000      -0.605600       -16.4792
  55   2.0000      -0.599775       -16.3207
  56   2.0000      -0.598279       -16.2800
  57   2.0000      -0.578857       -15.7515
  58   2.0000      -0.571854       -15.5609
  59   2.0000      -0.569453       -15.4956
  60   2.0000      -0.563090       -15.3225
  61   2.0000      -0.540438       -14.7061
  62   2.0000      -0.536476       -14.5983
  63   2.0000      -0.525608       -14.3025
  64   2.0000      -0.523200       -14.2370
  65   2.0000      -0.512838       -13.9550
  66   2.0000      -0.500193       -13.6109
  67   2.0000      -0.496867       -13.5204
  68   2.0000      -0.484793       -13.1919
  69   2.0000      -0.463087       -12.6012
  70   2.0000      -0.455364       -12.3911
  71   2.0000      -0.446732       -12.1562
  72   2.0000      -0.352987        -9.6053
  73   2.0000      -0.348993        -9.4966
  74   2.0000      -0.327872        -8.9219
  75   2.0000      -0.320235        -8.7140
  76   2.0000      -0.317905        -8.6506
  77   0.0000       0.077352         2.1048
  78   0.0000       0.106015         2.8848
  79   0.0000       0.124330         3.3832
  80   0.0000       0.133186         3.6242
  81   0.0000       0.136464         3.7134

MULLIKEN ATOMIC CHARGES
-----------------------
   0 C :   -0.289443
   1 C :    0.036535
   2 O :   -0.345982
   3 C :    0.435347
   4 O :   -0.439688
   5 C :   -0.212904
   6 C :    0.172470
   7 C :   -0.269392
   8 N :   -0.125819
   9 C :    0.210027
  10 S :   -0.442036
  11 N :   -0.214676
  12 C :    0.055663
  13 C :    0.046388
  14 C :   -0.176154
  15 C :   -0.134607
  16 C :   -0.275661
  17 C :    0.316631
  18 O :   -0.357072
  19 C :   -0.248082
  20 H :    0.117082
  21 H :    0.093608
  22 H :    0.090456
  23 H :    0.098209
  24 H :    0.107452
  25 H :    0.133970
  26 H :    0.128322
  27 H :    0.094879
  28 H :    0.199774
  29 H :    0.200433
  30 H :    0.152742
  31 H :    0.149523
  32 H :    0.159946
  33 H :    0.129470
  34 H :    0.240433
  35 H :    0.162156
Sum of atomic charges:   -0.0000000

LOEWDIN ATOMIC CHARGES
----------------------
   0 C :    0.104478
   1 C :   -0.015464
   2 O :    0.308433
   3 C :   -0.412861
   4 O :    0.096113
   5 C :   -0.094135
   6 C :   -0.056307
   7 C :    0.130967
   8 N :    0.407161
   9 C :   -0.456777
  10 S :   -0.036612
  11 N :    0.394725
  12 C :   -0.054808
  13 C :   -0.039302
  14 C :    0.017006
  15 C :    0.038902
  16 C :   -0.000566
  17 C :   -0.189586
  18 O :    0.394894
  19 C :    0.033262
  20 H :   -0.025342
  21 H :   -0.027714
  22 H :   -0.030644
  23 H :   -0.027793
  24 H :   -0.025674
  25 H :   -0.004234
  26 H :   -0.005363
  27 H :   -0.023617
  28 H :   -0.057176
  29 H :   -0.064287
  30 H :   -0.014059
  31 H :   -0.029496
  32 H :   -0.021560
  33 H :   -0.035563
  34 H :   -0.154103
  35 H :   -0.022897

  Mayer bond orders larger than 0.100000
B(  0-C ,  1-C ) :   0.9670 B(  0-C , 20-H ) :   0.9743 B(  0-C , 21-H ) :   0.9768
B(  0-C , 22-H ) :   0.9771 B(  1-C ,  2-O ) :   0.9004 B(  1-C , 23-H ) :   0.9761
B(  1-C , 24-H ) :   0.9832 B(  2-O ,  3-C ) :   1.1631 B(  3-C ,  4-O ) :   1.9433
B(  3-C ,  5-C ) :   1.0817 B(  5-C ,  6-C ) :   1.6385 B(  5-C , 12-C ) :   0.9549
B(  6-C ,  7-C ) :   0.9657 B(  6-C ,  8-N ) :   1.1529 B(  7-C , 25-H ) :   0.9612
B(  7-C , 26-H ) :   0.9587 B(  7-C , 27-H ) :   0.9909 B(  8-N ,  9-C ) :   1.1875
B(  8-N , 28-H ) :   0.9463 B(  9-C , 10-S ) :   1.6061 B(  9-C , 11-N ) :   1.3092
B( 11-N , 12-C ) :   0.9678 B( 11-N , 29-H ) :   0.9483 B( 12-C , 13-C ) :   0.9655
B( 12-C , 30-H ) :   1.0007 B( 13-C , 14-C ) :   1.3544 B( 13-C , 19-C ) :   1.3808
B( 14-C , 15-C ) :   1.3955 B( 14-C , 31-H ) :   0.9721 B( 15-C , 16-C ) :   1.3602
B( 15-C , 32-H ) :   0.9709 B( 16-C , 17-C ) :   1.3341 B( 16-C , 33-H ) :   0.9852
B( 17-C , 18-O ) :   1.1039 B( 17-C , 19-C ) :   1.3649 B( 18-O , 34-H ) :   0.9800
B( 19-C , 35-H ) :   0.9597

MP2 TOTAL ENERGY:    -1274.342898693 Eh
FINAL SINGLE POINT ENERGY     -1274.342898692676

DIPOLE MOMENT
-------------
                                X             Y             Z
Electronic contribution:      8.78190       9.01128      11.12669
Nuclear contribution   :     -9.96231     -10.60732     -11.48242
                        -----------------------------------------
Total Dipole Moment    :     -1.18041      -1.59604      -0.35573
                        -----------------------------------------
Magnitude (a.u.)       :      2.01674
Magnitude (Debye)      :      5.12614

Rotational constants in cm-1:     0.010322     0.008907     0.005790
Rotational constants in MHz :   309.446563   267.015313   173.584826

                             ****ORCA TERMINATED NORMALLY****
TOTAL RUN TIME: 0 days 1 hours 55 minutes 3 seconds 744 msec
