                         Program Version 4.2.0 -  RELEASE  -
|  1> ! ri-mp2 cc-pvtz cc-pvtz/c TightSCF NoKeepInts
|  2>
|  3> %scf
|  4>   MaxCore 4096
|  5> end
|  6> *xyz  0  1
|  7>     C       15.2677655   14.7440257   13.7772637
|  8>     C       14.5066079   15.8431456   14.5511868
|  9>     O       15.3820188   16.8548337   15.1016600
| 10>     C       16.4553309   16.5869279   15.9092169
| 11>     O       16.9427842   15.4778742   16.0430596
| 12>     C       16.8887230   17.7502257   16.7576717
| 13>     C       16.7909968   19.0408755   16.3403617
| 14>     C       16.0607996   19.5766880   15.1241300
| 15>     N       17.4493895   20.0645337   17.0268811
| 16>     C       18.3981653   19.8649626   17.9927861
| 17>     S       19.2195122   21.1238241   18.6829532
| 18>     N       18.6484581   18.5621595   18.3406780
| 19>     C       17.8782740   17.3926242   17.8750728
| 20>     C       17.2519024   16.5959480   19.0121210
| 21>     C       17.5119253   15.2208623   19.1529806
| 22>     C       16.9356860   14.4884693   20.2044346
| 23>     C       16.0933869   15.1372313   21.1236851
| 24>     C       15.8310793   16.5071500   20.9844094
| 25>     O       15.0150814   17.1351132   21.8682732
| 26>     C       16.4057482   17.2332613   19.9363380
| 27>     H       16.0550648   15.1801824   13.1500856
| 28>     H       14.5783997   14.1945971   13.1250406
| 29>     H       15.7234627   14.0135719   14.4565452
| 30>     H       13.7961993   16.3298473   13.8707620
| 31>     H       13.9265131   15.3759270   15.3580227
| 32>     H       14.9795717   19.4169321   15.2199571
| 33>     H       16.3994195   19.0708810   14.2112467
| 34>     H       16.2189115   20.6512358   14.9711452
| 35>     H       17.2922902   21.0249876   16.7668336
| 36>     H       19.3371486   18.4424352   19.0727116
| 37>     H       18.6783820   16.8131001   17.3918860
| 38>     H       18.1511198   14.7157651   18.4325973
| 39>     H       17.1388276   13.4233301   20.2992135
| 40>     H       15.6451131   14.5751039   21.9360494
| 41>     H       14.7390672   16.4779787   22.5245491
| 42>     H       16.1938741   18.2933889   19.8461908
| 43> *
| 44>
| 45>                          ****END OF INPUT****

CARTESIAN COORDINATES (ANGSTROEM)
---------------------------------
  C     15.267765   14.744026   13.777264
  C     14.506608   15.843146   14.551187
  O     15.382019   16.854834   15.101660
  C     16.455331   16.586928   15.909217
  O     16.942784   15.477874   16.043060
  C     16.888723   17.750226   16.757672
  C     16.790997   19.040875   16.340362
  C     16.060800   19.576688   15.124130
  N     17.449389   20.064534   17.026881
  C     18.398165   19.864963   17.992786
  S     19.219512   21.123824   18.682953
  N     18.648458   18.562159   18.340678
  C     17.878274   17.392624   17.875073
  C     17.251902   16.595948   19.012121
  C     17.511925   15.220862   19.152981
  C     16.935686   14.488469   20.204435
  C     16.093387   15.137231   21.123685
  C     15.831079   16.507150   20.984409
  O     15.015081   17.135113   21.868273
  C     16.405748   17.233261   19.936338
  H     16.055065   15.180182   13.150086
  H     14.578400   14.194597   13.125041
  H     15.723463   14.013572   14.456545
  H     13.796199   16.329847   13.870762
  H     13.926513   15.375927   15.358023
  H     14.979572   19.416932   15.219957
  H     16.399420   19.070881   14.211247
  H     16.218912   20.651236   14.971145
  H     17.292290   21.024988   16.766834
  H     19.337149   18.442435   19.072712
  H     18.678382   16.813100   17.391886
  H     18.151120   14.715765   18.432597
  H     17.138828   13.423330   20.299213
  H     15.645113   14.575104   21.936049
  H     14.739067   16.477979   22.524549
  H     16.193874   18.293389   19.846191

 Total Charge           Charge          ....    0
 Multiplicity           Mult            ....    1
 Number of Electrons    NEL             ....  154
 Basis Dimension        Dim             ....  828

ORBITAL ENERGIES
----------------

  NO   OCC          E(Eh)            E(eV)
   0   2.0000     -91.887207     -2500.3780
   1   2.0000     -20.601249      -560.5885
   2   2.0000     -20.591247      -560.3163
   3   2.0000     -20.545832      -559.0805
   4   2.0000     -15.627329      -425.2412
   5   2.0000     -15.604961      -424.6326
   6   2.0000     -11.397907      -310.1528
   7   2.0000     -11.381709      -309.7120
   8   2.0000     -11.336456      -308.4807
   9   2.0000     -11.307248      -307.6859
  10   2.0000     -11.305279      -307.6323
  11   2.0000     -11.303556      -307.5854
  12   2.0000     -11.259890      -306.3972
  13   2.0000     -11.258204      -306.3513
  14   2.0000     -11.254475      -306.2498
  15   2.0000     -11.247413      -306.0577
  16   2.0000     -11.237550      -305.7893
  17   2.0000     -11.233550      -305.6804
  18   2.0000     -11.230437      -305.5957
  19   2.0000     -11.223633      -305.4106
  20   2.0000      -8.892300      -241.9718
  21   2.0000      -6.573880      -178.8844
  22   2.0000      -6.571875      -178.8298
  23   2.0000      -6.571289      -178.8139
  24   2.0000      -1.449169       -39.4339
  25   2.0000      -1.410990       -38.3950
  26   2.0000      -1.358144       -36.9570
  27   2.0000      -1.338900       -36.4333
  28   2.0000      -1.236156       -33.6375
  29   2.0000      -1.151729       -31.3401
  30   2.0000      -1.119723       -30.4692
  31   2.0000      -1.041994       -28.3541
  32   2.0000      -1.033774       -28.1304
  33   2.0000      -1.009287       -27.4641
  34   2.0000      -0.997416       -27.1411
  35   2.0000      -0.982383       -26.7320
  36   2.0000      -0.920293       -25.0425
  37   2.0000      -0.894690       -24.3458
  38   2.0000      -0.847223       -23.0541
  39   2.0000      -0.834756       -22.7149
  40   2.0000      -0.827555       -22.5189
  41   2.0000      -0.818410       -22.2701
  42   2.0000      -0.747565       -20.3423
  43   2.0000      -0.730580       -19.8801
  44   2.0000      -0.725345       -19.7376
  45   2.0000      -0.690299       -18.7840
  46   2.0000      -0.684680       -18.6311
  47   2.0000      -0.679439       -18.4885
  48   2.0000      -0.668208       -18.1829
  49   2.0000      -0.665405       -18.1066
  50   2.0000      -0.644302       -17.5324
  51   2.0000      -0.641679       -17.4610
  52   2.0000      -0.632464       -17.2102
  53   2.0000      -0.605087       -16.4652
  54   2.0000      -0.599128       -16.3031
  55   2.0000      -0.597366       -16.2551
  56   2.0000      -0.594219       -16.1695
  57   2.0000      -0.587919       -15.9981
  58   2.0000      -0.572079       -15.5671
  59   2.0000      -0.567999       -15.4560
  60   2.0000      -0.559512       -15.2251
  61   2.0000      -0.545577       -14.8459
  62   2.0000      -0.537239       -14.6190
  63   2.0000      -0.522309       -14.2127
  64   2.0000      -0.515109       -14.0168
  65   2.0000      -0.510479       -13.8908
  66   2.0000      -0.500346       -13.6151
  67   2.0000      -0.493500       -13.4288
  68   2.0000      -0.479647       -13.0519
  69   2.0000      -0.462059       -12.5733
  70   2.0000      -0.457297       -12.4437
  71   2.0000      -0.447087       -12.1659
  72   2.0000      -0.352081        -9.5806
  73   2.0000      -0.343912        -9.3583
  74   2.0000      -0.326345        -8.8803
  75   2.0000      -0.316399        -8.6096
  76   2.0000      -0.313939        -8.5427
  77   0.0000       0.078522         2.1367
  78   0.0000       0.112166         3.0522
  79   0.0000       0.121274         3.3000
  80   0.0000       0.136253         3.7076
  81   0.0000       0.140245         3.8163

MULLIKEN ATOMIC CHARGES
-----------------------
   0 C :   -0.296053
   1 C :    0.046944
   2 O :   -0.353646
   3 C :    0.416545
   4 O :   -0.423898
   5 C :   -0.150107
   6 C :    0.156557
   7 C :   -0.281519
   8 N :   -0.129001
   9 C :    0.207828
  10 S :   -0.443835
  11 N :   -0.210815
  12 C :    0.038667
  13 C :    0.033240
  14 C :   -0.168802
  15 C :   -0.134640
  16 C :   -0.277160
  17 C :    0.313991
  18 O :   -0.358956
  19 C :   -0.249996
  20 H :    0.093700
  21 H :    0.094573
  22 H :    0.126016
  23 H :    0.100285
  24 H :    0.091312
  25 H :    0.129813
  26 H :    0.122997
  27 H :    0.101806
  28 H :    0.198608
  29 H :    0.199763
  30 H :    0.155613
  31 H :    0.159170
  32 H :    0.159669
  33 H :    0.128033
  34 H :    0.239785
  35 H :    0.163514
Sum of atomic charges:   -0.0000000

LOEWDIN ATOMIC CHARGES
----------------------
   0 C :    0.103120
   1 C :   -0.011281
   2 O :    0.296134
   3 C :   -0.412777
   4 O :    0.113186
   5 C :   -0.090229
   6 C :   -0.065323
   7 C :    0.124666
   8 N :    0.405081
   9 C :   -0.458772
  10 S :   -0.038770
  11 N :    0.396416
  12 C :   -0.048124
  13 C :   -0.040363
  14 C :    0.024308
  15 C :    0.040653
  16 C :   -0.001292
  17 C :   -0.192370
  18 O :    0.393132
  19 C :    0.030019
  20 H :   -0.027468
  21 H :   -0.029426
  22 H :   -0.025694
  23 H :   -0.024644
  24 H :   -0.028251
  25 H :   -0.009309
  26 H :   -0.010138
  27 H :   -0.021341
  28 H :   -0.058965
  29 H :   -0.063207
  30 H :   -0.008561
  31 H :   -0.024203
  32 H :   -0.021223
  33 H :   -0.036261
  34 H :   -0.154972
  35 H :   -0.023749

  Mayer bond orders larger than 0.100000
B(  0-C ,  1-C ) :   0.9680 B(  0-C , 20-H ) :   0.9759 B(  0-C , 21-H ) :   0.9766
B(  0-C , 22-H ) :   0.9711 B(  1-C ,  2-O ) :   0.9084 B(  1-C , 23-H ) :   0.9844
B(  1-C , 24-H ) :   0.9802 B(  2-O ,  3-C ) :   1.1284 B(  3-C ,  4-O ) :   1.9764
B(  3-C ,  5-C ) :   1.0520 B(  5-C ,  6-C ) :   1.6550 B(  5-C , 12-C ) :   0.9470
B(  6-C ,  7-C ) :   0.9541 B(  6-C ,  8-N ) :   1.1324 B(  7-C , 25-H ) :   0.9628
B(  7-C , 26-H ) :   0.9661 B(  7-C , 27-H ) :   0.9917 B(  8-N ,  9-C ) :   1.1867
B(  8-N , 28-H ) :   0.9472 B(  9-C , 10-S ) :   1.6068 B(  9-C , 11-N ) :   1.3059
B( 11-N , 12-C ) :   0.9765 B( 11-N , 29-H ) :   0.9485 B( 12-C , 13-C ) :   0.9742
B( 12-C , 30-H ) :   0.9969 B( 13-C , 14-C ) :   1.3762 B( 13-C , 19-C ) :   1.3668
B( 14-C , 15-C ) :   1.3973 B( 14-C , 31-H ) :   0.9638 B( 15-C , 16-C ) :   1.3589
B( 15-C , 32-H ) :   0.9713 B( 16-C , 17-C ) :   1.3332 B( 16-C , 33-H ) :   0.9861
B( 17-C , 18-O ) :   1.1033 B( 17-C , 19-C ) :   1.3674 B( 18-O , 34-H ) :   0.9808
B( 19-C , 35-H ) :   0.9600

MP2 TOTAL ENERGY:    -1274.333894707 Eh
FINAL SINGLE POINT ENERGY     -1274.333894706643

DIPOLE MOMENT
-------------
                                X             Y             Z
Electronic contribution:      8.76124      10.08883      12.24850
Nuclear contribution   :    -10.38256     -11.28880     -13.27625
                        -----------------------------------------
Total Dipole Moment    :     -1.62132      -1.19997      -1.02775
                        -----------------------------------------
Magnitude (a.u.)       :      2.26382
Magnitude (Debye)      :      5.75416

Rotational constants in cm-1:     0.009899     0.008985     0.005501
Rotational constants in MHz :   296.770242   269.355082   164.911189

                             ****ORCA TERMINATED NORMALLY****
TOTAL RUN TIME: 0 days 1 hours 46 minutes 27 seconds 657 msec
