                         Program Version 4.2.0 -  RELEASE  -
|  1> ! ri-mp2 cc-pvtz cc-pvtz/c TightSCF NoKeepInts
|  2>
|  3> %scf
|  4>   MaxCore 4096
|  5> end
|  6> *xyz  0  1
|  7>     C       15.2535260   14.2453181   14.5458406
|  8>     C       14.9668981   15.2924981   15.6346786
|  9>     O       16.1070753   16.1658587   15.7014686
| 10>     C       15.9159920   17.5160079   15.6416636
| 11>     O       15.0892063   18.0160935   14.8985046
| 12>     C       16.7384476   18.2645033   16.6558334
| 13>     C       16.8739440   19.6134562   16.5817660
| 14>     C       16.0800171   20.5666109   15.7124907
| 15>     N       17.8343791   20.2831150   17.3433890
| 16>     C       18.8222193   19.6646993   18.0609908
| 17>     S       19.9864722   20.5201088   18.8662383
| 18>     N       18.8097885   18.2928272   18.0609044
| 19>     C       17.7578032   17.4464256   17.4667914
| 20>     C       17.1286432   16.4960205   18.4774256
| 21>     C       17.3783599   15.1127777   18.4117631
| 22>     C       16.7919603   14.2369791   19.3408380
| 23>     C       15.9528182   14.7495751   20.3451353
| 24>     C       15.7070364   16.1279577   20.4154372
| 25>     O       14.8979123   16.6254784   21.3842573
| 26>     C       16.2909203   16.9968231   19.4882506
| 27>     H       14.4186592   13.5391683   14.4615758
| 28>     H       16.1623385   13.6785333   14.7827803
| 29>     H       15.3911791   14.7317931   13.5718824
| 30>     H       14.0480154   15.8389567   15.3811621
| 31>     H       14.8173234   14.8000665   16.6045619
| 32>     H       15.0031429   20.4341478   15.8784093
| 33>     H       16.2737619   20.3736479   14.6495946
| 34>     H       16.3126488   21.6204887   15.9053641
| 35>     H       17.8682961   21.2899916   17.3336467
| 36>     H       19.5329652   17.8652409   18.6253949
| 37>     H       18.3486743   16.8885777   16.7263250
| 38>     H       18.0223067   14.7154183   17.6315041
| 39>     H       16.9890318   13.1679187   19.2815748
| 40>     H       15.4985849   14.0774866   21.0658301
| 41>     H       14.6227056   15.8841196   21.9442525
| 42>     H       16.0939469   18.0613101   19.5604742
| 43> *
| 44>
| 45>                          ****END OF INPUT****

CARTESIAN COORDINATES (ANGSTROEM)
---------------------------------
  C     15.253526   14.245318   14.545841
  C     14.966898   15.292498   15.634679
  O     16.107075   16.165859   15.701469
  C     15.915992   17.516008   15.641664
  O     15.089206   18.016094   14.898505
  C     16.738448   18.264503   16.655833
  C     16.873944   19.613456   16.581766
  C     16.080017   20.566611   15.712491
  N     17.834379   20.283115   17.343389
  C     18.822219   19.664699   18.060991
  S     19.986472   20.520109   18.866238
  N     18.809788   18.292827   18.060904
  C     17.757803   17.446426   17.466791
  C     17.128643   16.496021   18.477426
  C     17.378360   15.112778   18.411763
  C     16.791960   14.236979   19.340838
  C     15.952818   14.749575   20.345135
  C     15.707036   16.127958   20.415437
  O     14.897912   16.625478   21.384257
  C     16.290920   16.996823   19.488251
  H     14.418659   13.539168   14.461576
  H     16.162339   13.678533   14.782780
  H     15.391179   14.731793   13.571882
  H     14.048015   15.838957   15.381162
  H     14.817323   14.800066   16.604562
  H     15.003143   20.434148   15.878409
  H     16.273762   20.373648   14.649595
  H     16.312649   21.620489   15.905364
  H     17.868296   21.289992   17.333647
  H     19.532965   17.865241   18.625395
  H     18.348674   16.888578   16.726325
  H     18.022307   14.715418   17.631504
  H     16.989032   13.167919   19.281575
  H     15.498585   14.077487   21.065830
  H     14.622706   15.884120   21.944253
  H     16.093947   18.061310   19.560474

 Total Charge           Charge          ....    0
 Multiplicity           Mult            ....    1
 Number of Electrons    NEL             ....  154
 Basis Dimension        Dim             ....  828

ORBITAL ENERGIES
----------------

  NO   OCC          E(Eh)            E(eV)
   0   2.0000     -91.889644     -2500.4443
   1   2.0000     -20.598256      -560.5070
   2   2.0000     -20.593563      -560.3793
   3   2.0000     -20.542866      -558.9998
   4   2.0000     -15.630067      -425.3158
   5   2.0000     -15.607758      -424.7087
   6   2.0000     -11.393912      -310.0441
   7   2.0000     -11.384307      -309.7827
   8   2.0000     -11.338035      -308.5236
   9   2.0000     -11.315743      -307.9170
  10   2.0000     -11.308352      -307.7159
  11   2.0000     -11.294636      -307.3427
  12   2.0000     -11.262563      -306.4699
  13   2.0000     -11.258538      -306.3604
  14   2.0000     -11.257147      -306.3225
  15   2.0000     -11.252263      -306.1896
  16   2.0000     -11.245557      -306.0072
  17   2.0000     -11.240835      -305.8787
  18   2.0000     -11.240470      -305.8687
  19   2.0000     -11.226062      -305.4767
  20   2.0000      -8.894706      -242.0373
  21   2.0000      -6.576276      -178.9496
  22   2.0000      -6.574280      -178.8953
  23   2.0000      -6.573687      -178.8791
  24   2.0000      -1.450032       -39.4574
  25   2.0000      -1.417928       -38.5838
  26   2.0000      -1.353929       -36.8423
  27   2.0000      -1.341083       -36.4927
  28   2.0000      -1.238998       -33.7149
  29   2.0000      -1.159339       -31.5472
  30   2.0000      -1.121797       -30.5256
  31   2.0000      -1.044230       -28.4150
  32   2.0000      -1.037472       -28.2310
  33   2.0000      -1.016953       -27.6727
  34   2.0000      -0.996826       -27.1250
  35   2.0000      -0.985295       -26.8112
  36   2.0000      -0.922834       -25.1116
  37   2.0000      -0.885466       -24.0948
  38   2.0000      -0.847334       -23.0571
  39   2.0000      -0.839473       -22.8432
  40   2.0000      -0.835987       -22.7484
  41   2.0000      -0.821566       -22.3560
  42   2.0000      -0.763127       -20.7657
  43   2.0000      -0.735105       -20.0032
  44   2.0000      -0.723246       -19.6805
  45   2.0000      -0.696894       -18.9635
  46   2.0000      -0.688857       -18.7448
  47   2.0000      -0.678947       -18.4751
  48   2.0000      -0.673111       -18.3163
  49   2.0000      -0.652690       -17.7606
  50   2.0000      -0.648694       -17.6519
  51   2.0000      -0.640388       -17.4258
  52   2.0000      -0.626704       -17.0535
  53   2.0000      -0.619314       -16.8524
  54   2.0000      -0.608439       -16.5565
  55   2.0000      -0.601443       -16.3661
  56   2.0000      -0.600336       -16.3360
  57   2.0000      -0.579050       -15.7568
  58   2.0000      -0.570813       -15.5326
  59   2.0000      -0.566340       -15.4109
  60   2.0000      -0.563607       -15.3365
  61   2.0000      -0.542051       -14.7500
  62   2.0000      -0.533944       -14.5293
  63   2.0000      -0.525601       -14.3023
  64   2.0000      -0.523309       -14.2400
  65   2.0000      -0.514190       -13.9918
  66   2.0000      -0.501564       -13.6482
  67   2.0000      -0.496574       -13.5125
  68   2.0000      -0.487338       -13.2611
  69   2.0000      -0.464316       -12.6347
  70   2.0000      -0.454920       -12.3790
  71   2.0000      -0.447742       -12.1837
  72   2.0000      -0.353712        -9.6250
  73   2.0000      -0.351493        -9.5646
  74   2.0000      -0.328853        -8.9486
  75   2.0000      -0.323188        -8.7944
  76   2.0000      -0.318880        -8.6772
  77   0.0000       0.074264         2.0208
  78   0.0000       0.103126         2.8062
  79   0.0000       0.124233         3.3806
  80   0.0000       0.131469         3.5775
  81   0.0000       0.134688         3.6650

MULLIKEN ATOMIC CHARGES
-----------------------
   0 C :   -0.263302
   1 C :    0.018553
   2 O :   -0.364295
   3 C :    0.455407
   4 O :   -0.426648
   5 C :   -0.248991
   6 C :    0.176559
   7 C :   -0.266865
   8 N :   -0.126387
   9 C :    0.210095
  10 S :   -0.440577
  11 N :   -0.215957
  12 C :    0.068668
  13 C :    0.039450
  14 C :   -0.193186
  15 C :   -0.131088
  16 C :   -0.277902
  17 C :    0.316138
  18 O :   -0.356075
  19 C :   -0.247376
  20 H :    0.087895
  21 H :    0.089908
  22 H :    0.102322
  23 H :    0.113553
  24 H :    0.114082
  25 H :    0.133596
  26 H :    0.129656
  27 H :    0.094693
  28 H :    0.199903
  29 H :    0.200649
  30 H :    0.152848
  31 H :    0.155851
  32 H :    0.162723
  33 H :    0.131530
  34 H :    0.240797
  35 H :    0.163770
Sum of atomic charges:   -0.0000000

LOEWDIN ATOMIC CHARGES
----------------------
   0 C :    0.105841
   1 C :   -0.015918
   2 O :    0.307303
   3 C :   -0.417436
   4 O :    0.100146
   5 C :   -0.097971
   6 C :   -0.055464
   7 C :    0.131653
   8 N :    0.407410
   9 C :   -0.456368
  10 S :   -0.035507
  11 N :    0.394517
  12 C :   -0.054662
  13 C :   -0.039552
  14 C :    0.017353
  15 C :    0.038319
  16 C :   -0.001306
  17 C :   -0.189735
  18 O :    0.395441
  19 C :    0.032944
  20 H :   -0.027124
  21 H :   -0.030097
  22 H :   -0.023989
  23 H :   -0.027918
  24 H :   -0.030264
  25 H :   -0.004200
  26 H :   -0.004646
  27 H :   -0.023544
  28 H :   -0.057030
  29 H :   -0.064364
  30 H :   -0.013000
  31 H :   -0.028690
  32 H :   -0.020996
  33 H :   -0.035122
  34 H :   -0.153635
  35 H :   -0.022387

  Mayer bond orders larger than 0.100000
B(  0-C ,  1-C ) :   0.9787 B(  0-C , 20-H ) :   0.9762 B(  0-C , 21-H ) :   0.9797
B(  0-C , 22-H ) :   0.9785 B(  1-C ,  2-O ) :   0.8777 B(  1-C , 23-H ) :   0.9732
B(  1-C , 24-H ) :   0.9724 B(  2-O ,  3-C ) :   1.1334 B(  3-C ,  4-O ) :   1.9851
B(  3-C ,  5-C ) :   1.0709 B(  5-C ,  6-C ) :   1.6327 B(  5-C , 12-C ) :   0.9545
B(  6-C ,  7-C ) :   0.9652 B(  6-C ,  8-N ) :   1.1539 B(  7-C , 25-H ) :   0.9608
B(  7-C , 26-H ) :   0.9588 B(  7-C , 27-H ) :   0.9905 B(  8-N ,  9-C ) :   1.1866
B(  8-N , 28-H ) :   0.9463 B(  9-C , 10-S ) :   1.6074 B(  9-C , 11-N ) :   1.3090
B( 11-N , 12-C ) :   0.9689 B( 11-N , 29-H ) :   0.9485 B( 12-C , 13-C ) :   0.9606
B( 12-C , 30-H ) :   1.0011 B( 13-C , 14-C ) :   1.3509 B( 13-C , 19-C ) :   1.3803
B( 14-C , 15-C ) :   1.3910 B( 14-C , 31-H ) :   0.9717 B( 15-C , 16-C ) :   1.3578
B( 15-C , 32-H ) :   0.9704 B( 16-C , 17-C ) :   1.3333 B( 16-C , 33-H ) :   0.9847
B( 17-C , 18-O ) :   1.1058 B( 17-C , 19-C ) :   1.3646 B( 18-O , 34-H ) :   0.9796
B( 19-C , 35-H ) :   0.9592

MP2 TOTAL ENERGY:    -1274.337805479 Eh
FINAL SINGLE POINT ENERGY     -1274.337805479172

DIPOLE MOMENT
-------------
                                X             Y             Z
Electronic contribution:      9.03456      10.85633       8.96981
Nuclear contribution   :    -10.18406     -12.45165      -9.10966
                        -----------------------------------------
Total Dipole Moment    :     -1.14950      -1.59531      -0.13986
                        -----------------------------------------
Magnitude (a.u.)       :      1.97128
Magnitude (Debye)      :      5.01059

Rotational constants in cm-1:     0.011434     0.008438     0.005888
Rotational constants in MHz :   342.781896   252.961328   176.509796

                             ****ORCA TERMINATED NORMALLY****
TOTAL RUN TIME: 0 days 1 hours 41 minutes 54 seconds 22 msec
