                         Program Version 4.2.0 -  RELEASE  -
|  1> ! ri-mp2 cc-pvtz cc-pvtz/c TightSCF NoKeepInts
|  2>
|  3> %scf
|  4>   MaxCore 4096
|  5> end
|  6> *xyz  0  1
|  7>     C       14.8060440   15.2417316   16.0158603
|  8>     C       14.9666903   16.0041039   14.6787799
|  9>     O       16.2277940   16.7042555   14.5497687
| 10>     C       17.1852588   16.6455541   15.5186568
| 11>     O       17.9078908   15.6719317   15.6417116
| 12>     C       17.1791584   17.7917334   16.4870597
| 13>     C       16.8861386   19.0631300   16.1101186
| 14>     C       16.3243315   19.5291845   14.7817265
| 15>     N       17.1481196   20.1370822   16.9644024
| 16>     C       17.8938909   20.0507813   18.1093935
| 17>     S       18.2520577   21.3845566   19.0192465
| 18>     N       18.3457549   18.8010430   18.4515383
| 19>     C       17.9709786   17.5437834   17.7751140
| 20>     C       17.3024590   16.5328628   18.6971652
| 21>     C       17.7831124   15.2139813   18.7829029
| 22>     C       17.1543844   14.2770899   19.6198861
| 23>     C       16.0353787   14.6626012   20.3777738
| 24>     C       15.5528530   15.9757513   20.2923953
| 25>     O       14.4674086   16.3485580   21.0160844
| 26>     C       16.1803231   16.9058746   19.4575593
| 27>     H       15.5758016   14.4673237   16.1294578
| 28>     H       13.8298229   14.7433599   16.0509258
| 29>     H       14.8619863   15.9226050   16.8743196
| 30>     H       14.8763002   15.2862225   13.8530841
| 31>     H       14.1447771   16.7243044   14.5772412
| 32>     H       15.2926619   19.1809772   14.6516062
| 33>     H       16.9212635   19.1401144   13.9469491
| 34>     H       16.3167892   20.6217305   14.6841983
| 35>     H       16.8448750   21.0646267   16.7138668
| 36>     H       18.8787110   18.7620891   19.3112791
| 37>     H       18.9610231   17.1851839   17.4570294
| 38>     H       18.6379019   14.9104480   18.1825523
| 39>     H       17.5319756   13.2574501   19.6729488
| 40>     H       15.5456301   13.9413859   21.0235747
| 41>     H       14.2053148   15.5890130   21.5578269
| 42>     H       15.7921385   17.9175753   19.4039961
| 43> *
| 44>
| 45>                          ****END OF INPUT****

CARTESIAN COORDINATES (ANGSTROEM)
---------------------------------
  C     14.806044   15.241732   16.015860
  C     14.966690   16.004104   14.678780
  O     16.227794   16.704255   14.549769
  C     17.185259   16.645554   15.518657
  O     17.907891   15.671932   15.641712
  C     17.179158   17.791733   16.487060
  C     16.886139   19.063130   16.110119
  C     16.324331   19.529184   14.781726
  N     17.148120   20.137082   16.964402
  C     17.893891   20.050781   18.109393
  S     18.252058   21.384557   19.019247
  N     18.345755   18.801043   18.451538
  C     17.970979   17.543783   17.775114
  C     17.302459   16.532863   18.697165
  C     17.783112   15.213981   18.782903
  C     17.154384   14.277090   19.619886
  C     16.035379   14.662601   20.377774
  C     15.552853   15.975751   20.292395
  O     14.467409   16.348558   21.016084
  C     16.180323   16.905875   19.457559
  H     15.575802   14.467324   16.129458
  H     13.829823   14.743360   16.050926
  H     14.861986   15.922605   16.874320
  H     14.876300   15.286222   13.853084
  H     14.144777   16.724304   14.577241
  H     15.292662   19.180977   14.651606
  H     16.921263   19.140114   13.946949
  H     16.316789   20.621731   14.684198
  H     16.844875   21.064627   16.713867
  H     18.878711   18.762089   19.311279
  H     18.961023   17.185184   17.457029
  H     18.637902   14.910448   18.182552
  H     17.531976   13.257450   19.672949
  H     15.545630   13.941386   21.023575
  H     14.205315   15.589013   21.557827
  H     15.792138   17.917575   19.403996

 Total Charge           Charge          ....    0
 Multiplicity           Mult            ....    1
 Number of Electrons    NEL             ....  154
 Basis Dimension        Dim             ....  828

ORBITAL ENERGIES
----------------

  NO   OCC          E(Eh)            E(eV)
   0   2.0000     -91.889567     -2500.4422
   1   2.0000     -20.595583      -560.4343
   2   2.0000     -20.584179      -560.1240
   3   2.0000     -20.551090      -559.2236
   4   2.0000     -15.630159      -425.3183
   5   2.0000     -15.607287      -424.6959
   6   2.0000     -11.394533      -310.0610
   7   2.0000     -11.384348      -309.7839
   8   2.0000     -11.339045      -308.5511
   9   2.0000     -11.311914      -307.8128
  10   2.0000     -11.307460      -307.6916
  11   2.0000     -11.305553      -307.6397
  12   2.0000     -11.260946      -306.4259
  13   2.0000     -11.259735      -306.3930
  14   2.0000     -11.258605      -306.3622
  15   2.0000     -11.251828      -306.1778
  16   2.0000     -11.241913      -305.9080
  17   2.0000     -11.237804      -305.7962
  18   2.0000     -11.234217      -305.6986
  19   2.0000     -11.229575      -305.5723
  20   2.0000      -8.894643      -242.0355
  21   2.0000      -6.576217      -178.9480
  22   2.0000      -6.574216      -178.8935
  23   2.0000      -6.573625      -178.8774
  24   2.0000      -1.446297       -39.3558
  25   2.0000      -1.415377       -38.5144
  26   2.0000      -1.355324       -36.8802
  27   2.0000      -1.341227       -36.4967
  28   2.0000      -1.238446       -33.6998
  29   2.0000      -1.156074       -31.4584
  30   2.0000      -1.122245       -30.5378
  31   2.0000      -1.044297       -28.4168
  32   2.0000      -1.032450       -28.0944
  33   2.0000      -1.013754       -27.5856
  34   2.0000      -1.001724       -27.2583
  35   2.0000      -0.986713       -26.8498
  36   2.0000      -0.923550       -25.1311
  37   2.0000      -0.897679       -24.4271
  38   2.0000      -0.850005       -23.1298
  39   2.0000      -0.838414       -22.8144
  40   2.0000      -0.831879       -22.6366
  41   2.0000      -0.820981       -22.3400
  42   2.0000      -0.743869       -20.2417
  43   2.0000      -0.730267       -19.8716
  44   2.0000      -0.727180       -19.7876
  45   2.0000      -0.692637       -18.8476
  46   2.0000      -0.686658       -18.6849
  47   2.0000      -0.677158       -18.4264
  48   2.0000      -0.675006       -18.3679
  49   2.0000      -0.663985       -18.0679
  50   2.0000      -0.650133       -17.6910
  51   2.0000      -0.647450       -17.6180
  52   2.0000      -0.634510       -17.2659
  53   2.0000      -0.624971       -17.0063
  54   2.0000      -0.605932       -16.4883
  55   2.0000      -0.601552       -16.3691
  56   2.0000      -0.599114       -16.3027
  57   2.0000      -0.578642       -15.7456
  58   2.0000      -0.575226       -15.6527
  59   2.0000      -0.564302       -15.3554
  60   2.0000      -0.553146       -15.0519
  61   2.0000      -0.545877       -14.8541
  62   2.0000      -0.538332       -14.6488
  63   2.0000      -0.531408       -14.4603
  64   2.0000      -0.519167       -14.1272
  65   2.0000      -0.510948       -13.9036
  66   2.0000      -0.498805       -13.5732
  67   2.0000      -0.493780       -13.4364
  68   2.0000      -0.482056       -13.1174
  69   2.0000      -0.465837       -12.6761
  70   2.0000      -0.456935       -12.4338
  71   2.0000      -0.448928       -12.2159
  72   2.0000      -0.354402        -9.6438
  73   2.0000      -0.347860        -9.4658
  74   2.0000      -0.328654        -8.9431
  75   2.0000      -0.319233        -8.6868
  76   2.0000      -0.318340        -8.6625
  77   0.0000       0.072836         1.9820
  78   0.0000       0.106133         2.8880
  79   0.0000       0.120032         3.2662
  80   0.0000       0.132507         3.6057
  81   0.0000       0.138298         3.7633

MULLIKEN ATOMIC CHARGES
-----------------------
   0 C :   -0.329912
   1 C :    0.056207
   2 O :   -0.389925
   3 C :    0.493671
   4 O :   -0.397980
   5 C :   -0.239839
   6 C :    0.155433
   7 C :   -0.284572
   8 N :   -0.127323
   9 C :    0.206486
  10 S :   -0.440309
  11 N :   -0.213441
  12 C :    0.055150
  13 C :    0.022190
  14 C :   -0.179296
  15 C :   -0.135078
  16 C :   -0.275543
  17 C :    0.320335
  18 O :   -0.359322
  19 C :   -0.260570
  20 H :    0.123418
  21 H :    0.111990
  22 H :    0.107605
  23 H :    0.109271
  24 H :    0.087914
  25 H :    0.121486
  26 H :    0.132400
  27 H :    0.105095
  28 H :    0.198607
  29 H :    0.199653
  30 H :    0.157489
  31 H :    0.166779
  32 H :    0.162433
  33 H :    0.130468
  34 H :    0.240517
  35 H :    0.168512
Sum of atomic charges:    0.0000000

LOEWDIN ATOMIC CHARGES
----------------------
   0 C :    0.107333
   1 C :   -0.011865
   2 O :    0.285884
   3 C :   -0.423408
   4 O :    0.123662
   5 C :   -0.097798
   6 C :   -0.066889
   7 C :    0.126723
   8 N :    0.405605
   9 C :   -0.458073
  10 S :   -0.036251
  11 N :    0.396206
  12 C :   -0.048400
  13 C :   -0.042027
  14 C :    0.024976
  15 C :    0.042002
  16 C :   -0.001013
  17 C :   -0.193652
  18 O :    0.393772
  19 C :    0.028301
  20 H :   -0.021665
  21 H :   -0.023052
  22 H :   -0.028339
  23 H :   -0.025380
  24 H :   -0.033187
  25 H :   -0.011078
  26 H :   -0.006361
  27 H :   -0.020224
  28 H :   -0.058388
  29 H :   -0.063468
  30 H :   -0.007096
  31 H :   -0.022971
  32 H :   -0.020138
  33 H :   -0.035553
  34 H :   -0.154139
  35 H :   -0.024049

  Mayer bond orders larger than 0.100000
B(  0-C ,  1-C ) :   0.9640 B(  0-C , 20-H ) :   0.9685 B(  0-C , 21-H ) :   0.9745
B(  0-C , 22-H ) :   0.9683 B(  1-C ,  2-O ) :   0.9021 B(  1-C , 23-H ) :   0.9831
B(  1-C , 24-H ) :   0.9777 B(  2-O ,  3-C ) :   1.0683 B(  3-C ,  4-O ) :   2.0366
B(  3-C ,  5-C ) :   1.0165 B(  5-C ,  6-C ) :   1.6747 B(  5-C , 12-C ) :   0.9470
B(  6-C ,  7-C ) :   0.9503 B(  6-C ,  8-N ) :   1.1401 B(  7-C , 25-H ) :   0.9669
B(  7-C , 26-H ) :   0.9645 B(  7-C , 27-H ) :   0.9897 B(  8-N ,  9-C ) :   1.1847
B(  8-N , 28-H ) :   0.9471 B(  9-C , 10-S ) :   1.6115 B(  9-C , 11-N ) :   1.3029
B( 11-N , 12-C ) :   0.9808 B( 11-N , 29-H ) :   0.9487 B( 12-C , 13-C ) :   0.9665
B( 12-C , 30-H ) :   0.9957 B( 13-C , 14-C ) :   1.3831 B( 13-C , 19-C ) :   1.3566
B( 14-C , 15-C ) :   1.3962 B( 14-C , 31-H ) :   0.9603 B( 15-C , 16-C ) :   1.3596
B( 15-C , 32-H ) :   0.9704 B( 16-C , 17-C ) :   1.3327 B( 16-C , 33-H ) :   0.9850
B( 17-C , 18-O ) :   1.1056 B( 17-C , 19-C ) :   1.3596 B( 18-O , 34-H ) :   0.9802
B( 19-C , 35-H ) :   0.9603

MP2 TOTAL ENERGY:    -1274.324829329 Eh
FINAL SINGLE POINT ENERGY     -1274.324829329291

DIPOLE MOMENT
-------------
                                X             Y             Z
Electronic contribution:      9.00649       9.15164       7.37058
Nuclear contribution   :    -10.49585     -10.37838      -8.09257
                        -----------------------------------------
Total Dipole Moment    :     -1.48935      -1.22674      -0.72199
                        -----------------------------------------
Magnitude (a.u.)       :      2.06018
Magnitude (Debye)      :      5.23656

Rotational constants in cm-1:     0.011302     0.009289     0.006232
Rotational constants in MHz :   338.838526   278.478639   186.821013

                             ****ORCA TERMINATED NORMALLY****
TOTAL RUN TIME: 0 days 2 hours 1 minutes 50 seconds 780 msec
