                         Program Version 4.2.0 -  RELEASE  -
|  1> ! ri-mp2 cc-pvtz cc-pvtz/c TightSCF NoKeepInts
|  2>
|  3> %scf
|  4>   MaxCore 4096
|  5> end
|  6> *xyz  0  1
|  7>     C       14.5885516   15.9499306   16.2829549
|  8>     C       15.5870380   15.1173897   15.4532776
|  9>     O       16.9622821   15.5527576   15.5587640
| 10>     C       17.3076270   16.8291001   15.2277774
| 11>     O       17.5948194   17.1063563   14.0776336
| 12>     C       17.1396113   17.8380262   16.3282133
| 13>     C       16.9501097   19.1423743   16.0062348
| 14>     C       16.4662175   19.6857504   14.6779759
| 15>     N       17.1803832   20.1591454   16.9344368
| 16>     C       17.8478868   19.9817634   18.1158148
| 17>     S       18.2088886   21.2468183   19.1178381
| 18>     N       18.2258649   18.6968957   18.4147191
| 19>     C       17.8190425   17.4903036   17.6664553
| 20>     C       17.1344116   16.4535635   18.5477666
| 21>     C       17.5498291   15.1092251   18.5300824
| 22>     C       16.9324075   14.1589647   19.3604508
| 23>     C       15.8992864   14.5580965   20.2254847
| 24>     C       15.4933846   15.8991943   20.2574427
| 25>     O       14.4964271   16.2875840   21.0913844
| 26>     C       16.1076141   16.8424799   19.4273361
| 27>     H       14.7847772   15.8462093   17.3527195
| 28>     H       13.5690292   15.5859941   16.1070255
| 29>     H       14.6067258   17.0108047   16.0095951
| 30>     H       15.5222812   14.0687563   15.7712075
| 31>     H       15.2852016   15.1567609   14.3979177
| 32>     H       17.3052840   19.7871237   13.9772160
| 33>     H       15.9831830   20.6654238   14.7733465
| 34>     H       15.7367589   19.0083078   14.2169336
| 35>     H       16.9447701   21.1114908   16.7046526
| 36>     H       18.7051084   18.5938460   19.3006319
| 37>     H       18.8163891   17.1243806   17.3829279
| 38>     H       18.3483443   14.7978863   17.8610954
| 39>     H       17.2568107   13.1200363   19.3330853
| 40>     H       15.4204193   13.8276032   20.8693358
| 41>     H       14.2309083   15.5134617   21.6104137
| 42>     H       15.7793256   17.8761949   19.4678524
| 43> *
| 44>
| 45>                          ****END OF INPUT****

CARTESIAN COORDINATES (ANGSTROEM)
---------------------------------
  C     14.588552   15.949931   16.282955
  C     15.587038   15.117390   15.453278
  O     16.962282   15.552758   15.558764
  C     17.307627   16.829100   15.227777
  O     17.594819   17.106356   14.077634
  C     17.139611   17.838026   16.328213
  C     16.950110   19.142374   16.006235
  C     16.466217   19.685750   14.677976
  N     17.180383   20.159145   16.934437
  C     17.847887   19.981763   18.115815
  S     18.208889   21.246818   19.117838
  N     18.225865   18.696896   18.414719
  C     17.819042   17.490304   17.666455
  C     17.134412   16.453564   18.547767
  C     17.549829   15.109225   18.530082
  C     16.932408   14.158965   19.360451
  C     15.899286   14.558096   20.225485
  C     15.493385   15.899194   20.257443
  O     14.496427   16.287584   21.091384
  C     16.107614   16.842480   19.427336
  H     14.784777   15.846209   17.352719
  H     13.569029   15.585994   16.107025
  H     14.606726   17.010805   16.009595
  H     15.522281   14.068756   15.771207
  H     15.285202   15.156761   14.397918
  H     17.305284   19.787124   13.977216
  H     15.983183   20.665424   14.773346
  H     15.736759   19.008308   14.216934
  H     16.944770   21.111491   16.704653
  H     18.705108   18.593846   19.300632
  H     18.816389   17.124381   17.382928
  H     18.348344   14.797886   17.861095
  H     17.256811   13.120036   19.333085
  H     15.420419   13.827603   20.869336
  H     14.230908   15.513462   21.610414
  H     15.779326   17.876195   19.467852

 Total Charge           Charge          ....    0
 Multiplicity           Mult            ....    1
 Number of Electrons    NEL             ....  154
 Basis Dimension        Dim             ....  828

ORBITAL ENERGIES
----------------

  NO   OCC          E(Eh)            E(eV)
   0   2.0000     -91.890903     -2500.4786
   1   2.0000     -20.599625      -560.5443
   2   2.0000     -20.581742      -560.0577
   3   2.0000     -20.554732      -559.3227
   4   2.0000     -15.629324      -425.2955
   5   2.0000     -15.609691      -424.7613
   6   2.0000     -11.394120      -310.0498
   7   2.0000     -11.385383      -309.8120
   8   2.0000     -11.334697      -308.4328
   9   2.0000     -11.316988      -307.9509
  10   2.0000     -11.313947      -307.8682
  11   2.0000     -11.303834      -307.5930
  12   2.0000     -11.264908      -306.5337
  13   2.0000     -11.258372      -306.3559
  14   2.0000     -11.258164      -306.3502
  15   2.0000     -11.255278      -306.2717
  16   2.0000     -11.247549      -306.0614
  17   2.0000     -11.242444      -305.9225
  18   2.0000     -11.241602      -305.8995
  19   2.0000     -11.226685      -305.4936
  20   2.0000      -8.895953      -242.0712
  21   2.0000      -6.577521      -178.9834
  22   2.0000      -6.575527      -178.9292
  23   2.0000      -6.574931      -178.9130
  24   2.0000      -1.447239       -39.3814
  25   2.0000      -1.419473       -38.6258
  26   2.0000      -1.355442       -36.8835
  27   2.0000      -1.341755       -36.5110
  28   2.0000      -1.240425       -33.7537
  29   2.0000      -1.160751       -31.5856
  30   2.0000      -1.122977       -30.5578
  31   2.0000      -1.046153       -28.4673
  32   2.0000      -1.033973       -28.1358
  33   2.0000      -1.018802       -27.7230
  34   2.0000      -1.002193       -27.2711
  35   2.0000      -0.988483       -26.8980
  36   2.0000      -0.924928       -25.1686
  37   2.0000      -0.895702       -24.3733
  38   2.0000      -0.848960       -23.1014
  39   2.0000      -0.841881       -22.9088
  40   2.0000      -0.837489       -22.7892
  41   2.0000      -0.821114       -22.3436
  42   2.0000      -0.751656       -20.4536
  43   2.0000      -0.736436       -20.0394
  44   2.0000      -0.725588       -19.7443
  45   2.0000      -0.697694       -18.9852
  46   2.0000      -0.690260       -18.7829
  47   2.0000      -0.674820       -18.3628
  48   2.0000      -0.671953       -18.2848
  49   2.0000      -0.668415       -18.1885
  50   2.0000      -0.649744       -17.6804
  51   2.0000      -0.647735       -17.6258
  52   2.0000      -0.636762       -17.3272
  53   2.0000      -0.612889       -16.6776
  54   2.0000      -0.608461       -16.5571
  55   2.0000      -0.602314       -16.3898
  56   2.0000      -0.600653       -16.3446
  57   2.0000      -0.579753       -15.7759
  58   2.0000      -0.575276       -15.6541
  59   2.0000      -0.566445       -15.4138
  60   2.0000      -0.564555       -15.3623
  61   2.0000      -0.553124       -15.0513
  62   2.0000      -0.541640       -14.7388
  63   2.0000      -0.526612       -14.3299
  64   2.0000      -0.522767       -14.2252
  65   2.0000      -0.514412       -13.9979
  66   2.0000      -0.502463       -13.6727
  67   2.0000      -0.500274       -13.6131
  68   2.0000      -0.478605       -13.0235
  69   2.0000      -0.464543       -12.6409
  70   2.0000      -0.455187       -12.3863
  71   2.0000      -0.450668       -12.2633
  72   2.0000      -0.356155        -9.6915
  73   2.0000      -0.349095        -9.4994
  74   2.0000      -0.329892        -8.9768
  75   2.0000      -0.324667        -8.8346
  76   2.0000      -0.320496        -8.7211
  77   0.0000       0.074340         2.0229
  78   0.0000       0.102107         2.7785
  79   0.0000       0.120292         3.2733
  80   0.0000       0.128170         3.4877
  81   0.0000       0.129856         3.5336

MULLIKEN ATOMIC CHARGES
-----------------------
   0 C :   -0.325276
   1 C :    0.036301
   2 O :   -0.375676
   3 C :    0.458491
   4 O :   -0.375342
   5 C :   -0.239487
   6 C :    0.164911
   7 C :   -0.277190
   8 N :   -0.130019
   9 C :    0.208589
  10 S :   -0.437582
  11 N :   -0.219738
  12 C :    0.034278
  13 C :    0.012853
  14 C :   -0.182561
  15 C :   -0.143814
  16 C :   -0.268881
  17 C :    0.306188
  18 O :   -0.358313
  19 C :   -0.228444
  20 H :    0.122430
  21 H :    0.117675
  22 H :    0.098613
  23 H :    0.114275
  24 H :    0.108008
  25 H :    0.142517
  26 H :    0.096431
  27 H :    0.117834
  28 H :    0.199299
  29 H :    0.202204
  30 H :    0.152793
  31 H :    0.157860
  32 H :    0.164620
  33 H :    0.133417
  34 H :    0.240760
  35 H :    0.171976
Sum of atomic charges:   -0.0000000

LOEWDIN ATOMIC CHARGES
----------------------
   0 C :    0.106459
   1 C :   -0.017528
   2 O :    0.287593
   3 C :   -0.423700
   4 O :    0.131570
   5 C :   -0.096940
   6 C :   -0.066231
   7 C :    0.128545
   8 N :    0.407410
   9 C :   -0.457996
  10 S :   -0.033688
  11 N :    0.396029
  12 C :   -0.052253
  13 C :   -0.043132
  14 C :    0.021941
  15 C :    0.039947
  16 C :   -0.001028
  17 C :   -0.194065
  18 O :    0.396094
  19 C :    0.031082
  20 H :   -0.028022
  21 H :   -0.023386
  22 H :   -0.034695
  23 H :   -0.020234
  24 H :   -0.029425
  25 H :   -0.004207
  26 H :   -0.021954
  27 H :   -0.009616
  28 H :   -0.056871
  29 H :   -0.063561
  30 H :   -0.011505
  31 H :   -0.026534
  32 H :   -0.019771
  33 H :   -0.034578
  34 H :   -0.153349
  35 H :   -0.022399

  Mayer bond orders larger than 0.100000
B(  0-C ,  1-C ) :   0.9611 B(  0-C , 20-H ) :   0.9685 B(  0-C , 21-H ) :   0.9775
B(  0-C , 22-H ) :   0.9702 B(  1-C ,  2-O ) :   0.8933 B(  1-C , 23-H ) :   0.9822
B(  1-C , 24-H ) :   0.9845 B(  2-O ,  3-C ) :   1.1070 B(  3-C ,  4-O ) :   2.0864
B(  3-C ,  5-C ) :   0.9943 B(  5-C ,  6-C ) :   1.6493 B(  5-C , 12-C ) :   0.9689
B(  6-C ,  7-C ) :   0.9568 B(  6-C ,  8-N ) :   1.1384 B(  7-C , 25-H ) :   0.9561
B(  7-C , 26-H ) :   0.9849 B(  7-C , 27-H ) :   0.9727 B(  8-N ,  9-C ) :   1.1911
B(  8-N , 28-H ) :   0.9484 B(  9-C , 10-S ) :   1.6144 B(  9-C , 11-N ) :   1.2941
B( 11-N , 12-C ) :   0.9760 B( 11-N , 29-H ) :   0.9466 B( 12-C , 13-C ) :   0.9531
B( 12-C , 30-H ) :   1.0043 B( 13-C , 14-C ) :   1.3750 B( 13-C , 19-C ) :   1.3554
B( 14-C , 15-C ) :   1.3981 B( 14-C , 31-H ) :   0.9665 B( 15-C , 16-C ) :   1.3555
B( 15-C , 32-H ) :   0.9695 B( 16-C , 17-C ) :   1.3342 B( 16-C , 33-H ) :   0.9840
B( 17-C , 18-O ) :   1.1070 B( 17-C , 19-C ) :   1.3646 B( 18-O , 34-H ) :   0.9796
B( 19-C , 35-H ) :   0.9596

MP2 TOTAL ENERGY:    -1274.315951676 Eh
FINAL SINGLE POINT ENERGY     -1274.315951676405

DIPOLE MOMENT
-------------
                                X             Y             Z
Electronic contribution:      9.09069       8.03346       6.43516
Nuclear contribution   :    -10.40946      -9.69525      -6.52733
                        -----------------------------------------
Total Dipole Moment    :     -1.31877      -1.66179      -0.09217
                        -----------------------------------------
Magnitude (a.u.)       :      2.12349
Magnitude (Debye)      :      5.39748

Rotational constants in cm-1:     0.011989     0.009309     0.006189
Rotational constants in MHz :   359.427438   279.083767   185.550560

                             ****ORCA TERMINATED NORMALLY****
TOTAL RUN TIME: 0 days 2 hours 17 minutes 51 seconds 670 msec
