                         Program Version 4.2.0 -  RELEASE  -
|  1> ! ri-mp2 cc-pvtz cc-pvtz/c TightSCF NoKeepInts
|  2>
|  3> %scf
|  4>   MaxCore 4096
|  5> end
|  6> *xyz  0  1
|  7>     C       14.8884124   14.4774420   16.5777642
|  8>     C       15.0837862   15.7490003   15.7344829
|  9>     O       16.4475658   15.7919048   15.2776245
| 10>     C       17.0514622   16.9984879   15.0673907
| 11>     O       17.4864099   17.2700465   13.9634787
| 12>     C       17.1228827   17.9434443   16.2335506
| 13>     C       17.1324335   19.2750001   15.9709860
| 14>     C       16.6542483   19.9460398   14.6998390
| 15>     N       17.5894454   20.2007284   16.9097474
| 16>     C       18.2975968   19.8660771   18.0310590
| 17>     S       18.9333372   21.0100700   19.0421087
| 18>     N       18.4785282   18.5250692   18.2566915
| 19>     C       17.8303350   17.4344992   17.5024884
| 20>     C       17.0520831   16.5098506   18.4229617
| 21>     C       17.6306802   15.3105977   18.8788657
| 22>     C       16.9469761   14.4923622   19.7945886
| 23>     C       15.6785277   14.8797378   20.2606684
| 24>     C       15.1087252   16.0824198   19.8203001
| 25>     O       13.8873922   16.4624391   20.2718257
| 26>     C       15.7944917   16.8986823   18.9152278
| 27>     H       15.6900194   14.3514285   17.3084701
| 28>     H       14.8870273   13.5915217   15.9310367
| 29>     H       13.9322588   14.5113219   17.1137868
| 30>     H       14.3937463   15.7547220   14.8804830
| 31>     H       14.8543093   16.6202257   16.3605134
| 32>     H       17.4630593   19.9786650   13.9578407
| 33>     H       16.3083943   20.9725119   14.8704891
| 34>     H       15.8208206   19.3941657   14.2478651
| 35>     H       17.5027644   21.1877539   16.7260968
| 36>     H       18.9890438   18.3081369   19.1035693
| 37>     H       18.7297414   16.9235638   17.1292324
| 38>     H       18.6145804   15.0129085   18.5252378
| 39>     H       17.3997665   13.5640477   20.1394512
| 40>     H       15.1459772   14.2493673   20.9654355
| 41>     H       13.6080463   15.8149990   20.9371927
| 42>     H       15.3521251   17.8407614   18.6096497
| 43> *
| 44>
| 45>                          ****END OF INPUT****

CARTESIAN COORDINATES (ANGSTROEM)
---------------------------------
  C     14.888412   14.477442   16.577764
  C     15.083786   15.749000   15.734483
  O     16.447566   15.791905   15.277624
  C     17.051462   16.998488   15.067391
  O     17.486410   17.270046   13.963479
  C     17.122883   17.943444   16.233551
  C     17.132433   19.275000   15.970986
  C     16.654248   19.946040   14.699839
  N     17.589445   20.200728   16.909747
  C     18.297597   19.866077   18.031059
  S     18.933337   21.010070   19.042109
  N     18.478528   18.525069   18.256691
  C     17.830335   17.434499   17.502488
  C     17.052083   16.509851   18.422962
  C     17.630680   15.310598   18.878866
  C     16.946976   14.492362   19.794589
  C     15.678528   14.879738   20.260668
  C     15.108725   16.082420   19.820300
  O     13.887392   16.462439   20.271826
  C     15.794492   16.898682   18.915228
  H     15.690019   14.351428   17.308470
  H     14.887027   13.591522   15.931037
  H     13.932259   14.511322   17.113787
  H     14.393746   15.754722   14.880483
  H     14.854309   16.620226   16.360513
  H     17.463059   19.978665   13.957841
  H     16.308394   20.972512   14.870489
  H     15.820821   19.394166   14.247865
  H     17.502764   21.187754   16.726097
  H     18.989044   18.308137   19.103569
  H     18.729741   16.923564   17.129232
  H     18.614580   15.012908   18.525238
  H     17.399766   13.564048   20.139451
  H     15.145977   14.249367   20.965436
  H     13.608046   15.814999   20.937193
  H     15.352125   17.840761   18.609650

 Total Charge           Charge          ....    0
 Multiplicity           Mult            ....    1
 Number of Electrons    NEL             ....  154
 Basis Dimension        Dim             ....  828

ORBITAL ENERGIES
----------------

  NO   OCC          E(Eh)            E(eV)
   0   2.0000     -91.890630     -2500.4712
   1   2.0000     -20.605910      -560.7153
   2   2.0000     -20.588719      -560.2475
   3   2.0000     -20.550026      -559.1946
   4   2.0000     -15.629141      -425.2906
   5   2.0000     -15.610044      -424.7709
   6   2.0000     -11.392669      -310.0103
   7   2.0000     -11.385266      -309.8088
   8   2.0000     -11.334685      -308.4325
   9   2.0000     -11.323405      -308.1255
  10   2.0000     -11.315958      -307.9229
  11   2.0000     -11.298225      -307.4403
  12   2.0000     -11.269895      -306.6694
  13   2.0000     -11.264372      -306.5191
  14   2.0000     -11.258643      -306.3633
  15   2.0000     -11.255241      -306.2707
  16   2.0000     -11.253084      -306.2120
  17   2.0000     -11.248537      -306.0883
  18   2.0000     -11.247978      -306.0731
  19   2.0000     -11.222153      -305.3703
  20   2.0000      -8.895687      -242.0640
  21   2.0000      -6.577256      -178.9762
  22   2.0000      -6.575260      -178.9219
  23   2.0000      -6.574668      -178.9058
  24   2.0000      -1.446599       -39.3640
  25   2.0000      -1.425542       -38.7910
  26   2.0000      -1.356590       -36.9147
  27   2.0000      -1.342270       -36.5250
  28   2.0000      -1.241372       -33.7794
  29   2.0000      -1.166368       -31.7385
  30   2.0000      -1.124280       -30.5932
  31   2.0000      -1.050436       -28.5838
  32   2.0000      -1.032652       -28.0999
  33   2.0000      -1.024535       -27.8790
  34   2.0000      -1.002701       -27.2849
  35   2.0000      -0.988469       -26.8976
  36   2.0000      -0.927211       -25.2307
  37   2.0000      -0.876867       -23.8608
  38   2.0000      -0.852217       -23.1900
  39   2.0000      -0.845903       -23.0182
  40   2.0000      -0.842405       -22.9230
  41   2.0000      -0.834750       -22.7147
  42   2.0000      -0.761422       -20.7193
  43   2.0000      -0.740248       -20.1432
  44   2.0000      -0.726521       -19.7696
  45   2.0000      -0.704638       -19.1742
  46   2.0000      -0.692399       -18.8411
  47   2.0000      -0.681010       -18.5312
  48   2.0000      -0.674774       -18.3615
  49   2.0000      -0.660690       -17.9783
  50   2.0000      -0.649468       -17.6729
  51   2.0000      -0.642233       -17.4760
  52   2.0000      -0.631122       -17.1737
  53   2.0000      -0.621720       -16.9179
  54   2.0000      -0.615459       -16.7475
  55   2.0000      -0.607293       -16.5253
  56   2.0000      -0.603467       -16.4212
  57   2.0000      -0.584627       -15.9085
  58   2.0000      -0.575675       -15.6649
  59   2.0000      -0.567949       -15.4547
  60   2.0000      -0.557564       -15.1721
  61   2.0000      -0.544788       -14.8244
  62   2.0000      -0.537990       -14.6395
  63   2.0000      -0.531478       -14.4622
  64   2.0000      -0.523547       -14.2464
  65   2.0000      -0.515456       -14.0263
  66   2.0000      -0.505324       -13.7506
  67   2.0000      -0.494850       -13.4655
  68   2.0000      -0.488181       -13.2841
  69   2.0000      -0.464384       -12.6365
  70   2.0000      -0.457172       -12.4403
  71   2.0000      -0.449961       -12.2441
  72   2.0000      -0.359357        -9.7786
  73   2.0000      -0.354086        -9.6352
  74   2.0000      -0.333212        -9.0672
  75   2.0000      -0.328489        -8.9387
  76   2.0000      -0.320724        -8.7273
  77   0.0000       0.077660         2.1132
  78   0.0000       0.095714         2.6045
  79   0.0000       0.118596         3.2272
  80   0.0000       0.125809         3.4234
  81   0.0000       0.127235         3.4622

MULLIKEN ATOMIC CHARGES
-----------------------
   0 C :   -0.299182
   1 C :    0.023722
   2 O :   -0.336446
   3 C :    0.424848
   4 O :   -0.368495
   5 C :   -0.283462
   6 C :    0.177258
   7 C :   -0.273661
   8 N :   -0.130687
   9 C :    0.212528
  10 S :   -0.440891
  11 N :   -0.215299
  12 C :    0.053066
  13 C :    0.023191
  14 C :   -0.179606
  15 C :   -0.132401
  16 C :   -0.264225
  17 C :    0.313960
  18 O :   -0.360775
  19 C :   -0.251983
  20 H :    0.115403
  21 H :    0.112564
  22 H :    0.094013
  23 H :    0.113893
  24 H :    0.092127
  25 H :    0.141548
  26 H :    0.096395
  27 H :    0.117814
  28 H :    0.199139
  29 H :    0.201461
  30 H :    0.152841
  31 H :    0.154819
  32 H :    0.164922
  33 H :    0.134571
  34 H :    0.243123
  35 H :    0.173905
Sum of atomic charges:   -0.0000000

LOEWDIN ATOMIC CHARGES
----------------------
   0 C :    0.109439
   1 C :   -0.023344
   2 O :    0.299469
   3 C :   -0.423524
   4 O :    0.129837
   5 C :   -0.102791
   6 C :   -0.068018
   7 C :    0.128736
   8 N :    0.406954
   9 C :   -0.455777
  10 S :   -0.034889
  11 N :    0.395369
  12 C :   -0.054669
  13 C :   -0.040725
  14 C :    0.015348
  15 C :    0.044751
  16 C :    0.004163
  17 C :   -0.188973
  18 O :    0.396633
  19 C :    0.036664
  20 H :   -0.027521
  21 H :   -0.028275
  22 H :   -0.025821
  23 H :   -0.030714
  24 H :   -0.041300
  25 H :   -0.003999
  26 H :   -0.021746
  27 H :   -0.008704
  28 H :   -0.056304
  29 H :   -0.064134
  30 H :   -0.011016
  31 H :   -0.027655
  32 H :   -0.018812
  33 H :   -0.033418
  34 H :   -0.151606
  35 H :   -0.023629

  Mayer bond orders larger than 0.100000
B(  0-C ,  1-C ) :   0.9734 B(  0-C , 20-H ) :   0.9701 B(  0-C , 21-H ) :   0.9823
B(  0-C , 22-H ) :   0.9752 B(  1-C ,  2-O ) :   0.9008 B(  1-C , 23-H ) :   0.9789
B(  1-C , 24-H ) :   0.9619 B(  2-O ,  3-C ) :   1.1486 B(  3-C ,  4-O ) :   2.1143
B(  3-C ,  5-C ) :   0.9763 B(  5-C ,  6-C ) :   1.6494 B(  5-C , 12-C ) :   0.9724
B(  6-C ,  7-C ) :   0.9556 B(  6-C ,  8-N ) :   1.1484 B(  7-C , 25-H ) :   0.9548
B(  7-C , 26-H ) :   0.9846 B(  7-C , 27-H ) :   0.9743 B(  8-N ,  9-C ) :   1.1924
B(  8-N , 28-H ) :   0.9487 B(  9-C , 10-S ) :   1.6067 B(  9-C , 11-N ) :   1.3031
B( 11-N , 12-C ) :   0.9555 B( 11-N , 29-H ) :   0.9474 B( 12-C , 13-C ) :   0.9676
B( 12-C , 30-H ) :   1.0076 B( 13-C , 14-C ) :   1.3540 B( 13-C , 19-C ) :   1.3569
B( 14-C , 15-C ) :   1.3879 B( 14-C , 31-H ) :   0.9731 B( 15-C , 16-C ) :   1.3677
B( 15-C , 32-H ) :   0.9700 B( 16-C , 17-C ) :   1.3281 B( 16-C , 33-H ) :   0.9836
B( 17-C , 18-O ) :   1.1037 B( 17-C , 19-C ) :   1.3607 B( 18-O , 34-H ) :   0.9778
B( 19-C , 35-H ) :   0.9584

MP2 TOTAL ENERGY:    -1274.323787267 Eh
FINAL SINGLE POINT ENERGY     -1274.323787266831

DIPOLE MOMENT
-------------
                                X             Y             Z
Electronic contribution:      8.89713       9.73621       4.17696
Nuclear contribution   :    -10.41109     -11.07302      -3.68560
                        -----------------------------------------
Total Dipole Moment    :     -1.51397      -1.33681       0.49136
                        -----------------------------------------
Magnitude (a.u.)       :      2.07861
Magnitude (Debye)      :      5.28340

Rotational constants in cm-1:     0.012626     0.008728     0.006177
Rotational constants in MHz :   378.517619   261.646932   185.176864

                             ****ORCA TERMINATED NORMALLY****
TOTAL RUN TIME: 0 days 1 hours 44 minutes 28 seconds 900 msec
