                         Program Version 4.2.0 -  RELEASE  -
|  1> ! ri-mp2 cc-pvtz cc-pvtz/c TightSCF NoKeepInts
|  2>
|  3> %scf
|  4>   MaxCore 4096
|  5> end
|  6> *xyz  0  1
|  7>     C       15.4196713   13.9784051   15.6077757
|  8>     C       15.0611199   15.4693962   15.7235779
|  9>     O       16.2501944   16.2270926   15.4529788
| 10>     C       16.1116533   17.5809594   15.3908862
| 11>     O       15.3735121   18.0965965   14.5704165
| 12>     C       16.8233544   18.3088048   16.4999604
| 13>     C       16.9633931   19.6592509   16.4618698
| 14>     C       16.2556964   20.6282955   15.5372433
| 15>     N       17.8438889   20.3167281   17.3239408
| 16>     C       18.7634596   19.6873170   18.1181623
| 17>     S       19.8458799   20.5293580   19.0427742
| 18>     N       18.7571224   18.3159247   18.0898529
| 19>     C       17.7650268   17.4789828   17.3895853
| 20>     C       17.0602346   16.5080671   18.3273411
| 21>     C       17.4903138   15.1720815   18.4220573
| 22>     C       16.8408281   14.2727010   19.2843083
| 23>     C       15.7560807   14.7148663   20.0608001
| 24>     C       15.3325915   16.0483131   19.9756882
| 25>     O       14.2867770   16.4786767   20.7249595
| 26>     C       15.9805919   16.9410019   19.1162626
| 27>     H       16.1988253   13.7072748   16.3294818
| 28>     H       15.7857418   13.7476670   14.5995964
| 29>     H       14.5387345   13.3555636   15.8043098
| 30>     H       14.2764267   15.7153356   14.9948179
| 31>     H       14.6852746   15.6902579   16.7315791
| 32>     H       15.1684171   20.4871355   15.5880360
| 33>     H       16.5592071   20.4610318   14.4958097
| 34>     H       16.4594288   21.6786690   15.7764773
| 35>     H       17.8754338   21.3237012   17.3351503
| 36>     H       19.4272627   17.8799812   18.7105541
| 37>     H       18.4219386   16.9357957   16.6951018
| 38>     H       18.3266087   14.8283366   17.8188557
| 39>     H       17.1785497   13.2396603   19.3492795
| 40>     H       15.2515315   14.0239883   20.7284179
| 41>     H       14.0080659   15.7413986   21.2889583
| 42>     H       15.6441629   17.9713838   19.0711331
| 43> *
| 44>
| 45>                          ****END OF INPUT****

CARTESIAN COORDINATES (ANGSTROEM)
---------------------------------
  C     15.419671   13.978405   15.607776
  C     15.061120   15.469396   15.723578
  O     16.250194   16.227093   15.452979
  C     16.111653   17.580959   15.390886
  O     15.373512   18.096596   14.570416
  C     16.823354   18.308805   16.499960
  C     16.963393   19.659251   16.461870
  C     16.255696   20.628296   15.537243
  N     17.843889   20.316728   17.323941
  C     18.763460   19.687317   18.118162
  S     19.845880   20.529358   19.042774
  N     18.757122   18.315925   18.089853
  C     17.765027   17.478983   17.389585
  C     17.060235   16.508067   18.327341
  C     17.490314   15.172082   18.422057
  C     16.840828   14.272701   19.284308
  C     15.756081   14.714866   20.060800
  C     15.332591   16.048313   19.975688
  O     14.286777   16.478677   20.724960
  C     15.980592   16.941002   19.116263
  H     16.198825   13.707275   16.329482
  H     15.785742   13.747667   14.599596
  H     14.538734   13.355564   15.804310
  H     14.276427   15.715336   14.994818
  H     14.685275   15.690258   16.731579
  H     15.168417   20.487136   15.588036
  H     16.559207   20.461032   14.495810
  H     16.459429   21.678669   15.776477
  H     17.875434   21.323701   17.335150
  H     19.427263   17.879981   18.710554
  H     18.421939   16.935796   16.695102
  H     18.326609   14.828337   17.818856
  H     17.178550   13.239660   19.349279
  H     15.251531   14.023988   20.728418
  H     14.008066   15.741399   21.288958
  H     15.644163   17.971384   19.071133

 Total Charge           Charge          ....    0
 Multiplicity           Mult            ....    1
 Number of Electrons    NEL             ....  154
 Basis Dimension        Dim             ....  828

ORBITAL ENERGIES
----------------

  NO   OCC          E(Eh)            E(eV)
   0   2.0000     -91.890496     -2500.4675
   1   2.0000     -20.601736      -560.6017
   2   2.0000     -20.586344      -560.1829
   3   2.0000     -20.544180      -559.0356
   4   2.0000     -15.631037      -425.3421
   5   2.0000     -15.608662      -424.7333
   6   2.0000     -11.391314      -309.9734
   7   2.0000     -11.385116      -309.8048
   8   2.0000     -11.339284      -308.5576
   9   2.0000     -11.319477      -308.0186
  10   2.0000     -11.309852      -307.7567
  11   2.0000     -11.293943      -307.3238
  12   2.0000     -11.265920      -306.5613
  13   2.0000     -11.260968      -306.4265
  14   2.0000     -11.258690      -306.3645
  15   2.0000     -11.252896      -306.2069
  16   2.0000     -11.249139      -306.1046
  17   2.0000     -11.243916      -305.9625
  18   2.0000     -11.243766      -305.9584
  19   2.0000     -11.225729      -305.4676
  20   2.0000      -8.895553      -242.0603
  21   2.0000      -6.577121      -178.9726
  22   2.0000      -6.575126      -178.9183
  23   2.0000      -6.574532      -178.9021
  24   2.0000      -1.449240       -39.4358
  25   2.0000      -1.421444       -38.6795
  26   2.0000      -1.352992       -36.8168
  27   2.0000      -1.342189       -36.5228
  28   2.0000      -1.240245       -33.7488
  29   2.0000      -1.162732       -31.6396
  30   2.0000      -1.122782       -30.5524
  31   2.0000      -1.046726       -28.4829
  32   2.0000      -1.035213       -28.1696
  33   2.0000      -1.020751       -27.7761
  34   2.0000      -0.998332       -27.1660
  35   2.0000      -0.986606       -26.8469
  36   2.0000      -0.924661       -25.1613
  37   2.0000      -0.880026       -23.9467
  38   2.0000      -0.848880       -23.0992
  39   2.0000      -0.842005       -22.9121
  40   2.0000      -0.838887       -22.8273
  41   2.0000      -0.825616       -22.4662
  42   2.0000      -0.763072       -20.7643
  43   2.0000      -0.737804       -20.0767
  44   2.0000      -0.724054       -19.7025
  45   2.0000      -0.700522       -19.0622
  46   2.0000      -0.689520       -18.7628
  47   2.0000      -0.678243       -18.4559
  48   2.0000      -0.674505       -18.3542
  49   2.0000      -0.657129       -17.8814
  50   2.0000      -0.649557       -17.6754
  51   2.0000      -0.641238       -17.4490
  52   2.0000      -0.631235       -17.1768
  53   2.0000      -0.617883       -16.8135
  54   2.0000      -0.612165       -16.6579
  55   2.0000      -0.604475       -16.4486
  56   2.0000      -0.602496       -16.3948
  57   2.0000      -0.581548       -15.8247
  58   2.0000      -0.571514       -15.5517
  59   2.0000      -0.566802       -15.4235
  60   2.0000      -0.553831       -15.0705
  61   2.0000      -0.542200       -14.7540
  62   2.0000      -0.533608       -14.5202
  63   2.0000      -0.528831       -14.3902
  64   2.0000      -0.519016       -14.1231
  65   2.0000      -0.515004       -14.0140
  66   2.0000      -0.506566       -13.7844
  67   2.0000      -0.500222       -13.6117
  68   2.0000      -0.487104       -13.2548
  69   2.0000      -0.465559       -12.6685
  70   2.0000      -0.456892       -12.4327
  71   2.0000      -0.444990       -12.1088
  72   2.0000      -0.356275        -9.6947
  73   2.0000      -0.353503        -9.6193
  74   2.0000      -0.330257        -8.9868
  75   2.0000      -0.326372        -8.8810
  76   2.0000      -0.320118        -8.7109
  77   0.0000       0.072446         1.9714
  78   0.0000       0.099400         2.7048
  79   0.0000       0.122557         3.3349
  80   0.0000       0.129607         3.5268
  81   0.0000       0.130903         3.5621

MULLIKEN ATOMIC CHARGES
-----------------------
   0 C :   -0.269992
   1 C :    0.015948
   2 O :   -0.368694
   3 C :    0.486883
   4 O :   -0.417205
   5 C :   -0.300001
   6 C :    0.185708
   7 C :   -0.265804
   8 N :   -0.126991
   9 C :    0.214633
  10 S :   -0.440449
  11 N :   -0.219753
  12 C :    0.077836
  13 C :    0.023220
  14 C :   -0.189774
  15 C :   -0.131492
  16 C :   -0.270639
  17 C :    0.316318
  18 O :   -0.356572
  19 C :   -0.247464
  20 H :    0.092567
  21 H :    0.103128
  22 H :    0.089408
  23 H :    0.122248
  24 H :    0.098483
  25 H :    0.133073
  26 H :    0.130817
  27 H :    0.094718
  28 H :    0.199308
  29 H :    0.201237
  30 H :    0.150743
  31 H :    0.159491
  32 H :    0.166738
  33 H :    0.133694
  34 H :    0.241678
  35 H :    0.166953
Sum of atomic charges:    0.0000000

LOEWDIN ATOMIC CHARGES
----------------------
   0 C :    0.109828
   1 C :   -0.021852
   2 O :    0.298568
   3 C :   -0.419813
   4 O :    0.110064
   5 C :   -0.100583
   6 C :   -0.054202
   7 C :    0.131870
   8 N :    0.407850
   9 C :   -0.455600
  10 S :   -0.034999
  11 N :    0.394067
  12 C :   -0.054693
  13 C :   -0.038389
  14 C :    0.017677
  15 C :    0.043233
  16 C :   -0.000319
  17 C :   -0.190879
  18 O :    0.396290
  19 C :    0.032243
  20 H :   -0.031853
  21 H :   -0.026137
  22 H :   -0.025405
  23 H :   -0.028260
  24 H :   -0.033666
  25 H :   -0.004272
  26 H :   -0.004114
  27 H :   -0.023454
  28 H :   -0.056775
  29 H :   -0.064901
  30 H :   -0.012313
  31 H :   -0.028756
  32 H :   -0.020018
  33 H :   -0.034265
  34 H :   -0.152784
  35 H :   -0.023386

  Mayer bond orders larger than 0.100000
B(  0-C ,  1-C ) :   0.9775 B(  0-C , 20-H ) :   0.9757 B(  0-C , 21-H ) :   0.9782
B(  0-C , 22-H ) :   0.9768 B(  1-C ,  2-O ) :   0.8858 B(  1-C , 23-H ) :   0.9804
B(  1-C , 24-H ) :   0.9658 B(  2-O ,  3-C ) :   1.1128 B(  3-C ,  4-O ) :   2.0090
B(  3-C ,  5-C ) :   1.0685 B(  5-C ,  6-C ) :   1.6281 B(  5-C , 12-C ) :   0.9506
B(  6-C ,  7-C ) :   0.9658 B(  6-C ,  8-N ) :   1.1618 B(  7-C , 25-H ) :   0.9610
B(  7-C , 26-H ) :   0.9580 B(  7-C , 27-H ) :   0.9901 B(  8-N ,  9-C ) :   1.1852
B(  8-N , 28-H ) :   0.9462 B(  9-C , 10-S ) :   1.6042 B(  9-C , 11-N ) :   1.3115
B( 11-N , 12-C ) :   0.9598 B( 11-N , 29-H ) :   0.9483 B( 12-C , 13-C ) :   0.9689
B( 12-C , 30-H ) :   0.9998 B( 13-C , 14-C ) :   1.3455 B( 13-C , 19-C ) :   1.3701
B( 14-C , 15-C ) :   1.3872 B( 14-C , 31-H ) :   0.9712 B( 15-C , 16-C ) :   1.3617
B( 15-C , 32-H ) :   0.9685 B( 16-C , 17-C ) :   1.3311 B( 16-C , 33-H ) :   0.9838
B( 17-C , 18-O ) :   1.1066 B( 17-C , 19-C ) :   1.3642 B( 18-O , 34-H ) :   0.9788
B( 19-C , 35-H ) :   0.9602

MP2 TOTAL ENERGY:    -1274.334274322 Eh
FINAL SINGLE POINT ENERGY     -1274.334274321736

DIPOLE MOMENT
-------------
                                X             Y             Z
Electronic contribution:      8.32413      11.19629       6.29906
Nuclear contribution   :     -9.39115     -12.73627      -6.18480
                        -----------------------------------------
Total Dipole Moment    :     -1.06702      -1.53998       0.11427
                        -----------------------------------------
Magnitude (a.u.)       :      1.87700
Magnitude (Debye)      :      4.77095

Rotational constants in cm-1:     0.012626     0.008261     0.006118
Rotational constants in MHz :   378.519489   247.645116   183.416280

                             ****ORCA TERMINATED NORMALLY****
TOTAL RUN TIME: 0 days 1 hours 45 minutes 26 seconds 189 msec
