                         Program Version 4.2.0 -  RELEASE  -
|  1> ! ri-mp2 cc-pvtz cc-pvtz/c TightSCF NoKeepInts
|  2>
|  3> %scf
|  4>   MaxCore 4096
|  5> end
|  6> *xyz  0  1
|  7>     C       13.9353713   15.3333370   15.4096905
|  8>     C       15.1133537   15.9771589   16.1584846
|  9>     O       16.2206253   16.0316823   15.2379105
| 10>     C       17.2366144   16.9468827   15.3297334
| 11>     O       18.1527298   16.9762648   14.5303682
| 12>     C       17.1501832   17.9080507   16.4628888
| 13>     C       16.8580335   19.1940544   16.1739263
| 14>     C       16.2700393   19.6759620   14.8659998
| 15>     N       17.1323407   20.2182460   17.0815587
| 16>     C       17.9127604   20.0578702   18.1972194
| 17>     S       18.2941841   21.3273045   19.1858595
| 18>     N       18.3808615   18.7886368   18.4427955
| 19>     C       17.9900590   17.5763555   17.6947521
| 20>     C       17.4171787   16.4542934   18.5443771
| 21>     C       17.8956415   15.1396142   18.3996400
| 22>     C       17.3472213   14.0942662   19.1613235
| 23>     C       16.3123040   14.3665473   20.0726147
| 24>     C       15.8333698   15.6758967   20.2168733
| 25>     O       14.8272337   15.9400531   21.0873188
| 26>     C       16.3791391   16.7144462   19.4555706
| 27>     H       13.0564238   15.2620374   16.0618636
| 28>     H       14.1982195   14.3216690   15.0757303
| 29>     H       13.6639827   15.9280168   14.5285333
| 30>     H       14.8041987   16.9794107   16.4822081
| 31>     H       15.3731366   15.3810300   17.0424857
| 32>     H       15.4419043   19.0323423   14.5439199
| 33>     H       17.0321250   19.6540501   14.0751124
| 34>     H       15.8842879   20.7005286   14.9305383
| 35>     H       16.8348816   21.1612399   16.8867145
| 36>     H       18.9500758   18.7002554   19.2754918
| 37>     H       18.9711973   17.2766530   17.2965831
| 38>     H       18.6895351   14.9256031   17.6874783
| 39>     H       17.7230379   13.0790858   19.0422883
| 40>     H       15.8856199   13.5613220   20.6620217
| 41>     H       14.6253758   15.1180878   21.5599833
| 42>     H       15.9937539   17.7217453   19.5781423
| 43> *
| 44>
| 45>                          ****END OF INPUT****

CARTESIAN COORDINATES (ANGSTROEM)
---------------------------------
  C     13.935371   15.333337   15.409690
  C     15.113354   15.977159   16.158485
  O     16.220625   16.031682   15.237910
  C     17.236614   16.946883   15.329733
  O     18.152730   16.976265   14.530368
  C     17.150183   17.908051   16.462889
  C     16.858034   19.194054   16.173926
  C     16.270039   19.675962   14.866000
  N     17.132341   20.218246   17.081559
  C     17.912760   20.057870   18.197219
  S     18.294184   21.327304   19.185859
  N     18.380861   18.788637   18.442795
  C     17.990059   17.576355   17.694752
  C     17.417179   16.454293   18.544377
  C     17.895641   15.139614   18.399640
  C     17.347221   14.094266   19.161324
  C     16.312304   14.366547   20.072615
  C     15.833370   15.675897   20.216873
  O     14.827234   15.940053   21.087319
  C     16.379139   16.714446   19.455571
  H     13.056424   15.262037   16.061864
  H     14.198220   14.321669   15.075730
  H     13.663983   15.928017   14.528533
  H     14.804199   16.979411   16.482208
  H     15.373137   15.381030   17.042486
  H     15.441904   19.032342   14.543920
  H     17.032125   19.654050   14.075112
  H     15.884288   20.700529   14.930538
  H     16.834882   21.161240   16.886715
  H     18.950076   18.700255   19.275492
  H     18.971197   17.276653   17.296583
  H     18.689535   14.925603   17.687478
  H     17.723038   13.079086   19.042288
  H     15.885620   13.561322   20.662022
  H     14.625376   15.118088   21.559983
  H     15.993754   17.721745   19.578142

 Total Charge           Charge          ....    0
 Multiplicity           Mult            ....    1
 Number of Electrons    NEL             ....  154
 Basis Dimension        Dim             ....  828

ORBITAL ENERGIES
----------------

  NO   OCC          E(Eh)            E(eV)
   0   2.0000     -91.889104     -2500.4297
   1   2.0000     -20.605395      -560.7013
   2   2.0000     -20.602949      -560.6347
   3   2.0000     -20.552289      -559.2562
   4   2.0000     -15.625311      -425.1863
   5   2.0000     -15.610597      -424.7859
   6   2.0000     -11.397383      -310.1386
   7   2.0000     -11.385042      -309.8027
   8   2.0000     -11.325103      -308.1717
   9   2.0000     -11.323905      -308.1391
  10   2.0000     -11.315860      -307.9202
  11   2.0000     -11.299727      -307.4812
  12   2.0000     -11.270661      -306.6903
  13   2.0000     -11.265210      -306.5419
  14   2.0000     -11.260453      -306.4125
  15   2.0000     -11.255819      -306.2864
  16   2.0000     -11.253525      -306.2240
  17   2.0000     -11.248411      -306.0848
  18   2.0000     -11.247897      -306.0708
  19   2.0000     -11.232201      -305.6437
  20   2.0000      -8.894200      -242.0235
  21   2.0000      -6.575781      -178.9361
  22   2.0000      -6.573772      -178.8814
  23   2.0000      -6.573190      -178.8656
  24   2.0000      -1.448379       -39.4124
  25   2.0000      -1.425131       -38.7798
  26   2.0000      -1.363072       -37.0911
  27   2.0000      -1.338415       -36.4201
  28   2.0000      -1.238542       -33.7025
  29   2.0000      -1.167567       -31.7711
  30   2.0000      -1.127212       -30.6730
  31   2.0000      -1.052587       -28.6423
  32   2.0000      -1.038499       -28.2590
  33   2.0000      -1.025375       -27.9019
  34   2.0000      -1.004585       -27.3362
  35   2.0000      -0.989685       -26.9307
  36   2.0000      -0.927704       -25.2441
  37   2.0000      -0.880003       -23.9461
  38   2.0000      -0.853700       -23.2304
  39   2.0000      -0.844552       -22.9814
  40   2.0000      -0.843585       -22.9551
  41   2.0000      -0.838846       -22.8262
  42   2.0000      -0.759206       -20.6590
  43   2.0000      -0.739769       -20.1301
  44   2.0000      -0.730924       -19.8895
  45   2.0000      -0.703687       -19.1483
  46   2.0000      -0.693246       -18.8642
  47   2.0000      -0.679005       -18.4767
  48   2.0000      -0.677251       -18.4289
  49   2.0000      -0.669724       -18.2241
  50   2.0000      -0.652142       -17.7457
  51   2.0000      -0.651107       -17.7175
  52   2.0000      -0.636100       -17.3092
  53   2.0000      -0.614965       -16.7341
  54   2.0000      -0.609236       -16.5782
  55   2.0000      -0.606731       -16.5100
  56   2.0000      -0.591238       -16.0884
  57   2.0000      -0.582784       -15.8584
  58   2.0000      -0.579147       -15.7594
  59   2.0000      -0.570951       -15.5364
  60   2.0000      -0.562772       -15.3138
  61   2.0000      -0.559542       -15.2259
  62   2.0000      -0.550279       -14.9739
  63   2.0000      -0.530722       -14.4417
  64   2.0000      -0.526709       -14.3325
  65   2.0000      -0.517352       -14.0779
  66   2.0000      -0.506469       -13.7817
  67   2.0000      -0.504727       -13.7343
  68   2.0000      -0.490280       -13.3412
  69   2.0000      -0.468915       -12.7598
  70   2.0000      -0.453751       -12.3472
  71   2.0000      -0.451220       -12.2783
  72   2.0000      -0.358087        -9.7441
  73   2.0000      -0.352316        -9.5870
  74   2.0000      -0.332917        -9.0591
  75   2.0000      -0.328174        -8.9301
  76   2.0000      -0.318037        -8.6542
  77   0.0000       0.088550         2.4096
  78   0.0000       0.097803         2.6614
  79   0.0000       0.116660         3.1745
  80   0.0000       0.125830         3.4240
  81   0.0000       0.130322         3.5462

MULLIKEN ATOMIC CHARGES
-----------------------
   0 C :   -0.256734
   1 C :    0.022422
   2 O :   -0.299648
   3 C :    0.410848
   4 O :   -0.383532
   5 C :   -0.225739
   6 C :    0.158267
   7 C :   -0.300714
   8 N :   -0.134533
   9 C :    0.215472
  10 S :   -0.442680
  11 N :   -0.220145
  12 C :    0.031475
  13 C :   -0.007717
  14 C :   -0.196344
  15 C :   -0.133716
  16 C :   -0.271997
  17 C :    0.303693
  18 O :   -0.354009
  19 C :   -0.215519
  20 H :    0.090248
  21 H :    0.102661
  22 H :    0.095763
  23 H :    0.093410
  24 H :    0.112676
  25 H :    0.116519
  26 H :    0.145583
  27 H :    0.100240
  28 H :    0.196501
  29 H :    0.200168
  30 H :    0.166493
  31 H :    0.163571
  32 H :    0.165448
  33 H :    0.135302
  34 H :    0.242068
  35 H :    0.174202
Sum of atomic charges:   -0.0000000

LOEWDIN ATOMIC CHARGES
----------------------
   0 C :    0.109711
   1 C :   -0.023585
   2 O :    0.310497
   3 C :   -0.415681
   4 O :    0.123501
   5 C :   -0.089908
   6 C :   -0.094461
   7 C :    0.129223
   8 N :    0.402940
   9 C :   -0.453334
  10 S :   -0.038282
  11 N :    0.395374
  12 C :   -0.054474
  13 C :   -0.045353
  14 C :    0.015960
  15 C :    0.044764
  16 C :    0.001186
  17 C :   -0.191358
  18 O :    0.397295
  19 C :    0.032492
  20 H :   -0.025056
  21 H :   -0.024761
  22 H :   -0.027337
  23 H :   -0.037570
  24 H :   -0.029371
  25 H :   -0.011331
  26 H :   -0.003132
  27 H :   -0.018766
  28 H :   -0.059458
  29 H :   -0.064619
  30 H :   -0.006364
  31 H :   -0.024612
  32 H :   -0.017711
  33 H :   -0.033253
  34 H :   -0.151995
  35 H :   -0.021169

  Mayer bond orders larger than 0.100000
B(  0-C ,  1-C ) :   0.9810 B(  0-C , 20-H ) :   0.9777 B(  0-C , 21-H ) :   0.9791
B(  0-C , 22-H ) :   0.9789 B(  1-C ,  2-O ) :   0.9029 B(  1-C , 23-H ) :   0.9623
B(  1-C , 24-H ) :   0.9686 B(  2-O ,  3-C ) :   1.2105 B(  3-C ,  4-O ) :   2.1215
B(  3-C ,  5-C ) :   0.9086 B(  5-C ,  6-C ) :   1.7290 B(  5-C , 12-C ) :   0.9519
B(  6-C ,  7-C ) :   0.9323 B(  6-C ,  8-N ) :   1.1115 B(  7-C , 25-H ) :   0.9772
B(  7-C , 26-H ) :   0.9620 B(  7-C , 27-H ) :   0.9865 B(  8-N ,  9-C ) :   1.2014
B(  8-N , 28-H ) :   0.9491 B(  9-C , 10-S ) :   1.6105 B(  9-C , 11-N ) :   1.2843
B( 11-N , 12-C ) :   0.9819 B( 11-N , 29-H ) :   0.9473 B( 12-C , 13-C ) :   0.9614
B( 12-C , 30-H ) :   0.9993 B( 13-C , 14-C ) :   1.3744 B( 13-C , 19-C ) :   1.3575
B( 14-C , 15-C ) :   1.3968 B( 14-C , 31-H ) :   0.9675 B( 15-C , 16-C ) :   1.3640
B( 15-C , 32-H ) :   0.9696 B( 16-C , 17-C ) :   1.3263 B( 16-C , 33-H ) :   0.9835
B( 17-C , 18-O ) :   1.1126 B( 17-C , 19-C ) :   1.3677 B( 18-O , 34-H ) :   0.9783
B( 19-C , 35-H ) :   0.9571

MP2 TOTAL ENERGY:    -1274.327652981 Eh
FINAL SINGLE POINT ENERGY     -1274.327652981054

DIPOLE MOMENT
-------------
                                X             Y             Z
Electronic contribution:     10.68188       8.61749       7.43255
Nuclear contribution   :    -12.29442     -10.23349      -7.25277
                        -----------------------------------------
Total Dipole Moment    :     -1.61254      -1.61600       0.17978
                        -----------------------------------------
Magnitude (a.u.)       :      2.28999
Magnitude (Debye)      :      5.82069

Rotational constants in cm-1:     0.011688     0.008867     0.006206
Rotational constants in MHz :   350.391683   265.827534   186.059348

                             ****ORCA TERMINATED NORMALLY****
TOTAL RUN TIME: 0 days 1 hours 44 minutes 58 seconds 526 msec
