                         Program Version 4.2.0 -  RELEASE  -
|  1> ! ri-mp2 cc-pvtz cc-pvtz/c TightSCF NoKeepInts
|  2>
|  3> %scf
|  4>   MaxCore 4096
|  5> end
|  6> *xyz  0  1
|  7>     C       14.6001422   15.9040621   16.5729995
|  8>     C       15.3402904   15.5425299   15.2716227
|  9>     O       16.7784137   15.5672518   15.4065949
| 10>     C       17.4774972   16.7377903   15.3098339
| 11>     O       18.2639246   16.9275522   14.4007823
| 12>     C       17.1761061   17.7701825   16.3425305
| 13>     C       16.9417241   19.0365489   15.9285812
| 14>     C       16.5580224   19.4469625   14.5231898
| 15>     N       17.0626761   20.1193779   16.8007943
| 16>     C       17.6636670   20.0453723   18.0294704
| 17>     S       17.8918303   21.3834462   18.9740366
| 18>     N       18.0924213   18.8022830   18.4268046
| 19>     C       17.8060807   17.5358890   17.7220335
| 20>     C       17.1561970   16.4700867   18.5924086
| 21>     C       17.5992298   15.1362048   18.5282867
| 22>     C       17.0152387   14.1497535   19.3405112
| 23>     C       15.9831228   14.5007606   20.2275349
| 24>     C       15.5427364   15.8296166   20.2970833
| 25>     O       14.5432237   16.1702774   21.1486333
| 26>     C       16.1248122   16.8097182   19.4866236
| 27>     H       14.9179365   15.2466844   17.3900636
| 28>     H       13.5207312   15.7628529   16.4402720
| 29>     H       14.7575805   16.9469209   16.8666192
| 30>     H       15.0419894   14.5252237   14.9865465
| 31>     H       15.0251454   16.2127586   14.4607712
| 32>     H       17.4539270   19.5276332   13.8930090
| 33>     H       16.0372506   20.4116161   14.4959674
| 34>     H       15.8972931   18.7053530   14.0587136
| 35>     H       16.7973576   21.0432815   16.4984875
| 36>     H       18.5282586   18.7762486   19.3403260
| 37>     H       18.8375830   17.2252227   17.4995225
| 38>     H       18.3939921   14.8612768   17.8388589
| 39>     H       17.3625514   13.1196297   19.2797074
| 40>     H       15.5292594   13.7417439   20.8563122
| 41>     H       14.3004832   15.3754168   21.6471349
| 42>     H       15.7683042   17.8324710   19.5553323
| 43> *
| 44>
| 45>                          ****END OF INPUT****

CARTESIAN COORDINATES (ANGSTROEM)
---------------------------------
  C     14.600142   15.904062   16.573000
  C     15.340290   15.542530   15.271623
  O     16.778414   15.567252   15.406595
  C     17.477497   16.737790   15.309834
  O     18.263925   16.927552   14.400782
  C     17.176106   17.770182   16.342530
  C     16.941724   19.036549   15.928581
  C     16.558022   19.446963   14.523190
  N     17.062676   20.119378   16.800794
  C     17.663667   20.045372   18.029470
  S     17.891830   21.383446   18.974037
  N     18.092421   18.802283   18.426805
  C     17.806081   17.535889   17.722033
  C     17.156197   16.470087   18.592409
  C     17.599230   15.136205   18.528287
  C     17.015239   14.149753   19.340511
  C     15.983123   14.500761   20.227535
  C     15.542736   15.829617   20.297083
  O     14.543224   16.170277   21.148633
  C     16.124812   16.809718   19.486624
  H     14.917936   15.246684   17.390064
  H     13.520731   15.762853   16.440272
  H     14.757580   16.946921   16.866619
  H     15.041989   14.525224   14.986546
  H     15.025145   16.212759   14.460771
  H     17.453927   19.527633   13.893009
  H     16.037251   20.411616   14.495967
  H     15.897293   18.705353   14.058714
  H     16.797358   21.043281   16.498487
  H     18.528259   18.776249   19.340326
  H     18.837583   17.225223   17.499523
  H     18.393992   14.861277   17.838859
  H     17.362551   13.119630   19.279707
  H     15.529259   13.741744   20.856312
  H     14.300483   15.375417   21.647135
  H     15.768304   17.832471   19.555332

 Total Charge           Charge          ....    0
 Multiplicity           Mult            ....    1
 Number of Electrons    NEL             ....  154
 Basis Dimension        Dim             ....  828

ORBITAL ENERGIES
----------------

  NO   OCC          E(Eh)            E(eV)
   0   2.0000     -91.889965     -2500.4531
   1   2.0000     -20.600488      -560.5678
   2   2.0000     -20.588583      -560.2438
   3   2.0000     -20.559779      -559.4600
   4   2.0000     -15.626928      -425.2303
   5   2.0000     -15.610320      -424.7784
   6   2.0000     -11.396475      -310.1139
   7   2.0000     -11.385295      -309.8096
   8   2.0000     -11.328653      -308.2683
   9   2.0000     -11.318108      -307.9814
  10   2.0000     -11.315499      -307.9104
  11   2.0000     -11.307017      -307.6796
  12   2.0000     -11.266272      -306.5708
  13   2.0000     -11.259558      -306.3882
  14   2.0000     -11.258866      -306.3693
  15   2.0000     -11.256477      -306.3043
  16   2.0000     -11.248334      -306.0827
  17   2.0000     -11.243089      -305.9400
  18   2.0000     -11.242977      -305.9370
  19   2.0000     -11.225180      -305.4527
  20   2.0000      -8.895033      -242.0462
  21   2.0000      -6.576607      -178.9586
  22   2.0000      -6.574605      -178.9041
  23   2.0000      -6.574016      -178.8881
  24   2.0000      -1.448534       -39.4166
  25   2.0000      -1.420280       -38.6478
  26   2.0000      -1.361115       -37.0378
  27   2.0000      -1.339841       -36.4589
  28   2.0000      -1.239291       -33.7228
  29   2.0000      -1.162294       -31.6276
  30   2.0000      -1.125092       -30.6153
  31   2.0000      -1.048201       -28.5230
  32   2.0000      -1.035286       -28.1716
  33   2.0000      -1.020233       -27.7619
  34   2.0000      -1.003563       -27.3083
  35   2.0000      -0.989518       -26.9262
  36   2.0000      -0.925830       -25.1931
  37   2.0000      -0.892186       -24.2776
  38   2.0000      -0.849952       -23.1284
  39   2.0000      -0.842352       -22.9216
  40   2.0000      -0.838370       -22.8132
  41   2.0000      -0.828246       -22.5377
  42   2.0000      -0.755050       -20.5460
  43   2.0000      -0.737154       -20.0590
  44   2.0000      -0.729441       -19.8491
  45   2.0000      -0.698841       -19.0164
  46   2.0000      -0.691807       -18.8250
  47   2.0000      -0.678470       -18.4621
  48   2.0000      -0.675368       -18.3777
  49   2.0000      -0.666552       -18.1378
  50   2.0000      -0.650708       -17.7067
  51   2.0000      -0.646617       -17.5953
  52   2.0000      -0.634737       -17.2721
  53   2.0000      -0.611460       -16.6387
  54   2.0000      -0.605765       -16.4837
  55   2.0000      -0.603553       -16.4235
  56   2.0000      -0.593409       -16.1475
  57   2.0000      -0.590714       -16.0741
  58   2.0000      -0.580887       -15.8067
  59   2.0000      -0.577313       -15.7095
  60   2.0000      -0.565464       -15.3870
  61   2.0000      -0.557709       -15.1760
  62   2.0000      -0.539905       -14.6916
  63   2.0000      -0.526340       -14.3224
  64   2.0000      -0.520436       -14.1618
  65   2.0000      -0.514389       -13.9972
  66   2.0000      -0.502884       -13.6842
  67   2.0000      -0.498185       -13.5563
  68   2.0000      -0.485706       -13.2167
  69   2.0000      -0.463607       -12.6154
  70   2.0000      -0.456925       -12.4336
  71   2.0000      -0.454177       -12.3588
  72   2.0000      -0.356420        -9.6987
  73   2.0000      -0.348125        -9.4730
  74   2.0000      -0.329214        -8.9584
  75   2.0000      -0.326099        -8.8736
  76   2.0000      -0.319523        -8.6947
  77   0.0000       0.082491         2.2447
  78   0.0000       0.101742         2.7685
  79   0.0000       0.120258         3.2724
  80   0.0000       0.127869         3.4795
  81   0.0000       0.129424         3.5218

MULLIKEN ATOMIC CHARGES
-----------------------
   0 C :   -0.317711
   1 C :    0.034783
   2 O :   -0.346852
   3 C :    0.411670
   4 O :   -0.358464
   5 C :   -0.207581
   6 C :    0.148526
   7 C :   -0.287562
   8 N :   -0.133319
   9 C :    0.213801
  10 S :   -0.440320
  11 N :   -0.231467
  12 C :    0.043659
  13 C :    0.016491
  14 C :   -0.194952
  15 C :   -0.137286
  16 C :   -0.275845
  17 C :    0.311739
  18 O :   -0.356496
  19 C :   -0.226854
  20 H :    0.116242
  21 H :    0.117015
  22 H :    0.104700
  23 H :    0.121863
  24 H :    0.084985
  25 H :    0.145618
  26 H :    0.100285
  27 H :    0.112181
  28 H :    0.197433
  29 H :    0.204926
  30 H :    0.162049
  31 H :    0.153069
  32 H :    0.163539
  33 H :    0.133068
  34 H :    0.241195
  35 H :    0.175872
Sum of atomic charges:   -0.0000000

LOEWDIN ATOMIC CHARGES
----------------------
   0 C :    0.103317
   1 C :   -0.018551
   2 O :    0.290267
   3 C :   -0.421077
   4 O :    0.139451
   5 C :   -0.090243
   6 C :   -0.083377
   7 C :    0.128441
   8 N :    0.405023
   9 C :   -0.455210
  10 S :   -0.036012
  11 N :    0.396487
  12 C :   -0.052998
  13 C :   -0.042037
  14 C :    0.020215
  15 C :    0.042221
  16 C :   -0.000677
  17 C :   -0.192108
  18 O :    0.396692
  19 C :    0.032592
  20 H :   -0.022564
  21 H :   -0.025646
  22 H :   -0.036727
  23 H :   -0.018573
  24 H :   -0.035351
  25 H :   -0.003531
  26 H :   -0.020079
  27 H :   -0.013209
  28 H :   -0.058348
  29 H :   -0.063979
  30 H :   -0.008872
  31 H :   -0.026200
  32 H :   -0.018988
  33 H :   -0.034366
  34 H :   -0.153118
  35 H :   -0.022864

  Mayer bond orders larger than 0.100000
B(  0-C ,  1-C ) :   0.9640 B(  0-C , 20-H ) :   0.9707 B(  0-C , 21-H ) :   0.9759
B(  0-C , 22-H ) :   0.9689 B(  1-C ,  2-O ) :   0.8984 B(  1-C , 23-H ) :   0.9839
B(  1-C , 24-H ) :   0.9824 B(  2-O ,  3-C ) :   1.1312 B(  3-C ,  4-O ) :   2.1387
B(  3-C ,  5-C ) :   0.9252 B(  5-C ,  6-C ) :   1.6897 B(  5-C , 12-C ) :   0.9532
B(  6-C ,  7-C ) :   0.9429 B(  6-C ,  8-N ) :   1.1222 B(  7-C , 25-H ) :   0.9581
B(  7-C , 26-H ) :   0.9850 B(  7-C , 27-H ) :   0.9773 B(  8-N ,  9-C ) :   1.1989
B(  8-N , 28-H ) :   0.9494 B(  9-C , 10-S ) :   1.6110 B(  9-C , 11-N ) :   1.2879
B( 11-N , 12-C ) :   0.9710 B( 11-N , 29-H ) :   0.9452 B( 12-C , 13-C ) :   0.9563
B( 12-C , 30-H ) :   1.0016 B( 13-C , 14-C ) :   1.3761 B( 13-C , 19-C ) :   1.3485
B( 14-C , 15-C ) :   1.4034 B( 14-C , 31-H ) :   0.9708 B( 15-C , 16-C ) :   1.3549
B( 15-C , 32-H ) :   0.9703 B( 16-C , 17-C ) :   1.3325 B( 16-C , 33-H ) :   0.9845
B( 17-C , 18-O ) :   1.1090 B( 17-C , 19-C ) :   1.3658 B( 18-O , 34-H ) :   0.9792
B( 19-C , 35-H ) :   0.9563

MP2 TOTAL ENERGY:    -1274.314449000 Eh
FINAL SINGLE POINT ENERGY     -1274.314448999563

DIPOLE MOMENT
-------------
                                X             Y             Z
Electronic contribution:      8.83731       7.82622       6.21255
Nuclear contribution   :    -10.33921      -9.46189      -6.44909
                        -----------------------------------------
Total Dipole Moment    :     -1.50190      -1.63567      -0.23654
                        -----------------------------------------
Magnitude (a.u.)       :      2.23318
Magnitude (Debye)      :      5.67629

Rotational constants in cm-1:     0.012108     0.009210     0.006242
Rotational constants in MHz :   362.979442   276.100677   187.142136

                             ****ORCA TERMINATED NORMALLY****
TOTAL RUN TIME: 0 days 1 hours 46 minutes 49 seconds 527 msec
