                         Program Version 4.2.0 -  RELEASE  -
|  1> ! ri-mp2 cc-pvtz cc-pvtz/c TightSCF NoKeepInts
|  2>
|  3> %scf
|  4>   MaxCore 4096
|  5> end
|  6> *xyz  0  1
|  7>     C       14.0801156   15.1345158   15.1462242
|  8>     C       14.9583419   16.3608643   15.4423420
|  9>     O       16.2829178   16.0556464   14.9632258
| 10>     C       17.4106546   16.4510277   15.6345615
| 11>     O       18.4441959   15.8122659   15.5650390
| 12>     C       17.2733282   17.6455597   16.5229948
| 13>     C       16.9582509   18.8582577   16.0052566
| 14>     C       16.5112372   19.1682520   14.5904569
| 15>     N       17.1238327   20.0210297   16.7599495
| 16>     C       17.8230082   20.0804742   17.9366986
| 17>     S       18.0806130   21.5107526   18.7253568
| 18>     N       18.3202539   18.8925162   18.4137738
| 19>     C       18.0249713   17.5596796   17.8509141
| 20>     C       17.3808813   16.5836597   18.8237812
| 21>     C       17.8344087   15.2544734   18.8954303
| 22>     C       17.2292979   14.3400917   19.7736319
| 23>     C       16.1594551   14.7580402   20.5836892
| 24>     C       15.7008928   16.0804386   20.5084126
| 25>     O       14.6612610   16.4838628   21.2811126
| 26>     C       16.3043156   16.9885040   19.6322784
| 27>     H       14.4759974   14.2453568   15.6533363
| 28>     H       14.0494236   14.9315123   14.0683595
| 29>     H       13.0536217   15.3002635   15.4951536
| 30>     H       14.5511564   17.2471418   14.9417169
| 31>     H       14.9551006   16.5283519   16.5282907
| 32>     H       16.7378182   18.3564818   13.8886972
| 33>     H       17.0246967   20.0569962   14.2012711
| 34>     H       15.4330482   19.3629079   14.5492430
| 35>     H       16.7989433   20.9054759   16.4018109
| 36>     H       18.8290377   18.9625603   19.2863369
| 37>     H       19.0422396   17.2252687   17.5973137
| 38>     H       18.6533227   14.9270088   18.2577318
| 39>     H       17.5876251   13.3129806   19.8197351
| 40>     H       15.6884246   14.0542384   21.2620116
| 41>     H       14.4112445   15.7364560   21.8452619
| 42>     H       15.9330659   18.0070868   19.5866003
| 43> *
| 44>
| 45>                          ****END OF INPUT****

CARTESIAN COORDINATES (ANGSTROEM)
---------------------------------
  C     14.080116   15.134516   15.146224
  C     14.958342   16.360864   15.442342
  O     16.282918   16.055646   14.963226
  C     17.410655   16.451028   15.634561
  O     18.444196   15.812266   15.565039
  C     17.273328   17.645560   16.522995
  C     16.958251   18.858258   16.005257
  C     16.511237   19.168252   14.590457
  N     17.123833   20.021030   16.759950
  C     17.823008   20.080474   17.936699
  S     18.080613   21.510753   18.725357
  N     18.320254   18.892516   18.413774
  C     18.024971   17.559680   17.850914
  C     17.380881   16.583660   18.823781
  C     17.834409   15.254473   18.895430
  C     17.229298   14.340092   19.773632
  C     16.159455   14.758040   20.583689
  C     15.700893   16.080439   20.508413
  O     14.661261   16.483863   21.281113
  C     16.304316   16.988504   19.632278
  H     14.475997   14.245357   15.653336
  H     14.049424   14.931512   14.068359
  H     13.053622   15.300263   15.495154
  H     14.551156   17.247142   14.941717
  H     14.955101   16.528352   16.528291
  H     16.737818   18.356482   13.888697
  H     17.024697   20.056996   14.201271
  H     15.433048   19.362908   14.549243
  H     16.798943   20.905476   16.401811
  H     18.829038   18.962560   19.286337
  H     19.042240   17.225269   17.597314
  H     18.653323   14.927009   18.257732
  H     17.587625   13.312981   19.819735
  H     15.688425   14.054238   21.262012
  H     14.411245   15.736456   21.845262
  H     15.933066   18.007087   19.586600

 Total Charge           Charge          ....    0
 Multiplicity           Mult            ....    1
 Number of Electrons    NEL             ....  154
 Basis Dimension        Dim             ....  828

ORBITAL ENERGIES
----------------

  NO   OCC          E(Eh)            E(eV)
   0   2.0000     -91.889841     -2500.4497
   1   2.0000     -20.603813      -560.6582
   2   2.0000     -20.599321      -560.5360
   3   2.0000     -20.550389      -559.2045
   4   2.0000     -15.628055      -425.2610
   5   2.0000     -15.609437      -424.7544
   6   2.0000     -11.398634      -310.1726
   7   2.0000     -11.385726      -309.8214
   8   2.0000     -11.334736      -308.4338
   9   2.0000     -11.316598      -307.9403
  10   2.0000     -11.309695      -307.7525
  11   2.0000     -11.306716      -307.6714
  12   2.0000     -11.267004      -306.5908
  13   2.0000     -11.264246      -306.5157
  14   2.0000     -11.264044      -306.5102
  15   2.0000     -11.256754      -306.3119
  16   2.0000     -11.245695      -306.0109
  17   2.0000     -11.241975      -305.9097
  18   2.0000     -11.238999      -305.8287
  19   2.0000     -11.233518      -305.6796
  20   2.0000      -8.894949      -242.0439
  21   2.0000      -6.576531      -178.9565
  22   2.0000      -6.574518      -178.9017
  23   2.0000      -6.573935      -178.8859
  24   2.0000      -1.450319       -39.4652
  25   2.0000      -1.419041       -38.6141
  26   2.0000      -1.362967       -37.0882
  27   2.0000      -1.341135       -36.4941
  28   2.0000      -1.239406       -33.7259
  29   2.0000      -1.160917       -31.5901
  30   2.0000      -1.126024       -30.6407
  31   2.0000      -1.048254       -28.5245
  32   2.0000      -1.041187       -28.3321
  33   2.0000      -1.018739       -27.7213
  34   2.0000      -1.005949       -27.3733
  35   2.0000      -0.989335       -26.9212
  36   2.0000      -0.926373       -25.2079
  37   2.0000      -0.881931       -23.9986
  38   2.0000      -0.856253       -23.2998
  39   2.0000      -0.842615       -22.9287
  40   2.0000      -0.837607       -22.7924
  41   2.0000      -0.835847       -22.7446
  42   2.0000      -0.757271       -20.6064
  43   2.0000      -0.740010       -20.1367
  44   2.0000      -0.732010       -19.9190
  45   2.0000      -0.697036       -18.9673
  46   2.0000      -0.689230       -18.7549
  47   2.0000      -0.683259       -18.5924
  48   2.0000      -0.675193       -18.3729
  49   2.0000      -0.662189       -18.0191
  50   2.0000      -0.659722       -17.9519
  51   2.0000      -0.647878       -17.6297
  52   2.0000      -0.639263       -17.3952
  53   2.0000      -0.612595       -16.6696
  54   2.0000      -0.606962       -16.5163
  55   2.0000      -0.602792       -16.4028
  56   2.0000      -0.595963       -16.2170
  57   2.0000      -0.581434       -15.8216
  58   2.0000      -0.577571       -15.7165
  59   2.0000      -0.571727       -15.5575
  60   2.0000      -0.562611       -15.3094
  61   2.0000      -0.560091       -15.2408
  62   2.0000      -0.551850       -15.0166
  63   2.0000      -0.527397       -14.3512
  64   2.0000      -0.518314       -14.1040
  65   2.0000      -0.514874       -14.0104
  66   2.0000      -0.504564       -13.7299
  67   2.0000      -0.501300       -13.6411
  68   2.0000      -0.489124       -13.3097
  69   2.0000      -0.472171       -12.8484
  70   2.0000      -0.456696       -12.4273
  71   2.0000      -0.451867       -12.2959
  72   2.0000      -0.356535        -9.7018
  73   2.0000      -0.351589        -9.5672
  74   2.0000      -0.329321        -8.9613
  75   2.0000      -0.324107        -8.8194
  76   2.0000      -0.319837        -8.7032
  77   0.0000       0.083162         2.2629
  78   0.0000       0.103581         2.8186
  79   0.0000       0.116611         3.1731
  80   0.0000       0.130315         3.5461
  81   0.0000       0.130704         3.5566

MULLIKEN ATOMIC CHARGES
-----------------------
   0 C :   -0.252001
   1 C :    0.020685
   2 O :   -0.313699
   3 C :    0.418969
   4 O :   -0.381676
   5 C :   -0.232189
   6 C :    0.170707
   7 C :   -0.340846
   8 N :   -0.139610
   9 C :    0.208065
  10 S :   -0.442584
  11 N :   -0.220843
  12 C :    0.063485
  13 C :    0.026471
  14 C :   -0.218181
  15 C :   -0.127783
  16 C :   -0.276799
  17 C :    0.315162
  18 O :   -0.356164
  19 C :   -0.256189
  20 H :    0.105461
  21 H :    0.099865
  22 H :    0.088565
  23 H :    0.086001
  24 H :    0.107660
  25 H :    0.138922
  26 H :    0.131600
  27 H :    0.124286
  28 H :    0.198092
  29 H :    0.202034
  30 H :    0.166297
  31 H :    0.175789
  32 H :    0.164505
  33 H :    0.131520
  34 H :    0.241320
  35 H :    0.173104
Sum of atomic charges:   -0.0000000

LOEWDIN ATOMIC CHARGES
----------------------
   0 C :    0.110842
   1 C :   -0.023280
   2 O :    0.306812
   3 C :   -0.416280
   4 O :    0.119772
   5 C :   -0.086749
   6 C :   -0.086871
   7 C :    0.125058
   8 N :    0.402989
   9 C :   -0.456915
  10 S :   -0.037964
  11 N :    0.395983
  12 C :   -0.049544
  13 C :   -0.044307
  14 C :    0.020392
  15 C :    0.044645
  16 C :    0.000036
  17 C :   -0.191812
  18 O :    0.394792
  19 C :    0.026646
  20 H :   -0.022039
  21 H :   -0.025768
  22 H :   -0.025629
  23 H :   -0.036599
  24 H :   -0.030776
  25 H :   -0.007741
  26 H :   -0.011133
  27 H :   -0.018452
  28 H :   -0.056954
  29 H :   -0.063565
  30 H :   -0.004262
  31 H :   -0.021207
  32 H :   -0.018680
  33 H :   -0.034863
  34 H :   -0.153194
  35 H :   -0.023383

  Mayer bond orders larger than 0.100000
B(  0-C ,  1-C ) :   0.9842 B(  0-C , 20-H ) :   0.9779 B(  0-C , 21-H ) :   0.9787
B(  0-C , 22-H ) :   0.9768 B(  1-C ,  2-O ) :   0.9050 B(  1-C , 23-H ) :   0.9719
B(  1-C , 24-H ) :   0.9615 B(  2-O ,  3-C ) :   1.1819 B(  3-C ,  4-O ) :   2.0917
B(  3-C ,  5-C ) :   0.9288 B(  5-C ,  6-C ) :   1.7059 B(  5-C , 12-C ) :   0.9403
B(  6-C ,  7-C ) :   0.9352 B(  6-C ,  8-N ) :   1.1123 B(  7-C , 25-H ) :   0.9735
B(  7-C , 26-H ) :   0.9759 B(  7-C , 27-H ) :   0.9671 B(  8-N ,  9-C ) :   1.1959
B(  8-N , 28-H ) :   0.9509 B(  9-C , 10-S ) :   1.6104 B(  9-C , 11-N ) :   1.2922
B( 11-N , 12-C ) :   0.9851 B( 11-N , 29-H ) :   0.9478 B( 12-C , 13-C ) :   0.9676
B( 12-C , 30-H ) :   0.9900 B( 13-C , 14-C ) :   1.3860 B( 13-C , 19-C ) :   1.3528
B( 14-C , 15-C ) :   1.3934 B( 14-C , 31-H ) :   0.9592 B( 15-C , 16-C ) :   1.3616
B( 15-C , 32-H ) :   0.9698 B( 16-C , 17-C ) :   1.3314 B( 16-C , 33-H ) :   0.9849
B( 17-C , 18-O ) :   1.1088 B( 17-C , 19-C ) :   1.3645 B( 18-O , 34-H ) :   0.9794
B( 19-C , 35-H ) :   0.9567

MP2 TOTAL ENERGY:    -1274.332218776 Eh
FINAL SINGLE POINT ENERGY     -1274.332218775768

DIPOLE MOMENT
-------------
                                X             Y             Z
Electronic contribution:     10.29355       8.66130       8.56182
Nuclear contribution   :    -11.95111      -9.76844      -8.93691
                        -----------------------------------------
Total Dipole Moment    :     -1.65756      -1.10714      -0.37509
                        -----------------------------------------
Magnitude (a.u.)       :      2.02829
Magnitude (Debye)      :      5.15549

Rotational constants in cm-1:     0.010716     0.009108     0.006188
Rotational constants in MHz :   321.255718   273.043852   185.520514

                             ****ORCA TERMINATED NORMALLY****
TOTAL RUN TIME: 0 days 1 hours 38 minutes 47 seconds 724 msec
