                         Program Version 4.2.0 -  RELEASE  -
|  1> ! ri-mp2 cc-pvtz cc-pvtz/c TightSCF NoKeepInts
|  2>
|  3> %scf
|  4>   MaxCore 4096
|  5> end
|  6> *xyz  0  1
|  7>     C       14.0679599   15.1932843   15.4351079
|  8>     C       15.2548999   15.7312190   16.2505493
|  9>     O       16.3495499   15.9110575   15.3312863
| 10>     C       17.0626219   17.0752705   15.2180333
| 11>     O       17.6442216   17.3498889   14.1849379
| 12>     C       17.0777039   17.9829137   16.4083912
| 13>     C       16.9013026   19.3078299   16.1937658
| 14>     C       16.2965799   19.9289361   14.9528302
| 15>     N       17.2898403   20.2565500   17.1406279
| 16>     C       18.0902990   19.9781430   18.2162017
| 17>     S       18.6202372   21.1606578   19.2434970
| 18>     N       18.4515037   18.6639595   18.3849368
| 19>     C       17.9200480   17.5258850   17.6090971
| 20>     C       17.3195674   16.4336287   18.4781822
| 21>     C       17.8424432   15.1277974   18.4476530
| 22>     C       17.2836013   14.1185611   19.2496979
| 23>     C       16.1978883   14.4193390   20.0903098
| 24>     C       15.6816652   15.7219259   20.1282142
| 25>     O       14.6311228   16.0145257   20.9346160
| 26>     C       16.2384587   16.7244789   19.3277743
| 27>     H       13.2015458   15.0187171   16.0845501
| 28>     H       14.3313255   14.2444533   14.9508991
| 29>     H       13.7765565   15.9088780   14.6561338
| 30>     H       14.9539029   16.6704933   16.7315258
| 31>     H       15.5218703   15.0025619   17.0255810
| 32>     H       15.5065999   19.2929032   14.5344539
| 33>     H       17.0630010   20.0500222   14.1756170
| 34>     H       15.8537303   20.9126614   15.1491913
| 35>     H       17.0711572   21.2299108   16.9978389
| 36>     H       19.0342623   18.4875682   19.1939588
| 37>     H       18.8575250   17.1627475   17.1627609
| 38>     H       18.6787953   14.8916173   17.7939745
| 39>     H       17.6915792   13.1093022   19.2177533
| 40>     H       15.7633622   13.6420792   20.7108180
| 41>     H       14.4296231   15.2208801   21.4536772
| 42>     H       15.8306489   17.7293522   19.3735565
| 43> *
| 44>
| 45>                          ****END OF INPUT****

CARTESIAN COORDINATES (ANGSTROEM)
---------------------------------
  C     14.067960   15.193284   15.435108
  C     15.254900   15.731219   16.250549
  O     16.349550   15.911057   15.331286
  C     17.062622   17.075270   15.218033
  O     17.644222   17.349889   14.184938
  C     17.077704   17.982914   16.408391
  C     16.901303   19.307830   16.193766
  C     16.296580   19.928936   14.952830
  N     17.289840   20.256550   17.140628
  C     18.090299   19.978143   18.216202
  S     18.620237   21.160658   19.243497
  N     18.451504   18.663960   18.384937
  C     17.920048   17.525885   17.609097
  C     17.319567   16.433629   18.478182
  C     17.842443   15.127797   18.447653
  C     17.283601   14.118561   19.249698
  C     16.197888   14.419339   20.090310
  C     15.681665   15.721926   20.128214
  O     14.631123   16.014526   20.934616
  C     16.238459   16.724479   19.327774
  H     13.201546   15.018717   16.084550
  H     14.331326   14.244453   14.950899
  H     13.776556   15.908878   14.656134
  H     14.953903   16.670493   16.731526
  H     15.521870   15.002562   17.025581
  H     15.506600   19.292903   14.534454
  H     17.063001   20.050022   14.175617
  H     15.853730   20.912661   15.149191
  H     17.071157   21.229911   16.997839
  H     19.034262   18.487568   19.193959
  H     18.857525   17.162747   17.162761
  H     18.678795   14.891617   17.793975
  H     17.691579   13.109302   19.217753
  H     15.763362   13.642079   20.710818
  H     14.429623   15.220880   21.453677
  H     15.830649   17.729352   19.373556

 Total Charge           Charge          ....    0
 Multiplicity           Mult            ....    1
 Number of Electrons    NEL             ....  154
 Basis Dimension        Dim             ....  828

ORBITAL ENERGIES
----------------

  NO   OCC          E(Eh)            E(eV)
   0   2.0000     -91.890351     -2500.4636
   1   2.0000     -20.605992      -560.7175
   2   2.0000     -20.598165      -560.5046
   3   2.0000     -20.548350      -559.1490
   4   2.0000     -15.627467      -425.2450
   5   2.0000     -15.611035      -424.7979
   6   2.0000     -11.395302      -310.0819
   7   2.0000     -11.385635      -309.8189
   8   2.0000     -11.330039      -308.3060
   9   2.0000     -11.324440      -308.1537
  10   2.0000     -11.317153      -307.9554
  11   2.0000     -11.296690      -307.3986
  12   2.0000     -11.270349      -306.6818
  13   2.0000     -11.265566      -306.5516
  14   2.0000     -11.257443      -306.3306
  15   2.0000     -11.256494      -306.3048
  16   2.0000     -11.254837      -306.2597
  17   2.0000     -11.249307      -306.1092
  18   2.0000     -11.248641      -306.0911
  19   2.0000     -11.228277      -305.5369
  20   2.0000      -8.895425      -242.0568
  21   2.0000      -6.576998      -178.9692
  22   2.0000      -6.574997      -178.9148
  23   2.0000      -6.574407      -178.8987
  24   2.0000      -1.445830       -39.3430
  25   2.0000      -1.425776       -38.7973
  26   2.0000      -1.358822       -36.9754
  27   2.0000      -1.340630       -36.4804
  28   2.0000      -1.240436       -33.7540
  29   2.0000      -1.167693       -31.7745
  30   2.0000      -1.125440       -30.6248
  31   2.0000      -1.051986       -28.6260
  32   2.0000      -1.035595       -28.1800
  33   2.0000      -1.025731       -27.9115
  34   2.0000      -1.003346       -27.3024
  35   2.0000      -0.989372       -26.9222
  36   2.0000      -0.927700       -25.2440
  37   2.0000      -0.879975       -23.9453
  38   2.0000      -0.852922       -23.2092
  39   2.0000      -0.845164       -22.9981
  40   2.0000      -0.844564       -22.9818
  41   2.0000      -0.837420       -22.7874
  42   2.0000      -0.759809       -20.6755
  43   2.0000      -0.740618       -20.1532
  44   2.0000      -0.724520       -19.7152
  45   2.0000      -0.704832       -19.1795
  46   2.0000      -0.693525       -18.8718
  47   2.0000      -0.677003       -18.4222
  48   2.0000      -0.675858       -18.3910
  49   2.0000      -0.671306       -18.2672
  50   2.0000      -0.651122       -17.7179
  51   2.0000      -0.647784       -17.6271
  52   2.0000      -0.636897       -17.3308
  53   2.0000      -0.615629       -16.7521
  54   2.0000      -0.609878       -16.5956
  55   2.0000      -0.604588       -16.4517
  56   2.0000      -0.591031       -16.0828
  57   2.0000      -0.584286       -15.8992
  58   2.0000      -0.576932       -15.6991
  59   2.0000      -0.570292       -15.5184
  60   2.0000      -0.561831       -15.2882
  61   2.0000      -0.555189       -15.1075
  62   2.0000      -0.547034       -14.8855
  63   2.0000      -0.531599       -14.4655
  64   2.0000      -0.524756       -14.2793
  65   2.0000      -0.517261       -14.0754
  66   2.0000      -0.505606       -13.7582
  67   2.0000      -0.502661       -13.6781
  68   2.0000      -0.488690       -13.2979
  69   2.0000      -0.469114       -12.7652
  70   2.0000      -0.453433       -12.3385
  71   2.0000      -0.446377       -12.1465
  72   2.0000      -0.359552        -9.7839
  73   2.0000      -0.352410        -9.5896
  74   2.0000      -0.333771        -9.0824
  75   2.0000      -0.328969        -8.9517
  76   2.0000      -0.320033        -8.7085
  77   0.0000       0.082558         2.2465
  78   0.0000       0.093524         2.5449
  79   0.0000       0.117120         3.1870
  80   0.0000       0.125550         3.4164
  81   0.0000       0.129198         3.5157

MULLIKEN ATOMIC CHARGES
-----------------------
   0 C :   -0.252687
   1 C :    0.013813
   2 O :   -0.308091
   3 C :    0.399549
   4 O :   -0.377141
   5 C :   -0.238250
   6 C :    0.159338
   7 C :   -0.279798
   8 N :   -0.131971
   9 C :    0.211639
  10 S :   -0.440243
  11 N :   -0.209956
  12 C :    0.027927
  13 C :   -0.018284
  14 C :   -0.170150
  15 C :   -0.140205
  16 C :   -0.269128
  17 C :    0.298387
  18 O :   -0.354501
  19 C :   -0.203761
  20 H :    0.088477
  21 H :    0.102351
  22 H :    0.093287
  23 H :    0.098469
  24 H :    0.111913
  25 H :    0.114445
  26 H :    0.144270
  27 H :    0.098059
  28 H :    0.198398
  29 H :    0.199695
  30 H :    0.160581
  31 H :    0.156573
  32 H :    0.165654
  33 H :    0.136003
  34 H :    0.242208
  35 H :    0.173131
Sum of atomic charges:   -0.0000000

LOEWDIN ATOMIC CHARGES
----------------------
   0 C :    0.107434
   1 C :   -0.025414
   2 O :    0.310581
   3 C :   -0.421130
   4 O :    0.122697
   5 C :   -0.098414
   6 C :   -0.080038
   7 C :    0.129347
   8 N :    0.405165
   9 C :   -0.455125
  10 S :   -0.035541
  11 N :    0.395353
  12 C :   -0.055060
  13 C :   -0.044932
  14 C :    0.018048
  15 C :    0.043243
  16 C :    0.002198
  17 C :   -0.191747
  18 O :    0.397223
  19 C :    0.035914
  20 H :   -0.026577
  21 H :   -0.024836
  22 H :   -0.028157
  23 H :   -0.037519
  24 H :   -0.027827
  25 H :   -0.009458
  26 H :   -0.003413
  27 H :   -0.020900
  28 H :   -0.057392
  29 H :   -0.063826
  30 H :   -0.009716
  31 H :   -0.026087
  32 H :   -0.018221
  33 H :   -0.032899
  34 H :   -0.151850
  35 H :   -0.021124

  Mayer bond orders larger than 0.100000
B(  0-C ,  1-C ) :   0.9799 B(  0-C , 20-H ) :   0.9776 B(  0-C , 21-H ) :   0.9804
B(  0-C , 22-H ) :   0.9788 B(  1-C ,  2-O ) :   0.8924 B(  1-C , 23-H ) :   0.9597
B(  1-C , 24-H ) :   0.9723 B(  2-O ,  3-C ) :   1.2021 B(  3-C ,  4-O ) :   2.1165
B(  3-C ,  5-C ) :   0.9355 B(  5-C ,  6-C ) :   1.6912 B(  5-C , 12-C ) :   0.9563
B(  6-C ,  7-C ) :   0.9463 B(  6-C ,  8-N ) :   1.1319 B(  7-C , 25-H ) :   0.9767
B(  7-C , 26-H ) :   0.9563 B(  7-C , 27-H ) :   0.9848 B(  8-N ,  9-C ) :   1.1966
B(  8-N , 28-H ) :   0.9489 B(  9-C , 10-S ) :   1.6126 B(  9-C , 11-N ) :   1.2904
B( 11-N , 12-C ) :   0.9783 B( 11-N , 29-H ) :   0.9475 B( 12-C , 13-C ) :   0.9627
B( 12-C , 30-H ) :   1.0070 B( 13-C , 14-C ) :   1.3656 B( 13-C , 19-C ) :   1.3553
B( 14-C , 15-C ) :   1.3959 B( 14-C , 31-H ) :   0.9707 B( 15-C , 16-C ) :   1.3641
B( 15-C , 32-H ) :   0.9699 B( 16-C , 17-C ) :   1.3265 B( 16-C , 33-H ) :   0.9831
B( 17-C , 18-O ) :   1.1114 B( 17-C , 19-C ) :   1.3687 B( 18-O , 34-H ) :   0.9783
B( 19-C , 35-H ) :   0.9582

MP2 TOTAL ENERGY:    -1274.325938195 Eh
FINAL SINGLE POINT ENERGY     -1274.325938194899

DIPOLE MOMENT
-------------
                                X             Y             Z
Electronic contribution:     10.42081       8.83551       6.92085
Nuclear contribution   :    -11.89429     -10.45509      -6.51017
                        -----------------------------------------
Total Dipole Moment    :     -1.47348      -1.61958       0.41068
                        -----------------------------------------
Magnitude (a.u.)       :      2.22774
Magnitude (Debye)      :      5.66247

Rotational constants in cm-1:     0.011924     0.008839     0.006106
Rotational constants in MHz :   357.477669   264.984904   183.045843

                             ****ORCA TERMINATED NORMALLY****
TOTAL RUN TIME: 0 days 1 hours 48 minutes 26 seconds 167 msec
