                         Program Version 4.2.0 -  RELEASE  -
|  1> ! ri-mp2 cc-pvtz cc-pvtz/c TightSCF NoKeepInts
|  2>
|  3> %scf
|  4>   MaxCore 4096
|  5> end
|  6> *xyz  0  1
|  7>     C       13.9823747   15.4648907   14.6448205
|  8>     C       14.9879115   16.1182848   15.6065572
|  9>     O       16.2969529   15.9607882   15.0267465
| 10>     C       17.4125322   16.3525222   15.7159891
| 11>     O       18.4381333   15.6978702   15.6902737
| 12>     C       17.2646353   17.5766424   16.5611701
| 13>     C       16.9199486   18.7615006   15.9990243
| 14>     C       16.4478134   18.9979279   14.5772460
| 15>     N       17.0705075   19.9564712   16.7051882
| 16>     C       17.7819308   20.0759449   17.8700401
| 17>     S       18.0194271   21.5408647   18.5992146
| 18>     N       18.3081441   18.9176765   18.3876729
| 19>     C       18.0324358   17.5577651   17.8824168
| 20>     C       17.4175842   16.6106593   18.9017810
| 21>     C       17.9020265   15.2965702   19.0284884
| 22>     C       17.3244464   14.4086282   19.9512402
| 23>     C       16.2513073   14.8378743   20.7509645
| 24>     C       15.7620925   16.1449739   20.6212183
| 25>     O       14.7193171   16.5588023   21.3840994
| 26>     C       16.3379491   17.0264921   19.7005438
| 27>     H       14.2226845   14.4041327   14.4984273
| 28>     H       14.0028172   15.9612446   13.6666305
| 29>     H       12.9636486   15.5337377   15.0453895
| 30>     H       14.7250893   17.1721961   15.7517297
| 31>     H       14.9452953   15.6118981   16.5809137
| 32>     H       16.8224007   18.2332940   13.8852719
| 33>     H       16.8066179   19.9599018   14.1894285
| 34>     H       15.3533295   19.0026438   14.5154862
| 35>     H       16.7218286   20.8191710   16.3177002
| 36>     H       18.8247924   19.0324446   19.2508207
| 37>     H       19.0530264   17.2324939   17.6303750
| 38>     H       18.7238468   14.9598016   18.3994331
| 39>     H       17.7067925   13.3930196   20.0399617
| 40>     H       15.8016895   14.1545067   21.4638605
| 41>     H       14.4922758   15.8328189   21.9847746
| 42>     H       15.9433949   18.0335453   19.6131012
| 43> *
| 44>
| 45>                          ****END OF INPUT****

CARTESIAN COORDINATES (ANGSTROEM)
---------------------------------
  C     13.982375   15.464891   14.644820
  C     14.987911   16.118285   15.606557
  O     16.296953   15.960788   15.026746
  C     17.412532   16.352522   15.715989
  O     18.438133   15.697870   15.690274
  C     17.264635   17.576642   16.561170
  C     16.919949   18.761501   15.999024
  C     16.447813   18.997928   14.577246
  N     17.070508   19.956471   16.705188
  C     17.781931   20.075945   17.870040
  S     18.019427   21.540865   18.599215
  N     18.308144   18.917676   18.387673
  C     18.032436   17.557765   17.882417
  C     17.417584   16.610659   18.901781
  C     17.902027   15.296570   19.028488
  C     17.324446   14.408628   19.951240
  C     16.251307   14.837874   20.750964
  C     15.762092   16.144974   20.621218
  O     14.719317   16.558802   21.384099
  C     16.337949   17.026492   19.700544
  H     14.222684   14.404133   14.498427
  H     14.002817   15.961245   13.666630
  H     12.963649   15.533738   15.045390
  H     14.725089   17.172196   15.751730
  H     14.945295   15.611898   16.580914
  H     16.822401   18.233294   13.885272
  H     16.806618   19.959902   14.189428
  H     15.353329   19.002644   14.515486
  H     16.721829   20.819171   16.317700
  H     18.824792   19.032445   19.250821
  H     19.053026   17.232494   17.630375
  H     18.723847   14.959802   18.399433
  H     17.706792   13.393020   20.039962
  H     15.801690   14.154507   21.463860
  H     14.492276   15.832819   21.984775
  H     15.943395   18.033545   19.613101

 Total Charge           Charge          ....    0
 Multiplicity           Mult            ....    1
 Number of Electrons    NEL             ....  154
 Basis Dimension        Dim             ....  828

ORBITAL ENERGIES
----------------

  NO   OCC          E(Eh)            E(eV)
   0   2.0000     -91.889982     -2500.4535
   1   2.0000     -20.601383      -560.5921
   2   2.0000     -20.598649      -560.5177
   3   2.0000     -20.552402      -559.2593
   4   2.0000     -15.628696      -425.2784
   5   2.0000     -15.609229      -424.7487
   6   2.0000     -11.397571      -310.1437
   7   2.0000     -11.385729      -309.8214
   8   2.0000     -11.335417      -308.4524
   9   2.0000     -11.315747      -307.9171
  10   2.0000     -11.309021      -307.7341
  11   2.0000     -11.306563      -307.6672
  12   2.0000     -11.266602      -306.5798
  13   2.0000     -11.263341      -306.4911
  14   2.0000     -11.262867      -306.4782
  15   2.0000     -11.255964      -306.2904
  16   2.0000     -11.245035      -305.9930
  17   2.0000     -11.241127      -305.8866
  18   2.0000     -11.238206      -305.8071
  19   2.0000     -11.236388      -305.7576
  20   2.0000      -8.895084      -242.0475
  21   2.0000      -6.576664      -178.9601
  22   2.0000      -6.574653      -178.9054
  23   2.0000      -6.574069      -178.8895
  24   2.0000      -1.451245       -39.4904
  25   2.0000      -1.418363       -38.5956
  26   2.0000      -1.363573       -37.1047
  27   2.0000      -1.341215       -36.4963
  28   2.0000      -1.239260       -33.7220
  29   2.0000      -1.160141       -31.5690
  30   2.0000      -1.125767       -30.6337
  31   2.0000      -1.047774       -28.5114
  32   2.0000      -1.042025       -28.3549
  33   2.0000      -1.017892       -27.6982
  34   2.0000      -1.005140       -27.3513
  35   2.0000      -0.989276       -26.9196
  36   2.0000      -0.925888       -25.1947
  37   2.0000      -0.880861       -23.9694
  38   2.0000      -0.855697       -23.2847
  39   2.0000      -0.842828       -22.9345
  40   2.0000      -0.837211       -22.7817
  41   2.0000      -0.835083       -22.7238
  42   2.0000      -0.759244       -20.6601
  43   2.0000      -0.739555       -20.1243
  44   2.0000      -0.732035       -19.9197
  45   2.0000      -0.696022       -18.9397
  46   2.0000      -0.688601       -18.7378
  47   2.0000      -0.683937       -18.6109
  48   2.0000      -0.674139       -18.3442
  49   2.0000      -0.663914       -18.0660
  50   2.0000      -0.656099       -17.8534
  51   2.0000      -0.648162       -17.6374
  52   2.0000      -0.639497       -17.4016
  53   2.0000      -0.612568       -16.6688
  54   2.0000      -0.606172       -16.4948
  55   2.0000      -0.602776       -16.4024
  56   2.0000      -0.600756       -16.3474
  57   2.0000      -0.583871       -15.8879
  58   2.0000      -0.576858       -15.6971
  59   2.0000      -0.566608       -15.4182
  60   2.0000      -0.560902       -15.2629
  61   2.0000      -0.560033       -15.2393
  62   2.0000      -0.548730       -14.9317
  63   2.0000      -0.526674       -14.3315
  64   2.0000      -0.523519       -14.2457
  65   2.0000      -0.514706       -14.0059
  66   2.0000      -0.504372       -13.7247
  67   2.0000      -0.500874       -13.6295
  68   2.0000      -0.489044       -13.3076
  69   2.0000      -0.468978       -12.7615
  70   2.0000      -0.460718       -12.5368
  71   2.0000      -0.451938       -12.2978
  72   2.0000      -0.356472        -9.7001
  73   2.0000      -0.350912        -9.5488
  74   2.0000      -0.329374        -8.9627
  75   2.0000      -0.323358        -8.7990
  76   2.0000      -0.319717        -8.6999
  77   0.0000       0.081093         2.2066
  78   0.0000       0.104817         2.8522
  79   0.0000       0.115224         3.1354
  80   0.0000       0.130141         3.5413
  81   0.0000       0.130811         3.5595

MULLIKEN ATOMIC CHARGES
-----------------------
   0 C :   -0.258603
   1 C :    0.023924
   2 O :   -0.320591
   3 C :    0.419868
   4 O :   -0.378427
   5 C :   -0.220841
   6 C :    0.149092
   7 C :   -0.319592
   8 N :   -0.136863
   9 C :    0.208267
  10 S :   -0.441870
  11 N :   -0.220384
  12 C :    0.059334
  13 C :    0.025466
  14 C :   -0.216754
  15 C :   -0.127929
  16 C :   -0.278072
  17 C :    0.314125
  18 O :   -0.356437
  19 C :   -0.251174
  20 H :    0.107379
  21 H :    0.095029
  22 H :    0.090648
  23 H :    0.087637
  24 H :    0.113556
  25 H :    0.139875
  26 H :    0.124542
  27 H :    0.120758
  28 H :    0.197863
  29 H :    0.201938
  30 H :    0.165028
  31 H :    0.175104
  32 H :    0.164248
  33 H :    0.131402
  34 H :    0.241163
  35 H :    0.171289
Sum of atomic charges:   -0.0000000

LOEWDIN ATOMIC CHARGES
----------------------
   0 C :    0.111659
   1 C :   -0.025592
   2 O :    0.303878
   3 C :   -0.417000
   4 O :    0.123783
   5 C :   -0.088084
   6 C :   -0.085067
   7 C :    0.127411
   8 N :    0.403103
   9 C :   -0.456859
  10 S :   -0.037468
  11 N :    0.395979
  12 C :   -0.049579
  13 C :   -0.043929
  14 C :    0.020059
  15 C :    0.043830
  16 C :   -0.000485
  17 C :   -0.191957
  18 O :    0.394599
  19 C :    0.027214
  20 H :   -0.022048
  21 H :   -0.027363
  22 H :   -0.024220
  23 H :   -0.039324
  24 H :   -0.027208
  25 H :   -0.006978
  26 H :   -0.012954
  27 H :   -0.017455
  28 H :   -0.057514
  29 H :   -0.063599
  30 H :   -0.004749
  31 H :   -0.021496
  32 H :   -0.018879
  33 H :   -0.034991
  34 H :   -0.153337
  35 H :   -0.023382

  Mayer bond orders larger than 0.100000
B(  0-C ,  1-C ) :   0.9796 B(  0-C , 20-H ) :   0.9776 B(  0-C , 21-H ) :   0.9774
B(  0-C , 22-H ) :   0.9762 B(  1-C ,  2-O ) :   0.9025 B(  1-C , 23-H ) :   0.9672
B(  1-C , 24-H ) :   0.9751 B(  2-O ,  3-C ) :   1.1639 B(  3-C ,  4-O ) :   2.1004
B(  3-C ,  5-C ) :   0.9302 B(  5-C ,  6-C ) :   1.7124 B(  5-C , 12-C ) :   0.9429
B(  6-C ,  7-C ) :   0.9360 B(  6-C ,  8-N ) :   1.1139 B(  7-C , 25-H ) :   0.9711
B(  7-C , 26-H ) :   0.9816 B(  7-C , 27-H ) :   0.9660 B(  8-N ,  9-C ) :   1.1934
B(  8-N , 28-H ) :   0.9501 B(  9-C , 10-S ) :   1.6109 B(  9-C , 11-N ) :   1.2932
B( 11-N , 12-C ) :   0.9838 B( 11-N , 29-H ) :   0.9479 B( 12-C , 13-C ) :   0.9683
B( 12-C , 30-H ) :   0.9902 B( 13-C , 14-C ) :   1.3840 B( 13-C , 19-C ) :   1.3562
B( 14-C , 15-C ) :   1.3935 B( 14-C , 31-H ) :   0.9595 B( 15-C , 16-C ) :   1.3614
B( 15-C , 32-H ) :   0.9699 B( 16-C , 17-C ) :   1.3310 B( 16-C , 33-H ) :   0.9850
B( 17-C , 18-O ) :   1.1082 B( 17-C , 19-C ) :   1.3669 B( 18-O , 34-H ) :   0.9795
B( 19-C , 35-H ) :   0.9570

MP2 TOTAL ENERGY:    -1274.331400548 Eh
FINAL SINGLE POINT ENERGY     -1274.331400547720

DIPOLE MOMENT
-------------
                                X             Y             Z
Electronic contribution:     10.44514       8.33785       9.33047
Nuclear contribution   :    -12.06578      -9.50510      -9.67746
                        -----------------------------------------
Total Dipole Moment    :     -1.62064      -1.16725      -0.34698
                        -----------------------------------------
Magnitude (a.u.)       :      2.02715
Magnitude (Debye)      :      5.15262

Rotational constants in cm-1:     0.010280     0.009230     0.006145
Rotational constants in MHz :   308.186771   276.715048   184.237085

                             ****ORCA TERMINATED NORMALLY****
TOTAL RUN TIME: 0 days 1 hours 40 minutes 28 seconds 299 msec
