                         Program Version 4.2.0 -  RELEASE  -
|  1> ! ri-mp2 cc-pvtz cc-pvtz/c TightSCF NoKeepInts
|  2>
|  3> %scf
|  4>   MaxCore 4096
|  5> end
|  6> *xyz  0  1
|  7>     C       13.8454056   15.4814281   15.2143774
|  8>     C       14.9671800   16.1999991   15.9812370
|  9>     O       16.1671532   16.0789422   15.1928812
| 10>     C       17.2858130   16.8369306   15.4213010
| 11>     O       18.3268834   16.6552482   14.8195844
| 12>     C       17.1720309   17.8371866   16.5162941
| 13>     C       16.8110833   19.0983013   16.1949810
| 14>     C       16.2268857   19.5298457   14.8670063
| 15>     N       17.0413195   20.1571234   17.0748732
| 16>     C       17.8287530   20.0618753   18.1934289
| 17>     S       18.1502008   21.3740137   19.1469308
| 18>     N       18.3573554   18.8231427   18.4704596
| 19>     C       18.0287765   17.5760728   17.7499229
| 20>     C       17.4870299   16.4460483   18.6103653
| 21>     C       17.9488072   15.1313243   18.4207543
| 22>     C       17.4279837   14.0753052   19.1869335
| 23>     C       16.4350093   14.3365164   20.1467553
| 24>     C       15.9687572   15.6452321   20.3324118
| 25>     O       15.0014223   15.8984851   21.2490771
| 26>     C       16.4873593   16.6945756   19.5668248
| 27>     H       12.9010312   15.5371847   15.7693741
| 28>     H       14.0958429   14.4230530   15.0684220
| 29>     H       13.6941420   15.9390934   14.2287695
| 30>     H       14.6774200   17.2495361   16.1165531
| 31>     H       15.1095464   15.7419597   16.9695841
| 32>     H       15.4998072   18.8020336   14.4872049
| 33>     H       17.0218358   19.6225022   14.1149924
| 34>     H       15.7140259   20.4971864   14.9327866
| 35>     H       16.7014834   21.0806489   16.8571555
| 36>     H       18.9327708   18.7822004   19.3025575
| 37>     H       19.0235492   17.3093384   17.3617503
| 38>     H       18.7085596   14.9264440   17.6692698
| 39>     H       17.7919120   13.0606207   19.0327478
| 40>     H       16.0293481   13.5231089   20.7395761
| 41>     H       14.8108586   15.0672010   21.7098045
| 42>     H       16.1096576   17.7002920   19.7210521
| 43> *
| 44>
| 45>                          ****END OF INPUT****

CARTESIAN COORDINATES (ANGSTROEM)
---------------------------------
  C     13.845406   15.481428   15.214377
  C     14.967180   16.199999   15.981237
  O     16.167153   16.078942   15.192881
  C     17.285813   16.836931   15.421301
  O     18.326883   16.655248   14.819584
  C     17.172031   17.837187   16.516294
  C     16.811083   19.098301   16.194981
  C     16.226886   19.529846   14.867006
  N     17.041320   20.157123   17.074873
  C     17.828753   20.061875   18.193429
  S     18.150201   21.374014   19.146931
  N     18.357355   18.823143   18.470460
  C     18.028776   17.576073   17.749923
  C     17.487030   16.446048   18.610365
  C     17.948807   15.131324   18.420754
  C     17.427984   14.075305   19.186933
  C     16.435009   14.336516   20.146755
  C     15.968757   15.645232   20.332412
  O     15.001422   15.898485   21.249077
  C     16.487359   16.694576   19.566825
  H     12.901031   15.537185   15.769374
  H     14.095843   14.423053   15.068422
  H     13.694142   15.939093   14.228769
  H     14.677420   17.249536   16.116553
  H     15.109546   15.741960   16.969584
  H     15.499807   18.802034   14.487205
  H     17.021836   19.622502   14.114992
  H     15.714026   20.497186   14.932787
  H     16.701483   21.080649   16.857156
  H     18.932771   18.782200   19.302557
  H     19.023549   17.309338   17.361750
  H     18.708560   14.926444   17.669270
  H     17.791912   13.060621   19.032748
  H     16.029348   13.523109   20.739576
  H     14.810859   15.067201   21.709805
  H     16.109658   17.700292   19.721052

 Total Charge           Charge          ....    0
 Multiplicity           Mult            ....    1
 Number of Electrons    NEL             ....  154
 Basis Dimension        Dim             ....  828

ORBITAL ENERGIES
----------------

  NO   OCC          E(Eh)            E(eV)
   0   2.0000     -91.889132     -2500.4304
   1   2.0000     -20.604506      -560.6771
   2   2.0000     -20.603121      -560.6394
   3   2.0000     -20.553133      -559.2792
   4   2.0000     -15.625788      -425.1993
   5   2.0000     -15.610300      -424.7779
   6   2.0000     -11.398407      -310.1664
   7   2.0000     -11.385254      -309.8085
   8   2.0000     -11.326542      -308.2109
   9   2.0000     -11.321210      -308.0658
  10   2.0000     -11.313703      -307.8615
  11   2.0000     -11.303332      -307.5793
  12   2.0000     -11.268837      -306.6407
  13   2.0000     -11.264747      -306.5294
  14   2.0000     -11.262253      -306.4615
  15   2.0000     -11.257584      -306.3344
  16   2.0000     -11.250273      -306.1355
  17   2.0000     -11.245541      -306.0067
  18   2.0000     -11.245111      -305.9950
  19   2.0000     -11.234572      -305.7083
  20   2.0000      -8.894234      -242.0244
  21   2.0000      -6.575816      -178.9371
  22   2.0000      -6.573804      -178.8823
  23   2.0000      -6.573224      -178.8665
  24   2.0000      -1.449951       -39.4552
  25   2.0000      -1.422828       -38.7171
  26   2.0000      -1.364522       -37.1305
  27   2.0000      -1.338694       -36.4277
  28   2.0000      -1.238380       -33.6980
  29   2.0000      -1.165299       -31.7094
  30   2.0000      -1.127654       -30.6850
  31   2.0000      -1.051393       -28.6099
  32   2.0000      -1.040761       -28.3205
  33   2.0000      -1.022958       -27.8361
  34   2.0000      -1.005469       -27.3602
  35   2.0000      -0.989958       -26.9381
  36   2.0000      -0.927436       -25.2368
  37   2.0000      -0.880932       -23.9714
  38   2.0000      -0.854810       -23.2606
  39   2.0000      -0.843311       -22.9477
  40   2.0000      -0.841056       -22.8863
  41   2.0000      -0.839089       -22.8328
  42   2.0000      -0.758644       -20.6437
  43   2.0000      -0.738632       -20.0992
  44   2.0000      -0.734269       -19.9805
  45   2.0000      -0.700912       -19.0728
  46   2.0000      -0.691959       -18.8291
  47   2.0000      -0.680660       -18.5217
  48   2.0000      -0.676225       -18.4010
  49   2.0000      -0.668275       -18.1847
  50   2.0000      -0.655547       -17.8383
  51   2.0000      -0.651339       -17.7238
  52   2.0000      -0.635707       -17.2985
  53   2.0000      -0.613657       -16.6984
  54   2.0000      -0.607735       -16.5373
  55   2.0000      -0.606582       -16.5059
  56   2.0000      -0.591478       -16.0949
  57   2.0000      -0.583197       -15.8696
  58   2.0000      -0.580613       -15.7993
  59   2.0000      -0.572500       -15.5785
  60   2.0000      -0.562745       -15.3131
  61   2.0000      -0.561290       -15.2735
  62   2.0000      -0.552223       -15.0268
  63   2.0000      -0.529344       -14.4042
  64   2.0000      -0.524442       -14.2708
  65   2.0000      -0.516366       -14.0510
  66   2.0000      -0.509123       -13.8539
  67   2.0000      -0.503846       -13.7104
  68   2.0000      -0.490484       -13.3467
  69   2.0000      -0.468059       -12.7365
  70   2.0000      -0.455433       -12.3930
  71   2.0000      -0.453393       -12.3375
  72   2.0000      -0.355386        -9.6705
  73   2.0000      -0.353500        -9.6192
  74   2.0000      -0.329975        -8.9791
  75   2.0000      -0.328058        -8.9269
  76   2.0000      -0.318253        -8.6601
  77   0.0000       0.090127         2.4525
  78   0.0000       0.101907         2.7730
  79   0.0000       0.116545         3.1713
  80   0.0000       0.126390         3.4392
  81   0.0000       0.127664         3.4739

MULLIKEN ATOMIC CHARGES
-----------------------
   0 C :   -0.257005
   1 C :    0.017691
   2 O :   -0.302744
   3 C :    0.413012
   4 O :   -0.383795
   5 C :   -0.208439
   6 C :    0.143552
   7 C :   -0.308636
   8 N :   -0.137818
   9 C :    0.215296
  10 S :   -0.443150
  11 N :   -0.225874
  12 C :    0.050975
  13 C :    0.010050
  14 C :   -0.214366
  15 C :   -0.131662
  16 C :   -0.275208
  17 C :    0.313806
  18 O :   -0.354719
  19 C :   -0.238774
  20 H :    0.090605
  21 H :    0.103963
  22 H :    0.096681
  23 H :    0.090396
  24 H :    0.120160
  25 H :    0.119538
  26 H :    0.144913
  27 H :    0.101780
  28 H :    0.195999
  29 H :    0.201802
  30 H :    0.167536
  31 H :    0.168526
  32 H :    0.165298
  33 H :    0.133866
  34 H :    0.241754
  35 H :    0.174990
Sum of atomic charges:   -0.0000000

LOEWDIN ATOMIC CHARGES
----------------------
   0 C :    0.110928
   1 C :   -0.026091
   2 O :    0.309275
   3 C :   -0.414057
   4 O :    0.122493
   5 C :   -0.086161
   6 C :   -0.097315
   7 C :    0.128488
   8 N :    0.402446
   9 C :   -0.453495
  10 S :   -0.038653
  11 N :    0.395732
  12 C :   -0.052267
  13 C :   -0.044521
  14 C :    0.016581
  15 C :    0.045544
  16 C :    0.000397
  17 C :   -0.191277
  18 O :    0.396458
  19 C :    0.029136
  20 H :   -0.024558
  21 H :   -0.023840
  22 H :   -0.026773
  23 H :   -0.038254
  24 H :   -0.028100
  25 H :   -0.012482
  26 H :   -0.004061
  27 H :   -0.017511
  28 H :   -0.059716
  29 H :   -0.064554
  30 H :   -0.004498
  31 H :   -0.022924
  32 H :   -0.017854
  33 H :   -0.033976
  34 H :   -0.152440
  35 H :   -0.022098

  Mayer bond orders larger than 0.100000
B(  0-C ,  1-C ) :   0.9805 B(  0-C , 20-H ) :   0.9774 B(  0-C , 21-H ) :   0.9781
B(  0-C , 22-H ) :   0.9780 B(  1-C ,  2-O ) :   0.9036 B(  1-C , 23-H ) :   0.9660
B(  1-C , 24-H ) :   0.9696 B(  2-O ,  3-C ) :   1.2009 B(  3-C ,  4-O ) :   2.1155
B(  3-C ,  5-C ) :   0.9073 B(  5-C ,  6-C ) :   1.7368 B(  5-C , 12-C ) :   0.9464
B(  6-C ,  7-C ) :   0.9355 B(  6-C ,  8-N ) :   1.1031 B(  7-C , 25-H ) :   0.9775
B(  7-C , 26-H ) :   0.9636 B(  7-C , 27-H ) :   0.9839 B(  8-N ,  9-C ) :   1.2005
B(  8-N , 28-H ) :   0.9496 B(  9-C , 10-S ) :   1.6094 B(  9-C , 11-N ) :   1.2862
B( 11-N , 12-C ) :   0.9813 B( 11-N , 29-H ) :   0.9470 B( 12-C , 13-C ) :   0.9616
B( 12-C , 30-H ) :   0.9942 B( 13-C , 14-C ) :   1.3813 B( 13-C , 19-C ) :   1.3569
B( 14-C , 15-C ) :   1.3966 B( 14-C , 31-H ) :   0.9645 B( 15-C , 16-C ) :   1.3638
B( 15-C , 32-H ) :   0.9693 B( 16-C , 17-C ) :   1.3283 B( 16-C , 33-H ) :   0.9841
B( 17-C , 18-O ) :   1.1115 B( 17-C , 19-C ) :   1.3637 B( 18-O , 34-H ) :   0.9787
B( 19-C , 35-H ) :   0.9563

MP2 TOTAL ENERGY:    -1274.329510852 Eh
FINAL SINGLE POINT ENERGY     -1274.329510852465

DIPOLE MOMENT
-------------
                                X             Y             Z
Electronic contribution:     10.96331       8.07920       8.20402
Nuclear contribution   :    -12.64698      -9.52953      -8.26471
                        -----------------------------------------
Total Dipole Moment    :     -1.68367      -1.45033      -0.06069
                        -----------------------------------------
Magnitude (a.u.)       :      2.22304
Magnitude (Debye)      :      5.65051

Rotational constants in cm-1:     0.011218     0.008958     0.006231
Rotational constants in MHz :   336.320425   268.566384   186.807957

                             ****ORCA TERMINATED NORMALLY****
TOTAL RUN TIME: 0 days 1 hours 40 minutes 55 seconds 111 msec
