                         Program Version 4.2.0 -  RELEASE  -
|  1> ! ri-mp2 cc-pvtz cc-pvtz/c TightSCF NoKeepInts
|  2>
|  3> %scf
|  4>   MaxCore 4096
|  5> end
|  6> *xyz  0  1
|  7>     C       15.0976579   15.1555058   13.2980027
|  8>     C       14.6247759   15.5781604   14.6999567
|  9>     O       15.4492179   16.6763364   15.1302663
| 10>     C       16.4719894   16.4502469   16.0064776
| 11>     O       16.9319222   15.3363426   16.1980113
| 12>     C       16.9075155   17.6526398   16.7968747
| 13>     C       16.8177895   18.9224503   16.3183479
| 14>     C       16.0892145   19.4051675   15.0792217
| 15>     N       17.4798232   19.9738124   16.9578874
| 16>     C       18.4220294   19.8152637   17.9377694
| 17>     S       19.2472862   21.1008993   18.5715484
| 18>     N       18.6620252   18.5293221   18.3498652
| 19>     C       17.8885446   17.3428624   17.9354694
| 20>     C       17.2513208   16.6047429   19.1054951
| 21>     C       17.5065998   15.2377139   19.3161793
| 22>     C       16.9203392   14.5595854   20.3980568
| 23>     C       16.0727954   15.2549831   21.2775330
| 24>     C       15.8153327   16.6169602   21.0687388
| 25>     O       14.9943952   17.2898361   21.9141195
| 26>     C       16.3999383   17.2889809   19.9905153
| 27>     H       15.0487989   16.0000138   12.5996131
| 28>     H       14.4674775   14.3475858   12.9069342
| 29>     H       16.1331310   14.7936075   13.3345086
| 30>     H       13.5812014   15.9119812   14.6360441
| 31>     H       14.6677340   14.7321827   15.4001269
| 32>     H       15.0101624   19.2287483   15.1705243
| 33>     H       16.4452270   18.8759528   14.1863799
| 34>     H       16.2283488   20.4770279   14.8928295
| 35>     H       17.3304720   20.9215466   16.6507982
| 36>     H       19.3455899   18.4412447   19.0911735
| 37>     H       18.6879682   16.7367602   17.4848279
| 38>     H       18.1500329   14.6960620   18.6268059
| 39>     H       17.1199196   13.4999809   20.5470816
| 40>     H       15.6168377   14.7347832   22.1132328
| 41>     H       14.7117586   16.6667893   22.6001690
| 42>     H       16.1918271   18.3439209   19.8466140
| 43> *
| 44>
| 45>                          ****END OF INPUT****

CARTESIAN COORDINATES (ANGSTROEM)
---------------------------------
  C     15.097658   15.155506   13.298003
  C     14.624776   15.578160   14.699957
  O     15.449218   16.676336   15.130266
  C     16.471989   16.450247   16.006478
  O     16.931922   15.336343   16.198011
  C     16.907515   17.652640   16.796875
  C     16.817789   18.922450   16.318348
  C     16.089215   19.405167   15.079222
  N     17.479823   19.973812   16.957887
  C     18.422029   19.815264   17.937769
  S     19.247286   21.100899   18.571548
  N     18.662025   18.529322   18.349865
  C     17.888545   17.342862   17.935469
  C     17.251321   16.604743   19.105495
  C     17.506600   15.237714   19.316179
  C     16.920339   14.559585   20.398057
  C     16.072795   15.254983   21.277533
  C     15.815333   16.616960   21.068739
  O     14.994395   17.289836   21.914120
  C     16.399938   17.288981   19.990515
  H     15.048799   16.000014   12.599613
  H     14.467477   14.347586   12.906934
  H     16.133131   14.793608   13.334509
  H     13.581201   15.911981   14.636044
  H     14.667734   14.732183   15.400127
  H     15.010162   19.228748   15.170524
  H     16.445227   18.875953   14.186380
  H     16.228349   20.477028   14.892829
  H     17.330472   20.921547   16.650798
  H     19.345590   18.441245   19.091173
  H     18.687968   16.736760   17.484828
  H     18.150033   14.696062   18.626806
  H     17.119920   13.499981   20.547082
  H     15.616838   14.734783   22.113233
  H     14.711759   16.666789   22.600169
  H     16.191827   18.343921   19.846614

 Total Charge           Charge          ....    0
 Multiplicity           Mult            ....    1
 Number of Electrons    NEL             ....  154
 Basis Dimension        Dim             ....  828

ORBITAL ENERGIES
----------------

  NO   OCC          E(Eh)            E(eV)
   0   2.0000     -91.887869     -2500.3960
   1   2.0000     -20.602705      -560.6281
   2   2.0000     -20.591377      -560.3199
   3   2.0000     -20.546100      -559.0878
   4   2.0000     -15.628406      -425.2706
   5   2.0000     -15.605541      -424.6484
   6   2.0000     -11.396650      -310.1186
   7   2.0000     -11.382391      -309.7306
   8   2.0000     -11.338098      -308.5253
   9   2.0000     -11.307379      -307.6894
  10   2.0000     -11.304105      -307.6003
  11   2.0000     -11.300121      -307.4919
  12   2.0000     -11.261043      -306.4285
  13   2.0000     -11.258975      -306.3723
  14   2.0000     -11.254679      -306.2554
  15   2.0000     -11.247485      -306.0596
  16   2.0000     -11.237683      -305.7929
  17   2.0000     -11.233788      -305.6869
  18   2.0000     -11.230583      -305.5997
  19   2.0000     -11.228328      -305.5383
  20   2.0000      -8.892954      -241.9896
  21   2.0000      -6.574532      -178.9021
  22   2.0000      -6.572528      -178.8476
  23   2.0000      -6.571941      -178.8316
  24   2.0000      -1.454475       -39.5783
  25   2.0000      -1.411121       -38.3985
  26   2.0000      -1.357688       -36.9446
  27   2.0000      -1.339765       -36.4568
  28   2.0000      -1.236906       -33.6579
  29   2.0000      -1.152079       -31.3497
  30   2.0000      -1.120680       -30.4953
  31   2.0000      -1.043227       -28.3877
  32   2.0000      -1.035306       -28.1721
  33   2.0000      -1.009565       -27.4717
  34   2.0000      -0.998322       -27.1657
  35   2.0000      -0.983304       -26.7571
  36   2.0000      -0.920569       -25.0500
  37   2.0000      -0.890641       -24.2356
  38   2.0000      -0.847438       -23.0599
  39   2.0000      -0.834821       -22.7166
  40   2.0000      -0.827696       -22.5228
  41   2.0000      -0.818834       -22.2816
  42   2.0000      -0.758531       -20.6407
  43   2.0000      -0.735576       -20.0160
  44   2.0000      -0.725936       -19.7537
  45   2.0000      -0.690194       -18.7811
  46   2.0000      -0.685716       -18.6593
  47   2.0000      -0.680198       -18.5091
  48   2.0000      -0.671176       -18.2636
  49   2.0000      -0.656592       -17.8668
  50   2.0000      -0.647247       -17.6125
  51   2.0000      -0.639347       -17.3975
  52   2.0000      -0.628694       -17.1076
  53   2.0000      -0.613764       -16.7014
  54   2.0000      -0.602548       -16.3962
  55   2.0000      -0.597980       -16.2719
  56   2.0000      -0.594591       -16.1796
  57   2.0000      -0.584380       -15.9018
  58   2.0000      -0.572660       -15.5829
  59   2.0000      -0.565187       -15.3795
  60   2.0000      -0.561006       -15.2657
  61   2.0000      -0.547113       -14.8877
  62   2.0000      -0.534791       -14.5524
  63   2.0000      -0.529371       -14.4049
  64   2.0000      -0.515451       -14.0261
  65   2.0000      -0.508945       -13.8491
  66   2.0000      -0.500822       -13.6280
  67   2.0000      -0.493883       -13.4393
  68   2.0000      -0.480492       -13.0749
  69   2.0000      -0.464252       -12.6329
  70   2.0000      -0.456577       -12.4241
  71   2.0000      -0.454043       -12.3551
  72   2.0000      -0.353015        -9.6060
  73   2.0000      -0.344210        -9.3664
  74   2.0000      -0.326946        -8.8967
  75   2.0000      -0.317044        -8.6272
  76   2.0000      -0.314027        -8.5451
  77   0.0000       0.077361         2.1051
  78   0.0000       0.112020         3.0482
  79   0.0000       0.121607         3.3091
  80   0.0000       0.136010         3.7010
  81   0.0000       0.140217         3.8155

MULLIKEN ATOMIC CHARGES
-----------------------
   0 C :   -0.279718
   1 C :    0.029275
   2 O :   -0.345551
   3 C :    0.421216
   4 O :   -0.426519
   5 C :   -0.169613
   6 C :    0.161937
   7 C :   -0.281360
   8 N :   -0.129288
   9 C :    0.207373
  10 S :   -0.442690
  11 N :   -0.210895
  12 C :    0.041646
  13 C :    0.030913
  14 C :   -0.167367
  15 C :   -0.134397
  16 C :   -0.276949
  17 C :    0.314349
  18 O :   -0.359043
  19 C :   -0.250443
  20 H :    0.090351
  21 H :    0.094337
  22 H :    0.108545
  23 H :    0.104334
  24 H :    0.108756
  25 H :    0.129966
  26 H :    0.125135
  27 H :    0.101819
  28 H :    0.198865
  29 H :    0.200035
  30 H :    0.155252
  31 H :    0.158763
  32 H :    0.159783
  33 H :    0.128090
  34 H :    0.239853
  35 H :    0.163239
Sum of atomic charges:   -0.0000000

LOEWDIN ATOMIC CHARGES
----------------------
   0 C :    0.103966
   1 C :   -0.015230
   2 O :    0.307062
   3 C :   -0.414882
   4 O :    0.103001
   5 C :   -0.091028
   6 C :   -0.064220
   7 C :    0.124973
   8 N :    0.405419
   9 C :   -0.458707
  10 S :   -0.037825
  11 N :    0.396490
  12 C :   -0.048224
  13 C :   -0.040527
  14 C :    0.024813
  15 C :    0.040825
  16 C :   -0.001123
  17 C :   -0.192410
  18 O :    0.393097
  19 C :    0.029867
  20 H :   -0.030109
  21 H :   -0.026704
  22 H :   -0.023902
  23 H :   -0.027951
  24 H :   -0.026051
  25 H :   -0.009129
  26 H :   -0.009802
  27 H :   -0.021236
  28 H :   -0.058771
  29 H :   -0.063084
  30 H :   -0.008395
  31 H :   -0.024089
  32 H :   -0.021139
  33 H :   -0.036202
  34 H :   -0.154917
  35 H :   -0.023856

  Mayer bond orders larger than 0.100000
B(  0-C ,  1-C ) :   0.9678 B(  0-C , 20-H ) :   0.9785 B(  0-C , 21-H ) :   0.9761
B(  0-C , 22-H ) :   0.9767 B(  1-C ,  2-O ) :   0.8945 B(  1-C , 23-H ) :   0.9838
B(  1-C , 24-H ) :   0.9733 B(  2-O ,  3-C ) :   1.1413 B(  3-C ,  4-O ) :   1.9690
B(  3-C ,  5-C ) :   1.0546 B(  5-C ,  6-C ) :   1.6562 B(  5-C , 12-C ) :   0.9477
B(  6-C ,  7-C ) :   0.9538 B(  6-C ,  8-N ) :   1.1338 B(  7-C , 25-H ) :   0.9634
B(  7-C , 26-H ) :   0.9656 B(  7-C , 27-H ) :   0.9911 B(  8-N ,  9-C ) :   1.1857
B(  8-N , 28-H ) :   0.9468 B(  9-C , 10-S ) :   1.6078 B(  9-C , 11-N ) :   1.3065
B( 11-N , 12-C ) :   0.9758 B( 11-N , 29-H ) :   0.9484 B( 12-C , 13-C ) :   0.9744
B( 12-C , 30-H ) :   0.9973 B( 13-C , 14-C ) :   1.3756 B( 13-C , 19-C ) :   1.3666
B( 14-C , 15-C ) :   1.3971 B( 14-C , 31-H ) :   0.9640 B( 15-C , 16-C ) :   1.3587
B( 15-C , 32-H ) :   0.9712 B( 16-C , 17-C ) :   1.3333 B( 16-C , 33-H ) :   0.9860
B( 17-C , 18-O ) :   1.1033 B( 17-C , 19-C ) :   1.3674 B( 18-O , 34-H ) :   0.9807
B( 19-C , 35-H ) :   0.9602

MP2 TOTAL ENERGY:    -1274.339914820 Eh
FINAL SINGLE POINT ENERGY     -1274.339914819852

DIPOLE MOMENT
-------------
                                X             Y             Z
Electronic contribution:      9.00078       9.41608      13.07182
Nuclear contribution   :    -10.59886     -10.60596     -14.01600
                        -----------------------------------------
Total Dipole Moment    :     -1.59808      -1.18987      -0.94418
                        -----------------------------------------
Magnitude (a.u.)       :      2.20480
Magnitude (Debye)      :      5.60415

Rotational constants in cm-1:     0.010006     0.008752     0.005422
Rotational constants in MHz :   299.969920   262.367005   162.545372

                             ****ORCA TERMINATED NORMALLY****
TOTAL RUN TIME: 0 days 1 hours 32 minutes 5 seconds 550 msec
