                         Program Version 4.2.0 -  RELEASE  -
|  1> ! ri-mp2 cc-pvtz cc-pvtz/c TightSCF NoKeepInts
|  2>
|  3> %scf
|  4>   MaxCore 4096
|  5> end
|  6> *xyz  0  1
|  7>     C       14.3017807   15.2881243   13.6334092
|  8>     C       14.8996111   15.4094414   15.0449895
|  9>     O       15.9126742   16.4268854   14.9947321
| 10>     C       16.9207080   16.3726818   15.9096125
| 11>     O       17.5000070   15.3314711   16.1686555
| 12>     C       17.1132440   17.6305214   16.7075521
| 13>     C       16.8989540   18.8671346   16.1854919
| 14>     C       16.2388453   19.2189865   14.8666610
| 15>     N       17.3472466   20.0100141   16.8526376
| 16>     C       18.2036995   19.9977005   17.9203390
| 17>     S       18.7811055   21.3943722   18.5921114
| 18>     N       18.5757247   18.7634509   18.3895300
| 19>     C       18.0138569   17.4751504   17.9393218
| 20>     C       17.3713835   16.6734190   19.0636062
| 21>     C       17.7819727   15.3547737   19.3296847
| 22>     C       17.1885809   14.6171685   20.3678557
| 23>     C       16.1767767   15.2038379   21.1472524
| 24>     C       15.7642557   16.5170988   20.8827251
| 25>     O       14.7843213   17.0843709   21.6305183
| 26>     C       16.3562583   17.2483931   19.8479716
| 27>     H       15.0781255   15.0125151   12.9085604
| 28>     H       13.8546587   16.2390543   13.3184603
| 29>     H       13.5223135   14.5168285   13.6106713
| 30>     H       14.1251800   15.6733919   15.7770513
| 31>     H       15.3303079   14.4385997   15.3273736
| 32>     H       16.7309806   18.7015546   14.0333932
| 33>     H       16.2777041   20.2922099   14.6436883
| 34>     H       15.1820549   18.9243364   14.8706081
| 35>     H       17.1017468   20.9231898   16.5050938
| 36>     H       19.1918580   18.7821330   19.1924462
| 37>     H       18.9271168   16.9774544   17.5816694
| 38>     H       18.5540060   14.8954515   18.7166694
| 39>     H       17.5103952   13.5952673   20.5603817
| 40>     H       15.7150458   14.6372297   21.9489603
| 41>     H       14.5280140   16.4410705   22.3082640
| 42>     H       16.0264856   18.2647169   19.6600511
| 43> *
| 44>
| 45>                          ****END OF INPUT****

CARTESIAN COORDINATES (ANGSTROEM)
---------------------------------
  C     14.301781   15.288124   13.633409
  C     14.899611   15.409441   15.044989
  O     15.912674   16.426885   14.994732
  C     16.920708   16.372682   15.909612
  O     17.500007   15.331471   16.168655
  C     17.113244   17.630521   16.707552
  C     16.898954   18.867135   16.185492
  C     16.238845   19.218986   14.866661
  N     17.347247   20.010014   16.852638
  C     18.203699   19.997701   17.920339
  S     18.781105   21.394372   18.592111
  N     18.575725   18.763451   18.389530
  C     18.013857   17.475150   17.939322
  C     17.371384   16.673419   19.063606
  C     17.781973   15.354774   19.329685
  C     17.188581   14.617168   20.367856
  C     16.176777   15.203838   21.147252
  C     15.764256   16.517099   20.882725
  O     14.784321   17.084371   21.630518
  C     16.356258   17.248393   19.847972
  H     15.078126   15.012515   12.908560
  H     13.854659   16.239054   13.318460
  H     13.522313   14.516829   13.610671
  H     14.125180   15.673392   15.777051
  H     15.330308   14.438600   15.327374
  H     16.730981   18.701555   14.033393
  H     16.277704   20.292210   14.643688
  H     15.182055   18.924336   14.870608
  H     17.101747   20.923190   16.505094
  H     19.191858   18.782133   19.192446
  H     18.927117   16.977454   17.581669
  H     18.554006   14.895452   18.716669
  H     17.510395   13.595267   20.560382
  H     15.715046   14.637230   21.948960
  H     14.528014   16.441070   22.308264
  H     16.026486   18.264717   19.660051

 Total Charge           Charge          ....    0
 Multiplicity           Mult            ....    1
 Number of Electrons    NEL             ....  154
 Basis Dimension        Dim             ....  828

ORBITAL ENERGIES
----------------

  NO   OCC          E(Eh)            E(eV)
   0   2.0000     -91.888635     -2500.4169
   1   2.0000     -20.594796      -560.4129
   2   2.0000     -20.592601      -560.3531
   3   2.0000     -20.548671      -559.1578
   4   2.0000     -15.629452      -425.2990
   5   2.0000     -15.606155      -424.6651
   6   2.0000     -11.394487      -310.0598
   7   2.0000     -11.383227      -309.7534
   8   2.0000     -11.338925      -308.5478
   9   2.0000     -11.308608      -307.7229
  10   2.0000     -11.304485      -307.6107
  11   2.0000     -11.300415      -307.4999
  12   2.0000     -11.260235      -306.4066
  13   2.0000     -11.259902      -306.3975
  14   2.0000     -11.255816      -306.2863
  15   2.0000     -11.248606      -306.0901
  16   2.0000     -11.238804      -305.8234
  17   2.0000     -11.234981      -305.7194
  18   2.0000     -11.233061      -305.6671
  19   2.0000     -11.231626      -305.6281
  20   2.0000      -8.893714      -242.0103
  21   2.0000      -6.575289      -178.9227
  22   2.0000      -6.573288      -178.8683
  23   2.0000      -6.572698      -178.8522
  24   2.0000      -1.453812       -39.5602
  25   2.0000      -1.412345       -38.4319
  26   2.0000      -1.357826       -36.9483
  27   2.0000      -1.340508       -36.4771
  28   2.0000      -1.237546       -33.6753
  29   2.0000      -1.153151       -31.3788
  30   2.0000      -1.121351       -30.5135
  31   2.0000      -1.044438       -28.4206
  32   2.0000      -1.036711       -28.2103
  33   2.0000      -1.010709       -27.5028
  34   2.0000      -0.999372       -27.1943
  35   2.0000      -0.984457       -26.7884
  36   2.0000      -0.921221       -25.0677
  37   2.0000      -0.884774       -24.0759
  38   2.0000      -0.848058       -23.0768
  39   2.0000      -0.836167       -22.7533
  40   2.0000      -0.828835       -22.5537
  41   2.0000      -0.823619       -22.4118
  42   2.0000      -0.761114       -20.7110
  43   2.0000      -0.736337       -20.0368
  44   2.0000      -0.726894       -19.7798
  45   2.0000      -0.690625       -18.7929
  46   2.0000      -0.686694       -18.6859
  47   2.0000      -0.680349       -18.5132
  48   2.0000      -0.673499       -18.3268
  49   2.0000      -0.653563       -17.7844
  50   2.0000      -0.650452       -17.6997
  51   2.0000      -0.639874       -17.4118
  52   2.0000      -0.629455       -17.1284
  53   2.0000      -0.620075       -16.8731
  54   2.0000      -0.603809       -16.4305
  55   2.0000      -0.599328       -16.3085
  56   2.0000      -0.595892       -16.2151
  57   2.0000      -0.578336       -15.7373
  58   2.0000      -0.573862       -15.6156
  59   2.0000      -0.562583       -15.3087
  60   2.0000      -0.561013       -15.2660
  61   2.0000      -0.548089       -14.9143
  62   2.0000      -0.535946       -14.5838
  63   2.0000      -0.527946       -14.3662
  64   2.0000      -0.516825       -14.0635
  65   2.0000      -0.509816       -13.8728
  66   2.0000      -0.502966       -13.6864
  67   2.0000      -0.494669       -13.4606
  68   2.0000      -0.480969       -13.0878
  69   2.0000      -0.462851       -12.5948
  70   2.0000      -0.462119       -12.5749
  71   2.0000      -0.451385       -12.2828
  72   2.0000      -0.353688        -9.6243
  73   2.0000      -0.345277        -9.3955
  74   2.0000      -0.327671        -8.9164
  75   2.0000      -0.317807        -8.6480
  76   2.0000      -0.315272        -8.5790
  77   0.0000       0.073856         2.0097
  78   0.0000       0.110291         3.0012
  79   0.0000       0.120379         3.2757
  80   0.0000       0.135014         3.6739
  81   0.0000       0.138055         3.7567

MULLIKEN ATOMIC CHARGES
-----------------------
   0 C :   -0.265345
   1 C :    0.029874
   2 O :   -0.361883
   3 C :    0.451799
   4 O :   -0.408042
   5 C :   -0.192606
   6 C :    0.152661
   7 C :   -0.281700
   8 N :   -0.128126
   9 C :    0.207263
  10 S :   -0.441382
  11 N :   -0.210621
  12 C :    0.040099
  13 C :    0.033152
  14 C :   -0.170143
  15 C :   -0.134081
  16 C :   -0.277352
  17 C :    0.313628
  18 O :   -0.359073
  19 C :   -0.252631
  20 H :    0.101926
  21 H :    0.090398
  22 H :    0.091866
  23 H :    0.091851
  24 H :    0.114455
  25 H :    0.127466
  26 H :    0.103130
  27 H :    0.125818
  28 H :    0.198932
  29 H :    0.199923
  30 H :    0.155972
  31 H :    0.159965
  32 H :    0.160404
  33 H :    0.128484
  34 H :    0.240100
  35 H :    0.163819
Sum of atomic charges:   -0.0000000

LOEWDIN ATOMIC CHARGES
----------------------
   0 C :    0.107477
   1 C :   -0.017113
   2 O :    0.301701
   3 C :   -0.417450
   4 O :    0.113814
   5 C :   -0.094801
   6 C :   -0.064384
   7 C :    0.125521
   8 N :    0.405722
   9 C :   -0.458444
  10 S :   -0.036885
  11 N :    0.396277
  12 C :   -0.048438
  13 C :   -0.040845
  14 C :    0.024779
  15 C :    0.041140
  16 C :   -0.001217
  17 C :   -0.192798
  18 O :    0.393004
  19 C :    0.029006
  20 H :   -0.023912
  21 H :   -0.030179
  22 H :   -0.024691
  23 H :   -0.033042
  24 H :   -0.025905
  25 H :   -0.008271
  26 H :   -0.020891
  27 H :   -0.010218
  28 H :   -0.058513
  29 H :   -0.063207
  30 H :   -0.007879
  31 H :   -0.023744
  32 H :   -0.020867
  33 H :   -0.036084
  34 H :   -0.154717
  35 H :   -0.023946

  Mayer bond orders larger than 0.100000
B(  0-C ,  1-C ) :   0.9768 B(  0-C , 20-H ) :   0.9774 B(  0-C , 21-H ) :   0.9797
B(  0-C , 22-H ) :   0.9761 B(  1-C ,  2-O ) :   0.8970 B(  1-C , 23-H ) :   0.9732
B(  1-C , 24-H ) :   0.9751 B(  2-O ,  3-C ) :   1.0928 B(  3-C ,  4-O ) :   2.0180
B(  3-C ,  5-C ) :   1.0369 B(  5-C ,  6-C ) :   1.6587 B(  5-C , 12-C ) :   0.9483
B(  6-C ,  7-C ) :   0.9541 B(  6-C ,  8-N ) :   1.1379 B(  7-C , 25-H ) :   0.9653
B(  7-C , 26-H ) :   0.9906 B(  7-C , 27-H ) :   0.9643 B(  8-N ,  9-C ) :   1.1844
B(  8-N , 28-H ) :   0.9469 B(  9-C , 10-S ) :   1.6094 B(  9-C , 11-N ) :   1.3059
B( 11-N , 12-C ) :   0.9765 B( 11-N , 29-H ) :   0.9485 B( 12-C , 13-C ) :   0.9720
B( 12-C , 30-H ) :   0.9967 B( 13-C , 14-C ) :   1.3778 B( 13-C , 19-C ) :   1.3640
B( 14-C , 15-C ) :   1.3974 B( 14-C , 31-H ) :   0.9633 B( 15-C , 16-C ) :   1.3589
B( 15-C , 32-H ) :   0.9710 B( 16-C , 17-C ) :   1.3332 B( 16-C , 33-H ) :   0.9859
B( 17-C , 18-O ) :   1.1038 B( 17-C , 19-C ) :   1.3676 B( 18-O , 34-H ) :   0.9805
B( 19-C , 35-H ) :   0.9602

MP2 TOTAL ENERGY:    -1274.332541026 Eh
FINAL SINGLE POINT ENERGY     -1274.332541026376

DIPOLE MOMENT
-------------
                                X             Y             Z
Electronic contribution:     10.36277       9.69436      11.82791
Nuclear contribution   :    -11.86491     -10.99600     -12.62894
                        -----------------------------------------
Total Dipole Moment    :     -1.50214      -1.30164      -0.80103
                        -----------------------------------------
Magnitude (a.u.)       :      2.14297
Magnitude (Debye)      :      5.44701

Rotational constants in cm-1:     0.009743     0.009047     0.005566
Rotational constants in MHz :   292.088692   271.236167   166.849686

                             ****ORCA TERMINATED NORMALLY****
TOTAL RUN TIME: 0 days 1 hours 40 minutes 34 seconds 522 msec
