                         Program Version 4.2.0 -  RELEASE  -
|  1> ! ri-mp2 cc-pvtz cc-pvtz/c TightSCF NoKeepInts
|  2>
|  3> %scf
|  4>   MaxCore 4096
|  5> end
|  6> *xyz  0  1
|  7>     C       14.2628407   16.1574461   15.8889300
|  8>     C       15.2289931   15.6375377   14.8059166
|  9>     O       16.2713636   16.6039639   14.5871845
| 10>     C       17.2852286   16.6381519   15.4955624
| 11>     O       18.0812013   15.7211868   15.5969103
| 12>     C       17.1880871   17.7512899   16.4952114
| 13>     C       16.8027904   19.0030861   16.1382097
| 14>     C       16.2265610   19.4457881   14.8079846
| 15>     N       16.9791323   20.0788407   17.0116431
| 16>     C       17.7281075   20.0290886   18.1568831
| 17>     S       17.9837429   21.3699017   19.0906454
| 18>     N       18.2742856   18.8114734   18.4776835
| 19>     C       17.9946347   17.5408857   17.7801364
| 20>     C       17.4045985   16.4660266   18.6828055
| 21>     C       17.9840811   15.1862138   18.7459295
| 22>     C       17.4307848   14.1911378   19.5690272
| 23>     C       16.2877611   14.4783919   20.3347661
| 24>     C       15.7063601   15.7521566   20.2710207
| 25>     O       14.5976896   16.0299456   21.0021664
| 26>     C       16.2593473   16.7405059   19.4505993
| 27>     H       14.7610870   16.2235814   16.8640979
| 28>     H       13.4104758   15.4755313   15.9962072
| 29>     H       13.8741568   17.1483659   15.6255374
| 30>     H       15.6511120   14.6660903   15.0994983
| 31>     H       14.6707327   15.4952653   13.8716307
| 32>     H       15.2181433   19.0397866   14.6646408
| 33>     H       16.8509518   19.0964807   13.9758165
| 34>     H       16.1580589   20.5367919   14.7177424
| 35>     H       16.6063751   20.9847119   16.7759006
| 36>     H       18.8082781   18.7983636   19.3375733
| 37>     H       19.0091148   17.2638160   17.4576734
| 38>     H       18.8584732   14.9585883   18.1402357
| 39>     H       17.8851572   13.2025576   19.6056751
| 40>     H       15.8561440   13.7119538   20.9698879
| 41>     H       14.3953528   15.2442867   21.5321658
| 42>     H       15.7957953   17.7208097   19.4145012
| 43> *
| 44>
| 45>                          ****END OF INPUT****

CARTESIAN COORDINATES (ANGSTROEM)
---------------------------------
  C     14.262841   16.157446   15.888930
  C     15.228993   15.637538   14.805917
  O     16.271364   16.603964   14.587184
  C     17.285229   16.638152   15.495562
  O     18.081201   15.721187   15.596910
  C     17.188087   17.751290   16.495211
  C     16.802790   19.003086   16.138210
  C     16.226561   19.445788   14.807985
  N     16.979132   20.078841   17.011643
  C     17.728108   20.029089   18.156883
  S     17.983743   21.369902   19.090645
  N     18.274286   18.811473   18.477683
  C     17.994635   17.540886   17.780136
  C     17.404598   16.466027   18.682805
  C     17.984081   15.186214   18.745929
  C     17.430785   14.191138   19.569027
  C     16.287761   14.478392   20.334766
  C     15.706360   15.752157   20.271021
  O     14.597690   16.029946   21.002166
  C     16.259347   16.740506   19.450599
  H     14.761087   16.223581   16.864098
  H     13.410476   15.475531   15.996207
  H     13.874157   17.148366   15.625537
  H     15.651112   14.666090   15.099498
  H     14.670733   15.495265   13.871631
  H     15.218143   19.039787   14.664641
  H     16.850952   19.096481   13.975817
  H     16.158059   20.536792   14.717742
  H     16.606375   20.984712   16.775901
  H     18.808278   18.798364   19.337573
  H     19.009115   17.263816   17.457673
  H     18.858473   14.958588   18.140236
  H     17.885157   13.202558   19.605675
  H     15.856144   13.711954   20.969888
  H     14.395353   15.244287   21.532166
  H     15.795795   17.720810   19.414501

 Total Charge           Charge          ....    0
 Multiplicity           Mult            ....    1
 Number of Electrons    NEL             ....  154
 Basis Dimension        Dim             ....  828

ORBITAL ENERGIES
----------------

  NO   OCC          E(Eh)            E(eV)
   0   2.0000     -91.889668     -2500.4450
   1   2.0000     -20.595789      -560.4399
   2   2.0000     -20.587382      -560.2111
   3   2.0000     -20.552784      -559.2697
   4   2.0000     -15.630037      -425.3149
   5   2.0000     -15.607562      -424.7034
   6   2.0000     -11.393924      -310.0444
   7   2.0000     -11.384546      -309.7892
   8   2.0000     -11.338230      -308.5289
   9   2.0000     -11.312239      -307.8217
  10   2.0000     -11.306243      -307.6585
  11   2.0000     -11.303424      -307.5818
  12   2.0000     -11.260803      -306.4220
  13   2.0000     -11.259372      -306.3831
  14   2.0000     -11.259227      -306.3792
  15   2.0000     -11.252204      -306.1880
  16   2.0000     -11.242185      -305.9154
  17   2.0000     -11.238251      -305.8084
  18   2.0000     -11.234872      -305.7164
  19   2.0000     -11.230482      -305.5969
  20   2.0000      -8.894743      -242.0383
  21   2.0000      -6.576316      -178.9507
  22   2.0000      -6.574316      -178.8962
  23   2.0000      -6.573725      -178.8801
  24   2.0000      -1.452099       -39.5136
  25   2.0000      -1.415573       -38.5197
  26   2.0000      -1.358386       -36.9636
  27   2.0000      -1.341214       -36.4963
  28   2.0000      -1.238539       -33.7024
  29   2.0000      -1.156537       -31.4710
  30   2.0000      -1.122879       -30.5551
  31   2.0000      -1.044801       -28.4305
  32   2.0000      -1.034077       -28.1387
  33   2.0000      -1.014097       -27.5950
  34   2.0000      -1.001878       -27.2625
  35   2.0000      -0.987348       -26.8671
  36   2.0000      -0.923520       -25.1303
  37   2.0000      -0.892782       -24.2938
  38   2.0000      -0.849143       -23.1064
  39   2.0000      -0.838502       -22.8168
  40   2.0000      -0.832302       -22.6481
  41   2.0000      -0.820641       -22.3308
  42   2.0000      -0.755856       -20.5679
  43   2.0000      -0.736493       -20.0410
  44   2.0000      -0.728854       -19.8331
  45   2.0000      -0.693977       -18.8841
  46   2.0000      -0.686453       -18.6793
  47   2.0000      -0.678090       -18.4518
  48   2.0000      -0.674326       -18.3493
  49   2.0000      -0.661800       -18.0085
  50   2.0000      -0.653576       -17.7847
  51   2.0000      -0.645813       -17.5735
  52   2.0000      -0.636175       -17.3112
  53   2.0000      -0.608911       -16.5693
  54   2.0000      -0.602227       -16.3874
  55   2.0000      -0.599355       -16.3093
  56   2.0000      -0.598659       -16.2903
  57   2.0000      -0.584780       -15.9127
  58   2.0000      -0.575789       -15.6680
  59   2.0000      -0.565963       -15.4006
  60   2.0000      -0.562717       -15.3123
  61   2.0000      -0.551288       -15.0013
  62   2.0000      -0.546783       -14.8787
  63   2.0000      -0.523628       -14.2486
  64   2.0000      -0.519867       -14.1463
  65   2.0000      -0.512229       -13.9385
  66   2.0000      -0.500016       -13.6061
  67   2.0000      -0.495976       -13.4962
  68   2.0000      -0.482899       -13.1404
  69   2.0000      -0.463941       -12.6245
  70   2.0000      -0.457846       -12.4586
  71   2.0000      -0.452737       -12.3196
  72   2.0000      -0.354325        -9.6417
  73   2.0000      -0.348142        -9.4734
  74   2.0000      -0.328759        -8.9460
  75   2.0000      -0.319549        -8.6954
  76   2.0000      -0.318628        -8.6703
  77   0.0000       0.072726         1.9790
  78   0.0000       0.106276         2.8919
  79   0.0000       0.119960         3.2643
  80   0.0000       0.132814         3.6141
  81   0.0000       0.137248         3.7347

MULLIKEN ATOMIC CHARGES
-----------------------
   0 C :   -0.312002
   1 C :    0.038388
   2 O :   -0.374412
   3 C :    0.473648
   4 O :   -0.395552
   5 C :   -0.235917
   6 C :    0.158139
   7 C :   -0.283861
   8 N :   -0.128254
   9 C :    0.206688
  10 S :   -0.440125
  11 N :   -0.212070
  12 C :    0.059469
  13 C :    0.039467
  14 C :   -0.184635
  15 C :   -0.132114
  16 C :   -0.278011
  17 C :    0.327678
  18 O :   -0.359459
  19 C :   -0.284854
  20 H :    0.116763
  21 H :    0.112951
  22 H :    0.092759
  23 H :    0.105350
  24 H :    0.108332
  25 H :    0.123744
  26 H :    0.128779
  27 H :    0.104167
  28 H :    0.198103
  29 H :    0.199556
  30 H :    0.157272
  31 H :    0.166005
  32 H :    0.162154
  33 H :    0.130552
  34 H :    0.240524
  35 H :    0.170772
Sum of atomic charges:   -0.0000000

LOEWDIN ATOMIC CHARGES
----------------------
   0 C :    0.103793
   1 C :   -0.019560
   2 O :    0.294184
   3 C :   -0.419765
   4 O :    0.123518
   5 C :   -0.095580
   6 C :   -0.067652
   7 C :    0.126684
   8 N :    0.405893
   9 C :   -0.457822
  10 S :   -0.036138
  11 N :    0.396054
  12 C :   -0.048595
  13 C :   -0.042969
  14 C :    0.024013
  15 C :    0.042287
  16 C :   -0.000826
  17 C :   -0.193675
  18 O :    0.393872
  19 C :    0.028961
  20 H :   -0.027867
  21 H :   -0.024206
  22 H :   -0.031210
  23 H :   -0.025474
  24 H :   -0.023187
  25 H :   -0.013060
  26 H :   -0.006945
  27 H :   -0.020061
  28 H :   -0.058341
  29 H :   -0.063509
  30 H :   -0.006767
  31 H :   -0.022679
  32 H :   -0.020022
  33 H :   -0.035503
  34 H :   -0.154045
  35 H :   -0.023801

  Mayer bond orders larger than 0.100000
B(  0-C ,  1-C ) :   0.9637 B(  0-C , 20-H ) :   0.9666 B(  0-C , 21-H ) :   0.9785
B(  0-C , 22-H ) :   0.9775 B(  1-C ,  2-O ) :   0.8972 B(  1-C , 23-H ) :   0.9777
B(  1-C , 24-H ) :   0.9845 B(  2-O ,  3-C ) :   1.0850 B(  3-C ,  4-O ) :   2.0389
B(  3-C ,  5-C ) :   1.0066 B(  5-C ,  6-C ) :   1.6753 B(  5-C , 12-C ) :   0.9460
B(  6-C ,  7-C ) :   0.9528 B(  6-C ,  8-N ) :   1.1386 B(  7-C , 25-H ) :   0.9647
B(  7-C , 26-H ) :   0.9663 B(  7-C , 27-H ) :   0.9891 B(  8-N ,  9-C ) :   1.1855
B(  8-N , 28-H ) :   0.9474 B(  9-C , 10-S ) :   1.6123 B(  9-C , 11-N ) :   1.3008
B( 11-N , 12-C ) :   0.9827 B( 11-N , 29-H ) :   0.9488 B( 12-C , 13-C ) :   0.9671
B( 12-C , 30-H ) :   0.9945 B( 13-C , 14-C ) :   1.3834 B( 13-C , 19-C ) :   1.3517
B( 14-C , 15-C ) :   1.3961 B( 14-C , 31-H ) :   0.9607 B( 15-C , 16-C ) :   1.3602
B( 15-C , 32-H ) :   0.9706 B( 16-C , 17-C ) :   1.3329 B( 16-C , 33-H ) :   0.9849
B( 17-C , 18-O ) :   1.1055 B( 17-C , 19-C ) :   1.3563 B( 18-O , 34-H ) :   0.9802
B( 19-C , 35-H ) :   0.9602

MP2 TOTAL ENERGY:    -1274.328151600 Eh
FINAL SINGLE POINT ENERGY     -1274.328151599565

DIPOLE MOMENT
-------------
                                X             Y             Z
Electronic contribution:      9.53145       7.68863       7.49621
Nuclear contribution   :    -10.86712      -9.00547      -8.23462
                        -----------------------------------------
Total Dipole Moment    :     -1.33567      -1.31684      -0.73842
                        -----------------------------------------
Magnitude (a.u.)       :      2.01578
Magnitude (Debye)      :      5.12370

Rotational constants in cm-1:     0.011107     0.009297     0.006371
Rotational constants in MHz :   332.991980   278.709601   191.003226

                             ****ORCA TERMINATED NORMALLY****
TOTAL RUN TIME: 0 days 1 hours 47 minutes 50 seconds 365 msec
