                         Program Version 4.2.0 -  RELEASE  -
|  1> ! ri-mp2 cc-pvtz cc-pvtz/c TightSCF NoKeepInts
|  2>
|  3> %scf
|  4>   MaxCore 4096
|  5> end
|  6> *xyz  0  1
|  7>     C       14.0426876   16.8202768   15.5539867
|  8>     C       15.1405354   15.7442694   15.6428197
|  9>     O       16.2882964   16.1194929   14.8523144
| 10>     C       17.4149766   16.5976338   15.4634690
| 11>     O       18.5124728   16.1165229   15.2515890
| 12>     C       17.1889408   17.6614924   16.4828446
| 13>     C       16.7504860   18.8848539   16.0998384
| 14>     C       16.2349304   19.2931087   14.7339785
| 15>     N       16.8337491   19.9757594   16.9665909
| 16>     C       17.5567526   19.9783278   18.1307001
| 17>     S       17.7076135   21.3376005   19.0602063
| 18>     N       18.1717946   18.7985389   18.4726976
| 19>     C       17.9847054   17.5094076   17.7773044
| 20>     C       17.4636773   16.3771141   18.6482999
| 21>     C       18.0421931   15.0981690   18.5641768
| 22>     C       17.5460583   14.0382570   19.3412729
| 23>     C       16.4597723   14.2590239   20.2054593
| 24>     C       15.8766481   15.5312164   20.2848181
| 25>     O       14.8201321   15.7441716   21.1087073
| 26>     C       16.3713935   16.5842162   19.5085751
| 27>     H       14.2808772   17.6854865   16.1815459
| 28>     H       13.0877097   16.4128916   15.9080827
| 29>     H       13.9052843   17.1543863   14.5180199
| 30>     H       15.4136736   15.5494555   16.6893846
| 31>     H       14.7357507   14.8102277   15.2317445
| 32>     H       16.3525422   18.5075807   13.9788926
| 33>     H       16.7807432   20.1676731   14.3574942
| 34>     H       15.1707389   19.5540716   14.7754358
| 35>     H       16.4225827   20.8583951   16.7060834
| 36>     H       18.6964923   18.8264795   19.3380894
| 37>     H       19.0201260   17.3024055   17.4673493
| 38>     H       18.8743073   14.9242021   17.8844902
| 39>     H       18.0016727   13.0519070   19.2690267
| 40>     H       16.0730883   13.4426288   20.8067066
| 41>     H       14.6601500   14.9219470   21.5963711
| 42>     H       15.9034450   17.5608088   19.5796338
| 43> *
| 44>
| 45>                          ****END OF INPUT****

CARTESIAN COORDINATES (ANGSTROEM)
---------------------------------
  C     14.042688   16.820277   15.553987
  C     15.140535   15.744269   15.642820
  O     16.288296   16.119493   14.852314
  C     17.414977   16.597634   15.463469
  O     18.512473   16.116523   15.251589
  C     17.188941   17.661492   16.482845
  C     16.750486   18.884854   16.099838
  C     16.234930   19.293109   14.733978
  N     16.833749   19.975759   16.966591
  C     17.556753   19.978328   18.130700
  S     17.707614   21.337601   19.060206
  N     18.171795   18.798539   18.472698
  C     17.984705   17.509408   17.777304
  C     17.463677   16.377114   18.648300
  C     18.042193   15.098169   18.564177
  C     17.546058   14.038257   19.341273
  C     16.459772   14.259024   20.205459
  C     15.876648   15.531216   20.284818
  O     14.820132   15.744172   21.108707
  C     16.371393   16.584216   19.508575
  H     14.280877   17.685486   16.181546
  H     13.087710   16.412892   15.908083
  H     13.905284   17.154386   14.518020
  H     15.413674   15.549455   16.689385
  H     14.735751   14.810228   15.231744
  H     16.352542   18.507581   13.978893
  H     16.780743   20.167673   14.357494
  H     15.170739   19.554072   14.775436
  H     16.422583   20.858395   16.706083
  H     18.696492   18.826480   19.338089
  H     19.020126   17.302405   17.467349
  H     18.874307   14.924202   17.884490
  H     18.001673   13.051907   19.269027
  H     16.073088   13.442629   20.806707
  H     14.660150   14.921947   21.596371
  H     15.903445   17.560809   19.579634

 Total Charge           Charge          ....    0
 Multiplicity           Mult            ....    1
 Number of Electrons    NEL             ....  154
 Basis Dimension        Dim             ....  828

ORBITAL ENERGIES
----------------

  NO   OCC          E(Eh)            E(eV)
   0   2.0000     -91.889757     -2500.4474
   1   2.0000     -20.601484      -560.5949
   2   2.0000     -20.594808      -560.4132
   3   2.0000     -20.554805      -559.3247
   4   2.0000     -15.627350      -425.2418
   5   2.0000     -15.609712      -424.7619
   6   2.0000     -11.397391      -310.1388
   7   2.0000     -11.385796      -309.8233
   8   2.0000     -11.333058      -308.3882
   9   2.0000     -11.319259      -308.0127
  10   2.0000     -11.310345      -307.7701
  11   2.0000     -11.305966      -307.6510
  12   2.0000     -11.266411      -306.5746
  13   2.0000     -11.262698      -306.4736
  14   2.0000     -11.261655      -306.4452
  15   2.0000     -11.259666      -306.3911
  16   2.0000     -11.248336      -306.0828
  17   2.0000     -11.244099      -305.9675
  18   2.0000     -11.241822      -305.9055
  19   2.0000     -11.234961      -305.7188
  20   2.0000      -8.894858      -242.0414
  21   2.0000      -6.576438      -178.9540
  22   2.0000      -6.574428      -178.8993
  23   2.0000      -6.573844      -178.8834
  24   2.0000      -1.449272       -39.4367
  25   2.0000      -1.421212       -38.6731
  26   2.0000      -1.362354       -37.0715
  27   2.0000      -1.340668       -36.4814
  28   2.0000      -1.239305       -33.7232
  29   2.0000      -1.163265       -31.6541
  30   2.0000      -1.126202       -30.6455
  31   2.0000      -1.049238       -28.5512
  32   2.0000      -1.039043       -28.2738
  33   2.0000      -1.020829       -27.7782
  34   2.0000      -1.005452       -27.3597
  35   2.0000      -0.989970       -26.9385
  36   2.0000      -0.926782       -25.2190
  37   2.0000      -0.889808       -24.2129
  38   2.0000      -0.852358       -23.1938
  39   2.0000      -0.842888       -22.9361
  40   2.0000      -0.838991       -22.8301
  41   2.0000      -0.834607       -22.7108
  42   2.0000      -0.758085       -20.6285
  43   2.0000      -0.737646       -20.0724
  44   2.0000      -0.731258       -19.8985
  45   2.0000      -0.699046       -19.0220
  46   2.0000      -0.690216       -18.7817
  47   2.0000      -0.683084       -18.5877
  48   2.0000      -0.675249       -18.3745
  49   2.0000      -0.664130       -18.0719
  50   2.0000      -0.653179       -17.7739
  51   2.0000      -0.641250       -17.4493
  52   2.0000      -0.635631       -17.2964
  53   2.0000      -0.616470       -16.7750
  54   2.0000      -0.611054       -16.6276
  55   2.0000      -0.607167       -16.5218
  56   2.0000      -0.604665       -16.4538
  57   2.0000      -0.584343       -15.9008
  58   2.0000      -0.582026       -15.8377
  59   2.0000      -0.576569       -15.6892
  60   2.0000      -0.563898       -15.3444
  61   2.0000      -0.556888       -15.1537
  62   2.0000      -0.543215       -14.7816
  63   2.0000      -0.530648       -14.4397
  64   2.0000      -0.523075       -14.2336
  65   2.0000      -0.514545       -14.0015
  66   2.0000      -0.502629       -13.6772
  67   2.0000      -0.495931       -13.4950
  68   2.0000      -0.491477       -13.3738
  69   2.0000      -0.468681       -12.7534
  70   2.0000      -0.458356       -12.4725
  71   2.0000      -0.452553       -12.3146
  72   2.0000      -0.356365        -9.6972
  73   2.0000      -0.353838        -9.6284
  74   2.0000      -0.329379        -8.9629
  75   2.0000      -0.326807        -8.8929
  76   2.0000      -0.320041        -8.7088
  77   0.0000       0.085094         2.3155
  78   0.0000       0.101128         2.7518
  79   0.0000       0.119665         3.2563
  80   0.0000       0.126271         3.4360
  81   0.0000       0.128847         3.5061

MULLIKEN ATOMIC CHARGES
-----------------------
   0 C :   -0.309341
   1 C :    0.024373
   2 O :   -0.340496
   3 C :    0.431838
   4 O :   -0.372764
   5 C :   -0.205820
   6 C :    0.121584
   7 C :   -0.329474
   8 N :   -0.136711
   9 C :    0.207074
  10 S :   -0.442489
  11 N :   -0.221035
  12 C :    0.064789
  13 C :   -0.001400
  14 C :   -0.208459
  15 C :   -0.130475
  16 C :   -0.275973
  17 C :    0.310787
  18 O :   -0.355202
  19 C :   -0.237278
  20 H :    0.096272
  21 H :    0.118080
  22 H :    0.104040
  23 H :    0.108504
  24 H :    0.124747
  25 H :    0.134582
  26 H :    0.139940
  27 H :    0.123198
  28 H :    0.198585
  29 H :    0.201466
  30 H :    0.166484
  31 H :    0.176342
  32 H :    0.165210
  33 H :    0.133406
  34 H :    0.241535
  35 H :    0.174080
Sum of atomic charges:   -0.0000000

LOEWDIN ATOMIC CHARGES
----------------------
   0 C :    0.103676
   1 C :   -0.015581
   2 O :    0.294386
   3 C :   -0.419577
   4 O :    0.127597
   5 C :   -0.087772
   6 C :   -0.087322
   7 C :    0.125893
   8 N :    0.403811
   9 C :   -0.455904
  10 S :   -0.037938
  11 N :    0.395714
  12 C :   -0.050536
  13 C :   -0.045653
  14 C :    0.018242
  15 C :    0.044530
  16 C :    0.000101
  17 C :   -0.191805
  18 O :    0.395726
  19 C :    0.027193
  20 H :   -0.034106
  21 H :   -0.022862
  22 H :   -0.026589
  23 H :   -0.027803
  24 H :   -0.021606
  25 H :   -0.009822
  26 H :   -0.011098
  27 H :   -0.016768
  28 H :   -0.056135
  29 H :   -0.064065
  30 H :   -0.004426
  31 H :   -0.021387
  32 H :   -0.018244
  33 H :   -0.034375
  34 H :   -0.152825
  35 H :   -0.022673

  Mayer bond orders larger than 0.100000
B(  0-C ,  1-C ) :   0.9622 B(  0-C , 20-H ) :   0.9766 B(  0-C , 21-H ) :   0.9782
B(  0-C , 22-H ) :   0.9736 B(  1-C ,  2-O ) :   0.8979 B(  1-C , 23-H ) :   0.9662
B(  1-C , 24-H ) :   0.9853 B(  2-O ,  3-C ) :   1.1401 B(  3-C ,  4-O ) :   2.1114
B(  3-C ,  5-C ) :   0.9149 B(  5-C ,  6-C ) :   1.7237 B(  5-C , 12-C ) :   0.9402
B(  6-C ,  7-C ) :   0.9507 B(  6-C ,  8-N ) :   1.1055 B(  7-C , 25-H ) :   0.9740
B(  7-C , 26-H ) :   0.9723 B(  7-C , 27-H ) :   0.9635 B(  8-N ,  9-C ) :   1.1966
B(  8-N , 28-H ) :   0.9502 B(  9-C , 10-S ) :   1.6116 B(  9-C , 11-N ) :   1.2905
B( 11-N , 12-C ) :   0.9845 B( 11-N , 29-H ) :   0.9479 B( 12-C , 13-C ) :   0.9656
B( 12-C , 30-H ) :   0.9911 B( 13-C , 14-C ) :   1.3861 B( 13-C , 19-C ) :   1.3537
B( 14-C , 15-C ) :   1.3943 B( 14-C , 31-H ) :   0.9593 B( 15-C , 16-C ) :   1.3627
B( 15-C , 32-H ) :   0.9697 B( 16-C , 17-C ) :   1.3302 B( 16-C , 33-H ) :   0.9842
B( 17-C , 18-O ) :   1.1109 B( 17-C , 19-C ) :   1.3663 B( 18-O , 34-H ) :   0.9790
B( 19-C , 35-H ) :   0.9565

MP2 TOTAL ENERGY:    -1274.328157731 Eh
FINAL SINGLE POINT ENERGY     -1274.328157731077

DIPOLE MOMENT
-------------
                                X             Y             Z
Electronic contribution:      9.84790       5.71383       7.58886
Nuclear contribution   :    -11.32505      -7.13846      -7.84217
                        -----------------------------------------
Total Dipole Moment    :     -1.47715      -1.42463      -0.25331
                        -----------------------------------------
Magnitude (a.u.)       :      2.06778
Magnitude (Debye)      :      5.25587

Rotational constants in cm-1:     0.011398     0.009096     0.006562
Rotational constants in MHz :   341.707165   272.699332   196.738381

                             ****ORCA TERMINATED NORMALLY****
TOTAL RUN TIME: 0 days 2 hours 11 minutes 27 seconds 47 msec
