                         Program Version 4.2.0 -  RELEASE  -
|  1> ! ri-mp2 cc-pvtz cc-pvtz/c TightSCF NoKeepInts
|  2>
|  3> %scf
|  4>   MaxCore 4096
|  5> end
|  6> *xyz  0  1
|  7>     C       14.6723082   15.7142980   16.3088928
|  8>     C       15.0546587   16.2631428   14.9183384
|  9>     O       16.4674515   16.0922802   14.6598942
| 10>     C       17.4834078   16.4861540   15.4954729
| 11>     O       18.5401831   15.8823919   15.5136636
| 12>     C       17.2119550   17.6279960   16.4239954
| 13>     C       16.8823455   18.8496565   15.9335496
| 14>     C       16.5580861   19.2184354   14.4985124
| 15>     N       16.9380935   19.9847454   16.7447496
| 16>     C       17.5670382   20.0313679   17.9603541
| 17>     S       17.7132439   21.4405822   18.8129360
| 18>     N       18.0983516   18.8513166   18.4175377
| 19>     C       17.8853538   17.5283728   17.7974985
| 20>     C       17.2523907   16.4903614   18.7140212
| 21>     C       17.7069863   15.1594825   18.6930252
| 22>     C       17.1154243   14.1886768   19.5181152
| 23>     C       16.0594056   14.5515174   20.3713711
| 24>     C       15.6029702   15.8764522   20.3935525
| 25>     O       14.5775675   16.2276844   21.2094719
| 26>     C       16.1933880   16.8411129   19.5707403
| 27>     H       15.1896618   14.7684006   16.5158908
| 28>     H       13.5929345   15.5260615   16.3575164
| 29>     H       14.9124022   16.4276058   17.1035575
| 30>     H       14.4964501   15.7080128   14.1531711
| 31>     H       14.7518432   17.3125794   14.8452314
| 32>     H       16.8589643   18.4449069   13.7823465
| 33>     H       17.0926357   20.1291142   14.1983974
| 34>     H       15.4859121   19.4070352   14.3682594
| 35>     H       16.5917831   20.8667387   16.4011749
| 36>     H       18.5595212   18.9104611   19.3169163
| 37>     H       18.9298812   17.2498285   17.5921024
| 38>     H       18.5180738   14.8750240   18.0254663
| 39>     H       17.4747460   13.1612614   19.4910177
| 40>     H       15.5987427   13.8042034   21.0090092
| 41>     H       14.3327510   15.4431293   21.7230695
| 42>     H       15.8200877   17.8596096   19.5991806
| 43> *
| 44>
| 45>                          ****END OF INPUT****

CARTESIAN COORDINATES (ANGSTROEM)
---------------------------------
  C     14.672308   15.714298   16.308893
  C     15.054659   16.263143   14.918338
  O     16.467451   16.092280   14.659894
  C     17.483408   16.486154   15.495473
  O     18.540183   15.882392   15.513664
  C     17.211955   17.627996   16.423995
  C     16.882345   18.849656   15.933550
  C     16.558086   19.218435   14.498512
  N     16.938094   19.984745   16.744750
  C     17.567038   20.031368   17.960354
  S     17.713244   21.440582   18.812936
  N     18.098352   18.851317   18.417538
  C     17.885354   17.528373   17.797498
  C     17.252391   16.490361   18.714021
  C     17.706986   15.159482   18.693025
  C     17.115424   14.188677   19.518115
  C     16.059406   14.551517   20.371371
  C     15.602970   15.876452   20.393552
  O     14.577567   16.227684   21.209472
  C     16.193388   16.841113   19.570740
  H     15.189662   14.768401   16.515891
  H     13.592935   15.526062   16.357516
  H     14.912402   16.427606   17.103558
  H     14.496450   15.708013   14.153171
  H     14.751843   17.312579   14.845231
  H     16.858964   18.444907   13.782346
  H     17.092636   20.129114   14.198397
  H     15.485912   19.407035   14.368259
  H     16.591783   20.866739   16.401175
  H     18.559521   18.910461   19.316916
  H     18.929881   17.249828   17.592102
  H     18.518074   14.875024   18.025466
  H     17.474746   13.161261   19.491018
  H     15.598743   13.804203   21.009009
  H     14.332751   15.443129   21.723070
  H     15.820088   17.859610   19.599181

 Total Charge           Charge          ....    0
 Multiplicity           Mult            ....    1
 Number of Electrons    NEL             ....  154
 Basis Dimension        Dim             ....  828

ORBITAL ENERGIES
----------------

  NO   OCC          E(Eh)            E(eV)
   0   2.0000     -91.890171     -2500.4587
   1   2.0000     -20.600314      -560.5631
   2   2.0000     -20.598696      -560.5190
   3   2.0000     -20.550679      -559.2124
   4   2.0000     -15.628323      -425.2683
   5   2.0000     -15.609523      -424.7567
   6   2.0000     -11.400369      -310.2198
   7   2.0000     -11.385808      -309.8236
   8   2.0000     -11.336145      -308.4722
   9   2.0000     -11.315922      -307.9219
  10   2.0000     -11.310116      -307.7639
  11   2.0000     -11.309414      -307.7448
  12   2.0000     -11.266941      -306.5890
  13   2.0000     -11.266239      -306.5699
  14   2.0000     -11.263722      -306.5015
  15   2.0000     -11.256174      -306.2961
  16   2.0000     -11.244998      -305.9919
  17   2.0000     -11.240773      -305.8770
  18   2.0000     -11.237466      -305.7870
  19   2.0000     -11.230084      -305.5861
  20   2.0000      -8.895274      -242.0527
  21   2.0000      -6.576856      -178.9653
  22   2.0000      -6.574843      -178.9106
  23   2.0000      -6.574259      -178.8947
  24   2.0000      -1.447222       -39.3809
  25   2.0000      -1.418438       -38.5977
  26   2.0000      -1.360678       -37.0259
  27   2.0000      -1.341895       -36.5148
  28   2.0000      -1.239939       -33.7404
  29   2.0000      -1.160047       -31.5665
  30   2.0000      -1.125808       -30.6348
  31   2.0000      -1.047585       -28.5062
  32   2.0000      -1.037107       -28.2211
  33   2.0000      -1.018427       -27.7128
  34   2.0000      -1.006482       -27.3878
  35   2.0000      -0.990050       -26.9406
  36   2.0000      -0.926713       -25.2172
  37   2.0000      -0.897512       -24.4225
  38   2.0000      -0.854061       -23.2402
  39   2.0000      -0.841539       -22.8994
  40   2.0000      -0.835478       -22.7345
  41   2.0000      -0.830371       -22.5956
  42   2.0000      -0.746108       -20.3026
  43   2.0000      -0.738602       -20.0984
  44   2.0000      -0.731653       -19.9093
  45   2.0000      -0.695924       -18.9371
  46   2.0000      -0.688148       -18.7255
  47   2.0000      -0.681859       -18.5543
  48   2.0000      -0.675005       -18.3678
  49   2.0000      -0.662029       -18.0147
  50   2.0000      -0.656051       -17.8521
  51   2.0000      -0.648578       -17.6487
  52   2.0000      -0.638268       -17.3682
  53   2.0000      -0.621553       -16.9133
  54   2.0000      -0.611502       -16.6398
  55   2.0000      -0.606141       -16.4939
  56   2.0000      -0.602090       -16.3837
  57   2.0000      -0.587117       -15.9763
  58   2.0000      -0.576220       -15.6798
  59   2.0000      -0.566207       -15.4073
  60   2.0000      -0.564109       -15.3502
  61   2.0000      -0.552467       -15.0334
  62   2.0000      -0.540334       -14.7032
  63   2.0000      -0.537033       -14.6134
  64   2.0000      -0.521245       -14.1838
  65   2.0000      -0.512299       -13.9404
  66   2.0000      -0.501843       -13.6558
  67   2.0000      -0.500907       -13.6304
  68   2.0000      -0.484495       -13.1838
  69   2.0000      -0.468414       -12.7462
  70   2.0000      -0.456891       -12.4326
  71   2.0000      -0.450469       -12.2579
  72   2.0000      -0.358095        -9.7443
  73   2.0000      -0.349470        -9.5096
  74   2.0000      -0.329672        -8.9708
  75   2.0000      -0.323758        -8.8099
  76   2.0000      -0.320418        -8.7190
  77   0.0000       0.082801         2.2531
  78   0.0000       0.104693         2.8488
  79   0.0000       0.115969         3.1557
  80   0.0000       0.127924         3.4810
  81   0.0000       0.130497         3.5510

MULLIKEN ATOMIC CHARGES
-----------------------
   0 C :   -0.321442
   1 C :    0.035948
   2 O :   -0.334160
   3 C :    0.440788
   4 O :   -0.381774
   5 C :   -0.242943
   6 C :    0.159225
   7 C :   -0.335848
   8 N :   -0.139531
   9 C :    0.207274
  10 S :   -0.442350
  11 N :   -0.228964
  12 C :    0.080401
  13 C :    0.014818
  14 C :   -0.225054
  15 C :   -0.132055
  16 C :   -0.274518
  17 C :    0.321276
  18 O :   -0.356316
  19 C :   -0.256385
  20 H :    0.119531
  21 H :    0.110335
  22 H :    0.112330
  23 H :    0.126403
  24 H :    0.081356
  25 H :    0.139158
  26 H :    0.132018
  27 H :    0.123394
  28 H :    0.197576
  29 H :    0.204733
  30 H :    0.167800
  31 H :    0.181010
  32 H :    0.165242
  33 H :    0.131884
  34 H :    0.241061
  35 H :    0.177781
Sum of atomic charges:   -0.0000000

LOEWDIN ATOMIC CHARGES
----------------------
   0 C :    0.106540
   1 C :   -0.018897
   2 O :    0.297577
   3 C :   -0.415541
   4 O :    0.121655
   5 C :   -0.083570
   6 C :   -0.087547
   7 C :    0.123837
   8 N :    0.403150
   9 C :   -0.458420
  10 S :   -0.037742
  11 N :    0.396543
  12 C :   -0.047480
  13 C :   -0.042884
  14 C :    0.020866
  15 C :    0.044196
  16 C :   -0.000545
  17 C :   -0.191532
  18 O :    0.395462
  19 C :    0.027126
  20 H :   -0.020990
  21 H :   -0.024807
  22 H :   -0.033365
  23 H :   -0.019957
  24 H :   -0.038770
  25 H :   -0.008320
  26 H :   -0.010675
  27 H :   -0.019004
  28 H :   -0.056761
  29 H :   -0.063241
  30 H :   -0.003956
  31 H :   -0.021686
  32 H :   -0.018716
  33 H :   -0.034960
  34 H :   -0.153325
  35 H :   -0.024260

  Mayer bond orders larger than 0.100000
B(  0-C ,  1-C ) :   0.9565 B(  0-C , 20-H ) :   0.9709 B(  0-C , 21-H ) :   0.9775
B(  0-C , 22-H ) :   0.9700 B(  1-C ,  2-O ) :   0.9022 B(  1-C , 23-H ) :   0.9824
B(  1-C , 24-H ) :   0.9717 B(  2-O ,  3-C ) :   1.1599 B(  3-C ,  4-O ) :   2.0835
B(  3-C ,  5-C ) :   0.9306 B(  5-C ,  6-C ) :   1.7061 B(  5-C , 12-C ) :   0.9335
B(  6-C ,  7-C ) :   0.9348 B(  6-C ,  8-N ) :   1.1113 B(  7-C , 25-H ) :   0.9733
B(  7-C , 26-H ) :   0.9756 B(  7-C , 27-H ) :   0.9661 B(  8-N ,  9-C ) :   1.1967
B(  8-N , 28-H ) :   0.9512 B(  9-C , 10-S ) :   1.6093 B(  9-C , 11-N ) :   1.2928
B( 11-N , 12-C ) :   0.9767 B( 11-N , 29-H ) :   0.9469 B( 12-C , 13-C ) :   0.9730
B( 12-C , 30-H ) :   0.9893 B( 13-C , 14-C ) :   1.3866 B( 13-C , 19-C ) :   1.3415
B( 14-C , 15-C ) :   1.3971 B( 14-C , 31-H ) :   0.9569 B( 15-C , 16-C ) :   1.3589
B( 15-C , 32-H ) :   0.9697 B( 16-C , 17-C ) :   1.3323 B( 16-C , 33-H ) :   0.9846
B( 17-C , 18-O ) :   1.1089 B( 17-C , 19-C ) :   1.3605 B( 18-O , 34-H ) :   0.9796
B( 19-C , 35-H ) :   0.9572

MP2 TOTAL ENERGY:    -1274.328597568 Eh
FINAL SINGLE POINT ENERGY     -1274.328597567896

DIPOLE MOMENT
-------------
                                X             Y             Z
Electronic contribution:      8.47771       7.40925       6.74000
Nuclear contribution   :    -10.08301      -8.55423      -7.29381
                        -----------------------------------------
Total Dipole Moment    :     -1.60530      -1.14498      -0.55381
                        -----------------------------------------
Magnitude (a.u.)       :      2.04809
Magnitude (Debye)      :      5.20583

Rotational constants in cm-1:     0.011544     0.009305     0.006396
Rotational constants in MHz :   346.072433   278.953150   191.746081

                             ****ORCA TERMINATED NORMALLY****
TOTAL RUN TIME: 0 days 2 hours 0 minutes 57 seconds 841 msec
