                         Program Version 4.2.0 -  RELEASE  -
|  1> ! ri-mp2 cc-pvtz cc-pvtz/c TightSCF NoKeepInts
|  2>
|  3> %scf
|  4>   MaxCore 4096
|  5> end
|  6> *xyz  0  1
|  7>     C       14.4039494   15.8105060   15.2309876
|  8>     C       15.5738931   15.1720642   16.0111816
|  9>     O       16.8516405   15.6841114   15.5631971
| 10>     C       17.0044633   17.0034868   15.2499616
| 11>     O       17.0386105   17.3562917   14.0850435
| 12>     C       17.0682615   17.9333269   16.4323011
| 13>     C       16.9136716   19.2681158   16.2356048
| 14>     C       16.2919883   19.9457105   15.0317505
| 15>     N       17.3183341   20.1950710   17.1979244
| 16>     C       18.1072430   19.8919471   18.2736864
| 17>     S       18.6596081   21.0542657   19.3123167
| 18>     N       18.4378132   18.5701306   18.4319780
| 19>     C       17.8816199   17.4500307   17.6485612
| 20>     C       17.2249961   16.4031252   18.5340567
| 21>     C       17.7530261   15.1016974   18.6205704
| 22>     C       17.1435197   14.1391027   19.4427475
| 23>     C       16.0033142   14.4834997   20.1891814
| 24>     C       15.4829674   15.7828968   20.1132459
| 25>     O       14.3818849   16.1177705   20.8311865
| 26>     C       16.0894848   16.7382384   19.2915662
| 27>     H       14.2898896   16.8733450   15.4772952
| 28>     H       13.4620302   15.3073704   15.4810710
| 29>     H       14.5618321   15.7163123   14.1486581
| 30>     H       15.4210712   15.3656409   17.0768565
| 31>     H       15.5579884   14.0835906   15.8710517
| 32>     H       15.4408976   19.3674660   14.6508041
| 33>     H       17.0229640   20.0256889   14.2165086
| 34>     H       15.9232088   20.9537761   15.2552310
| 35>     H       17.1143831   21.1733312   17.0685187
| 36>     H       19.0057413   18.3738026   19.2467825
| 37>     H       18.8145264   17.0536182   17.2225290
| 38>     H       18.6320609   14.8328312   18.0399517
| 39>     H       17.5556819   13.1328381   19.5005887
| 40>     H       15.5303638   13.7431419   20.8263652
| 41>     H       14.1465653   15.3545100   21.3803699
| 42>     H       15.6775056   17.7413475   19.2483690
| 43> *
| 44>
| 45>                          ****END OF INPUT****

CARTESIAN COORDINATES (ANGSTROEM)
---------------------------------
  C     14.403949   15.810506   15.230988
  C     15.573893   15.172064   16.011182
  O     16.851640   15.684111   15.563197
  C     17.004463   17.003487   15.249962
  O     17.038611   17.356292   14.085043
  C     17.068261   17.933327   16.432301
  C     16.913672   19.268116   16.235605
  C     16.291988   19.945711   15.031750
  N     17.318334   20.195071   17.197924
  C     18.107243   19.891947   18.273686
  S     18.659608   21.054266   19.312317
  N     18.437813   18.570131   18.431978
  C     17.881620   17.450031   17.648561
  C     17.224996   16.403125   18.534057
  C     17.753026   15.101697   18.620570
  C     17.143520   14.139103   19.442747
  C     16.003314   14.483500   20.189181
  C     15.482967   15.782897   20.113246
  O     14.381885   16.117770   20.831187
  C     16.089485   16.738238   19.291566
  H     14.289890   16.873345   15.477295
  H     13.462030   15.307370   15.481071
  H     14.561832   15.716312   14.148658
  H     15.421071   15.365641   17.076857
  H     15.557988   14.083591   15.871052
  H     15.440898   19.367466   14.650804
  H     17.022964   20.025689   14.216509
  H     15.923209   20.953776   15.255231
  H     17.114383   21.173331   17.068519
  H     19.005741   18.373803   19.246782
  H     18.814526   17.053618   17.222529
  H     18.632061   14.832831   18.039952
  H     17.555682   13.132838   19.500589
  H     15.530364   13.743142   20.826365
  H     14.146565   15.354510   21.380370
  H     15.677506   17.741347   19.248369

 Total Charge           Charge          ....    0
 Multiplicity           Mult            ....    1
 Number of Electrons    NEL             ....  154
 Basis Dimension        Dim             ....  828

ORBITAL ENERGIES
----------------

  NO   OCC          E(Eh)            E(eV)
   0   2.0000     -91.891234     -2500.4876
   1   2.0000     -20.602724      -560.6286
   2   2.0000     -20.581599      -560.0538
   3   2.0000     -20.549114      -559.1698
   4   2.0000     -15.630562      -425.3292
   5   2.0000     -15.609885      -424.7666
   6   2.0000     -11.392625      -310.0091
   7   2.0000     -11.385622      -309.8185
   8   2.0000     -11.337457      -308.5079
   9   2.0000     -11.320733      -308.0528
  10   2.0000     -11.313419      -307.8538
  11   2.0000     -11.297979      -307.4336
  12   2.0000     -11.266533      -306.5780
  13   2.0000     -11.261584      -306.4433
  14   2.0000     -11.258427      -306.3574
  15   2.0000     -11.254298      -306.2450
  16   2.0000     -11.250696      -306.1470
  17   2.0000     -11.245427      -306.0036
  18   2.0000     -11.244542      -305.9795
  19   2.0000     -11.228849      -305.5525
  20   2.0000      -8.896284      -242.0802
  21   2.0000      -6.577850      -178.9924
  22   2.0000      -6.575858      -178.9382
  23   2.0000      -6.575260      -178.9219
  24   2.0000      -1.443455       -39.2784
  25   2.0000      -1.422498       -38.7081
  26   2.0000      -1.352829       -36.8124
  27   2.0000      -1.342775       -36.5388
  28   2.0000      -1.241291       -33.7772
  29   2.0000      -1.163693       -31.6657
  30   2.0000      -1.123052       -30.5598
  31   2.0000      -1.048098       -28.5202
  32   2.0000      -1.031561       -28.0702
  33   2.0000      -1.021612       -27.7995
  34   2.0000      -1.001392       -27.2493
  35   2.0000      -0.988213       -26.8906
  36   2.0000      -0.925870       -25.1942
  37   2.0000      -0.892803       -24.2944
  38   2.0000      -0.850213       -23.1355
  39   2.0000      -0.843598       -22.9555
  40   2.0000      -0.840605       -22.8740
  41   2.0000      -0.826861       -22.5000
  42   2.0000      -0.749652       -20.3991
  43   2.0000      -0.737607       -20.0713
  44   2.0000      -0.716394       -19.4941
  45   2.0000      -0.700702       -19.0671
  46   2.0000      -0.689136       -18.7523
  47   2.0000      -0.679454       -18.4889
  48   2.0000      -0.672179       -18.2909
  49   2.0000      -0.665183       -18.1006
  50   2.0000      -0.651978       -17.7412
  51   2.0000      -0.646492       -17.5919
  52   2.0000      -0.636607       -17.3230
  53   2.0000      -0.621546       -16.9131
  54   2.0000      -0.612221       -16.6594
  55   2.0000      -0.605113       -16.4660
  56   2.0000      -0.602597       -16.3975
  57   2.0000      -0.581503       -15.8235
  58   2.0000      -0.574176       -15.6241
  59   2.0000      -0.567302       -15.4371
  60   2.0000      -0.551036       -14.9945
  61   2.0000      -0.545232       -14.8365
  62   2.0000      -0.540528       -14.7085
  63   2.0000      -0.531073       -14.4512
  64   2.0000      -0.528072       -14.3696
  65   2.0000      -0.516817       -14.0633
  66   2.0000      -0.503811       -13.7094
  67   2.0000      -0.494871       -13.4661
  68   2.0000      -0.478832       -13.0297
  69   2.0000      -0.468297       -12.7430
  70   2.0000      -0.454817       -12.3762
  71   2.0000      -0.446179       -12.1411
  72   2.0000      -0.356385        -9.6977
  73   2.0000      -0.354287        -9.6406
  74   2.0000      -0.330840        -9.0026
  75   2.0000      -0.327904        -8.9227
  76   2.0000      -0.320909        -8.7324
  77   0.0000       0.073114         1.9895
  78   0.0000       0.098322         2.6755
  79   0.0000       0.122105         3.3226
  80   0.0000       0.127719         3.4754
  81   0.0000       0.130860         3.5609

MULLIKEN ATOMIC CHARGES
-----------------------
   0 C :   -0.299997
   1 C :    0.034908
   2 O :   -0.373650
   3 C :    0.447046
   4 O :   -0.381388
   5 C :   -0.252978
   6 C :    0.174347
   7 C :   -0.271091
   8 N :   -0.127487
   9 C :    0.208490
  10 S :   -0.437692
  11 N :   -0.207704
  12 C :    0.043055
  13 C :   -0.012950
  14 C :   -0.159935
  15 C :   -0.133737
  16 C :   -0.271745
  17 C :    0.302131
  18 O :   -0.356752
  19 C :   -0.223633
  20 H :    0.087516
  21 H :    0.107196
  22 H :    0.118212
  23 H :    0.101300
  24 H :    0.115679
  25 H :    0.122169
  26 H :    0.139191
  27 H :    0.094805
  28 H :    0.199810
  29 H :    0.199807
  30 H :    0.152012
  31 H :    0.155793
  32 H :    0.164654
  33 H :    0.134465
  34 H :    0.241541
  35 H :    0.166610
Sum of atomic charges:   -0.0000000

LOEWDIN ATOMIC CHARGES
----------------------
   0 C :    0.105208
   1 C :   -0.015059
   2 O :    0.287090
   3 C :   -0.427515
   4 O :    0.126093
   5 C :   -0.103646
   6 C :   -0.058985
   7 C :    0.129795
   8 N :    0.407563
   9 C :   -0.457856
  10 S :   -0.033330
  11 N :    0.395575
  12 C :   -0.053910
  13 C :   -0.044549
  14 C :    0.021260
  15 C :    0.042699
  16 C :    0.000498
  17 C :   -0.192691
  18 O :    0.396437
  19 C :    0.031264
  20 H :   -0.032230
  21 H :   -0.024049
  22 H :   -0.021632
  23 H :   -0.036152
  24 H :   -0.022270
  25 H :   -0.008110
  26 H :   -0.003951
  27 H :   -0.022575
  28 H :   -0.056342
  29 H :   -0.063481
  30 H :   -0.011217
  31 H :   -0.026402
  32 H :   -0.019140
  33 H :   -0.033882
  34 H :   -0.152585
  35 H :   -0.021921

  Mayer bond orders larger than 0.100000
B(  0-C ,  1-C ) :   0.9746 B(  0-C , 20-H ) :   0.9744 B(  0-C , 21-H ) :   0.9763
B(  0-C , 22-H ) :   0.9736 B(  1-C ,  2-O ) :   0.8920 B(  1-C , 23-H ) :   0.9640
B(  1-C , 24-H ) :   0.9806 B(  2-O ,  3-C ) :   1.1064 B(  3-C ,  4-O ) :   2.0737
B(  3-C ,  5-C ) :   1.0215 B(  5-C ,  6-C ) :   1.6316 B(  5-C , 12-C ) :   0.9653
B(  6-C ,  7-C ) :   0.9641 B(  6-C ,  8-N ) :   1.1507 B(  7-C , 25-H ) :   0.9698
B(  7-C , 26-H ) :   0.9544 B(  7-C , 27-H ) :   0.9864 B(  8-N ,  9-C ) :   1.1877
B(  8-N , 28-H ) :   0.9477 B(  9-C , 10-S ) :   1.6139 B(  9-C , 11-N ) :   1.2999
B( 11-N , 12-C ) :   0.9774 B( 11-N , 29-H ) :   0.9484 B( 12-C , 13-C ) :   0.9595
B( 12-C , 30-H ) :   1.0048 B( 13-C , 14-C ) :   1.3652 B( 13-C , 19-C ) :   1.3700
B( 14-C , 15-C ) :   1.3923 B( 14-C , 31-H ) :   0.9692 B( 15-C , 16-C ) :   1.3606
B( 15-C , 32-H ) :   0.9695 B( 16-C , 17-C ) :   1.3313 B( 16-C , 33-H ) :   0.9835
B( 17-C , 18-O ) :   1.1083 B( 17-C , 19-C ) :   1.3650 B( 18-O , 34-H ) :   0.9788
B( 19-C , 35-H ) :   0.9605

MP2 TOTAL ENERGY:    -1274.322122640 Eh
FINAL SINGLE POINT ENERGY     -1274.322122639969

DIPOLE MOMENT
-------------
                                X             Y             Z
Electronic contribution:      9.71642       7.89921       7.57204
Nuclear contribution   :    -10.98105      -9.51603      -7.35278
                        -----------------------------------------
Total Dipole Moment    :     -1.26463      -1.61682       0.21925
                        -----------------------------------------
Magnitude (a.u.)       :      2.06433
Magnitude (Debye)      :      5.24711

Rotational constants in cm-1:     0.011773     0.009131     0.006186
Rotational constants in MHz :   352.946212   273.727640   185.465102

                             ****ORCA TERMINATED NORMALLY****
TOTAL RUN TIME: 0 days 1 hours 52 minutes 5 seconds 799 msec
