                         Program Version 4.2.0 -  RELEASE  -
|  1> ! ri-mp2 cc-pvtz cc-pvtz/c TightSCF NoKeepInts
|  2>
|  3> %scf
|  4>   MaxCore 4096
|  5> end
|  6> *xyz  0  1
|  7>     C       14.2877748   16.2518984   15.3107492
|  8>     C       15.3676685   15.4494404   16.0631934
|  9>     O       16.6489360   15.6381263   15.4239840
| 10>     C       17.2529574   16.8593393   15.2884933
| 11>     O       17.8878756   17.1350329   14.2874464
| 12>     C       17.0901593   17.8150836   16.4287142
| 13>     C       16.8569208   19.1173809   16.1374194
| 14>     C       16.3592223   19.6621717   14.8150220
| 15>     N       17.0993308   20.1266553   17.0703013
| 16>     C       17.8217620   19.9477401   18.2194665
| 17>     S       18.1884486   21.2050572   19.2290146
| 18>     N       18.2512794   18.6694168   18.4770693
| 19>     C       17.8532725   17.4669891   17.7181368
| 20>     C       17.2662330   16.3670267   18.5880925
| 21>     C       17.7557023   15.0509564   18.4992471
| 22>     C       17.2066405   14.0311025   19.2942558
| 23>     C       16.1637229   14.3308922   20.1875149
| 24>     C       15.6782238   15.6423897   20.2817517
| 25>     O       14.6679648   15.9335523   21.1387576
| 26>     C       16.2242140   16.6554170   19.4869422
| 27>     H       14.3963181   17.3280838   15.4848859
| 28>     H       13.2888396   15.9584417   15.6560175
| 29>     H       14.3439755   16.0618288   14.2312007
| 30>     H       15.3732922   15.7499044   17.1130997
| 31>     H       15.1111501   14.3827606   16.0273490
| 32>     H       15.7523061   18.9262788   14.2743287
| 33>     H       17.2082119   19.9159542   14.1666240
| 34>     H       15.7444156   20.5613666   14.9410465
| 35>     H       16.8343072   21.0767861   16.8638779
| 36>     H       18.7774911   18.5655634   19.3358896
| 37>     H       18.8459616   17.1494722   17.3663437
| 38>     H       18.5573067   14.8153857   17.8030028
| 39>     H       17.5895669   13.0146281   19.2164133
| 40>     H       15.7373996   13.5458115   20.8037346
| 41>     H       14.4636442   15.1271035   21.6362256
| 42>     H       15.8345043   17.6649621   19.5723883
| 43> *
| 44>
| 45>                          ****END OF INPUT****

CARTESIAN COORDINATES (ANGSTROEM)
---------------------------------
  C     14.287775   16.251898   15.310749
  C     15.367669   15.449440   16.063193
  O     16.648936   15.638126   15.423984
  C     17.252957   16.859339   15.288493
  O     17.887876   17.135033   14.287446
  C     17.090159   17.815084   16.428714
  C     16.856921   19.117381   16.137419
  C     16.359222   19.662172   14.815022
  N     17.099331   20.126655   17.070301
  C     17.821762   19.947740   18.219466
  S     18.188449   21.205057   19.229015
  N     18.251279   18.669417   18.477069
  C     17.853272   17.466989   17.718137
  C     17.266233   16.367027   18.588092
  C     17.755702   15.050956   18.499247
  C     17.206640   14.031102   19.294256
  C     16.163723   14.330892   20.187515
  C     15.678224   15.642390   20.281752
  O     14.667965   15.933552   21.138758
  C     16.224214   16.655417   19.486942
  H     14.396318   17.328084   15.484886
  H     13.288840   15.958442   15.656017
  H     14.343976   16.061829   14.231201
  H     15.373292   15.749904   17.113100
  H     15.111150   14.382761   16.027349
  H     15.752306   18.926279   14.274329
  H     17.208212   19.915954   14.166624
  H     15.744416   20.561367   14.941046
  H     16.834307   21.076786   16.863878
  H     18.777491   18.565563   19.335890
  H     18.845962   17.149472   17.366344
  H     18.557307   14.815386   17.803003
  H     17.589567   13.014628   19.216413
  H     15.737400   13.545811   20.803735
  H     14.463644   15.127103   21.636226
  H     15.834504   17.664962   19.572388

 Total Charge           Charge          ....    0
 Multiplicity           Mult            ....    1
 Number of Electrons    NEL             ....  154
 Basis Dimension        Dim             ....  828

ORBITAL ENERGIES
----------------

  NO   OCC          E(Eh)            E(eV)
   0   2.0000     -91.890536     -2500.4686
   1   2.0000     -20.604182      -560.6683
   2   2.0000     -20.594440      -560.4032
   3   2.0000     -20.551737      -559.2412
   4   2.0000     -15.627448      -425.2445
   5   2.0000     -15.611010      -424.7972
   6   2.0000     -11.395902      -310.0983
   7   2.0000     -11.385731      -309.8215
   8   2.0000     -11.330907      -308.3297
   9   2.0000     -11.322652      -308.1050
  10   2.0000     -11.316914      -307.9489
  11   2.0000     -11.300055      -307.4901
  12   2.0000     -11.269586      -306.6610
  13   2.0000     -11.263619      -306.4986
  14   2.0000     -11.257982      -306.3453
  15   2.0000     -11.256792      -306.3129
  16   2.0000     -11.252313      -306.1910
  17   2.0000     -11.247209      -306.0521
  18   2.0000     -11.246759      -306.0399
  19   2.0000     -11.232620      -305.6551
  20   2.0000      -8.895604      -242.0617
  21   2.0000      -6.577177      -178.9741
  22   2.0000      -6.575177      -178.9197
  23   2.0000      -6.574586      -178.9036
  24   2.0000      -1.445653       -39.3382
  25   2.0000      -1.423950       -38.7476
  26   2.0000      -1.358936       -36.9785
  27   2.0000      -1.340904       -36.4878
  28   2.0000      -1.240547       -33.7570
  29   2.0000      -1.165895       -31.7256
  30   2.0000      -1.124874       -30.6094
  31   2.0000      -1.050561       -28.5872
  32   2.0000      -1.035578       -28.1795
  33   2.0000      -1.023962       -27.8634
  34   2.0000      -1.003664       -27.3111
  35   2.0000      -0.989648       -26.9297
  36   2.0000      -0.927140       -25.2288
  37   2.0000      -0.894765       -24.3478
  38   2.0000      -0.851378       -23.1672
  39   2.0000      -0.844359       -22.9762
  40   2.0000      -0.842495       -22.9254
  41   2.0000      -0.832122       -22.6432
  42   2.0000      -0.754337       -20.5266
  43   2.0000      -0.739044       -20.1104
  44   2.0000      -0.719418       -19.5764
  45   2.0000      -0.702459       -19.1149
  46   2.0000      -0.692244       -18.8369
  47   2.0000      -0.680399       -18.5146
  48   2.0000      -0.677053       -18.4235
  49   2.0000      -0.666653       -18.1405
  50   2.0000      -0.650115       -17.6905
  51   2.0000      -0.648868       -17.6566
  52   2.0000      -0.634867       -17.2756
  53   2.0000      -0.622020       -16.9260
  54   2.0000      -0.613039       -16.6816
  55   2.0000      -0.607282       -16.5250
  56   2.0000      -0.603862       -16.4319
  57   2.0000      -0.583730       -15.8841
  58   2.0000      -0.578250       -15.7350
  59   2.0000      -0.566847       -15.4247
  60   2.0000      -0.558320       -15.1927
  61   2.0000      -0.549529       -14.9534
  62   2.0000      -0.545768       -14.8511
  63   2.0000      -0.533945       -14.5294
  64   2.0000      -0.528305       -14.3759
  65   2.0000      -0.517771       -14.0893
  66   2.0000      -0.505683       -13.7603
  67   2.0000      -0.502899       -13.6846
  68   2.0000      -0.484603       -13.1867
  69   2.0000      -0.466516       -12.6945
  70   2.0000      -0.454064       -12.3557
  71   2.0000      -0.450206       -12.2507
  72   2.0000      -0.357959        -9.7406
  73   2.0000      -0.352721        -9.5980
  74   2.0000      -0.331160        -9.0113
  75   2.0000      -0.329024        -8.9532
  76   2.0000      -0.320610        -8.7242
  77   0.0000       0.083128         2.2620
  78   0.0000       0.097002         2.6396
  79   0.0000       0.121419         3.3040
  80   0.0000       0.126856         3.4519
  81   0.0000       0.128839         3.5059

MULLIKEN ATOMIC CHARGES
-----------------------
   0 C :   -0.314392
   1 C :    0.036392
   2 O :   -0.334693
   3 C :    0.418829
   4 O :   -0.370920
   5 C :   -0.218514
   6 C :    0.147453
   7 C :   -0.291057
   8 N :   -0.133690
   9 C :    0.211405
  10 S :   -0.439754
  11 N :   -0.216393
  12 C :    0.025433
  13 C :    0.008630
  14 C :   -0.188946
  15 C :   -0.133515
  16 C :   -0.271736
  17 C :    0.306329
  18 O :   -0.354170
  19 C :   -0.231786
  20 H :    0.094380
  21 H :    0.108187
  22 H :    0.115040
  23 H :    0.103212
  24 H :    0.122640
  25 H :    0.117088
  26 H :    0.147941
  27 H :    0.101847
  28 H :    0.198389
  29 H :    0.201551
  30 H :    0.160065
  31 H :    0.158124
  32 H :    0.165628
  33 H :    0.135216
  34 H :    0.241618
  35 H :    0.174169
Sum of atomic charges:    0.0000000

LOEWDIN ATOMIC CHARGES
----------------------
   0 C :    0.103310
   1 C :   -0.018085
   2 O :    0.300744
   3 C :   -0.422650
   4 O :    0.128178
   5 C :   -0.096667
   6 C :   -0.077987
   7 C :    0.128442
   8 N :    0.405999
   9 C :   -0.456139
  10 S :   -0.035171
  11 N :    0.395833
  12 C :   -0.054039
  13 C :   -0.046834
  14 C :    0.020901
  15 C :    0.044752
  16 C :    0.001674
  17 C :   -0.191781
  18 O :    0.397122
  19 C :    0.029732
  20 H :   -0.035095
  21 H :   -0.023740
  22 H :   -0.023712
  23 H :   -0.037740
  24 H :   -0.020350
  25 H :   -0.011802
  26 H :   -0.003621
  27 H :   -0.020319
  28 H :   -0.056919
  29 H :   -0.063637
  30 H :   -0.009560
  31 H :   -0.025606
  32 H :   -0.018172
  33 H :   -0.033502
  34 H :   -0.152286
  35 H :   -0.021271

  Mayer bond orders larger than 0.100000
B(  0-C ,  1-C ) :   0.9678 B(  0-C , 20-H ) :   0.9747 B(  0-C , 21-H ) :   0.9777
B(  0-C , 22-H ) :   0.9751 B(  1-C ,  2-O ) :   0.8908 B(  1-C , 23-H ) :   0.9596
B(  1-C , 24-H ) :   0.9822 B(  2-O ,  3-C ) :   1.1597 B(  3-C ,  4-O ) :   2.1185
B(  3-C ,  5-C ) :   0.9286 B(  5-C ,  6-C ) :   1.6881 B(  5-C , 12-C ) :   0.9609
B(  6-C ,  7-C ) :   0.9511 B(  6-C ,  8-N ) :   1.1314 B(  7-C , 25-H ) :   0.9767
B(  7-C , 26-H ) :   0.9565 B(  7-C , 27-H ) :   0.9820 B(  8-N ,  9-C ) :   1.1972
B(  8-N , 28-H ) :   0.9494 B(  9-C , 10-S ) :   1.6135 B(  9-C , 11-N ) :   1.2881
B( 11-N , 12-C ) :   0.9807 B( 11-N , 29-H ) :   0.9462 B( 12-C , 13-C ) :   0.9617
B( 12-C , 30-H ) :   1.0042 B( 13-C , 14-C ) :   1.3765 B( 13-C , 19-C ) :   1.3542
B( 14-C , 15-C ) :   1.3940 B( 14-C , 31-H ) :   0.9686 B( 15-C , 16-C ) :   1.3622
B( 15-C , 32-H ) :   0.9691 B( 16-C , 17-C ) :   1.3313 B( 16-C , 33-H ) :   0.9831
B( 17-C , 18-O ) :   1.1112 B( 17-C , 19-C ) :   1.3611 B( 18-O , 34-H ) :   0.9787
B( 19-C , 35-H ) :   0.9578

MP2 TOTAL ENERGY:    -1274.323314239 Eh
FINAL SINGLE POINT ENERGY     -1274.323314239243

DIPOLE MOMENT
-------------
                                X             Y             Z
Electronic contribution:      9.59052       6.79345       7.83821
Nuclear contribution   :    -11.06791      -8.47131      -7.65570
                        -----------------------------------------
Total Dipole Moment    :     -1.47739      -1.67786       0.18251
                        -----------------------------------------
Magnitude (a.u.)       :      2.24304
Magnitude (Debye)      :      5.70134

Rotational constants in cm-1:     0.011726     0.009149     0.006225
Rotational constants in MHz :   351.538413   274.288284   186.617758

                             ****ORCA TERMINATED NORMALLY****
TOTAL RUN TIME: 0 days 1 hours 49 minutes 1 seconds 676 msec
