                         Program Version 4.2.0 -  RELEASE  -
|  1> ! ri-mp2 cc-pvtz cc-pvtz/c TightSCF NoKeepInts
|  2>
|  3> %scf
|  4>   MaxCore 4096
|  5> end
|  6> *xyz  0  1
|  7>     C       14.0343817   15.5844055   14.2711348
|  8>     C       14.9831962   15.8594405   15.4492914
|  9>     O       16.2847436   16.1202725   14.9021170
| 10>     C       17.2984010   16.2870420   15.7951067
| 11>     O       18.1288867   15.4164287   15.9802600
| 12>     C       17.2424193   17.5526428   16.5977481
| 13>     C       16.9004600   18.7422091   16.0394294
| 14>     C       16.3420693   18.9833803   14.6507169
| 15>     N       17.1176284   19.9393887   16.7255491
| 16>     C       17.8734068   20.0518888   17.8619033
| 17>     S       18.1795257   21.5177472   18.5633561
| 18>     N       18.3812283   18.8850526   18.3761318
| 19>     C       18.0522211   17.5280838   17.8970232
| 20>     C       17.4361482   16.6323260   18.9626823
| 21>     C       17.9560999   15.3482116   19.2043536
| 22>     C       17.3807519   14.5162622   20.1793241
| 23>     C       16.2754360   14.9722141   20.9180733
| 24>     C       15.7525925   16.2499492   20.6760265
| 25>     O       14.6804050   16.6898573   21.3815605
| 26>     C       16.3265629   17.0753604   19.7037158
| 27>     H       14.3833919   14.7216925   13.6895097
| 28>     H       13.9816584   16.4526933   13.6028819
| 29>     H       13.0224063   15.3664069   14.6336641
| 30>     H       14.6216601   16.7164708   16.0328628
| 31>     H       15.0190916   14.9792664   16.1063228
| 32>     H       16.9103915   18.4253209   13.8954482
| 33>     H       16.3864071   20.0395574   14.3573070
| 34>     H       15.2943090   18.6677638   14.5866229
| 35>     H       16.7764236   20.8075363   16.3443220
| 36>     H       18.9242125   18.9942481   19.2236092
| 37>     H       19.0541231   17.1670466   17.6209350
| 38>     H       18.8019362   14.9889779   18.6219487
| 39>     H       17.7893708   13.5224673   20.3544430
| 40>     H       15.8274122   14.3319971   21.6708026
| 41>     H       14.4587862   16.0045535   22.0300394
| 42>     H       15.9088552   18.0618380   19.5317766
| 43> *
| 44>
| 45>                          ****END OF INPUT****

CARTESIAN COORDINATES (ANGSTROEM)
---------------------------------
  C     14.034382   15.584406   14.271135
  C     14.983196   15.859440   15.449291
  O     16.284744   16.120272   14.902117
  C     17.298401   16.287042   15.795107
  O     18.128887   15.416429   15.980260
  C     17.242419   17.552643   16.597748
  C     16.900460   18.742209   16.039429
  C     16.342069   18.983380   14.650717
  N     17.117628   19.939389   16.725549
  C     17.873407   20.051889   17.861903
  S     18.179526   21.517747   18.563356
  N     18.381228   18.885053   18.376132
  C     18.052221   17.528084   17.897023
  C     17.436148   16.632326   18.962682
  C     17.956100   15.348212   19.204354
  C     17.380752   14.516262   20.179324
  C     16.275436   14.972214   20.918073
  C     15.752592   16.249949   20.676026
  O     14.680405   16.689857   21.381560
  C     16.326563   17.075360   19.703716
  H     14.383392   14.721692   13.689510
  H     13.981658   16.452693   13.602882
  H     13.022406   15.366407   14.633664
  H     14.621660   16.716471   16.032863
  H     15.019092   14.979266   16.106323
  H     16.910391   18.425321   13.895448
  H     16.386407   20.039557   14.357307
  H     15.294309   18.667764   14.586623
  H     16.776424   20.807536   16.344322
  H     18.924212   18.994248   19.223609
  H     19.054123   17.167047   17.620935
  H     18.801936   14.988978   18.621949
  H     17.789371   13.522467   20.354443
  H     15.827412   14.331997   21.670803
  H     14.458786   16.004554   22.030039
  H     15.908855   18.061838   19.531777

 Total Charge           Charge          ....    0
 Multiplicity           Mult            ....    1
 Number of Electrons    NEL             ....  154
 Basis Dimension        Dim             ....  828

ORBITAL ENERGIES
----------------

  NO   OCC          E(Eh)            E(eV)
   0   2.0000     -91.890224     -2500.4601
   1   2.0000     -20.595750      -560.4388
   2   2.0000     -20.592235      -560.3432
   3   2.0000     -20.553437      -559.2875
   4   2.0000     -15.630832      -425.3366
   5   2.0000     -15.608082      -424.7175
   6   2.0000     -11.394083      -310.0488
   7   2.0000     -11.385219      -309.8076
   8   2.0000     -11.339744      -308.5701
   9   2.0000     -11.312113      -307.8182
  10   2.0000     -11.306903      -307.6765
  11   2.0000     -11.306307      -307.6603
  12   2.0000     -11.264507      -306.5228
  13   2.0000     -11.261333      -306.4365
  14   2.0000     -11.259346      -306.3824
  15   2.0000     -11.251993      -306.1823
  16   2.0000     -11.241933      -305.9086
  17   2.0000     -11.238267      -305.8088
  18   2.0000     -11.237424      -305.7858
  19   2.0000     -11.234600      -305.7090
  20   2.0000      -8.895306      -242.0536
  21   2.0000      -6.576881      -178.9660
  22   2.0000      -6.574877      -178.9115
  23   2.0000      -6.574287      -178.8955
  24   2.0000      -1.453644       -39.5557
  25   2.0000      -1.415488       -38.5174
  26   2.0000      -1.362167       -37.0664
  27   2.0000      -1.342063       -36.5194
  28   2.0000      -1.239210       -33.7206
  29   2.0000      -1.156583       -31.4722
  30   2.0000      -1.123623       -30.5753
  31   2.0000      -1.045742       -28.4561
  32   2.0000      -1.040546       -28.3147
  33   2.0000      -1.014299       -27.6005
  34   2.0000      -1.002913       -27.2906
  35   2.0000      -0.987684       -26.8762
  36   2.0000      -0.923949       -25.1419
  37   2.0000      -0.880798       -23.9677
  38   2.0000      -0.853360       -23.2211
  39   2.0000      -0.841904       -22.9094
  40   2.0000      -0.833782       -22.6884
  41   2.0000      -0.831844       -22.6356
  42   2.0000      -0.760814       -20.7028
  43   2.0000      -0.737944       -20.0805
  44   2.0000      -0.729839       -19.8599
  45   2.0000      -0.693391       -18.8681
  46   2.0000      -0.689482       -18.7618
  47   2.0000      -0.683474       -18.5983
  48   2.0000      -0.674009       -18.3407
  49   2.0000      -0.657974       -17.9044
  50   2.0000      -0.650510       -17.7013
  51   2.0000      -0.645055       -17.5528
  52   2.0000      -0.638048       -17.3622
  53   2.0000      -0.618826       -16.8391
  54   2.0000      -0.606170       -16.4947
  55   2.0000      -0.602863       -16.4047
  56   2.0000      -0.599071       -16.3015
  57   2.0000      -0.580564       -15.7979
  58   2.0000      -0.576097       -15.6764
  59   2.0000      -0.565435       -15.3863
  60   2.0000      -0.560485       -15.2516
  61   2.0000      -0.554571       -15.0907
  62   2.0000      -0.541190       -14.7265
  63   2.0000      -0.528278       -14.3752
  64   2.0000      -0.520885       -14.1740
  65   2.0000      -0.512865       -13.9558
  66   2.0000      -0.502395       -13.6709
  67   2.0000      -0.497544       -13.5389
  68   2.0000      -0.485693       -13.2164
  69   2.0000      -0.467208       -12.7134
  70   2.0000      -0.464143       -12.6300
  71   2.0000      -0.452435       -12.3114
  72   2.0000      -0.355954        -9.6860
  73   2.0000      -0.348325        -9.4784
  74   2.0000      -0.329337        -8.9617
  75   2.0000      -0.319872        -8.7042
  76   2.0000      -0.318812        -8.6753
  77   0.0000       0.073884         2.0105
  78   0.0000       0.106541         2.8991
  79   0.0000       0.117999         3.2109
  80   0.0000       0.132967         3.6182
  81   0.0000       0.137965         3.7542

MULLIKEN ATOMIC CHARGES
-----------------------
   0 C :   -0.260941
   1 C :    0.010553
   2 O :   -0.350146
   3 C :    0.457968
   4 O :   -0.378151
   5 C :   -0.262275
   6 C :    0.177465
   7 C :   -0.299150
   8 N :   -0.130796
   9 C :    0.205414
  10 S :   -0.439956
  11 N :   -0.213858
  12 C :    0.051962
  13 C :    0.027103
  14 C :   -0.188824
  15 C :   -0.131419
  16 C :   -0.277733
  17 C :    0.313664
  18 O :   -0.358308
  19 C :   -0.252958
  20 H :    0.108221
  21 H :    0.093050
  22 H :    0.092859
  23 H :    0.099043
  24 H :    0.113147
  25 H :    0.138204
  26 H :    0.112659
  27 H :    0.117416
  28 H :    0.198334
  29 H :    0.200349
  30 H :    0.159589
  31 H :    0.167612
  32 H :    0.162453
  33 H :    0.129846
  34 H :    0.240756
  35 H :    0.166849
Sum of atomic charges:   -0.0000000

LOEWDIN ATOMIC CHARGES
----------------------
   0 C :    0.111495
   1 C :   -0.027431
   2 O :    0.302015
   3 C :   -0.423019
   4 O :    0.128535
   5 C :   -0.096100
   6 C :   -0.070847
   7 C :    0.127426
   8 N :    0.405124
   9 C :   -0.458159
  10 S :   -0.035889
  11 N :    0.396178
  12 C :   -0.049417
  13 C :   -0.042611
  14 C :    0.023567
  15 C :    0.042428
  16 C :   -0.000836
  17 C :   -0.192934
  18 O :    0.393350
  19 C :    0.027460
  20 H :   -0.021704
  21 H :   -0.029712
  22 H :   -0.023716
  23 H :   -0.038167
  24 H :   -0.025678
  25 H :   -0.005848
  26 H :   -0.018025
  27 H :   -0.013766
  28 H :   -0.058266
  29 H :   -0.063248
  30 H :   -0.006455
  31 H :   -0.022395
  32 H :   -0.019842
  33 H :   -0.035532
  34 H :   -0.153953
  35 H :   -0.024027

  Mayer bond orders larger than 0.100000
B(  0-C ,  1-C ) :   0.9776 B(  0-C , 20-H ) :   0.9769 B(  0-C , 21-H ) :   0.9778
B(  0-C , 22-H ) :   0.9755 B(  1-C ,  2-O ) :   0.8964 B(  1-C , 23-H ) :   0.9682
B(  1-C , 24-H ) :   0.9769 B(  2-O ,  3-C ) :   1.1122 B(  3-C ,  4-O ) :   2.0864
B(  3-C ,  5-C ) :   0.9741 B(  5-C ,  6-C ) :   1.6764 B(  5-C , 12-C ) :   0.9533
B(  6-C ,  7-C ) :   0.9442 B(  6-C ,  8-N ) :   1.1323 B(  7-C , 25-H ) :   0.9654
B(  7-C , 26-H ) :   0.9889 B(  7-C , 27-H ) :   0.9664 B(  8-N ,  9-C ) :   1.1860
B(  8-N , 28-H ) :   0.9477 B(  9-C , 10-S ) :   1.6120 B(  9-C , 11-N ) :   1.3008
B( 11-N , 12-C ) :   0.9833 B( 11-N , 29-H ) :   0.9487 B( 12-C , 13-C ) :   0.9713
B( 12-C , 30-H ) :   0.9937 B( 13-C , 14-C ) :   1.3821 B( 13-C , 19-C ) :   1.3604
B( 14-C , 15-C ) :   1.3954 B( 14-C , 31-H ) :   0.9608 B( 15-C , 16-C ) :   1.3603
B( 15-C , 32-H ) :   0.9704 B( 16-C , 17-C ) :   1.3318 B( 16-C , 33-H ) :   0.9855
B( 17-C , 18-O ) :   1.1055 B( 17-C , 19-C ) :   1.3672 B( 18-O , 34-H ) :   0.9799
B( 19-C , 35-H ) :   0.9589

MP2 TOTAL ENERGY:    -1274.329208150 Eh
FINAL SINGLE POINT ENERGY     -1274.329208149922

DIPOLE MOMENT
-------------
                                X             Y             Z
Electronic contribution:     10.57589       8.45803       9.96426
Nuclear contribution   :    -12.10203      -9.61138     -10.46969
                        -----------------------------------------
Total Dipole Moment    :     -1.52615      -1.15335      -0.50542
                        -----------------------------------------
Magnitude (a.u.)       :      1.97858
Magnitude (Debye)      :      5.02915

Rotational constants in cm-1:     0.009888     0.009395     0.006015
Rotational constants in MHz :   296.444110   281.658013   180.327152

                             ****ORCA TERMINATED NORMALLY****
TOTAL RUN TIME: 0 days 1 hours 41 minutes 23 seconds 429 msec
