                         Program Version 4.2.0 -  RELEASE  -
|  1> ! ri-mp2 cc-pvtz cc-pvtz/c TightSCF NoKeepInts
|  2>
|  3> %scf
|  4>   MaxCore 4096
|  5> end
|  6> *xyz  0  1
|  7>     C       14.3429727   16.4991281   15.8490924
|  8>     C       15.3985437   15.3803809   15.9833960
|  9>     O       16.5985818   15.6663440   15.2284126
| 10>     C       17.3579216   16.8098996   15.2588977
| 11>     O       18.1779598   17.0320900   14.3876737
| 12>     C       17.1344269   17.7698377   16.3802811
| 13>     C       16.8767002   19.0575499   16.0531645
| 14>     C       16.4125983   19.5452199   14.6973577
| 15>     N       17.0603477   20.0930354   16.9705278
| 16>     C       17.7452660   19.9553475   18.1483645
| 17>     S       18.0404722   21.2411690   19.1454587
| 18>     N       18.1986235   18.6938234   18.4471047
| 19>     C       17.8641902   17.4676078   17.6955683
| 20>     C       17.2594163   16.3705359   18.5537026
| 21>     C       17.8434989   15.0912249   18.5929037
| 22>     C       17.2756805   14.0737327   19.3779655
| 23>     C       16.1182289   14.3393689   20.1301236
| 24>     C       15.5384489   15.6151414   20.0961326
| 25>     O       14.4177524   15.8726316   20.8155159
| 26>     C       16.1042586   16.6258874   19.3126073
| 27>     H       14.5646296   17.3544753   16.4961603
| 28>     H       13.3587009   16.1184038   16.1483027
| 29>     H       14.2671157   16.8429447   14.8101209
| 30>     H       15.6194542   15.1978924   17.0379720
| 31>     H       14.9687211   14.4504003   15.5893189
| 32>     H       15.7431054   18.8205159   14.2188128
| 33>     H       17.2732634   19.6835309   14.0292864
| 34>     H       15.8730479   20.4979394   14.7573620
| 35>     H       16.7784532   21.0314735   16.7352028
| 36>     H       18.6950804   18.6204624   19.3264410
| 37>     H       18.8762857   17.1695112   17.3840819
| 38>     H       18.7353314   14.8822398   18.0066595
| 39>     H       17.7323460   13.0853482   19.4014693
| 40>     H       15.6767887   13.5557109   20.7374923
| 41>     H       14.2153797   15.0807068   21.3366754
| 42>     H       15.6434076   17.6084885   19.2983907
| 43> *
| 44>
| 45>                          ****END OF INPUT****

CARTESIAN COORDINATES (ANGSTROEM)
---------------------------------
  C     14.342973   16.499128   15.849092
  C     15.398544   15.380381   15.983396
  O     16.598582   15.666344   15.228413
  C     17.357922   16.809900   15.258898
  O     18.177960   17.032090   14.387674
  C     17.134427   17.769838   16.380281
  C     16.876700   19.057550   16.053165
  C     16.412598   19.545220   14.697358
  N     17.060348   20.093035   16.970528
  C     17.745266   19.955347   18.148364
  S     18.040472   21.241169   19.145459
  N     18.198624   18.693823   18.447105
  C     17.864190   17.467608   17.695568
  C     17.259416   16.370536   18.553703
  C     17.843499   15.091225   18.592904
  C     17.275680   14.073733   19.377965
  C     16.118229   14.339369   20.130124
  C     15.538449   15.615141   20.096133
  O     14.417752   15.872632   20.815516
  C     16.104259   16.625887   19.312607
  H     14.564630   17.354475   16.496160
  H     13.358701   16.118404   16.148303
  H     14.267116   16.842945   14.810121
  H     15.619454   15.197892   17.037972
  H     14.968721   14.450400   15.589319
  H     15.743105   18.820516   14.218813
  H     17.273263   19.683531   14.029286
  H     15.873048   20.497939   14.757362
  H     16.778453   21.031474   16.735203
  H     18.695080   18.620462   19.326441
  H     18.876286   17.169511   17.384082
  H     18.735331   14.882240   18.006660
  H     17.732346   13.085348   19.401469
  H     15.676789   13.555711   20.737492
  H     14.215380   15.080707   21.336675
  H     15.643408   17.608488   19.298391

 Total Charge           Charge          ....    0
 Multiplicity           Mult            ....    1
 Number of Electrons    NEL             ....  154
 Basis Dimension        Dim             ....  828

ORBITAL ENERGIES
----------------

  NO   OCC          E(Eh)            E(eV)
   0   2.0000     -91.889587     -2500.4428
   1   2.0000     -20.606432      -560.7295
   2   2.0000     -20.596080      -560.4478
   3   2.0000     -20.549593      -559.1828
   4   2.0000     -15.626020      -425.2056
   5   2.0000     -15.610639      -424.7871
   6   2.0000     -11.397115      -310.1313
   7   2.0000     -11.384937      -309.7999
   8   2.0000     -11.326691      -308.2149
   9   2.0000     -11.325224      -308.1750
  10   2.0000     -11.316818      -307.9463
  11   2.0000     -11.301003      -307.5159
  12   2.0000     -11.271335      -306.7086
  13   2.0000     -11.266316      -306.5720
  14   2.0000     -11.256782      -306.3126
  15   2.0000     -11.255761      -306.2848
  16   2.0000     -11.255049      -306.2655
  17   2.0000     -11.249706      -306.1201
  18   2.0000     -11.249331      -306.1099
  19   2.0000     -11.232479      -305.6513
  20   2.0000      -8.894670      -242.0363
  21   2.0000      -6.576246      -178.9488
  22   2.0000      -6.574242      -178.8942
  23   2.0000      -6.573656      -178.8783
  24   2.0000      -1.442745       -39.2591
  25   2.0000      -1.426186       -38.8085
  26   2.0000      -1.357192       -36.9311
  27   2.0000      -1.339593       -36.4522
  28   2.0000      -1.239610       -33.7315
  29   2.0000      -1.168402       -31.7938
  30   2.0000      -1.125599       -30.6291
  31   2.0000      -1.052471       -28.6392
  32   2.0000      -1.035133       -28.1674
  33   2.0000      -1.026334       -27.9280
  34   2.0000      -1.004143       -27.3241
  35   2.0000      -0.989867       -26.9357
  36   2.0000      -0.927695       -25.2439
  37   2.0000      -0.897416       -24.4199
  38   2.0000      -0.851447       -23.1691
  39   2.0000      -0.845211       -22.9994
  40   2.0000      -0.844832       -22.9890
  41   2.0000      -0.830164       -22.5899
  42   2.0000      -0.752597       -20.4792
  43   2.0000      -0.740693       -20.1553
  44   2.0000      -0.720952       -19.6181
  45   2.0000      -0.705044       -19.1852
  46   2.0000      -0.693038       -18.8585
  47   2.0000      -0.678871       -18.4730
  48   2.0000      -0.676696       -18.4138
  49   2.0000      -0.663907       -18.0658
  50   2.0000      -0.651220       -17.7206
  51   2.0000      -0.648321       -17.6417
  52   2.0000      -0.637307       -17.3420
  53   2.0000      -0.619323       -16.8526
  54   2.0000      -0.614563       -16.7231
  55   2.0000      -0.608764       -16.5653
  56   2.0000      -0.604668       -16.4538
  57   2.0000      -0.585270       -15.9260
  58   2.0000      -0.578458       -15.7406
  59   2.0000      -0.567305       -15.4372
  60   2.0000      -0.566100       -15.4044
  61   2.0000      -0.551164       -14.9979
  62   2.0000      -0.538715       -14.6592
  63   2.0000      -0.536552       -14.6003
  64   2.0000      -0.529958       -14.4209
  65   2.0000      -0.517869       -14.0919
  66   2.0000      -0.505430       -13.7534
  67   2.0000      -0.503671       -13.7056
  68   2.0000      -0.488275       -13.2866
  69   2.0000      -0.464212       -12.6318
  70   2.0000      -0.452587       -12.3155
  71   2.0000      -0.447036       -12.1645
  72   2.0000      -0.359633        -9.7861
  73   2.0000      -0.351412        -9.5624
  74   2.0000      -0.334275        -9.0961
  75   2.0000      -0.328474        -8.9382
  76   2.0000      -0.318651        -8.6709
  77   0.0000       0.084677         2.3042
  78   0.0000       0.094936         2.5833
  79   0.0000       0.120086         3.2677
  80   0.0000       0.126517         3.4427
  81   0.0000       0.128882         3.5070

MULLIKEN ATOMIC CHARGES
-----------------------
   0 C :   -0.330754
   1 C :    0.037561
   2 O :   -0.317656
   3 C :    0.412208
   4 O :   -0.376626
   5 C :   -0.233666
   6 C :    0.152731
   7 C :   -0.289907
   8 N :   -0.132460
   9 C :    0.211333
  10 S :   -0.441823
  11 N :   -0.212394
  12 C :    0.033725
  13 C :   -0.000703
  14 C :   -0.187727
  15 C :   -0.130803
  16 C :   -0.271180
  17 C :    0.307397
  18 O :   -0.354473
  19 C :   -0.236613
  20 H :    0.111239
  21 H :    0.116740
  22 H :    0.107652
  23 H :    0.098166
  24 H :    0.125206
  25 H :    0.115250
  26 H :    0.148801
  27 H :    0.098873
  28 H :    0.197767
  29 H :    0.199927
  30 H :    0.164087
  31 H :    0.159421
  32 H :    0.165349
  33 H :    0.135795
  34 H :    0.242235
  35 H :    0.175321
Sum of atomic charges:   -0.0000000

LOEWDIN ATOMIC CHARGES
----------------------
   0 C :    0.101700
   1 C :   -0.014223
   2 O :    0.299332
   3 C :   -0.417827
   4 O :    0.125451
   5 C :   -0.090159
   6 C :   -0.083812
   7 C :    0.129547
   8 N :    0.405010
   9 C :   -0.455343
  10 S :   -0.037040
  11 N :    0.395765
  12 C :   -0.056052
  13 C :   -0.047225
  14 C :    0.017400
  15 C :    0.045305
  16 C :    0.002430
  17 C :   -0.191439
  18 O :    0.397737
  19 C :    0.032923
  20 H :   -0.036326
  21 H :   -0.022997
  22 H :   -0.029536
  23 H :   -0.036040
  24 H :   -0.020380
  25 H :   -0.011566
  26 H :   -0.002933
  27 H :   -0.020155
  28 H :   -0.058059
  29 H :   -0.064107
  30 H :   -0.008384
  31 H :   -0.025443
  32 H :   -0.017735
  33 H :   -0.032865
  34 H :   -0.151864
  35 H :   -0.021088

  Mayer bond orders larger than 0.100000
B(  0-C ,  1-C ) :   0.9551 B(  0-C , 20-H ) :   0.9707 B(  0-C , 21-H ) :   0.9774
B(  0-C , 22-H ) :   0.9765 B(  1-C ,  2-O ) :   0.9046 B(  1-C , 23-H ) :   0.9648
B(  1-C , 24-H ) :   0.9848 B(  2-O ,  3-C ) :   1.1961 B(  3-C ,  4-O ) :   2.1180
B(  3-C ,  5-C ) :   0.9183 B(  5-C ,  6-C ) :   1.7103 B(  5-C , 12-C ) :   0.9526
B(  6-C ,  7-C ) :   0.9409 B(  6-C ,  8-N ) :   1.1199 B(  7-C , 25-H ) :   0.9765
B(  7-C , 26-H ) :   0.9582 B(  7-C , 27-H ) :   0.9844 B(  8-N ,  9-C ) :   1.2001
B(  8-N , 28-H ) :   0.9494 B(  9-C , 10-S ) :   1.6119 B(  9-C , 11-N ) :   1.2860
B( 11-N , 12-C ) :   0.9799 B( 11-N , 29-H ) :   0.9474 B( 12-C , 13-C ) :   0.9538
B( 12-C , 30-H ) :   1.0032 B( 13-C , 14-C ) :   1.3726 B( 13-C , 19-C ) :   1.3574
B( 14-C , 15-C ) :   1.3942 B( 14-C , 31-H ) :   0.9689 B( 15-C , 16-C ) :   1.3649
B( 15-C , 32-H ) :   0.9696 B( 16-C , 17-C ) :   1.3276 B( 16-C , 33-H ) :   0.9832
B( 17-C , 18-O ) :   1.1129 B( 17-C , 19-C ) :   1.3636 B( 18-O , 34-H ) :   0.9783
B( 19-C , 35-H ) :   0.9569

MP2 TOTAL ENERGY:    -1274.320732959 Eh
FINAL SINGLE POINT ENERGY     -1274.320732959198

DIPOLE MOMENT
-------------
                                X             Y             Z
Electronic contribution:      9.14720       6.50017       6.52653
Nuclear contribution   :    -10.65583      -8.24867      -6.23948
                        -----------------------------------------
Total Dipole Moment    :     -1.50863      -1.74850       0.28706
                        -----------------------------------------
Magnitude (a.u.)       :      2.32715
Magnitude (Debye)      :      5.91515

Rotational constants in cm-1:     0.012163     0.009040     0.006444
Rotational constants in MHz :   364.627019   271.013435   193.186061

                             ****ORCA TERMINATED NORMALLY****
TOTAL RUN TIME: 0 days 1 hours 49 minutes 29 seconds 947 msec
