                         Program Version 4.2.0 -  RELEASE  -
|  1> ! ri-mp2 cc-pvtz cc-pvtz/c TightSCF NoKeepInts
|  2>
|  3> %scf
|  4>   MaxCore 4096
|  5> end
|  6> *xyz  0  1
|  7>     C       15.6421170   13.8395033   15.6947917
|  8>     C       15.3159351   15.3298972   15.5009921
|  9>     O       16.5479912   16.0202060   15.2482931
| 10>     C       16.4637407   17.3746531   15.1304981
| 11>     O       15.9978485   17.8761873   14.1235915
| 12>     C       16.8459521   18.1007447   16.3943357
| 13>     C       16.9517996   19.4569579   16.3331511
| 14>     C       16.3172387   20.4037202   15.3344061
| 15>     N       17.7104058   20.1431664   17.2851766
| 16>     C       18.6360717   19.5606937   18.1056851
| 17>     S       19.6304172   20.4521416   19.0814110
| 18>     N       18.7209254   18.1946887   18.0465217
| 19>     C       17.7636299   17.3149273   17.3510294
| 20>     C       16.9564663   16.5729584   18.4098430
| 21>     C       17.2518801   15.2294531   18.7046781
| 22>     C       16.5137548   14.5303484   19.6743842
| 23>     C       15.4749187   15.1822474   20.3602558
| 24>     C       15.1848290   16.5239273   20.0774754
| 25>     O       14.1846085   17.1574819   20.7398752
| 26>     C       15.9198523   17.2162952   19.1101985
| 27>     H       16.1130202   13.4285330   14.7930431
| 28>     H       14.7266900   13.2692888   15.8938070
| 29>     H       16.3258068   13.6939356   16.5385336
| 30>     H       14.6273284   15.4577932   14.6545086
| 31>     H       14.8351939   15.7225809   16.4075023
| 32>     H       15.2704930   20.1308751   15.1492335
| 33>     H       16.8435305   20.3602230   14.3720737
| 34>     H       16.3234945   21.4469553   15.6714730
| 35>     H       17.6875054   21.1502307   17.3079756
| 36>     H       19.4020469   17.7906242   18.6764711
| 37>     H       18.3714280   16.6090958   16.7668686
| 38>     H       18.0558407   14.7236320   18.1762332
| 39>     H       16.7492563   13.4902386   19.8938593
| 40>     H       14.9029361   14.6471804   21.1113334
| 41>     H       13.8364805   16.5412025   21.4019091
| 42>     H       15.6855662   18.2574118   18.9165814
| 43> *
| 44>
| 45>                          ****END OF INPUT****

CARTESIAN COORDINATES (ANGSTROEM)
---------------------------------
  C     15.642117   13.839503   15.694792
  C     15.315935   15.329897   15.500992
  O     16.547991   16.020206   15.248293
  C     16.463741   17.374653   15.130498
  O     15.997848   17.876187   14.123591
  C     16.845952   18.100745   16.394336
  C     16.951800   19.456958   16.333151
  C     16.317239   20.403720   15.334406
  N     17.710406   20.143166   17.285177
  C     18.636072   19.560694   18.105685
  S     19.630417   20.452142   19.081411
  N     18.720925   18.194689   18.046522
  C     17.763630   17.314927   17.351029
  C     16.956466   16.572958   18.409843
  C     17.251880   15.229453   18.704678
  C     16.513755   14.530348   19.674384
  C     15.474919   15.182247   20.360256
  C     15.184829   16.523927   20.077475
  O     14.184608   17.157482   20.739875
  C     15.919852   17.216295   19.110198
  H     16.113020   13.428533   14.793043
  H     14.726690   13.269289   15.893807
  H     16.325807   13.693936   16.538534
  H     14.627328   15.457793   14.654509
  H     14.835194   15.722581   16.407502
  H     15.270493   20.130875   15.149233
  H     16.843530   20.360223   14.372074
  H     16.323494   21.446955   15.671473
  H     17.687505   21.150231   17.307976
  H     19.402047   17.790624   18.676471
  H     18.371428   16.609096   16.766869
  H     18.055841   14.723632   18.176233
  H     16.749256   13.490239   19.893859
  H     14.902936   14.647180   21.111333
  H     13.836481   16.541203   21.401909
  H     15.685566   18.257412   18.916581

 Total Charge           Charge          ....    0
 Multiplicity           Mult            ....    1
 Number of Electrons    NEL             ....  154
 Basis Dimension        Dim             ....  828

ORBITAL ENERGIES
----------------

  NO   OCC          E(Eh)            E(eV)
   0   2.0000     -91.891629     -2500.4983
   1   2.0000     -20.600398      -560.5653
   2   2.0000     -20.582983      -560.0914
   3   2.0000     -20.545608      -559.0744
   4   2.0000     -15.632811      -425.3904
   5   2.0000     -15.609245      -424.7492
   6   2.0000     -11.390315      -309.9462
   7   2.0000     -11.385736      -309.8216
   8   2.0000     -11.343014      -308.6591
   9   2.0000     -11.318052      -307.9799
  10   2.0000     -11.311643      -307.8055
  11   2.0000     -11.297046      -307.4082
  12   2.0000     -11.263365      -306.4917
  13   2.0000     -11.259557      -306.3881
  14   2.0000     -11.257614      -306.3353
  15   2.0000     -11.255176      -306.2689
  16   2.0000     -11.247006      -306.0466
  17   2.0000     -11.242068      -305.9122
  18   2.0000     -11.242013      -305.9107
  19   2.0000     -11.227391      -305.5128
  20   2.0000      -8.896653      -242.0902
  21   2.0000      -6.578216      -179.0024
  22   2.0000      -6.576223      -178.9481
  23   2.0000      -6.575624      -178.9318
  24   2.0000      -1.449129       -39.4328
  25   2.0000      -1.420015       -38.6406
  26   2.0000      -1.353801       -36.8388
  27   2.0000      -1.344831       -36.5947
  28   2.0000      -1.242262       -33.8037
  29   2.0000      -1.161431       -31.6041
  30   2.0000      -1.123431       -30.5701
  31   2.0000      -1.045875       -28.4597
  32   2.0000      -1.035690       -28.1826
  33   2.0000      -1.019374       -27.7386
  34   2.0000      -0.999826       -27.2067
  35   2.0000      -0.987112       -26.8607
  36   2.0000      -0.925952       -25.1964
  37   2.0000      -0.878822       -23.9140
  38   2.0000      -0.850900       -23.1542
  39   2.0000      -0.841568       -22.9002
  40   2.0000      -0.837720       -22.7955
  41   2.0000      -0.827687       -22.5225
  42   2.0000      -0.763283       -20.7700
  43   2.0000      -0.734680       -19.9917
  44   2.0000      -0.724609       -19.7176
  45   2.0000      -0.700889       -19.0722
  46   2.0000      -0.692627       -18.8473
  47   2.0000      -0.677863       -18.4456
  48   2.0000      -0.671707       -18.2781
  49   2.0000      -0.657925       -17.9031
  50   2.0000      -0.649789       -17.6817
  51   2.0000      -0.643829       -17.5195
  52   2.0000      -0.626165       -17.0388
  53   2.0000      -0.622666       -16.9436
  54   2.0000      -0.611436       -16.6380
  55   2.0000      -0.604204       -16.4412
  56   2.0000      -0.602992       -16.4083
  57   2.0000      -0.581351       -15.8194
  58   2.0000      -0.573284       -15.5999
  59   2.0000      -0.566106       -15.4045
  60   2.0000      -0.553925       -15.0731
  61   2.0000      -0.543972       -14.8022
  62   2.0000      -0.534857       -14.5542
  63   2.0000      -0.526849       -14.3363
  64   2.0000      -0.520159       -14.1542
  65   2.0000      -0.516143       -14.0450
  66   2.0000      -0.506424       -13.7805
  67   2.0000      -0.500066       -13.6075
  68   2.0000      -0.486790       -13.2462
  69   2.0000      -0.464037       -12.6271
  70   2.0000      -0.459249       -12.4968
  71   2.0000      -0.443282       -12.0623
  72   2.0000      -0.359744        -9.7891
  73   2.0000      -0.353390        -9.6162
  74   2.0000      -0.330987        -9.0066
  75   2.0000      -0.325850        -8.8668
  76   2.0000      -0.319516        -8.6945
  77   0.0000       0.068951         1.8762
  78   0.0000       0.102075         2.7776
  79   0.0000       0.123407         3.3581
  80   0.0000       0.129702         3.5294
  81   0.0000       0.132904         3.6165

MULLIKEN ATOMIC CHARGES
-----------------------
   0 C :   -0.268686
   1 C :    0.023542
   2 O :   -0.373749
   3 C :    0.484415
   4 O :   -0.405419
   5 C :   -0.281989
   6 C :    0.168551
   7 C :   -0.265545
   8 N :   -0.124431
   9 C :    0.206310
  10 S :   -0.436289
  11 N :   -0.206851
  12 C :    0.055345
  13 C :    0.048637
  14 C :   -0.210098
  15 C :   -0.120472
  16 C :   -0.277389
  17 C :    0.314264
  18 O :   -0.356244
  19 C :   -0.250237
  20 H :    0.103389
  21 H :    0.089684
  22 H :    0.092743
  23 H :    0.115726
  24 H :    0.096368
  25 H :    0.131382
  26 H :    0.134672
  27 H :    0.094807
  28 H :    0.200439
  29 H :    0.195454
  30 H :    0.157521
  31 H :    0.162146
  32 H :    0.163432
  33 H :    0.132076
  34 H :    0.241658
  35 H :    0.164837
Sum of atomic charges:   -0.0000000

LOEWDIN ATOMIC CHARGES
----------------------
   0 C :    0.111037
   1 C :   -0.024183
   2 O :    0.293348
   3 C :   -0.423873
   4 O :    0.114715
   5 C :   -0.104486
   6 C :   -0.046823
   7 C :    0.131983
   8 N :    0.409422
   9 C :   -0.459063
  10 S :   -0.031516
  11 N :    0.395938
  12 C :   -0.051526
  13 C :   -0.039164
  14 C :    0.011954
  15 C :    0.042176
  16 C :   -0.000720
  17 C :   -0.189599
  18 O :    0.395983
  19 C :    0.031360
  20 H :   -0.025966
  21 H :   -0.024782
  22 H :   -0.031653
  23 H :   -0.028258
  24 H :   -0.033460
  25 H :   -0.004147
  26 H :   -0.003047
  27 H :   -0.022658
  28 H :   -0.056586
  29 H :   -0.064741
  30 H :   -0.008678
  31 H :   -0.030613
  32 H :   -0.020295
  33 H :   -0.034670
  34 H :   -0.152955
  35 H :   -0.024454

  Mayer bond orders larger than 0.100000
B(  0-C ,  1-C ) :   0.9781 B(  0-C , 20-H ) :   0.9779 B(  0-C , 21-H ) :   0.9767
B(  0-C , 22-H ) :   0.9747 B(  1-C ,  2-O ) :   0.8909 B(  1-C , 23-H ) :   0.9795
B(  1-C , 24-H ) :   0.9656 B(  2-O ,  3-C ) :   1.0870 B(  3-C ,  4-O ) :   2.0384
B(  3-C ,  5-C ) :   1.0652 B(  5-C ,  6-C ) :   1.6198 B(  5-C , 12-C ) :   0.9561
B(  6-C ,  7-C ) :   0.9745 B(  6-C ,  8-N ) :   1.1491 B(  7-C , 25-H ) :   0.9636
B(  7-C , 26-H ) :   0.9538 B(  7-C , 27-H ) :   0.9876 B(  8-N ,  9-C ) :   1.1831
B(  8-N , 28-H ) :   0.9468 B(  9-C , 10-S ) :   1.6121 B(  9-C , 11-N ) :   1.3087
B( 11-N , 12-C ) :   0.9590 B( 11-N , 29-H ) :   0.9527 B( 12-C , 13-C ) :   0.9612
B( 12-C , 30-H ) :   0.9962 B( 13-C , 14-C ) :   1.3472 B( 13-C , 19-C ) :   1.3765
B( 14-C , 15-C ) :   1.3807 B( 14-C , 31-H ) :   0.9683 B( 15-C , 16-C ) :   1.3713
B( 15-C , 32-H ) :   0.9688 B( 16-C , 17-C ) :   1.3262 B( 16-C , 33-H ) :   0.9843
B( 17-C , 18-O ) :   1.1084 B( 17-C , 19-C ) :   1.3755 B( 18-O , 34-H ) :   0.9791
B( 19-C , 35-H ) :   0.9575

MP2 TOTAL ENERGY:    -1274.329459876 Eh
FINAL SINGLE POINT ENERGY     -1274.329459876403

DIPOLE MOMENT
-------------
                                X             Y             Z
Electronic contribution:      8.13525      11.38267       5.76091
Nuclear contribution   :     -9.37599     -12.77498      -5.47414
                        -----------------------------------------
Total Dipole Moment    :     -1.24074      -1.39231       0.28677
                        -----------------------------------------
Magnitude (a.u.)       :      1.88685
Magnitude (Debye)      :      4.79598

Rotational constants in cm-1:     0.011531     0.008990     0.006273
Rotational constants in MHz :   345.679160   269.515707   188.051008

                             ****ORCA TERMINATED NORMALLY****
TOTAL RUN TIME: 0 days 1 hours 47 minutes 16 seconds 533 msec
