                         Program Version 4.2.0 -  RELEASE  -
|  1> ! ri-mp2 cc-pvtz cc-pvtz/c TightSCF NoKeepInts
|  2>
|  3> %scf
|  4>   MaxCore 4096
|  5> end
|  6> *xyz  0  1
|  7>     C       13.9533802   15.3575004   15.4693793
|  8>     C       15.2049110   15.8265211   16.2287581
|  9>     O       16.2543041   15.9859083   15.2533755
| 10>     C       17.1960109   16.9820765   15.2838478
| 11>     O       18.0219589   17.1052333   14.3993145
| 12>     C       17.1291039   17.9284244   16.4332805
| 13>     C       16.8755742   19.2271437   16.1611085
| 14>     C       16.2926140   19.7460720   14.8649505
| 15>     N       17.1787301   20.2324194   17.0805687
| 16>     C       17.9577427   20.0389481   18.1913950
| 17>     S       18.3781183   21.2861001   19.1925672
| 18>     N       18.3914495   18.7550167   18.4207382
| 19>     C       17.9625329   17.5619596   17.6633656
| 20>     C       17.3801220   16.4488748   18.5182456
| 21>     C       17.8907568   15.1412304   18.4286178
| 22>     C       17.3386174   14.1068157   19.2025800
| 23>     C       16.2691124   14.3833266   20.0717436
| 24>     C       15.7609726   15.6863614   20.1639494
| 25>     O       14.7233098   15.9548157   20.9950819
| 26>     C       16.3109601   16.7139950   19.3910387
| 27>     H       13.1156330   15.2090762   16.1615737
| 28>     H       14.1476279   14.4071481   14.9563510
| 29>     H       13.6536189   16.0998316   14.7192119
| 30>     H       14.9589725   16.7688359   16.7340599
| 31>     H       15.4906656   15.0828683   16.9834574
| 32>     H       15.4755574   19.1034272   14.5138897
| 33>     H       17.0612490   19.7591068   14.0803015
| 34>     H       15.8927270   20.7626488   14.9608165
| 35>     H       16.9069688   21.1852255   16.8962985
| 36>     H       18.9589592   18.6421614   19.2516445
| 37>     H       18.9339176   17.2428890   17.2568512
| 38>     H       18.7129079   14.9236934   17.7505994
| 39>     H       17.7387286   13.0967812   19.1262285
| 40>     H       15.8395426   13.5865377   20.6705310
| 41>     H       14.5240809   15.1436076   21.4871352
| 42>     H       15.9055610   17.7174182   19.4751437
| 43> *
| 44>
| 45>                          ****END OF INPUT****

CARTESIAN COORDINATES (ANGSTROEM)
---------------------------------
  C     13.953380   15.357500   15.469379
  C     15.204911   15.826521   16.228758
  O     16.254304   15.985908   15.253376
  C     17.196011   16.982076   15.283848
  O     18.021959   17.105233   14.399314
  C     17.129104   17.928424   16.433280
  C     16.875574   19.227144   16.161109
  C     16.292614   19.746072   14.864951
  N     17.178730   20.232419   17.080569
  C     17.957743   20.038948   18.191395
  S     18.378118   21.286100   19.192567
  N     18.391449   18.755017   18.420738
  C     17.962533   17.561960   17.663366
  C     17.380122   16.448875   18.518246
  C     17.890757   15.141230   18.428618
  C     17.338617   14.106816   19.202580
  C     16.269112   14.383327   20.071744
  C     15.760973   15.686361   20.163949
  O     14.723310   15.954816   20.995082
  C     16.310960   16.713995   19.391039
  H     13.115633   15.209076   16.161574
  H     14.147628   14.407148   14.956351
  H     13.653619   16.099832   14.719212
  H     14.958972   16.768836   16.734060
  H     15.490666   15.082868   16.983457
  H     15.475557   19.103427   14.513890
  H     17.061249   19.759107   14.080301
  H     15.892727   20.762649   14.960816
  H     16.906969   21.185226   16.896299
  H     18.958959   18.642161   19.251645
  H     18.933918   17.242889   17.256851
  H     18.712908   14.923693   17.750599
  H     17.738729   13.096781   19.126228
  H     15.839543   13.586538   20.670531
  H     14.524081   15.143608   21.487135
  H     15.905561   17.717418   19.475144

 Total Charge           Charge          ....    0
 Multiplicity           Mult            ....    1
 Number of Electrons    NEL             ....  154
 Basis Dimension        Dim             ....  828

ORBITAL ENERGIES
----------------

  NO   OCC          E(Eh)            E(eV)
   0   2.0000     -91.889391     -2500.4374
   1   2.0000     -20.606222      -560.7238
   2   2.0000     -20.601779      -560.6029
   3   2.0000     -20.550781      -559.2152
   4   2.0000     -15.625697      -425.1968
   5   2.0000     -15.610783      -424.7910
   6   2.0000     -11.396923      -310.1260
   7   2.0000     -11.385148      -309.8056
   8   2.0000     -11.326066      -308.1979
   9   2.0000     -11.324790      -308.1632
  10   2.0000     -11.316635      -307.9413
  11   2.0000     -11.298348      -307.4437
  12   2.0000     -11.271072      -306.7015
  13   2.0000     -11.266000      -306.5634
  14   2.0000     -11.258445      -306.3579
  15   2.0000     -11.256066      -306.2931
  16   2.0000     -11.254758      -306.2575
  17   2.0000     -11.249535      -306.1154
  18   2.0000     -11.248784      -306.0950
  19   2.0000     -11.230835      -305.6066
  20   2.0000      -8.894480      -242.0311
  21   2.0000      -6.576058      -178.9436
  22   2.0000      -6.574052      -178.8890
  23   2.0000      -6.573468      -178.8732
  24   2.0000      -1.446898       -39.3721
  25   2.0000      -1.425978       -38.8028
  26   2.0000      -1.361392       -37.0454
  27   2.0000      -1.338891       -36.4331
  28   2.0000      -1.239054       -33.7164
  29   2.0000      -1.168216       -31.7888
  30   2.0000      -1.126681       -30.6586
  31   2.0000      -1.052821       -28.6487
  32   2.0000      -1.037440       -28.2302
  33   2.0000      -1.026170       -27.9235
  34   2.0000      -1.004150       -27.3243
  35   2.0000      -0.989589       -26.9281
  36   2.0000      -0.927803       -25.2468
  37   2.0000      -0.880475       -23.9589
  38   2.0000      -0.853311       -23.2198
  39   2.0000      -0.845005       -22.9938
  40   2.0000      -0.844661       -22.9844
  41   2.0000      -0.838218       -22.8091
  42   2.0000      -0.759654       -20.6712
  43   2.0000      -0.740526       -20.1507
  44   2.0000      -0.728181       -19.8148
  45   2.0000      -0.704807       -19.1788
  46   2.0000      -0.693854       -18.8807
  47   2.0000      -0.678235       -18.4557
  48   2.0000      -0.677384       -18.4326
  49   2.0000      -0.669998       -18.2316
  50   2.0000      -0.652103       -17.7446
  51   2.0000      -0.648073       -17.6350
  52   2.0000      -0.636156       -17.3107
  53   2.0000      -0.615701       -16.7541
  54   2.0000      -0.609997       -16.5989
  55   2.0000      -0.605877       -16.4868
  56   2.0000      -0.593100       -16.1391
  57   2.0000      -0.584133       -15.8951
  58   2.0000      -0.578163       -15.7326
  59   2.0000      -0.569863       -15.5068
  60   2.0000      -0.562266       -15.3000
  61   2.0000      -0.557058       -15.1583
  62   2.0000      -0.548721       -14.9315
  63   2.0000      -0.531503       -14.4629
  64   2.0000      -0.527931       -14.3657
  65   2.0000      -0.517858       -14.0916
  66   2.0000      -0.505018       -13.7422
  67   2.0000      -0.504224       -13.7206
  68   2.0000      -0.490052       -13.3350
  69   2.0000      -0.469128       -12.7656
  70   2.0000      -0.453714       -12.3462
  71   2.0000      -0.448978       -12.2173
  72   2.0000      -0.359228        -9.7751
  73   2.0000      -0.351939        -9.5768
  74   2.0000      -0.333934        -9.0868
  75   2.0000      -0.328352        -8.9349
  76   2.0000      -0.318573        -8.6688
  77   0.0000       0.086801         2.3620
  78   0.0000       0.095011         2.5854
  79   0.0000       0.116710         3.1758
  80   0.0000       0.125340         3.4107
  81   0.0000       0.130566         3.5529

MULLIKEN ATOMIC CHARGES
-----------------------
   0 C :   -0.255237
   1 C :    0.021514
   2 O :   -0.300550
   3 C :    0.405294
   4 O :   -0.382563
   5 C :   -0.231253
   6 C :    0.158549
   7 C :   -0.293652
   8 N :   -0.133484
   9 C :    0.214521
  10 S :   -0.442091
  11 N :   -0.215367
  12 C :    0.029755
  13 C :   -0.009366
  14 C :   -0.188335
  15 C :   -0.137040
  16 C :   -0.270537
  17 C :    0.301103
  18 O :   -0.353766
  19 C :   -0.212184
  20 H :    0.089605
  21 H :    0.103314
  22 H :    0.093211
  23 H :    0.095783
  24 H :    0.110680
  25 H :    0.114958
  26 H :    0.146095
  27 H :    0.099175
  28 H :    0.197150
  29 H :    0.199694
  30 H :    0.164772
  31 H :    0.161211
  32 H :    0.165894
  33 H :    0.135920
  34 H :    0.242199
  35 H :    0.175028
Sum of atomic charges:   -0.0000000

LOEWDIN ATOMIC CHARGES
----------------------
   0 C :    0.108484
   1 C :   -0.023054
   2 O :    0.311053
   3 C :   -0.416996
   4 O :    0.123010
   5 C :   -0.093022
   6 C :   -0.090642
   7 C :    0.129435
   8 N :    0.403520
   9 C :   -0.453687
  10 S :   -0.037576
  11 N :    0.395217
  12 C :   -0.055309
  13 C :   -0.044926
  14 C :    0.016404
  15 C :    0.044085
  16 C :    0.001811
  17 C :   -0.191312
  18 O :    0.397414
  19 C :    0.034647
  20 H :   -0.025468
  21 H :   -0.024977
  22 H :   -0.028263
  23 H :   -0.038190
  24 H :   -0.028507
  25 H :   -0.010429
  26 H :   -0.003101
  27 H :   -0.019648
  28 H :   -0.058865
  29 H :   -0.064428
  30 H :   -0.007639
  31 H :   -0.025359
  32 H :   -0.017888
  33 H :   -0.032988
  34 H :   -0.151825
  35 H :   -0.020982

  Mayer bond orders larger than 0.100000
B(  0-C ,  1-C ) :   0.9791 B(  0-C , 20-H ) :   0.9775 B(  0-C , 21-H ) :   0.9803
B(  0-C , 22-H ) :   0.9788 B(  1-C ,  2-O ) :   0.9000 B(  1-C , 23-H ) :   0.9582
B(  1-C , 24-H ) :   0.9709 B(  2-O ,  3-C ) :   1.2128 B(  3-C ,  4-O ) :   2.1228
B(  3-C ,  5-C ) :   0.9132 B(  5-C ,  6-C ) :   1.7207 B(  5-C , 12-C ) :   0.9500
B(  6-C ,  7-C ) :   0.9354 B(  6-C ,  8-N ) :   1.1184 B(  7-C , 25-H ) :   0.9773
B(  7-C , 26-H ) :   0.9599 B(  7-C , 27-H ) :   0.9864 B(  8-N ,  9-C ) :   1.2005
B(  8-N , 28-H ) :   0.9490 B(  9-C , 10-S ) :   1.6112 B(  9-C , 11-N ) :   1.2855
B( 11-N , 12-C ) :   0.9821 B( 11-N , 29-H ) :   0.9473 B( 12-C , 13-C ) :   0.9642
B( 12-C , 30-H ) :   1.0021 B( 13-C , 14-C ) :   1.3695 B( 13-C , 19-C ) :   1.3531
B( 14-C , 15-C ) :   1.3964 B( 14-C , 31-H ) :   0.9690 B( 15-C , 16-C ) :   1.3646
B( 15-C , 32-H ) :   0.9696 B( 16-C , 17-C ) :   1.3260 B( 16-C , 33-H ) :   0.9832
B( 17-C , 18-O ) :   1.1126 B( 17-C , 19-C ) :   1.3679 B( 18-O , 34-H ) :   0.9783
B( 19-C , 35-H ) :   0.9574

MP2 TOTAL ENERGY:    -1274.326604282 Eh
FINAL SINGLE POINT ENERGY     -1274.326604281986

DIPOLE MOMENT
-------------
                                X             Y             Z
Electronic contribution:     10.52047       8.64863       7.08007
Nuclear contribution   :    -12.06646     -10.31459      -6.77437
                        -----------------------------------------
Total Dipole Moment    :     -1.54599      -1.66596       0.30570
                        -----------------------------------------
Magnitude (a.u.)       :      2.29324
Magnitude (Debye)      :      5.82895

Rotational constants in cm-1:     0.011836     0.008835     0.006194
Rotational constants in MHz :   354.841249   264.880612   185.686604

                             ****ORCA TERMINATED NORMALLY****
TOTAL RUN TIME: 0 days 1 hours 43 minutes 23 seconds 137 msec
