                         Program Version 4.2.0 -  RELEASE  -
|  1> ! ri-mp2 cc-pvtz cc-pvtz/c TightSCF NoKeepInts
|  2>
|  3> %scf
|  4>   MaxCore 4096
|  5> end
|  6> *xyz  0  1
|  7>     C       14.6270284   15.0923291   15.9542149
|  8>     C       14.8332049   16.4264552   15.2101882
|  9>     O       16.1652927   16.4560156   14.6589729
| 10>     C       17.2319326   16.5352252   15.5080783
| 11>     O       18.0885509   15.6704728   15.5357725
| 12>     C       17.2276864   17.7060727   16.4419233
| 13>     C       16.9667752   18.9629896   16.0033362
| 14>     C       16.4688247   19.3698798   14.6305124
| 15>     N       17.2312174   20.0689815   16.8141310
| 16>     C       17.9598523   20.0183796   17.9729933
| 17>     S       18.3248520   21.3831536   18.8323756
| 18>     N       18.3890583   18.7768992   18.3727974
| 19>     C       18.0032619   17.4982705   17.7435359
| 20>     C       17.3097660   16.5234916   18.6839966
| 21>     C       17.7357759   15.1856492   18.7630611
| 22>     C       17.0795559   14.2760129   19.6088911
| 23>     C       15.9867291   14.7077884   20.3800109
| 24>     C       15.5570532   16.0394698   20.2988741
| 25>     O       14.4955560   16.4565845   21.0336728
| 26>     C       16.2115233   16.9425490   19.4550121
| 27>     H       15.2754577   15.0255137   16.8372598
| 28>     H       14.8532671   14.2435782   15.2963474
| 29>     H       13.5878738   14.9968839   16.2914820
| 30>     H       14.1048260   16.4940068   14.3917301
| 31>     H       14.6565422   17.2684487   15.8919082
| 32>     H       16.9695430   18.7953644   13.8405087
| 33>     H       16.6635805   20.4278035   14.4143153
| 34>     H       15.3892538   19.2064192   14.5353919
| 35>     H       16.9500051   20.9903285   16.5181009
| 36>     H       18.9150415   18.7661968   19.2377852
| 37>     H       18.9908368   17.1130204   17.4488872
| 38>     H       18.5700236   14.8467913   18.1521848
| 39>     H       17.4157261   13.2416717   19.6588083
| 40>     H       15.4759047   14.0076179   21.0327610
| 41>     H       14.2125579   15.7109000   21.5843208
| 42>     H       15.8630631   17.9687851   19.4038578
| 43> *
| 44>
| 45>                          ****END OF INPUT****

CARTESIAN COORDINATES (ANGSTROEM)
---------------------------------
  C     14.627028   15.092329   15.954215
  C     14.833205   16.426455   15.210188
  O     16.165293   16.456016   14.658973
  C     17.231933   16.535225   15.508078
  O     18.088551   15.670473   15.535773
  C     17.227686   17.706073   16.441923
  C     16.966775   18.962990   16.003336
  C     16.468825   19.369880   14.630512
  N     17.231217   20.068981   16.814131
  C     17.959852   20.018380   17.972993
  S     18.324852   21.383154   18.832376
  N     18.389058   18.776899   18.372797
  C     18.003262   17.498270   17.743536
  C     17.309766   16.523492   18.683997
  C     17.735776   15.185649   18.763061
  C     17.079556   14.276013   19.608891
  C     15.986729   14.707788   20.380011
  C     15.557053   16.039470   20.298874
  O     14.495556   16.456585   21.033673
  C     16.211523   16.942549   19.455012
  H     15.275458   15.025514   16.837260
  H     14.853267   14.243578   15.296347
  H     13.587874   14.996884   16.291482
  H     14.104826   16.494007   14.391730
  H     14.656542   17.268449   15.891908
  H     16.969543   18.795364   13.840509
  H     16.663580   20.427803   14.414315
  H     15.389254   19.206419   14.535392
  H     16.950005   20.990329   16.518101
  H     18.915042   18.766197   19.237785
  H     18.990837   17.113020   17.448887
  H     18.570024   14.846791   18.152185
  H     17.415726   13.241672   19.658808
  H     15.475905   14.007618   21.032761
  H     14.212558   15.710900   21.584321
  H     15.863063   17.968785   19.403858

 Total Charge           Charge          ....    0
 Multiplicity           Mult            ....    1
 Number of Electrons    NEL             ....  154
 Basis Dimension        Dim             ....  828

ORBITAL ENERGIES
----------------

  NO   OCC          E(Eh)            E(eV)
   0   2.0000     -91.890445     -2500.4661
   1   2.0000     -20.598150      -560.5042
   2   2.0000     -20.594314      -560.3998
   3   2.0000     -20.552504      -559.2621
   4   2.0000     -15.630344      -425.3233
   5   2.0000     -15.608933      -424.7407
   6   2.0000     -11.395715      -310.0932
   7   2.0000     -11.385773      -309.8226
   8   2.0000     -11.338115      -308.5258
   9   2.0000     -11.315066      -307.8986
  10   2.0000     -11.307639      -307.6965
  11   2.0000     -11.306967      -307.6782
  12   2.0000     -11.264486      -306.5222
  13   2.0000     -11.261906      -306.4520
  14   2.0000     -11.261462      -306.4400
  15   2.0000     -11.254965      -306.2632
  16   2.0000     -11.244706      -305.9840
  17   2.0000     -11.240822      -305.8783
  18   2.0000     -11.237265      -305.7815
  19   2.0000     -11.228269      -305.5367
  20   2.0000      -8.895531      -242.0597
  21   2.0000      -6.577107      -178.9722
  22   2.0000      -6.575102      -178.9176
  23   2.0000      -6.574513      -178.9016
  24   2.0000      -1.450273       -39.4639
  25   2.0000      -1.417907       -38.5832
  26   2.0000      -1.361287       -37.0425
  27   2.0000      -1.341911       -36.5152
  28   2.0000      -1.239497       -33.7284
  29   2.0000      -1.159375       -31.5482
  30   2.0000      -1.124800       -30.6074
  31   2.0000      -1.046880       -28.4871
  32   2.0000      -1.034383       -28.1470
  33   2.0000      -1.016951       -27.6726
  34   2.0000      -1.004337       -27.3294
  35   2.0000      -0.988846       -26.9079
  36   2.0000      -0.925508       -25.1844
  37   2.0000      -0.890626       -24.2352
  38   2.0000      -0.853529       -23.2257
  39   2.0000      -0.841374       -22.8949
  40   2.0000      -0.834982       -22.7210
  41   2.0000      -0.832112       -22.6429
  42   2.0000      -0.747465       -20.3395
  43   2.0000      -0.736087       -20.0299
  44   2.0000      -0.731129       -19.8950
  45   2.0000      -0.695831       -18.9345
  46   2.0000      -0.686806       -18.6889
  47   2.0000      -0.681655       -18.5488
  48   2.0000      -0.677923       -18.4472
  49   2.0000      -0.663736       -18.0612
  50   2.0000      -0.654926       -17.8214
  51   2.0000      -0.646406       -17.5896
  52   2.0000      -0.637487       -17.3469
  53   2.0000      -0.616044       -16.7634
  54   2.0000      -0.608205       -16.5501
  55   2.0000      -0.604378       -16.4460
  56   2.0000      -0.601351       -16.3636
  57   2.0000      -0.581483       -15.8230
  58   2.0000      -0.576252       -15.6806
  59   2.0000      -0.567666       -15.4470
  60   2.0000      -0.559208       -15.2168
  61   2.0000      -0.552720       -15.0403
  62   2.0000      -0.545142       -14.8341
  63   2.0000      -0.530467       -14.4347
  64   2.0000      -0.520033       -14.1508
  65   2.0000      -0.512530       -13.9466
  66   2.0000      -0.500234       -13.6121
  67   2.0000      -0.495716       -13.4891
  68   2.0000      -0.487640       -13.2694
  69   2.0000      -0.468860       -12.7583
  70   2.0000      -0.460844       -12.5402
  71   2.0000      -0.449339       -12.2271
  72   2.0000      -0.356324        -9.6961
  73   2.0000      -0.350900        -9.5485
  74   2.0000      -0.329666        -8.9707
  75   2.0000      -0.322345        -8.7714
  76   2.0000      -0.319878        -8.7043
  77   0.0000       0.075664         2.0589
  78   0.0000       0.103906         2.8274
  79   0.0000       0.118511         3.2249
  80   0.0000       0.130645         3.5550
  81   0.0000       0.135156         3.6778

MULLIKEN ATOMIC CHARGES
-----------------------
   0 C :   -0.277529
   1 C :    0.010007
   2 O :   -0.352438
   3 C :    0.441446
   4 O :   -0.381166
   5 C :   -0.250210
   6 C :    0.171852
   7 C :   -0.299882
   8 N :   -0.131444
   9 C :    0.206715
  10 S :   -0.440146
  11 N :   -0.216223
  12 C :    0.064599
  13 C :    0.001926
  14 C :   -0.194677
  15 C :   -0.129391
  16 C :   -0.275907
  17 C :    0.308090
  18 O :   -0.357458
  19 C :   -0.234474
  20 H :    0.110924
  21 H :    0.109571
  22 H :    0.094506
  23 H :    0.119153
  24 H :    0.092792
  25 H :    0.139090
  26 H :    0.113021
  27 H :    0.120564
  28 H :    0.198131
  29 H :    0.200357
  30 H :    0.161707
  31 H :    0.170653
  32 H :    0.163303
  33 H :    0.131737
  34 H :    0.241109
  35 H :    0.169694
Sum of atomic charges:   -0.0000000

LOEWDIN ATOMIC CHARGES
----------------------
   0 C :    0.109957
   1 C :   -0.027075
   2 O :    0.298624
   3 C :   -0.421026
   4 O :    0.125930
   5 C :   -0.094404
   6 C :   -0.075563
   7 C :    0.128430
   8 N :    0.404474
   9 C :   -0.457361
  10 S :   -0.036160
  11 N :    0.396013
  12 C :   -0.049487
  13 C :   -0.044682
  14 C :    0.022294
  15 C :    0.042753
  16 C :   -0.000359
  17 C :   -0.192433
  18 O :    0.394353
  19 C :    0.027483
  20 H :   -0.024532
  21 H :   -0.021593
  22 H :   -0.026014
  23 H :   -0.023321
  24 H :   -0.039288
  25 H :   -0.005586
  26 H :   -0.016882
  27 H :   -0.014073
  28 H :   -0.058106
  29 H :   -0.063506
  30 H :   -0.005795
  31 H :   -0.021837
  32 H :   -0.019208
  33 H :   -0.034952
  34 H :   -0.153490
  35 H :   -0.023578

  Mayer bond orders larger than 0.100000
B(  0-C ,  1-C ) :   0.9816 B(  0-C , 20-H ) :   0.9669 B(  0-C , 21-H ) :   0.9766
B(  0-C , 22-H ) :   0.9764 B(  1-C ,  2-O ) :   0.8980 B(  1-C , 23-H ) :   0.9781
B(  1-C , 24-H ) :   0.9657 B(  2-O ,  3-C ) :   1.1156 B(  3-C ,  4-O ) :   2.0804
B(  3-C ,  5-C ) :   0.9575 B(  5-C ,  6-C ) :   1.6911 B(  5-C , 12-C ) :   0.9434
B(  6-C ,  7-C ) :   0.9405 B(  6-C ,  8-N ) :   1.1304 B(  7-C , 25-H ) :   0.9667
B(  7-C , 26-H ) :   0.9870 B(  7-C , 27-H ) :   0.9664 B(  8-N ,  9-C ) :   1.1880
B(  8-N , 28-H ) :   0.9482 B(  9-C , 10-S ) :   1.6123 B(  9-C , 11-N ) :   1.2972
B( 11-N , 12-C ) :   0.9860 B( 11-N , 29-H ) :   0.9486 B( 12-C , 13-C ) :   0.9658
B( 12-C , 30-H ) :   0.9932 B( 13-C , 14-C ) :   1.3868 B( 13-C , 19-C ) :   1.3603
B( 14-C , 15-C ) :   1.3925 B( 14-C , 31-H ) :   0.9603 B( 15-C , 16-C ) :   1.3606
B( 15-C , 32-H ) :   0.9707 B( 16-C , 17-C ) :   1.3319 B( 16-C , 33-H ) :   0.9848
B( 17-C , 18-O ) :   1.1080 B( 17-C , 19-C ) :   1.3669 B( 18-O , 34-H ) :   0.9796
B( 19-C , 35-H ) :   0.9577

MP2 TOTAL ENERGY:    -1274.332132175 Eh
FINAL SINGLE POINT ENERGY     -1274.332132174734

DIPOLE MOMENT
-------------
                                X             Y             Z
Electronic contribution:      9.48745       8.73874       6.76397
Nuclear contribution   :    -11.09969      -9.75598      -7.20715
                        -----------------------------------------
Total Dipole Moment    :     -1.61224      -1.01724      -0.44319
                        -----------------------------------------
Magnitude (a.u.)       :      1.95717
Magnitude (Debye)      :      4.97472

Rotational constants in cm-1:     0.011576     0.009171     0.006342
Rotational constants in MHz :   347.040203   274.926999   190.114992

                             ****ORCA TERMINATED NORMALLY****
TOTAL RUN TIME: 0 days 1 hours 43 minutes 41 seconds 561 msec
