                         Program Version 4.2.0 -  RELEASE  -
|  1> ! ri-mp2 cc-pvtz cc-pvtz/c TightSCF NoKeepInts
|  2>
|  3> %scf
|  4>   MaxCore 4096
|  5> end
|  6> *xyz  0  1
|  7>     C       14.0872328   16.7078396   15.6582788
|  8>     C       15.2263859   15.6831275   15.5070633
|  9>     O       16.3294140   16.2528927   14.7725724
| 10>     C       17.4380388   16.6413494   15.4691130
| 11>     O       18.5036860   16.0647718   15.3530051
| 12>     C       17.1988477   17.7041333   16.4879743
| 13>     C       16.7351519   18.9204628   16.1119153
| 14>     C       16.2155282   19.3206138   14.7451675
| 15>     N       16.7842258   20.0038927   16.9909841
| 16>     C       17.4934904   20.0103563   18.1634553
| 17>     S       17.6006609   21.3622021   19.1097572
| 18>     N       18.1306786   18.8410624   18.5010014
| 19>     C       17.9815040   17.5549222   17.7909210
| 20>     C       17.4626975   16.4097371   18.6468599
| 21>     C       18.0851545   15.1497940   18.5970826
| 22>     C       17.5914822   14.0792804   19.3611471
| 23>     C       16.4634772   14.2700304   20.1777113
| 24>     C       15.8368093   15.5230455   20.2226869
| 25>     O       14.7404549   15.7068399   21.0003167
| 26>     C       16.3295546   16.5865729   19.4597262
| 27>     H       14.3566681   17.5049441   16.3598621
| 28>     H       13.1883619   16.2155786   16.0494651
| 29>     H       13.8334275   17.1530938   14.6884740
| 30>     H       15.5484779   15.3157288   16.4920028
| 31>     H       14.8434204   14.8223052   14.9435540
| 32>     H       15.1218324   19.2659281   14.7061920
| 33>     H       16.6123175   18.6823510   13.9463895
| 34>     H       16.5075993   20.3470325   14.4896509
| 35>     H       16.3501274   20.8777554   16.7385247
| 36>     H       18.6413646   18.8710718   19.3746356
| 37>     H       19.0248984   17.3689159   17.4951344
| 38>     H       18.9490700   14.9982791   17.9527756
| 39>     H       18.0810170   13.1077829   19.3149172
| 40>     H       16.0784146   13.4453049   20.7684774
| 41>     H       14.5870849   14.8829026   21.4871572
| 42>     H       15.8284427   17.5480984   19.5040479
| 43> *
| 44>
| 45>                          ****END OF INPUT****

CARTESIAN COORDINATES (ANGSTROEM)
---------------------------------
  C     14.087233   16.707840   15.658279
  C     15.226386   15.683127   15.507063
  O     16.329414   16.252893   14.772572
  C     17.438039   16.641349   15.469113
  O     18.503686   16.064772   15.353005
  C     17.198848   17.704133   16.487974
  C     16.735152   18.920463   16.111915
  C     16.215528   19.320614   14.745168
  N     16.784226   20.003893   16.990984
  C     17.493490   20.010356   18.163455
  S     17.600661   21.362202   19.109757
  N     18.130679   18.841062   18.501001
  C     17.981504   17.554922   17.790921
  C     17.462697   16.409737   18.646860
  C     18.085155   15.149794   18.597083
  C     17.591482   14.079280   19.361147
  C     16.463477   14.270030   20.177711
  C     15.836809   15.523046   20.222687
  O     14.740455   15.706840   21.000317
  C     16.329555   16.586573   19.459726
  H     14.356668   17.504944   16.359862
  H     13.188362   16.215579   16.049465
  H     13.833428   17.153094   14.688474
  H     15.548478   15.315729   16.492003
  H     14.843420   14.822305   14.943554
  H     15.121832   19.265928   14.706192
  H     16.612317   18.682351   13.946389
  H     16.507599   20.347033   14.489651
  H     16.350127   20.877755   16.738525
  H     18.641365   18.871072   19.374636
  H     19.024898   17.368916   17.495134
  H     18.949070   14.998279   17.952776
  H     18.081017   13.107783   19.314917
  H     16.078415   13.445305   20.768477
  H     14.587085   14.882903   21.487157
  H     15.828443   17.548098   19.504048

 Total Charge           Charge          ....    0
 Multiplicity           Mult            ....    1
 Number of Electrons    NEL             ....  154
 Basis Dimension        Dim             ....  828

ORBITAL ENERGIES
----------------

  NO   OCC          E(Eh)            E(eV)
   0   2.0000     -91.889998     -2500.4540
   1   2.0000     -20.600350      -560.5640
   2   2.0000     -20.590197      -560.2877
   3   2.0000     -20.555854      -559.3532
   4   2.0000     -15.628423      -425.2710
   5   2.0000     -15.609355      -424.7521
   6   2.0000     -11.395933      -310.0991
   7   2.0000     -11.385809      -309.8236
   8   2.0000     -11.334370      -308.4239
   9   2.0000     -11.317798      -307.9729
  10   2.0000     -11.309204      -307.7391
  11   2.0000     -11.306063      -307.6536
  12   2.0000     -11.264795      -306.5307
  13   2.0000     -11.262178      -306.4594
  14   2.0000     -11.260147      -306.4042
  15   2.0000     -11.258062      -306.3474
  16   2.0000     -11.247119      -306.0497
  17   2.0000     -11.242973      -305.9369
  18   2.0000     -11.240230      -305.8622
  19   2.0000     -11.234176      -305.6975
  20   2.0000      -8.895092      -242.0477
  21   2.0000      -6.576669      -178.9603
  22   2.0000      -6.574662      -178.9057
  23   2.0000      -6.574076      -178.8897
  24   2.0000      -1.449718       -39.4488
  25   2.0000      -1.420090       -38.6426
  26   2.0000      -1.361632       -37.0519
  27   2.0000      -1.340942       -36.4889
  28   2.0000      -1.239184       -33.7199
  29   2.0000      -1.161881       -31.6164
  30   2.0000      -1.125644       -30.6303
  31   2.0000      -1.048340       -28.5268
  32   2.0000      -1.038006       -28.2456
  33   2.0000      -1.019375       -27.7386
  34   2.0000      -1.004532       -27.3347
  35   2.0000      -0.989723       -26.9317
  36   2.0000      -0.926130       -25.2013
  37   2.0000      -0.888731       -24.1836
  38   2.0000      -0.851552       -23.1719
  39   2.0000      -0.842360       -22.9218
  40   2.0000      -0.837637       -22.7933
  41   2.0000      -0.832835       -22.6626
  42   2.0000      -0.758106       -20.6291
  43   2.0000      -0.737446       -20.0669
  44   2.0000      -0.730947       -19.8901
  45   2.0000      -0.698009       -18.9938
  46   2.0000      -0.689002       -18.7487
  47   2.0000      -0.682881       -18.5821
  48   2.0000      -0.675271       -18.3751
  49   2.0000      -0.662546       -18.0288
  50   2.0000      -0.653706       -17.7883
  51   2.0000      -0.642886       -17.4938
  52   2.0000      -0.636094       -17.3090
  53   2.0000      -0.612314       -16.6619
  54   2.0000      -0.608709       -16.5638
  55   2.0000      -0.606129       -16.4936
  56   2.0000      -0.603465       -16.4211
  57   2.0000      -0.586311       -15.9543
  58   2.0000      -0.580755       -15.8031
  59   2.0000      -0.575342       -15.6558
  60   2.0000      -0.563362       -15.3299
  61   2.0000      -0.555990       -15.1292
  62   2.0000      -0.544273       -14.8104
  63   2.0000      -0.527539       -14.3551
  64   2.0000      -0.521679       -14.1956
  65   2.0000      -0.513579       -13.9752
  66   2.0000      -0.502068       -13.6620
  67   2.0000      -0.495468       -13.4824
  68   2.0000      -0.490744       -13.3538
  69   2.0000      -0.468446       -12.7471
  70   2.0000      -0.458590       -12.4789
  71   2.0000      -0.452725       -12.3193
  72   2.0000      -0.355833        -9.6827
  73   2.0000      -0.352808        -9.6004
  74   2.0000      -0.329407        -8.9636
  75   2.0000      -0.325310        -8.8521
  76   2.0000      -0.319836        -8.7032
  77   0.0000       0.080405         2.1879
  78   0.0000       0.101462         2.7609
  79   0.0000       0.120549         3.2803
  80   0.0000       0.128423         3.4946
  81   0.0000       0.130099         3.5402

MULLIKEN ATOMIC CHARGES
-----------------------
   0 C :   -0.316705
   1 C :    0.030206
   2 O :   -0.353175
   3 C :    0.436598
   4 O :   -0.372400
   5 C :   -0.217554
   6 C :    0.136053
   7 C :   -0.309049
   8 N :   -0.135650
   9 C :    0.206132
  10 S :   -0.441470
  11 N :   -0.218964
  12 C :    0.064000
  13 C :    0.004785
  14 C :   -0.204949
  15 C :   -0.129544
  16 C :   -0.277623
  17 C :    0.310224
  18 O :   -0.355733
  19 C :   -0.240592
  20 H :    0.102675
  21 H :    0.118751
  22 H :    0.102560
  23 H :    0.104205
  24 H :    0.123604
  25 H :    0.124226
  26 H :    0.134882
  27 H :    0.123651
  28 H :    0.199164
  29 H :    0.200852
  30 H :    0.164697
  31 H :    0.174475
  32 H :    0.164784
  33 H :    0.132811
  34 H :    0.241375
  35 H :    0.172699
Sum of atomic charges:   -0.0000000

LOEWDIN ATOMIC CHARGES
----------------------
   0 C :    0.102982
   1 C :   -0.014032
   2 O :    0.290185
   3 C :   -0.422334
   4 O :    0.129778
   5 C :   -0.090457
   6 C :   -0.080894
   7 C :    0.128083
   8 N :    0.404192
   9 C :   -0.456245
  10 S :   -0.037228
  11 N :    0.395630
  12 C :   -0.050090
  13 C :   -0.045009
  14 C :    0.019478
  15 C :    0.043494
  16 C :   -0.000396
  17 C :   -0.192264
  18 O :    0.395184
  19 C :    0.027653
  20 H :   -0.033895
  21 H :   -0.022714
  22 H :   -0.028828
  23 H :   -0.026511
  24 H :   -0.021552
  25 H :   -0.015310
  26 H :   -0.007703
  27 H :   -0.014341
  28 H :   -0.056910
  29 H :   -0.064046
  30 H :   -0.004968
  31 H :   -0.021518
  32 H :   -0.018643
  33 H :   -0.034630
  34 H :   -0.153102
  35 H :   -0.023041

  Mayer bond orders larger than 0.100000
B(  0-C ,  1-C ) :   0.9644 B(  0-C , 20-H ) :   0.9748 B(  0-C , 21-H ) :   0.9779
B(  0-C , 22-H ) :   0.9740 B(  1-C ,  2-O ) :   0.8954 B(  1-C , 23-H ) :   0.9686
B(  1-C , 24-H ) :   0.9844 B(  2-O ,  3-C ) :   1.1181 B(  3-C ,  4-O ) :   2.1065
B(  3-C ,  5-C ) :   0.9323 B(  5-C ,  6-C ) :   1.7148 B(  5-C , 12-C ) :   0.9390
B(  6-C ,  7-C ) :   0.9492 B(  6-C ,  8-N ) :   1.1128 B(  7-C , 25-H ) :   0.9629
B(  7-C , 26-H ) :   0.9706 B(  7-C , 27-H ) :   0.9816 B(  8-N ,  9-C ) :   1.1940
B(  8-N , 28-H ) :   0.9496 B(  9-C , 10-S ) :   1.6125 B(  9-C , 11-N ) :   1.2919
B( 11-N , 12-C ) :   0.9839 B( 11-N , 29-H ) :   0.9484 B( 12-C , 13-C ) :   0.9665
B( 12-C , 30-H ) :   0.9913 B( 13-C , 14-C ) :   1.3853 B( 13-C , 19-C ) :   1.3544
B( 14-C , 15-C ) :   1.3936 B( 14-C , 31-H ) :   0.9598 B( 15-C , 16-C ) :   1.3623
B( 15-C , 32-H ) :   0.9699 B( 16-C , 17-C ) :   1.3301 B( 16-C , 33-H ) :   0.9845
B( 17-C , 18-O ) :   1.1100 B( 17-C , 19-C ) :   1.3677 B( 18-O , 34-H ) :   0.9792
B( 19-C , 35-H ) :   0.9569

MP2 TOTAL ENERGY:    -1274.326176682 Eh
FINAL SINGLE POINT ENERGY     -1274.326176681992

DIPOLE MOMENT
-------------
                                X             Y             Z
Electronic contribution:      9.55012       6.24632       7.48585
Nuclear contribution   :    -10.93312      -7.66638      -7.84886
                        -----------------------------------------
Total Dipole Moment    :     -1.38300      -1.42006      -0.36301
                        -----------------------------------------
Magnitude (a.u.)       :      2.01520
Magnitude (Debye)      :      5.12224

Rotational constants in cm-1:     0.011434     0.009126     0.006590
Rotational constants in MHz :   342.781920   273.575684   197.560901

                             ****ORCA TERMINATED NORMALLY****
TOTAL RUN TIME: 0 days 2 hours 7 minutes 49 seconds 443 msec
