                         Program Version 4.2.0 -  RELEASE  -
|  1> ! ri-mp2 cc-pvtz cc-pvtz/c TightSCF NoKeepInts
|  2>
|  3> %scf
|  4>   MaxCore 4096
|  5> end
|  6> *xyz  0  1
|  7>     C       13.9475699   16.7185444   15.4863512
|  8>     C       15.1371408   15.7455208   15.5563514
|  9>     O       16.2421498   16.2702380   14.7934567
| 10>     C       17.3773885   16.6130387   15.4690438
| 11>     O       18.4195016   15.9990359   15.3334662
| 12>     C       17.1884423   17.6829222   16.4921571
| 13>     C       16.7388640   18.9080416   16.1263005
| 14>     C       16.2046503   19.3225056   14.7688231
| 15>     N       16.8344469   19.9916479   17.0015035
| 16>     C       17.5783796   19.9869407   18.1522305
| 17>     S       17.7406991   21.3385550   19.0909630
| 18>     N       18.2029389   18.8064267   18.4732839
| 19>     C       18.0053176   17.5213953   17.7730846
| 20>     C       17.4921936   16.3901876   18.6511706
| 21>     C       18.0760294   15.1132465   18.5736517
| 22>     C       17.5899364   14.0570451   19.3620639
| 23>     C       16.5090528   14.2796041   20.2324993
| 24>     C       15.9208443   15.5497684   20.3060483
| 25>     O       14.8706753   15.7650859   21.1374554
| 26>     C       16.4050778   16.5987410   19.5178142
| 27>     H       14.1345321   17.6103851   16.0948274
| 28>     H       13.0415097   16.2368610   15.8739949
| 29>     H       13.7542464   17.0254493   14.4508508
| 30>     H       15.4159842   15.5555424   16.6026677
| 31>     H       14.8340787   14.7865569   15.1159623
| 32>     H       16.5762272   18.6791979   13.9620096
| 33>     H       16.5144794   20.3431330   14.5108687
| 34>     H       15.1097763   19.2919758   14.7447059
| 35>     H       16.4108776   20.8736097   16.7595086
| 36>     H       18.7403618   18.8282940   19.3309804
| 37>     H       19.0355027   17.3134475   17.4471842
| 38>     H       18.9041410   14.9375833   17.8896614
| 39>     H       18.0492684   13.0722137   19.2935505
| 40>     H       16.1304624   13.4662219   20.8428433
| 41>     H       14.7203736   14.9470727   21.6350794
| 42>     H       15.9338793   17.5739645   19.5855861
| 43> *
| 44>
| 45>                          ****END OF INPUT****

CARTESIAN COORDINATES (ANGSTROEM)
---------------------------------
  C     13.947570   16.718544   15.486351
  C     15.137141   15.745521   15.556351
  O     16.242150   16.270238   14.793457
  C     17.377388   16.613039   15.469044
  O     18.419502   15.999036   15.333466
  C     17.188442   17.682922   16.492157
  C     16.738864   18.908042   16.126300
  C     16.204650   19.322506   14.768823
  N     16.834447   19.991648   17.001503
  C     17.578380   19.986941   18.152231
  S     17.740699   21.338555   19.090963
  N     18.202939   18.806427   18.473284
  C     18.005318   17.521395   17.773085
  C     17.492194   16.390188   18.651171
  C     18.076029   15.113247   18.573652
  C     17.589936   14.057045   19.362064
  C     16.509053   14.279604   20.232499
  C     15.920844   15.549768   20.306048
  O     14.870675   15.765086   21.137455
  C     16.405078   16.598741   19.517814
  H     14.134532   17.610385   16.094827
  H     13.041510   16.236861   15.873995
  H     13.754246   17.025449   14.450851
  H     15.415984   15.555542   16.602668
  H     14.834079   14.786557   15.115962
  H     16.576227   18.679198   13.962010
  H     16.514479   20.343133   14.510869
  H     15.109776   19.291976   14.744706
  H     16.410878   20.873610   16.759509
  H     18.740362   18.828294   19.330980
  H     19.035503   17.313447   17.447184
  H     18.904141   14.937583   17.889661
  H     18.049268   13.072214   19.293550
  H     16.130462   13.466222   20.842843
  H     14.720374   14.947073   21.635079
  H     15.933879   17.573964   19.585586

 Total Charge           Charge          ....    0
 Multiplicity           Mult            ....    1
 Number of Electrons    NEL             ....  154
 Basis Dimension        Dim             ....  828

ORBITAL ENERGIES
----------------

  NO   OCC          E(Eh)            E(eV)
   0   2.0000     -91.889993     -2500.4538
   1   2.0000     -20.599948      -560.5531
   2   2.0000     -20.590889      -560.3066
   3   2.0000     -20.556070      -559.3591
   4   2.0000     -15.628370      -425.2696
   5   2.0000     -15.609271      -424.7499
   6   2.0000     -11.396112      -310.1040
   7   2.0000     -11.385764      -309.8224
   8   2.0000     -11.335030      -308.4419
   9   2.0000     -11.317369      -307.9613
  10   2.0000     -11.309220      -307.7395
  11   2.0000     -11.305734      -307.6447
  12   2.0000     -11.264520      -306.5232
  13   2.0000     -11.262194      -306.4599
  14   2.0000     -11.260940      -306.4258
  15   2.0000     -11.257580      -306.3343
  16   2.0000     -11.246643      -306.0367
  17   2.0000     -11.242584      -305.9263
  18   2.0000     -11.239691      -305.8475
  19   2.0000     -11.235443      -305.7319
  20   2.0000      -8.895087      -242.0476
  21   2.0000      -6.576665      -178.9602
  22   2.0000      -6.574658      -178.9055
  23   2.0000      -6.574071      -178.8896
  24   2.0000      -1.450599       -39.4728
  25   2.0000      -1.419697       -38.6319
  26   2.0000      -1.362446       -37.0740
  27   2.0000      -1.340982       -36.4900
  28   2.0000      -1.239203       -33.7204
  29   2.0000      -1.161447       -31.6046
  30   2.0000      -1.125503       -30.6265
  31   2.0000      -1.048088       -28.5199
  32   2.0000      -1.039001       -28.2726
  33   2.0000      -1.019004       -27.7285
  34   2.0000      -1.004344       -27.3296
  35   2.0000      -0.989499       -26.9256
  36   2.0000      -0.925947       -25.1963
  37   2.0000      -0.887307       -24.1448
  38   2.0000      -0.851793       -23.1785
  39   2.0000      -0.842341       -22.9213
  40   2.0000      -0.837230       -22.7822
  41   2.0000      -0.834079       -22.6964
  42   2.0000      -0.759094       -20.6560
  43   2.0000      -0.737443       -20.0668
  44   2.0000      -0.731124       -19.8949
  45   2.0000      -0.697533       -18.9808
  46   2.0000      -0.688721       -18.7410
  47   2.0000      -0.684182       -18.6175
  48   2.0000      -0.675184       -18.3727
  49   2.0000      -0.662340       -18.0232
  50   2.0000      -0.653390       -17.7797
  51   2.0000      -0.641930       -17.4678
  52   2.0000      -0.634116       -17.2552
  53   2.0000      -0.615862       -16.7584
  54   2.0000      -0.609919       -16.5967
  55   2.0000      -0.606280       -16.4977
  56   2.0000      -0.603308       -16.4168
  57   2.0000      -0.582353       -15.8466
  58   2.0000      -0.580400       -15.7935
  59   2.0000      -0.575108       -15.6495
  60   2.0000      -0.563107       -15.3229
  61   2.0000      -0.556419       -15.1409
  62   2.0000      -0.544957       -14.8290
  63   2.0000      -0.527355       -14.3501
  64   2.0000      -0.521421       -14.1886
  65   2.0000      -0.513877       -13.9833
  66   2.0000      -0.501914       -13.6578
  67   2.0000      -0.497102       -13.5268
  68   2.0000      -0.489617       -13.3232
  69   2.0000      -0.468937       -12.7604
  70   2.0000      -0.459380       -12.5004
  71   2.0000      -0.452561       -12.3148
  72   2.0000      -0.356413        -9.6985
  73   2.0000      -0.352374        -9.5886
  74   2.0000      -0.329388        -8.9631
  75   2.0000      -0.324858        -8.8398
  76   2.0000      -0.320006        -8.7078
  77   0.0000       0.080642         2.1944
  78   0.0000       0.102242         2.7822
  79   0.0000       0.120186         3.2704
  80   0.0000       0.129132         3.5139
  81   0.0000       0.130270         3.5448

MULLIKEN ATOMIC CHARGES
-----------------------
   0 C :   -0.307240
   1 C :    0.026602
   2 O :   -0.352726
   3 C :    0.443646
   4 O :   -0.373172
   5 C :   -0.213405
   6 C :    0.124926
   7 C :   -0.310236
   8 N :   -0.135204
   9 C :    0.206659
  10 S :   -0.441485
  11 N :   -0.220263
  12 C :    0.066693
  13 C :    0.000609
  14 C :   -0.203283
  15 C :   -0.131185
  16 C :   -0.276420
  17 C :    0.310494
  18 O :   -0.355798
  19 C :   -0.238117
  20 H :    0.095131
  21 H :    0.116126
  22 H :    0.103969
  23 H :    0.106283
  24 H :    0.123038
  25 H :    0.135247
  26 H :    0.123777
  27 H :    0.123998
  28 H :    0.198902
  29 H :    0.201273
  30 H :    0.164227
  31 H :    0.175595
  32 H :    0.164514
  33 H :    0.132745
  34 H :    0.241296
  35 H :    0.172786
Sum of atomic charges:   -0.0000000

LOEWDIN ATOMIC CHARGES
----------------------
   0 C :    0.103891
   1 C :   -0.014725
   2 O :    0.293056
   3 C :   -0.422857
   4 O :    0.129370
   5 C :   -0.091497
   6 C :   -0.080687
   7 C :    0.127613
   8 N :    0.404031
   9 C :   -0.456495
  10 S :   -0.037257
  11 N :    0.395619
  12 C :   -0.049686
  13 C :   -0.045067
  14 C :    0.019567
  15 C :    0.043676
  16 C :   -0.000324
  17 C :   -0.192374
  18 O :    0.395168
  19 C :    0.026901
  20 H :   -0.033452
  21 H :   -0.022754
  22 H :   -0.026422
  23 H :   -0.026957
  24 H :   -0.023140
  25 H :   -0.007852
  26 H :   -0.014407
  27 H :   -0.015987
  28 H :   -0.056967
  29 H :   -0.064001
  30 H :   -0.004957
  31 H :   -0.021513
  32 H :   -0.018683
  33 H :   -0.034702
  34 H :   -0.153162
  35 H :   -0.022967

  Mayer bond orders larger than 0.100000
B(  0-C ,  1-C ) :   0.9671 B(  0-C , 20-H ) :   0.9766 B(  0-C , 21-H ) :   0.9779
B(  0-C , 22-H ) :   0.9738 B(  1-C ,  2-O ) :   0.8953 B(  1-C , 23-H ) :   0.9646
B(  1-C , 24-H ) :   0.9845 B(  2-O ,  3-C ) :   1.1176 B(  3-C ,  4-O ) :   2.1030
B(  3-C ,  5-C ) :   0.9336 B(  5-C ,  6-C ) :   1.7141 B(  5-C , 12-C ) :   0.9400
B(  6-C ,  7-C ) :   0.9488 B(  6-C ,  8-N ) :   1.1130 B(  7-C , 25-H ) :   0.9705
B(  7-C , 26-H ) :   0.9818 B(  7-C , 27-H ) :   0.9631 B(  8-N ,  9-C ) :   1.1940
B(  8-N , 28-H ) :   0.9499 B(  9-C , 10-S ) :   1.6120 B(  9-C , 11-N ) :   1.2922
B( 11-N , 12-C ) :   0.9834 B( 11-N , 29-H ) :   0.9481 B( 12-C , 13-C ) :   0.9661
B( 12-C , 30-H ) :   0.9913 B( 13-C , 14-C ) :   1.3859 B( 13-C , 19-C ) :   1.3547
B( 14-C , 15-C ) :   1.3954 B( 14-C , 31-H ) :   0.9589 B( 15-C , 16-C ) :   1.3618
B( 15-C , 32-H ) :   0.9700 B( 16-C , 17-C ) :   1.3309 B( 16-C , 33-H ) :   0.9843
B( 17-C , 18-O ) :   1.1098 B( 17-C , 19-C ) :   1.3669 B( 18-O , 34-H ) :   0.9793
B( 19-C , 35-H ) :   0.9569

MP2 TOTAL ENERGY:    -1274.326388333 Eh
FINAL SINGLE POINT ENERGY     -1274.326388333489

DIPOLE MOMENT
-------------
                                X             Y             Z
Electronic contribution:     10.04063       6.06426       7.76168
Nuclear contribution   :    -11.45689      -7.43643      -8.11080
                        -----------------------------------------
Total Dipole Moment    :     -1.41626      -1.37217      -0.34912
                        -----------------------------------------
Magnitude (a.u.)       :      2.00263
Magnitude (Debye)      :      5.09029

Rotational constants in cm-1:     0.011195     0.009132     0.006515
Rotational constants in MHz :   335.631299   273.782340   195.304568

                             ****ORCA TERMINATED NORMALLY****
TOTAL RUN TIME: 0 days 1 hours 57 minutes 45 seconds 629 msec
