                         Program Version 4.2.0 -  RELEASE  -
|  1> ! ri-mp2 cc-pvtz cc-pvtz/c TightSCF NoKeepInts
|  2>
|  3> %scf
|  4>   MaxCore 4096
|  5> end
|  6> *xyz  0  1
|  7>     C       14.7935902   14.9100527   15.7448169
|  8>     C       14.8006120   16.2704811   15.0142887
|  9>     O       16.1368156   16.6489599   14.6213940
| 10>     C       17.1391227   16.5910016   15.5430858
| 11>     O       17.8658060   15.6178022   15.6392641
| 12>     C       17.2029579   17.7595407   16.4799671
| 13>     C       16.9692032   19.0327828   16.0708652
| 14>     C       16.4286254   19.4873135   14.7296584
| 15>     N       17.2913355   20.1147546   16.8937019
| 16>     C       18.0409890   20.0210138   18.0358577
| 17>     S       18.4701311   21.3584763   18.9086822
| 18>     N       18.4341509   18.7596479   18.4076519
| 19>     C       17.9953735   17.5053094   17.7650143
| 20>     C       17.2863820   16.5467689   18.7118302
| 21>     C       17.7021632   15.2074074   18.8167355
| 22>     C       17.0348653   14.3171771   19.6745152
| 23>     C       15.9420779   14.7703337   20.4332828
| 24>     C       15.5234490   16.1038237   20.3277667
| 25>     O       14.4631559   16.5419837   21.0521168
| 26>     C       16.1888118   16.9872919   19.4717819
| 27>     H       15.3162174   14.1487194   15.1515216
| 28>     H       13.7642536   14.5683514   15.9068725
| 29>     H       15.2807356   14.9786453   16.7262269
| 30>     H       14.1674338   16.2076747   14.1198153
| 31>     H       14.3735235   17.0348261   15.6768772
| 32>     H       16.9726786   19.0081407   13.9055062
| 33>     H       16.5228358   20.5701715   14.5814318
| 34>     H       15.3672390   19.2323768   14.6275847
| 35>     H       17.0334885   21.0496153   16.6201882
| 36>     H       18.9727001   18.7168262   19.2637777
| 37>     H       18.9638174   17.0916082   17.4469444
| 38>     H       18.5363145   14.8518526   18.2156946
| 39>     H       17.3625622   13.2812708   19.7431325
| 40>     H       15.4229085   14.0853779   21.0954433
| 41>     H       14.1705171   15.8068999   21.6117754
| 42>     H       15.8501559   18.0157205   19.4029304
| 43> *
| 44>
| 45>                          ****END OF INPUT****

CARTESIAN COORDINATES (ANGSTROEM)
---------------------------------
  C     14.793590   14.910053   15.744817
  C     14.800612   16.270481   15.014289
  O     16.136816   16.648960   14.621394
  C     17.139123   16.591002   15.543086
  O     17.865806   15.617802   15.639264
  C     17.202958   17.759541   16.479967
  C     16.969203   19.032783   16.070865
  C     16.428625   19.487313   14.729658
  N     17.291335   20.114755   16.893702
  C     18.040989   20.021014   18.035858
  S     18.470131   21.358476   18.908682
  N     18.434151   18.759648   18.407652
  C     17.995373   17.505309   17.765014
  C     17.286382   16.546769   18.711830
  C     17.702163   15.207407   18.816736
  C     17.034865   14.317177   19.674515
  C     15.942078   14.770334   20.433283
  C     15.523449   16.103824   20.327767
  O     14.463156   16.541984   21.052117
  C     16.188812   16.987292   19.471782
  H     15.316217   14.148719   15.151522
  H     13.764254   14.568351   15.906872
  H     15.280736   14.978645   16.726227
  H     14.167434   16.207675   14.119815
  H     14.373523   17.034826   15.676877
  H     16.972679   19.008141   13.905506
  H     16.522836   20.570172   14.581432
  H     15.367239   19.232377   14.627585
  H     17.033489   21.049615   16.620188
  H     18.972700   18.716826   19.263778
  H     18.963817   17.091608   17.446944
  H     18.536314   14.851853   18.215695
  H     17.362562   13.281271   19.743133
  H     15.422908   14.085378   21.095443
  H     14.170517   15.806900   21.611775
  H     15.850156   18.015721   19.402930

 Total Charge           Charge          ....    0
 Multiplicity           Mult            ....    1
 Number of Electrons    NEL             ....  154
 Basis Dimension        Dim             ....  828

ORBITAL ENERGIES
----------------

  NO   OCC          E(Eh)            E(eV)
   0   2.0000     -91.890052     -2500.4554
   1   2.0000     -20.596427      -560.4573
   2   2.0000     -20.587494      -560.2142
   3   2.0000     -20.552681      -559.2669
   4   2.0000     -15.630659      -425.3319
   5   2.0000     -15.607935      -424.7135
   6   2.0000     -11.394380      -310.0568
   7   2.0000     -11.385017      -309.8021
   8   2.0000     -11.339568      -308.5653
   9   2.0000     -11.313009      -307.8426
  10   2.0000     -11.307616      -307.6959
  11   2.0000     -11.306074      -307.6539
  12   2.0000     -11.262311      -306.4631
  13   2.0000     -11.260237      -306.4066
  14   2.0000     -11.259808      -306.3950
  15   2.0000     -11.252862      -306.2060
  16   2.0000     -11.242935      -305.9358
  17   2.0000     -11.239074      -305.8307
  18   2.0000     -11.235398      -305.7307
  19   2.0000     -11.226937      -305.5005
  20   2.0000      -8.895129      -242.0488
  21   2.0000      -6.576703      -178.9612
  22   2.0000      -6.574701      -178.9067
  23   2.0000      -6.574111      -178.8906
  24   2.0000      -1.449117       -39.4325
  25   2.0000      -1.416192       -38.5366
  26   2.0000      -1.358771       -36.9740
  27   2.0000      -1.341715       -36.5099
  28   2.0000      -1.238974       -33.7142
  29   2.0000      -1.157290       -31.4915
  30   2.0000      -1.123193       -30.5636
  31   2.0000      -1.045152       -28.4400
  32   2.0000      -1.032682       -28.1007
  33   2.0000      -1.014857       -27.6157
  34   2.0000      -1.002471       -27.2786
  35   2.0000      -0.987187       -26.8627
  36   2.0000      -0.924166       -25.1478
  37   2.0000      -0.892413       -24.2838
  38   2.0000      -0.851698       -23.1759
  39   2.0000      -0.839766       -22.8512
  40   2.0000      -0.832958       -22.6659
  41   2.0000      -0.827703       -22.5229
  42   2.0000      -0.745735       -20.2925
  43   2.0000      -0.730615       -19.8811
  44   2.0000      -0.729928       -19.8624
  45   2.0000      -0.693973       -18.8840
  46   2.0000      -0.685164       -18.6442
  47   2.0000      -0.681590       -18.5470
  48   2.0000      -0.677500       -18.4357
  49   2.0000      -0.665944       -18.1213
  50   2.0000      -0.650922       -17.7125
  51   2.0000      -0.645766       -17.5722
  52   2.0000      -0.636015       -17.3068
  53   2.0000      -0.617798       -16.8111
  54   2.0000      -0.606806       -16.5120
  55   2.0000      -0.602553       -16.3963
  56   2.0000      -0.599821       -16.3219
  57   2.0000      -0.578762       -15.7489
  58   2.0000      -0.575101       -15.6493
  59   2.0000      -0.566796       -15.4233
  60   2.0000      -0.555115       -15.1054
  61   2.0000      -0.551124       -14.9968
  62   2.0000      -0.540652       -14.7119
  63   2.0000      -0.529667       -14.4130
  64   2.0000      -0.519214       -14.1285
  65   2.0000      -0.511806       -13.9269
  66   2.0000      -0.498957       -13.5773
  67   2.0000      -0.491040       -13.3619
  68   2.0000      -0.485139       -13.2013
  69   2.0000      -0.466553       -12.6955
  70   2.0000      -0.460338       -12.5264
  71   2.0000      -0.449573       -12.2335
  72   2.0000      -0.355535        -9.6746
  73   2.0000      -0.349260        -9.5038
  74   2.0000      -0.329158        -8.9568
  75   2.0000      -0.320088        -8.7100
  76   2.0000      -0.319241        -8.6870
  77   0.0000       0.072914         1.9841
  78   0.0000       0.105430         2.8689
  79   0.0000       0.119817         3.2604
  80   0.0000       0.132123         3.5953
  81   0.0000       0.138004         3.7553

MULLIKEN ATOMIC CHARGES
-----------------------
   0 C :   -0.284967
   1 C :    0.022557
   2 O :   -0.373313
   3 C :    0.451992
   4 O :   -0.384972
   5 C :   -0.230897
   6 C :    0.166326
   7 C :   -0.288987
   8 N :   -0.128089
   9 C :    0.206858
  10 S :   -0.439756
  11 N :   -0.213916
  12 C :    0.058717
  13 C :    0.008975
  14 C :   -0.184630
  15 C :   -0.131310
  16 C :   -0.276425
  17 C :    0.309472
  18 O :   -0.357998
  19 C :   -0.240064
  20 H :    0.112345
  21 H :    0.098976
  22 H :    0.112679
  23 H :    0.114698
  24 H :    0.084136
  25 H :    0.134537
  26 H :    0.107286
  27 H :    0.121071
  28 H :    0.198358
  29 H :    0.199777
  30 H :    0.158459
  31 H :    0.166704
  32 H :    0.162355
  33 H :    0.131023
  34 H :    0.240760
  35 H :    0.167263
Sum of atomic charges:   -0.0000000

LOEWDIN ATOMIC CHARGES
----------------------
   0 C :    0.109359
   1 C :   -0.023239
   2 O :    0.291225
   3 C :   -0.422436
   4 O :    0.128036
   5 C :   -0.097341
   6 C :   -0.068065
   7 C :    0.127225
   8 N :    0.405504
   9 C :   -0.457745
  10 S :   -0.035874
  11 N :    0.396078
  12 C :   -0.049111
  13 C :   -0.043626
  14 C :    0.023407
  15 C :    0.041680
  16 C :   -0.000825
  17 C :   -0.192977
  18 O :    0.393798
  19 C :    0.027841
  20 H :   -0.020633
  21 H :   -0.026053
  22 H :   -0.024391
  23 H :   -0.022013
  24 H :   -0.038728
  25 H :   -0.005887
  26 H :   -0.019294
  27 H :   -0.012142
  28 H :   -0.058209
  29 H :   -0.063488
  30 H :   -0.006811
  31 H :   -0.022615
  32 H :   -0.019829
  33 H :   -0.035302
  34 H :   -0.153910
  35 H :   -0.023608

  Mayer bond orders larger than 0.100000
B(  0-C ,  1-C ) :   0.9796 B(  0-C , 20-H ) :   0.9735 B(  0-C , 21-H ) :   0.9755
B(  0-C , 22-H ) :   0.9669 B(  1-C ,  2-O ) :   0.9029 B(  1-C , 23-H ) :   0.9774
B(  1-C , 24-H ) :   0.9723 B(  2-O ,  3-C ) :   1.0792 B(  3-C ,  4-O ) :   2.0604
B(  3-C ,  5-C ) :   0.9948 B(  5-C ,  6-C ) :   1.6695 B(  5-C , 12-C ) :   0.9487
B(  6-C ,  7-C ) :   0.9484 B(  6-C ,  8-N ) :   1.1410 B(  7-C , 25-H ) :   0.9649
B(  7-C , 26-H ) :   0.9885 B(  7-C , 27-H ) :   0.9677 B(  8-N ,  9-C ) :   1.1844
B(  8-N , 28-H ) :   0.9474 B(  9-C , 10-S ) :   1.6123 B(  9-C , 11-N ) :   1.3013
B( 11-N , 12-C ) :   0.9837 B( 11-N , 29-H ) :   0.9488 B( 12-C , 13-C ) :   0.9663
B( 12-C , 30-H ) :   0.9947 B( 13-C , 14-C ) :   1.3845 B( 13-C , 19-C ) :   1.3624
B( 14-C , 15-C ) :   1.3944 B( 14-C , 31-H ) :   0.9611 B( 15-C , 16-C ) :   1.3598
B( 15-C , 32-H ) :   0.9708 B( 16-C , 17-C ) :   1.3323 B( 16-C , 33-H ) :   0.9850
B( 17-C , 18-O ) :   1.1067 B( 17-C , 19-C ) :   1.3674 B( 18-O , 34-H ) :   0.9799
B( 19-C , 35-H ) :   0.9588

MP2 TOTAL ENERGY:    -1274.328343821 Eh
FINAL SINGLE POINT ENERGY     -1274.328343821126

DIPOLE MOMENT
-------------
                                X             Y             Z
Electronic contribution:      9.36306       9.37765       7.38326
Nuclear contribution   :    -10.93337     -10.46030      -7.97693
                        -----------------------------------------
Total Dipole Moment    :     -1.57031      -1.08265      -0.59366
                        -----------------------------------------
Magnitude (a.u.)       :      1.99760
Magnitude (Debye)      :      5.07750

Rotational constants in cm-1:     0.011360     0.009188     0.006206
Rotational constants in MHz :   340.576198   275.444394   186.060326

                             ****ORCA TERMINATED NORMALLY****
TOTAL RUN TIME: 0 days 2 hours 2 minutes 20 seconds 441 msec
