                         Program Version 4.2.0 -  RELEASE  -
|  1> ! ri-mp2 cc-pvtz cc-pvtz/c TightSCF NoKeepInts
|  2>
|  3> %scf
|  4>   MaxCore 4096
|  5> end
|  6> *xyz  0  1
|  7>     C       13.7193866   15.8708512   14.0478379
|  8>     C       14.9240044   15.5116562   14.9336883
|  9>     O       15.8125040   16.6382632   14.9306344
| 10>     C       16.8981622   16.5743461   15.7495377
| 11>     O       17.5841703   15.5691076   15.8250615
| 12>     C       17.0461137   17.7348931   16.6911850
| 13>     C       16.6751053   18.9989450   16.3565426
| 14>     C       15.8706113   19.4440435   15.1509758
| 15>     N       17.0753259   20.0886594   17.1340457
| 16>     C       18.0202701   20.0292539   18.1226102
| 17>     S       18.5258832   21.3818388   18.9289767
| 18>     N       18.5424816   18.7899373   18.3935411
| 19>     C       18.0623006   17.5180318   17.8192444
| 20>     C       17.5964257   16.5207089   18.8717868
| 21>     C       18.1475808   15.2279762   18.9289407
| 22>     C       17.7166806   14.3096554   19.9010452
| 23>     C       16.7269925   14.6879140   20.8245317
| 24>     C       16.1745571   15.9749479   20.7683368
| 25>     O       15.2154873   16.3412621   21.6556105
| 26>     C       16.6049400   16.8864574   19.7988616
| 27>     H       13.1976232   16.7519514   14.4412470
| 28>     H       13.0072007   15.0374617   14.0115604
| 29>     H       14.0452091   16.0885187   13.0229946
| 30>     H       14.5842257   15.2945592   15.9555545
| 31>     H       15.4326197   14.6220522   14.5373086
| 32>     H       16.3312021   19.0877252   14.2208612
| 33>     H       15.7914408   20.5350546   15.0707196
| 34>     H       14.8497132   19.0449760   15.1969179
| 35>     H       16.7183024   21.0085947   16.9310614
| 36>     H       19.2226857   18.7701011   19.1429267
| 37>     H       18.9817127   17.1641940   17.3302420
| 38>     H       18.9021238   14.9300744   18.2045787
| 39>     H       18.1461753   13.3098962   19.9315494
| 40>     H       16.3904932   13.9813531   21.5758769
| 41>     H       15.0789202   15.5954548   22.2589251
| 42>     H       16.1683686   17.8792836   19.7726814
| 43> *
| 44>
| 45>                          ****END OF INPUT****

CARTESIAN COORDINATES (ANGSTROEM)
---------------------------------
  C     13.719387   15.870851   14.047838
  C     14.924004   15.511656   14.933688
  O     15.812504   16.638263   14.930634
  C     16.898162   16.574346   15.749538
  O     17.584170   15.569108   15.825061
  C     17.046114   17.734893   16.691185
  C     16.675105   18.998945   16.356543
  C     15.870611   19.444043   15.150976
  N     17.075326   20.088659   17.134046
  C     18.020270   20.029254   18.122610
  S     18.525883   21.381839   18.928977
  N     18.542482   18.789937   18.393541
  C     18.062301   17.518032   17.819244
  C     17.596426   16.520709   18.871787
  C     18.147581   15.227976   18.928941
  C     17.716681   14.309655   19.901045
  C     16.726993   14.687914   20.824532
  C     16.174557   15.974948   20.768337
  O     15.215487   16.341262   21.655611
  C     16.604940   16.886457   19.798862
  H     13.197623   16.751951   14.441247
  H     13.007201   15.037462   14.011560
  H     14.045209   16.088519   13.022995
  H     14.584226   15.294559   15.955554
  H     15.432620   14.622052   14.537309
  H     16.331202   19.087725   14.220861
  H     15.791441   20.535055   15.070720
  H     14.849713   19.044976   15.196918
  H     16.718302   21.008595   16.931061
  H     19.222686   18.770101   19.142927
  H     18.981713   17.164194   17.330242
  H     18.902124   14.930074   18.204579
  H     18.146175   13.309896   19.931549
  H     16.390493   13.981353   21.575877
  H     15.078920   15.595455   22.258925
  H     16.168369   17.879284   19.772681

 Total Charge           Charge          ....    0
 Multiplicity           Mult            ....    1
 Number of Electrons    NEL             ....  154
 Basis Dimension        Dim             ....  828

ORBITAL ENERGIES
----------------

  NO   OCC          E(Eh)            E(eV)
   0   2.0000     -91.888759     -2500.4202
   1   2.0000     -20.594707      -560.4105
   2   2.0000     -20.592714      -560.3562
   3   2.0000     -20.548533      -559.1540
   4   2.0000     -15.629611      -425.3033
   5   2.0000     -15.606289      -424.6687
   6   2.0000     -11.393737      -310.0393
   7   2.0000     -11.383363      -309.7571
   8   2.0000     -11.339087      -308.5522
   9   2.0000     -11.308713      -307.7257
  10   2.0000     -11.304642      -307.6149
  11   2.0000     -11.300997      -307.5158
  12   2.0000     -11.260386      -306.4107
  13   2.0000     -11.259964      -306.3992
  14   2.0000     -11.255905      -306.2887
  15   2.0000     -11.248660      -306.0916
  16   2.0000     -11.238899      -305.8260
  17   2.0000     -11.235568      -305.7354
  18   2.0000     -11.235101      -305.7226
  19   2.0000     -11.231686      -305.6297
  20   2.0000      -8.893836      -242.0136
  21   2.0000      -6.575411      -178.9260
  22   2.0000      -6.573410      -178.8716
  23   2.0000      -6.572820      -178.8555
  24   2.0000      -1.454828       -39.5879
  25   2.0000      -1.412462       -38.4351
  26   2.0000      -1.357696       -36.9448
  27   2.0000      -1.340644       -36.4808
  28   2.0000      -1.237677       -33.6789
  29   2.0000      -1.153263       -31.3819
  30   2.0000      -1.121494       -30.5174
  31   2.0000      -1.044808       -28.4307
  32   2.0000      -1.037264       -28.2254
  33   2.0000      -1.010810       -27.5055
  34   2.0000      -0.999601       -27.2005
  35   2.0000      -0.984831       -26.7986
  36   2.0000      -0.921332       -25.0707
  37   2.0000      -0.885459       -24.0946
  38   2.0000      -0.847935       -23.0735
  39   2.0000      -0.836163       -22.7532
  40   2.0000      -0.828916       -22.5559
  41   2.0000      -0.823344       -22.4043
  42   2.0000      -0.761377       -20.7181
  43   2.0000      -0.736419       -20.0390
  44   2.0000      -0.726951       -19.7813
  45   2.0000      -0.690593       -18.7920
  46   2.0000      -0.685780       -18.6610
  47   2.0000      -0.681271       -18.5383
  48   2.0000      -0.675597       -18.3839
  49   2.0000      -0.655411       -17.8346
  50   2.0000      -0.651883       -17.7386
  51   2.0000      -0.640814       -17.4374
  52   2.0000      -0.633027       -17.2256
  53   2.0000      -0.612162       -16.6578
  54   2.0000      -0.603964       -16.4347
  55   2.0000      -0.599488       -16.3129
  56   2.0000      -0.596045       -16.2192
  57   2.0000      -0.576301       -15.6819
  58   2.0000      -0.573909       -15.6168
  59   2.0000      -0.564000       -15.3472
  60   2.0000      -0.560352       -15.2479
  61   2.0000      -0.548642       -14.9293
  62   2.0000      -0.544241       -14.8096
  63   2.0000      -0.521897       -14.2015
  64   2.0000      -0.516948       -14.0669
  65   2.0000      -0.511009       -13.9053
  66   2.0000      -0.506661       -13.7869
  67   2.0000      -0.494903       -13.4670
  68   2.0000      -0.480845       -13.0844
  69   2.0000      -0.462738       -12.5917
  70   2.0000      -0.461821       -12.5668
  71   2.0000      -0.451841       -12.2952
  72   2.0000      -0.353824        -9.6280
  73   2.0000      -0.345402        -9.3989
  74   2.0000      -0.327785        -8.9195
  75   2.0000      -0.317916        -8.6509
  76   2.0000      -0.315349        -8.5811
  77   0.0000       0.073763         2.0072
  78   0.0000       0.110151         2.9974
  79   0.0000       0.120616         3.2821
  80   0.0000       0.135023         3.6742
  81   0.0000       0.137858         3.7513

MULLIKEN ATOMIC CHARGES
-----------------------
   0 C :   -0.275318
   1 C :    0.045303
   2 O :   -0.352670
   3 C :    0.431229
   4 O :   -0.405265
   5 C :   -0.184007
   6 C :    0.152071
   7 C :   -0.283395
   8 N :   -0.127840
   9 C :    0.207352
  10 S :   -0.441149
  11 N :   -0.210480
  12 C :    0.041564
  13 C :    0.033291
  14 C :   -0.169398
  15 C :   -0.134013
  16 C :   -0.277521
  17 C :    0.313579
  18 O :   -0.359077
  19 C :   -0.253490
  20 H :    0.091347
  21 H :    0.099323
  22 H :    0.100066
  23 H :    0.084322
  24 H :    0.108886
  25 H :    0.127739
  26 H :    0.103816
  27 H :    0.126059
  28 H :    0.198940
  29 H :    0.199888
  30 H :    0.155909
  31 H :    0.159868
  32 H :    0.160464
  33 H :    0.128579
  34 H :    0.240124
  35 H :    0.163904
Sum of atomic charges:    0.0000000

LOEWDIN ATOMIC CHARGES
----------------------
   0 C :    0.108381
   1 C :   -0.019753
   2 O :    0.301236
   3 C :   -0.419038
   4 O :    0.114713
   5 C :   -0.094878
   6 C :   -0.064315
   7 C :    0.125796
   8 N :    0.405757
   9 C :   -0.458392
  10 S :   -0.036736
  11 N :    0.396285
  12 C :   -0.048352
  13 C :   -0.040919
  14 C :    0.025013
  15 C :    0.041257
  16 C :   -0.001259
  17 C :   -0.192951
  18 O :    0.392980
  19 C :    0.028813
  20 H :   -0.029773
  21 H :   -0.023005
  22 H :   -0.025429
  23 H :   -0.030204
  24 H :   -0.026904
  25 H :   -0.008143
  26 H :   -0.020864
  27 H :   -0.010582
  28 H :   -0.058483
  29 H :   -0.063188
  30 H :   -0.007819
  31 H :   -0.023690
  32 H :   -0.020810
  33 H :   -0.036067
  34 H :   -0.154710
  35 H :   -0.023967

  Mayer bond orders larger than 0.100000
B(  0-C ,  1-C ) :   0.9730 B(  0-C , 20-H ) :   0.9785 B(  0-C , 21-H ) :   0.9775
B(  0-C , 22-H ) :   0.9768 B(  1-C ,  2-O ) :   0.9077 B(  1-C , 23-H ) :   0.9717
B(  1-C , 24-H ) :   0.9795 B(  2-O ,  3-C ) :   1.0991 B(  3-C ,  4-O ) :   2.0186
B(  3-C ,  5-C ) :   1.0333 B(  5-C ,  6-C ) :   1.6557 B(  5-C , 12-C ) :   0.9495
B(  6-C ,  7-C ) :   0.9545 B(  6-C ,  8-N ) :   1.1371 B(  7-C , 25-H ) :   0.9649
B(  7-C , 26-H ) :   0.9912 B(  7-C , 27-H ) :   0.9636 B(  8-N ,  9-C ) :   1.1844
B(  8-N , 28-H ) :   0.9469 B(  9-C , 10-S ) :   1.6097 B(  9-C , 11-N ) :   1.3057
B( 11-N , 12-C ) :   0.9772 B( 11-N , 29-H ) :   0.9485 B( 12-C , 13-C ) :   0.9721
B( 12-C , 30-H ) :   0.9965 B( 13-C , 14-C ) :   1.3779 B( 13-C , 19-C ) :   1.3638
B( 14-C , 15-C ) :   1.3976 B( 14-C , 31-H ) :   0.9633 B( 15-C , 16-C ) :   1.3589
B( 15-C , 32-H ) :   0.9710 B( 16-C , 17-C ) :   1.3332 B( 16-C , 33-H ) :   0.9859
B( 17-C , 18-O ) :   1.1038 B( 17-C , 19-C ) :   1.3676 B( 18-O , 34-H ) :   0.9805
B( 19-C , 35-H ) :   0.9602

MP2 TOTAL ENERGY:    -1274.333409752 Eh
FINAL SINGLE POINT ENERGY     -1274.333409751780

DIPOLE MOMENT
-------------
                                X             Y             Z
Electronic contribution:     11.39390       8.44130      11.14372
Nuclear contribution   :    -12.85899      -9.75434     -11.97585
                        -----------------------------------------
Total Dipole Moment    :     -1.46509      -1.31304      -0.83212
                        -----------------------------------------
Magnitude (a.u.)       :      2.13612
Magnitude (Debye)      :      5.42958

Rotational constants in cm-1:     0.009614     0.009230     0.005678
Rotational constants in MHz :   288.207188   276.716860   170.227601

                             ****ORCA TERMINATED NORMALLY****
TOTAL RUN TIME: 0 days 1 hours 36 minutes 19 seconds 697 msec
