                         Program Version 4.2.0 -  RELEASE  -
|  1> ! ri-mp2 cc-pvtz cc-pvtz/c TightSCF NoKeepInts
|  2>
|  3> %scf
|  4>   MaxCore 4096
|  5> end
|  6> *xyz  0  1
|  7>     C       14.7965006   14.4599756   14.8604908
|  8>     C       15.2662508   15.3609662   16.0146149
|  9>     O       16.3844352   16.1283185   15.5364398
| 10>     C       16.2116069   17.4755248   15.4334969
| 11>     O       15.5189383   17.9428625   14.5478292
| 12>     C       16.8262570   18.2558440   16.5663255
| 13>     C       16.8480934   19.6140158   16.5340296
| 14>     C       16.0666920   20.5231448   15.6077144
| 15>     N       17.6544316   20.3436085   17.4105014
| 16>     C       18.6213563   19.7964081   18.2089714
| 17>     S       19.6154365   20.7279281   19.1467641
| 18>     N       18.7405718   18.4306207   18.1725318
| 19>     C       17.8300996   17.5112006   17.4650594
| 20>     C       17.2177475   16.4756956   18.3978135
| 21>     C       17.7672769   15.1832405   18.4844998
| 22>     C       17.2022232   14.2242704   19.3419798
| 23>     C       16.0827808   14.5626723   20.1216086
| 24>     C       15.5403763   15.8528739   20.0443131
| 25>     O       14.4601123   16.1826980   20.7955559
| 26>     C       16.1037642   16.8049128   19.1889408
| 27>     H       14.4754013   15.0681703   14.0050410
| 28>     H       13.9508218   13.8373490   15.1762584
| 29>     H       15.6075778   13.7994077   14.5299726
| 30>     H       14.4445424   16.0107176   16.3470621
| 31>     H       15.5732807   14.7329835   16.8601085
| 32>     H       15.0017435   20.2577244   15.6115019
| 33>     H       16.4252780   20.4230814   14.5751252
| 34>     H       16.1382963   21.5821143   15.8824672
| 35>     H       17.5954272   21.3493252   17.4253600
| 36>     H       19.4444376   18.0540582   18.7948638
| 37>     H       18.5389330   17.0335514   16.7734034
| 38>     H       18.6307833   14.9194129   17.8791708
| 39>     H       17.6320815   13.2255461   19.4012411
| 40>     H       15.6435901   13.8254034   20.7859384
| 41>     H       14.2539788   15.4232638   21.3615295
| 42>     H       15.6758755   17.8011092   19.1494754
| 43> *
| 44>
| 45>                          ****END OF INPUT****

CARTESIAN COORDINATES (ANGSTROEM)
---------------------------------
  C     14.796501   14.459976   14.860491
  C     15.266251   15.360966   16.014615
  O     16.384435   16.128318   15.536440
  C     16.211607   17.475525   15.433497
  O     15.518938   17.942862   14.547829
  C     16.826257   18.255844   16.566326
  C     16.848093   19.614016   16.534030
  C     16.066692   20.523145   15.607714
  N     17.654432   20.343608   17.410501
  C     18.621356   19.796408   18.208971
  S     19.615437   20.727928   19.146764
  N     18.740572   18.430621   18.172532
  C     17.830100   17.511201   17.465059
  C     17.217748   16.475696   18.397814
  C     17.767277   15.183240   18.484500
  C     17.202223   14.224270   19.341980
  C     16.082781   14.562672   20.121609
  C     15.540376   15.852874   20.044313
  O     14.460112   16.182698   20.795556
  C     16.103764   16.804913   19.188941
  H     14.475401   15.068170   14.005041
  H     13.950822   13.837349   15.176258
  H     15.607578   13.799408   14.529973
  H     14.444542   16.010718   16.347062
  H     15.573281   14.732983   16.860108
  H     15.001743   20.257724   15.611502
  H     16.425278   20.423081   14.575125
  H     16.138296   21.582114   15.882467
  H     17.595427   21.349325   17.425360
  H     19.444438   18.054058   18.794864
  H     18.538933   17.033551   16.773403
  H     18.630783   14.919413   17.879171
  H     17.632082   13.225546   19.401241
  H     15.643590   13.825403   20.785938
  H     14.253979   15.423264   21.361529
  H     15.675875   17.801109   19.149475

 Total Charge           Charge          ....    0
 Multiplicity           Mult            ....    1
 Number of Electrons    NEL             ....  154
 Basis Dimension        Dim             ....  828

ORBITAL ENERGIES
----------------

  NO   OCC          E(Eh)            E(eV)
   0   2.0000     -91.890915     -2500.4789
   1   2.0000     -20.602671      -560.6272
   2   2.0000     -20.581733      -560.0574
   3   2.0000     -20.545872      -559.0816
   4   2.0000     -15.631476      -425.3541
   5   2.0000     -15.609040      -424.7436
   6   2.0000     -11.392144      -309.9960
   7   2.0000     -11.385410      -309.8128
   8   2.0000     -11.339922      -308.5750
   9   2.0000     -11.320527      -308.0472
  10   2.0000     -11.310540      -307.7754
  11   2.0000     -11.294626      -307.3424
  12   2.0000     -11.266403      -306.5744
  13   2.0000     -11.261798      -306.4491
  14   2.0000     -11.259115      -306.3761
  15   2.0000     -11.253398      -306.2205
  16   2.0000     -11.250069      -306.1299
  17   2.0000     -11.244698      -305.9838
  18   2.0000     -11.244541      -305.9795
  19   2.0000     -11.219558      -305.2997
  20   2.0000      -8.895970      -242.0717
  21   2.0000      -6.577537      -178.9839
  22   2.0000      -6.575543      -178.9296
  23   2.0000      -6.574948      -178.9134
  24   2.0000      -1.447844       -39.3978
  25   2.0000      -1.422350       -38.7041
  26   2.0000      -1.352990       -36.8167
  27   2.0000      -1.342784       -36.5390
  28   2.0000      -1.240817       -33.7643
  29   2.0000      -1.163407       -31.6579
  30   2.0000      -1.122984       -30.5580
  31   2.0000      -1.047368       -28.5003
  32   2.0000      -1.031849       -28.0780
  33   2.0000      -1.021409       -27.7940
  34   2.0000      -0.998579       -27.1727
  35   2.0000      -0.986737       -26.8505
  36   2.0000      -0.925218       -25.1765
  37   2.0000      -0.878629       -23.9087
  38   2.0000      -0.849991       -23.1294
  39   2.0000      -0.843008       -22.9394
  40   2.0000      -0.839700       -22.8494
  41   2.0000      -0.829084       -22.5605
  42   2.0000      -0.759973       -20.6799
  43   2.0000      -0.737983       -20.0815
  44   2.0000      -0.723379       -19.6841
  45   2.0000      -0.701373       -19.0853
  46   2.0000      -0.690865       -18.7994
  47   2.0000      -0.677632       -18.4393
  48   2.0000      -0.672372       -18.2962
  49   2.0000      -0.655569       -17.8389
  50   2.0000      -0.649109       -17.6632
  51   2.0000      -0.644491       -17.5375
  52   2.0000      -0.637574       -17.3493
  53   2.0000      -0.612946       -16.6791
  54   2.0000      -0.607801       -16.5391
  55   2.0000      -0.603538       -16.4231
  56   2.0000      -0.595660       -16.2087
  57   2.0000      -0.582529       -15.8514
  58   2.0000      -0.573661       -15.6101
  59   2.0000      -0.569350       -15.4928
  60   2.0000      -0.566687       -15.4203
  61   2.0000      -0.542043       -14.7497
  62   2.0000      -0.536006       -14.5855
  63   2.0000      -0.529556       -14.4099
  64   2.0000      -0.516802       -14.0629
  65   2.0000      -0.509289       -13.8585
  66   2.0000      -0.503568       -13.7028
  67   2.0000      -0.496264       -13.5040
  68   2.0000      -0.489303       -13.3146
  69   2.0000      -0.464754       -12.6466
  70   2.0000      -0.454044       -12.3552
  71   2.0000      -0.444164       -12.0863
  72   2.0000      -0.357020        -9.7150
  73   2.0000      -0.354171        -9.6375
  74   2.0000      -0.331080        -9.0091
  75   2.0000      -0.327310        -8.9066
  76   2.0000      -0.320657        -8.7255
  77   0.0000       0.071656         1.9499
  78   0.0000       0.098740         2.6869
  79   0.0000       0.122100         3.3225
  80   0.0000       0.129156         3.5145
  81   0.0000       0.130158         3.5418

MULLIKEN ATOMIC CHARGES
-----------------------
   0 C :   -0.259914
   1 C :    0.023567
   2 O :   -0.378512
   3 C :    0.471597
   4 O :   -0.409653
   5 C :   -0.289654
   6 C :    0.188496
   7 C :   -0.265626
   8 N :   -0.127105
   9 C :    0.213641
  10 S :   -0.439860
  11 N :   -0.219190
  12 C :    0.075418
  13 C :   -0.007887
  14 C :   -0.167502
  15 C :   -0.139017
  16 C :   -0.269975
  17 C :    0.300712
  18 O :   -0.355595
  19 C :   -0.210170
  20 H :    0.109443
  21 H :    0.085109
  22 H :    0.091898
  23 H :    0.089513
  24 H :    0.119498
  25 H :    0.131121
  26 H :    0.132251
  27 H :    0.094602
  28 H :    0.199377
  29 H :    0.201312
  30 H :    0.151463
  31 H :    0.153777
  32 H :    0.164171
  33 H :    0.134220
  34 H :    0.241996
  35 H :    0.166478
Sum of atomic charges:   -0.0000000

LOEWDIN ATOMIC CHARGES
----------------------
   0 C :    0.106353
   1 C :   -0.020104
   2 O :    0.295833
   3 C :   -0.425220
   4 O :    0.113719
   5 C :   -0.101852
   6 C :   -0.053554
   7 C :    0.131540
   8 N :    0.407941
   9 C :   -0.456088
  10 S :   -0.034448
  11 N :    0.394231
  12 C :   -0.054629
  13 C :   -0.038448
  14 C :    0.016007
  15 C :    0.040888
  16 C :   -0.000580
  17 C :   -0.190330
  18 O :    0.396342
  19 C :    0.033897
  20 H :   -0.023069
  21 H :   -0.029854
  22 H :   -0.027832
  23 H :   -0.030474
  24 H :   -0.027640
  25 H :   -0.004693
  26 H :   -0.003906
  27 H :   -0.023399
  28 H :   -0.056659
  29 H :   -0.064682
  30 H :   -0.011972
  31 H :   -0.027863
  32 H :   -0.019551
  33 H :   -0.034106
  34 H :   -0.152451
  35 H :   -0.023347

  Mayer bond orders larger than 0.100000
B(  0-C ,  1-C ) :   0.9880 B(  0-C , 20-H ) :   0.9770 B(  0-C , 21-H ) :   0.9776
B(  0-C , 22-H ) :   0.9790 B(  1-C ,  2-O ) :   0.8756 B(  1-C , 23-H ) :   0.9700
B(  1-C , 24-H ) :   0.9713 B(  2-O ,  3-C ) :   1.0915 B(  3-C ,  4-O ) :   2.0132
B(  3-C ,  5-C ) :   1.0792 B(  5-C ,  6-C ) :   1.6224 B(  5-C , 12-C ) :   0.9484
B(  6-C ,  7-C ) :   0.9672 B(  6-C ,  8-N ) :   1.1612 B(  7-C , 25-H ) :   0.9622
B(  7-C , 26-H ) :   0.9568 B(  7-C , 27-H ) :   0.9896 B(  8-N ,  9-C ) :   1.1850
B(  8-N , 28-H ) :   0.9461 B(  9-C , 10-S ) :   1.6050 B(  9-C , 11-N ) :   1.3116
B( 11-N , 12-C ) :   0.9585 B( 11-N , 29-H ) :   0.9482 B( 12-C , 13-C ) :   0.9708
B( 12-C , 30-H ) :   1.0019 B( 13-C , 14-C ) :   1.3506 B( 13-C , 19-C ) :   1.3704
B( 14-C , 15-C ) :   1.3970 B( 14-C , 31-H ) :   0.9729 B( 15-C , 16-C ) :   1.3572
B( 15-C , 32-H ) :   0.9702 B( 16-C , 17-C ) :   1.3324 B( 16-C , 33-H ) :   0.9838
B( 17-C , 18-O ) :   1.1080 B( 17-C , 19-C ) :   1.3684 B( 18-O , 34-H ) :   0.9786
B( 19-C , 35-H ) :   0.9600

MP2 TOTAL ENERGY:    -1274.328246016 Eh
FINAL SINGLE POINT ENERGY     -1274.328246015622

DIPOLE MOMENT
-------------
                                X             Y             Z
Electronic contribution:      9.38585      10.48247       7.70843
Nuclear contribution   :    -10.37657     -12.01980      -7.47820
                        -----------------------------------------
Total Dipole Moment    :     -0.99073      -1.53733       0.23023
                        -----------------------------------------
Magnitude (a.u.)       :      1.84335
Magnitude (Debye)      :      4.68541

Rotational constants in cm-1:     0.012165     0.008449     0.005983
Rotational constants in MHz :   364.684655   253.294601   179.354348

                             ****ORCA TERMINATED NORMALLY****
TOTAL RUN TIME: 0 days 2 hours 1 minutes 34 seconds 281 msec
