                         Program Version 4.2.0 -  RELEASE  -
|  1> ! ri-mp2 cc-pvtz cc-pvtz/c TightSCF NoKeepInts
|  2>
|  3> %scf
|  4>   MaxCore 4096
|  5> end
|  6> *xyz  0  1
|  7>     C       13.7940364   16.4675979   14.5724474
|  8>     C       14.7864099   16.1552309   15.7072163
|  9>     O       16.0894113   15.9640241   15.1157911
| 10>     C       17.2539685   16.5286783   15.5762034
| 11>     O       18.3378564   16.0880959   15.2418988
| 12>     C       17.1345416   17.6195653   16.5880485
| 13>     C       16.6926084   18.8453949   16.2193325
| 14>     C       16.0606536   19.2271226   14.8981880
| 15>     N       16.8736785   19.9518627   17.0509120
| 16>     C       17.7023326   19.9635490   18.1420917
| 17>     S       17.9648560   21.3386361   19.0220929
| 18>     N       18.3231703   18.7780034   18.4515910
| 19>     C       18.0425348   17.4784764   17.8085809
| 20>     C       17.5869276   16.3770087   18.7531061
| 21>     C       18.1167811   15.0800601   18.6312574
| 22>     C       17.6858650   14.0501240   19.4839417
| 23>     C       16.7143579   14.3192837   20.4633469
| 24>     C       16.1793250   15.6094875   20.5813175
| 25>     O       15.2337108   15.8695217   21.5187884
| 26>     C       16.6090630   16.6328746   19.7302122
| 27>     H       12.7894596   16.6409048   14.9772948
| 28>     H       13.7374448   15.6227385   13.8743881
| 29>     H       14.0937668   17.3547452   14.0050515
| 30>     H       14.7612485   16.9744339   16.4346877
| 31>     H       14.4814666   15.2383755   16.2288611
| 32>     H       16.2480714   18.4831991   14.1143141
| 33>     H       16.4694129   20.1747716   14.5243810
| 34>     H       14.9761210   19.3487975   15.0033215
| 35>     H       16.4563960   20.8374926   16.8110217
| 36>     H       18.9278139   18.8118438   19.2629710
| 37>     H       19.0402892   17.2413115   17.4094028
| 38>     H       18.8595509   14.8687101   17.8643317
| 39>     H       18.1022092   13.0493722   19.3805399
| 40>     H       16.3780340   13.5260765   21.1229504
| 41>     H       15.1030354   15.0583475   22.0328989
| 42>     H       16.1805909   17.6242820   19.8352189
| 43> *
| 44>
| 45>                          ****END OF INPUT****

CARTESIAN COORDINATES (ANGSTROEM)
---------------------------------
  C     13.794036   16.467598   14.572447
  C     14.786410   16.155231   15.707216
  O     16.089411   15.964024   15.115791
  C     17.253968   16.528678   15.576203
  O     18.337856   16.088096   15.241899
  C     17.134542   17.619565   16.588048
  C     16.692608   18.845395   16.219333
  C     16.060654   19.227123   14.898188
  N     16.873679   19.951863   17.050912
  C     17.702333   19.963549   18.142092
  S     17.964856   21.338636   19.022093
  N     18.323170   18.778003   18.451591
  C     18.042535   17.478476   17.808581
  C     17.586928   16.377009   18.753106
  C     18.116781   15.080060   18.631257
  C     17.685865   14.050124   19.483942
  C     16.714358   14.319284   20.463347
  C     16.179325   15.609488   20.581318
  O     15.233711   15.869522   21.518788
  C     16.609063   16.632875   19.730212
  H     12.789460   16.640905   14.977295
  H     13.737445   15.622739   13.874388
  H     14.093767   17.354745   14.005052
  H     14.761249   16.974434   16.434688
  H     14.481467   15.238376   16.228861
  H     16.248071   18.483199   14.114314
  H     16.469413   20.174772   14.524381
  H     14.976121   19.348797   15.003321
  H     16.456396   20.837493   16.811022
  H     18.927814   18.811844   19.262971
  H     19.040289   17.241311   17.409403
  H     18.859551   14.868710   17.864332
  H     18.102209   13.049372   19.380540
  H     16.378034   13.526077   21.122950
  H     15.103035   15.058347   22.032899
  H     16.180591   17.624282   19.835219

 Total Charge           Charge          ....    0
 Multiplicity           Mult            ....    1
 Number of Electrons    NEL             ....  154
 Basis Dimension        Dim             ....  828

ORBITAL ENERGIES
----------------

  NO   OCC          E(Eh)            E(eV)
   0   2.0000     -91.889504     -2500.4405
   1   2.0000     -20.604916      -560.6883
   2   2.0000     -20.599421      -560.5388
   3   2.0000     -20.550575      -559.2096
   4   2.0000     -15.627229      -425.2385
   5   2.0000     -15.609550      -424.7575
   6   2.0000     -11.400380      -310.2201
   7   2.0000     -11.385524      -309.8159
   8   2.0000     -11.332163      -308.3638
   9   2.0000     -11.316760      -307.9447
  10   2.0000     -11.310549      -307.7757
  11   2.0000     -11.306914      -307.6768
  12   2.0000     -11.267737      -306.6107
  13   2.0000     -11.264667      -306.5272
  14   2.0000     -11.264043      -306.5102
  15   2.0000     -11.257149      -306.3226
  16   2.0000     -11.245795      -306.0136
  17   2.0000     -11.241972      -305.9096
  18   2.0000     -11.239580      -305.8445
  19   2.0000     -11.237966      -305.8006
  20   2.0000      -8.894615      -242.0348
  21   2.0000      -6.576198      -178.9475
  22   2.0000      -6.574183      -178.8926
  23   2.0000      -6.573603      -178.8768
  24   2.0000      -1.448591       -39.4182
  25   2.0000      -1.419107       -38.6159
  26   2.0000      -1.362321       -37.0706
  27   2.0000      -1.340648       -36.4809
  28   2.0000      -1.239152       -33.7190
  29   2.0000      -1.161245       -31.5991
  30   2.0000      -1.126778       -30.6612
  31   2.0000      -1.048700       -28.5366
  32   2.0000      -1.043793       -28.4031
  33   2.0000      -1.019012       -27.7287
  34   2.0000      -1.006122       -27.3780
  35   2.0000      -0.989872       -26.9358
  36   2.0000      -0.926439       -25.2097
  37   2.0000      -0.888505       -24.1775
  38   2.0000      -0.854369       -23.2486
  39   2.0000      -0.842614       -22.9287
  40   2.0000      -0.837557       -22.7911
  41   2.0000      -0.835817       -22.7437
  42   2.0000      -0.758674       -20.6446
  43   2.0000      -0.738937       -20.1075
  44   2.0000      -0.732584       -19.9346
  45   2.0000      -0.696933       -18.9645
  46   2.0000      -0.689707       -18.7679
  47   2.0000      -0.682260       -18.5652
  48   2.0000      -0.674130       -18.3440
  49   2.0000      -0.666766       -18.1436
  50   2.0000      -0.652751       -17.7623
  51   2.0000      -0.645275       -17.5588
  52   2.0000      -0.638646       -17.3784
  53   2.0000      -0.616034       -16.7631
  54   2.0000      -0.607548       -16.5322
  55   2.0000      -0.604599       -16.4520
  56   2.0000      -0.602298       -16.3894
  57   2.0000      -0.587258       -15.9801
  58   2.0000      -0.578201       -15.7337
  59   2.0000      -0.571047       -15.5390
  60   2.0000      -0.563316       -15.3286
  61   2.0000      -0.560431       -15.2501
  62   2.0000      -0.544138       -14.8067
  63   2.0000      -0.537681       -14.6310
  64   2.0000      -0.522350       -14.2139
  65   2.0000      -0.515353       -14.0235
  66   2.0000      -0.504260       -13.7216
  67   2.0000      -0.501174       -13.6376
  68   2.0000      -0.488310       -13.2876
  69   2.0000      -0.469397       -12.7729
  70   2.0000      -0.457257       -12.4426
  71   2.0000      -0.451426       -12.2839
  72   2.0000      -0.355913        -9.6849
  73   2.0000      -0.351542        -9.5660
  74   2.0000      -0.329043        -8.9537
  75   2.0000      -0.324423        -8.8280
  76   2.0000      -0.319378        -8.6907
  77   0.0000       0.086825         2.3626
  78   0.0000       0.104196         2.8353
  79   0.0000       0.116287         3.1643
  80   0.0000       0.128690         3.5018
  81   0.0000       0.130356         3.5472

MULLIKEN ATOMIC CHARGES
-----------------------
   0 C :   -0.271516
   1 C :    0.021924
   2 O :   -0.318520
   3 C :    0.414368
   4 O :   -0.382302
   5 C :   -0.213118
   6 C :    0.155024
   7 C :   -0.343613
   8 N :   -0.139908
   9 C :    0.209035
  10 S :   -0.443432
  11 N :   -0.222003
  12 C :    0.053695
  13 C :    0.031777
  14 C :   -0.223378
  15 C :   -0.127257
  16 C :   -0.277053
  17 C :    0.314762
  18 O :   -0.355967
  19 C :   -0.252506
  20 H :    0.094701
  21 H :    0.110637
  22 H :    0.091928
  23 H :    0.098228
  24 H :    0.124005
  25 H :    0.131855
  26 H :    0.138712
  27 H :    0.126843
  28 H :    0.198033
  29 H :    0.202565
  30 H :    0.168276
  31 H :    0.174423
  32 H :    0.164504
  33 H :    0.131309
  34 H :    0.241327
  35 H :    0.172641
Sum of atomic charges:   -0.0000000

LOEWDIN ATOMIC CHARGES
----------------------
   0 C :    0.105859
   1 C :   -0.014936
   2 O :    0.306824
   3 C :   -0.415181
   4 O :    0.120137
   5 C :   -0.084209
   6 C :   -0.093904
   7 C :    0.126041
   8 N :    0.402598
   9 C :   -0.456451
  10 S :   -0.038729
  11 N :    0.396212
  12 C :   -0.049940
  13 C :   -0.043812
  14 C :    0.019430
  15 C :    0.045064
  16 C :    0.000067
  17 C :   -0.190844
  18 O :    0.394932
  19 C :    0.027161
  20 H :   -0.024539
  21 H :   -0.023269
  22 H :   -0.032705
  23 H :   -0.039535
  24 H :   -0.024916
  25 H :   -0.008591
  26 H :   -0.009926
  27 H :   -0.016344
  28 H :   -0.057401
  29 H :   -0.063617
  30 H :   -0.003955
  31 H :   -0.021542
  32 H :   -0.018581
  33 H :   -0.034841
  34 H :   -0.153171
  35 H :   -0.023382

  Mayer bond orders larger than 0.100000
B(  0-C ,  1-C ) :   0.9693 B(  0-C , 20-H ) :   0.9746 B(  0-C , 21-H ) :   0.9782
B(  0-C , 22-H ) :   0.9784 B(  1-C ,  2-O ) :   0.9023 B(  1-C , 23-H ) :   0.9611
B(  1-C , 24-H ) :   0.9806 B(  2-O ,  3-C ) :   1.1850 B(  3-C ,  4-O ) :   2.0990
B(  3-C ,  5-C ) :   0.9249 B(  5-C ,  6-C ) :   1.7223 B(  5-C , 12-C ) :   0.9422
B(  6-C ,  7-C ) :   0.9320 B(  6-C ,  8-N ) :   1.1050 B(  7-C , 25-H ) :   0.9769
B(  7-C , 26-H ) :   0.9772 B(  7-C , 27-H ) :   0.9655 B(  8-N ,  9-C ) :   1.1975
B(  8-N , 28-H ) :   0.9511 B(  9-C , 10-S ) :   1.6097 B(  9-C , 11-N ) :   1.2909
B( 11-N , 12-C ) :   0.9842 B( 11-N , 29-H ) :   0.9473 B( 12-C , 13-C ) :   0.9701
B( 12-C , 30-H ) :   0.9893 B( 13-C , 14-C ) :   1.3828 B( 13-C , 19-C ) :   1.3542
B( 14-C , 15-C ) :   1.3944 B( 14-C , 31-H ) :   0.9606 B( 15-C , 16-C ) :   1.3622
B( 15-C , 32-H ) :   0.9695 B( 16-C , 17-C ) :   1.3306 B( 16-C , 33-H ) :   0.9851
B( 17-C , 18-O ) :   1.1086 B( 17-C , 19-C ) :   1.3668 B( 18-O , 34-H ) :   0.9793
B( 19-C , 35-H ) :   0.9563

MP2 TOTAL ENERGY:    -1274.329075133 Eh
FINAL SINGLE POINT ENERGY     -1274.329075133102

DIPOLE MOMENT
-------------
                                X             Y             Z
Electronic contribution:     11.10267       5.73326       9.76677
Nuclear contribution   :    -12.78859      -6.93630     -10.05013
                        -----------------------------------------
Total Dipole Moment    :     -1.68592      -1.20304      -0.28336
                        -----------------------------------------
Magnitude (a.u.)       :      2.09043
Magnitude (Debye)      :      5.31346

Rotational constants in cm-1:     0.010380     0.009177     0.006194
Rotational constants in MHz :   311.189936   275.134111   185.683800

                             ****ORCA TERMINATED NORMALLY****
TOTAL RUN TIME: 0 days 1 hours 48 minutes 54 seconds 711 msec
