                         Program Version 4.2.0 -  RELEASE  -
|  1> ! ri-mp2 cc-pvtz cc-pvtz/c TightSCF NoKeepInts
|  2>
|  3> %scf
|  4>   MaxCore 4096
|  5> end
|  6> *xyz  0  1
|  7>     C       14.4045237   16.4901062   16.0083542
|  8>     C       15.4264060   15.3315981   15.9808656
|  9>     O       16.6301129   15.6453010   15.2384449
| 10>     C       17.3666240   16.8047967   15.2449699
| 11>     O       18.1685904   17.0307253   14.3579400
| 12>     C       17.1405589   17.7764019   16.3555153
| 13>     C       16.8946466   19.0645220   16.0210482
| 14>     C       16.4464534   19.5518386   14.6598269
| 15>     N       17.0738543   20.1013644   16.9377591
| 16>     C       17.7402240   19.9621074   18.1260866
| 17>     S       18.0297795   21.2486396   19.1239350
| 18>     N       18.1797270   18.6982237   18.4355921
| 19>     C       17.8492161   17.4722589   17.6821000
| 20>     C       17.2309075   16.3783334   18.5354913
| 21>     C       17.8220416   15.1030188   18.5978389
| 22>     C       17.2464848   14.0894048   19.3823415
| 23>     C       16.0745775   14.3551491   20.1116820
| 24>     C       15.4892842   15.6276542   20.0569699
| 25>     O       14.3558724   15.8860134   20.7558045
| 26>     C       16.0635755   16.6346731   19.2749170
| 27>     H       14.6532526   17.2454559   16.7610530
| 28>     H       13.4122073   16.1007505   16.2670817
| 29>     H       14.3277591   16.9698658   15.0250782
| 30>     H       15.6648837   15.0279421   17.0045830
| 31>     H       14.9550441   14.4636675   15.5019004
| 32>     H       15.7919770   18.8219282   14.1684973
| 33>     H       17.3157349   19.7007200   14.0054145
| 34>     H       15.8961172   20.4986538   14.7148655
| 35>     H       16.8018171   21.0410188   16.6957827
| 36>     H       18.6617347   18.6240049   19.3228563
| 37>     H       18.8636710   17.1681519   17.3845983
| 38>     H       18.7254337   14.8938632   18.0296706
| 39>     H       17.7083630   13.1040013   19.4230459
| 40>     H       15.6268994   13.5745358   20.7184113
| 41>     H       14.1486975   15.0976751   21.2805119
| 42>     H       15.5999473   17.6156348   19.2471668
| 43> *
| 44>
| 45>                          ****END OF INPUT****

CARTESIAN COORDINATES (ANGSTROEM)
---------------------------------
  C     14.404524   16.490106   16.008354
  C     15.426406   15.331598   15.980866
  O     16.630113   15.645301   15.238445
  C     17.366624   16.804797   15.244970
  O     18.168590   17.030725   14.357940
  C     17.140559   17.776402   16.355515
  C     16.894647   19.064522   16.021048
  C     16.446453   19.551839   14.659827
  N     17.073854   20.101364   16.937759
  C     17.740224   19.962107   18.126087
  S     18.029780   21.248640   19.123935
  N     18.179727   18.698224   18.435592
  C     17.849216   17.472259   17.682100
  C     17.230908   16.378333   18.535491
  C     17.822042   15.103019   18.597839
  C     17.246485   14.089405   19.382341
  C     16.074578   14.355149   20.111682
  C     15.489284   15.627654   20.056970
  O     14.355872   15.886013   20.755804
  C     16.063575   16.634673   19.274917
  H     14.653253   17.245456   16.761053
  H     13.412207   16.100751   16.267082
  H     14.327759   16.969866   15.025078
  H     15.664884   15.027942   17.004583
  H     14.955044   14.463667   15.501900
  H     15.791977   18.821928   14.168497
  H     17.315735   19.700720   14.005415
  H     15.896117   20.498654   14.714866
  H     16.801817   21.041019   16.695783
  H     18.661735   18.624005   19.322856
  H     18.863671   17.168152   17.384598
  H     18.725434   14.893863   18.029671
  H     17.708363   13.104001   19.423046
  H     15.626899   13.574536   20.718411
  H     14.148698   15.097675   21.280512
  H     15.599947   17.615635   19.247167

 Total Charge           Charge          ....    0
 Multiplicity           Mult            ....    1
 Number of Electrons    NEL             ....  154
 Basis Dimension        Dim             ....  828

ORBITAL ENERGIES
----------------

  NO   OCC          E(Eh)            E(eV)
   0   2.0000     -91.889547     -2500.4417
   1   2.0000     -20.606658      -560.7357
   2   2.0000     -20.595127      -560.4219
   3   2.0000     -20.548974      -559.1660
   4   2.0000     -15.625863      -425.2014
   5   2.0000     -15.610664      -424.7878
   6   2.0000     -11.396984      -310.1277
   7   2.0000     -11.384925      -309.7995
   8   2.0000     -11.326247      -308.2028
   9   2.0000     -11.325384      -308.1794
  10   2.0000     -11.316860      -307.9474
  11   2.0000     -11.301860      -307.5392
  12   2.0000     -11.271547      -306.7144
  13   2.0000     -11.266315      -306.5720
  14   2.0000     -11.256358      -306.3011
  15   2.0000     -11.255560      -306.2794
  16   2.0000     -11.255330      -306.2731
  17   2.0000     -11.249896      -306.1252
  18   2.0000     -11.249729      -306.1207
  19   2.0000     -11.232771      -305.6592
  20   2.0000      -8.894632      -242.0352
  21   2.0000      -6.576209      -178.9477
  22   2.0000      -6.574204      -178.8932
  23   2.0000      -6.573619      -178.8773
  24   2.0000      -1.441518       -39.2257
  25   2.0000      -1.426417       -38.8148
  26   2.0000      -1.355955       -36.8974
  27   2.0000      -1.339431       -36.4478
  28   2.0000      -1.239563       -33.7302
  29   2.0000      -1.168544       -31.7977
  30   2.0000      -1.125293       -30.6208
  31   2.0000      -1.052441       -28.6384
  32   2.0000      -1.034931       -28.1619
  33   2.0000      -1.026518       -27.9330
  34   2.0000      -1.004147       -27.3242
  35   2.0000      -0.989734       -26.9320
  36   2.0000      -0.927649       -25.2426
  37   2.0000      -0.898367       -24.4458
  38   2.0000      -0.851363       -23.1668
  39   2.0000      -0.845502       -23.0073
  40   2.0000      -0.844785       -22.9878
  41   2.0000      -0.829005       -22.5584
  42   2.0000      -0.751300       -20.4439
  43   2.0000      -0.740792       -20.1580
  44   2.0000      -0.720672       -19.6105
  45   2.0000      -0.705318       -19.1927
  46   2.0000      -0.692581       -18.8461
  47   2.0000      -0.678318       -18.4580
  48   2.0000      -0.676426       -18.4065
  49   2.0000      -0.662651       -18.0316
  50   2.0000      -0.651825       -17.7370
  51   2.0000      -0.649751       -17.6806
  52   2.0000      -0.638034       -17.3618
  53   2.0000      -0.618372       -16.8267
  54   2.0000      -0.614625       -16.7248
  55   2.0000      -0.608647       -16.5621
  56   2.0000      -0.604445       -16.4478
  57   2.0000      -0.585422       -15.9301
  58   2.0000      -0.578036       -15.7292
  59   2.0000      -0.567584       -15.4447
  60   2.0000      -0.566389       -15.4122
  61   2.0000      -0.551518       -15.0076
  62   2.0000      -0.539420       -14.6784
  63   2.0000      -0.535416       -14.5694
  64   2.0000      -0.529207       -14.4004
  65   2.0000      -0.517254       -14.0752
  66   2.0000      -0.505624       -13.7587
  67   2.0000      -0.502000       -13.6601
  68   2.0000      -0.488897       -13.3036
  69   2.0000      -0.464565       -12.6415
  70   2.0000      -0.452320       -12.3082
  71   2.0000      -0.445946       -12.1348
  72   2.0000      -0.360276        -9.8036
  73   2.0000      -0.350651        -9.5417
  74   2.0000      -0.334381        -9.0990
  75   2.0000      -0.328429        -8.9370
  76   2.0000      -0.318578        -8.6690
  77   0.0000       0.084237         2.2922
  78   0.0000       0.095074         2.5871
  79   0.0000       0.119919         3.2632
  80   0.0000       0.126829         3.4512
  81   0.0000       0.128539         3.4977

MULLIKEN ATOMIC CHARGES
-----------------------
   0 C :   -0.328897
   1 C :    0.035884
   2 O :   -0.319887
   3 C :    0.407518
   4 O :   -0.376097
   5 C :   -0.239998
   6 C :    0.156592
   7 C :   -0.289179
   8 N :   -0.131809
   9 C :    0.211219
  10 S :   -0.441904
  11 N :   -0.212833
  12 C :    0.046902
  13 C :   -0.001663
  14 C :   -0.184495
  15 C :   -0.130823
  16 C :   -0.272465
  17 C :    0.313163
  18 O :   -0.354607
  19 C :   -0.251867
  20 H :    0.113321
  21 H :    0.118004
  22 H :    0.105111
  23 H :    0.099066
  24 H :    0.125942
  25 H :    0.114608
  26 H :    0.147761
  27 H :    0.098584
  28 H :    0.197534
  29 H :    0.199983
  30 H :    0.163282
  31 H :    0.158527
  32 H :    0.165389
  33 H :    0.135819
  34 H :    0.242363
  35 H :    0.179952
Sum of atomic charges:   -0.0000000

LOEWDIN ATOMIC CHARGES
----------------------
   0 C :    0.101678
   1 C :   -0.012740
   2 O :    0.296942
   3 C :   -0.418839
   4 O :    0.125402
   5 C :   -0.089748
   6 C :   -0.082894
   7 C :    0.129276
   8 N :    0.404916
   9 C :   -0.455178
  10 S :   -0.037163
  11 N :    0.395624
  12 C :   -0.055976
  13 C :   -0.046428
  14 C :    0.017840
  15 C :    0.044610
  16 C :    0.002343
  17 C :   -0.191396
  18 O :    0.397742
  19 C :    0.033878
  20 H :   -0.036377
  21 H :   -0.022677
  22 H :   -0.030212
  23 H :   -0.034421
  24 H :   -0.020906
  25 H :   -0.012085
  26 H :   -0.003084
  27 H :   -0.020365
  28 H :   -0.057960
  29 H :   -0.064139
  30 H :   -0.008447
  31 H :   -0.025471
  32 H :   -0.017857
  33 H :   -0.032806
  34 H :   -0.151804
  35 H :   -0.021280

  Mayer bond orders larger than 0.100000
B(  0-C ,  1-C ) :   0.9553 B(  0-C , 20-H ) :   0.9696 B(  0-C , 21-H ) :   0.9770
B(  0-C , 22-H ) :   0.9760 B(  1-C ,  2-O ) :   0.9058 B(  1-C , 23-H ) :   0.9671
B(  1-C , 24-H ) :   0.9843 B(  2-O ,  3-C ) :   1.1961 B(  3-C ,  4-O ) :   2.1176
B(  3-C ,  5-C ) :   0.9211 B(  5-C ,  6-C ) :   1.7071 B(  5-C , 12-C ) :   0.9489
B(  6-C ,  7-C ) :   0.9419 B(  6-C ,  8-N ) :   1.1230 B(  7-C , 25-H ) :   0.9770
B(  7-C , 26-H ) :   0.9579 B(  7-C , 27-H ) :   0.9842 B(  8-N ,  9-C ) :   1.2001
B(  8-N , 28-H ) :   0.9497 B(  9-C , 10-S ) :   1.6117 B(  9-C , 11-N ) :   1.2858
B( 11-N , 12-C ) :   0.9801 B( 11-N , 29-H ) :   0.9475 B( 12-C , 13-C ) :   0.9508
B( 12-C , 30-H ) :   1.0036 B( 13-C , 14-C ) :   1.3686 B( 13-C , 19-C ) :   1.3556
B( 14-C , 15-C ) :   1.3966 B( 14-C , 31-H ) :   0.9697 B( 15-C , 16-C ) :   1.3633
B( 15-C , 32-H ) :   0.9697 B( 16-C , 17-C ) :   1.3280 B( 16-C , 33-H ) :   0.9832
B( 17-C , 18-O ) :   1.1127 B( 17-C , 19-C ) :   1.3619 B( 18-O , 34-H ) :   0.9783
B( 19-C , 35-H ) :   0.9539

MP2 TOTAL ENERGY:    -1274.319569363 Eh
FINAL SINGLE POINT ENERGY     -1274.319569362848

DIPOLE MOMENT
-------------
                                X             Y             Z
Electronic contribution:      8.93149       6.58063       6.14872
Nuclear contribution   :    -10.43722      -8.33459      -5.84111
                        -----------------------------------------
Total Dipole Moment    :     -1.50573      -1.75396       0.30761
                        -----------------------------------------
Magnitude (a.u.)       :      2.33200
Magnitude (Debye)      :      5.92748

Rotational constants in cm-1:     0.012340     0.009026     0.006458
Rotational constants in MHz :   369.933692   270.584059   193.609579

                             ****ORCA TERMINATED NORMALLY****
TOTAL RUN TIME: 0 days 1 hours 48 minutes 49 seconds 86 msec
