                         Program Version 4.2.0 -  RELEASE  -
|  1> ! ri-mp2 cc-pvtz cc-pvtz/c TightSCF NoKeepInts
|  2>
|  3> %scf
|  4>   MaxCore 4096
|  5> end
|  6> *xyz  0  1
|  7>     C       14.4696734   16.5489087   16.1981691
|  8>     C       15.0984305   15.9579752   14.9166188
|  9>     O       16.5369114   15.7612173   14.9437681
| 10>     C       17.5594669   16.4898826   15.5087526
| 11>     O       18.7157968   16.1540287   15.3331134
| 12>     C       17.2285588   17.5764399   16.4693723
| 13>     C       16.8779123   18.7879294   15.9762596
| 14>     C       16.4919773   19.1034112   14.5443315
| 15>     N       16.9052235   19.9266836   16.7830910
| 16>     C       17.5263152   19.9841983   18.0032065
| 17>     S       17.6343200   21.3942451   18.8603177
| 18>     N       18.0789804   18.8140320   18.4642914
| 19>     C       17.9024742   17.4875714   17.8387084
| 20>     C       17.2998993   16.4180553   18.7367412
| 21>     C       17.7870005   15.0998529   18.6829619
| 22>     C       17.2246567   14.0974569   19.4906462
| 23>     C       16.1643347   14.4158643   20.3564949
| 24>     C       15.6732081   15.7277080   20.4074419
| 25>     O       14.6426262   16.0352348   21.2344524
| 26>     C       16.2345994   16.7239595   19.6021616
| 27>     H       14.9115491   16.0996033   17.0958464
| 28>     H       13.3969378   16.3207982   16.2177031
| 29>     H       14.5561896   17.6374527   16.2519519
| 30>     H       14.6316991   14.9845359   14.7166903
| 31>     H       14.8405782   16.6105411   14.0727560
| 32>     H       16.8944060   18.3724715   13.8321121
| 33>     H       16.8831458   20.0806929   14.2334754
| 34>     H       15.4023086   19.1259450   14.4254242
| 35>     H       16.5403745   20.8003468   16.4376615
| 36>     H       18.5333152   18.8824158   19.3663980
| 37>     H       18.9540525   17.2401105   17.6290565
| 38>     H       18.6005486   14.8509864   18.0041918
| 39>     H       17.6089838   13.0800102   19.4403268
| 40>     H       15.7261340   13.6440501   20.9806473
| 41>     H       14.4193894   15.2337428   21.7314226
| 42>     H       15.8350223   17.7316419   19.6514355
| 43> *
| 44>
| 45>                          ****END OF INPUT****

CARTESIAN COORDINATES (ANGSTROEM)
---------------------------------
  C     14.469673   16.548909   16.198169
  C     15.098430   15.957975   14.916619
  O     16.536911   15.761217   14.943768
  C     17.559467   16.489883   15.508753
  O     18.715797   16.154029   15.333113
  C     17.228559   17.576440   16.469372
  C     16.877912   18.787929   15.976260
  C     16.491977   19.103411   14.544332
  N     16.905224   19.926684   16.783091
  C     17.526315   19.984198   18.003207
  S     17.634320   21.394245   18.860318
  N     18.078980   18.814032   18.464291
  C     17.902474   17.487571   17.838708
  C     17.299899   16.418055   18.736741
  C     17.787000   15.099853   18.682962
  C     17.224657   14.097457   19.490646
  C     16.164335   14.415864   20.356495
  C     15.673208   15.727708   20.407442
  O     14.642626   16.035235   21.234452
  C     16.234599   16.723959   19.602162
  H     14.911549   16.099603   17.095846
  H     13.396938   16.320798   16.217703
  H     14.556190   17.637453   16.251952
  H     14.631699   14.984536   14.716690
  H     14.840578   16.610541   14.072756
  H     16.894406   18.372471   13.832112
  H     16.883146   20.080693   14.233475
  H     15.402309   19.125945   14.425424
  H     16.540374   20.800347   16.437662
  H     18.533315   18.882416   19.366398
  H     18.954052   17.240110   17.629057
  H     18.600549   14.850986   18.004192
  H     17.608984   13.080010   19.440327
  H     15.726134   13.644050   20.980647
  H     14.419389   15.233743   21.731423
  H     15.835022   17.731642   19.651435

 Total Charge           Charge          ....    0
 Multiplicity           Mult            ....    1
 Number of Electrons    NEL             ....  154
 Basis Dimension        Dim             ....  828

ORBITAL ENERGIES
----------------

  NO   OCC          E(Eh)            E(eV)
   0   2.0000     -91.888931     -2500.4249
   1   2.0000     -20.600209      -560.5602
   2   2.0000     -20.599801      -560.5491
   3   2.0000     -20.549154      -559.1709
   4   2.0000     -15.626178      -425.2099
   5   2.0000     -15.609284      -424.7502
   6   2.0000     -11.401405      -310.2480
   7   2.0000     -11.384933      -309.7998
   8   2.0000     -11.328260      -308.2576
   9   2.0000     -11.317366      -307.9612
  10   2.0000     -11.314131      -307.8732
  11   2.0000     -11.310950      -307.7866
  12   2.0000     -11.268337      -306.6270
  13   2.0000     -11.265371      -306.5463
  14   2.0000     -11.261373      -306.4375
  15   2.0000     -11.258098      -306.3484
  16   2.0000     -11.246247      -306.0259
  17   2.0000     -11.241935      -305.9086
  18   2.0000     -11.240182      -305.8609
  19   2.0000     -11.235557      -305.7351
  20   2.0000      -8.894041      -242.0192
  21   2.0000      -6.575626      -178.9319
  22   2.0000      -6.573611      -178.8770
  23   2.0000      -6.573032      -178.8613
  24   2.0000      -1.443212       -39.2718
  25   2.0000      -1.419522       -38.6272
  26   2.0000      -1.357591       -36.9419
  27   2.0000      -1.339467       -36.4488
  28   2.0000      -1.238331       -33.6967
  29   2.0000      -1.161607       -31.6089
  30   2.0000      -1.126410       -30.6512
  31   2.0000      -1.048788       -28.5390
  32   2.0000      -1.041412       -28.3383
  33   2.0000      -1.019695       -27.7473
  34   2.0000      -1.006399       -27.3855
  35   2.0000      -0.990424       -26.9508
  36   2.0000      -0.926940       -25.2233
  37   2.0000      -0.902286       -24.5525
  38   2.0000      -0.852584       -23.2000
  39   2.0000      -0.841543       -22.8995
  40   2.0000      -0.836998       -22.7759
  41   2.0000      -0.828591       -22.5471
  42   2.0000      -0.746344       -20.3091
  43   2.0000      -0.736376       -20.0378
  44   2.0000      -0.732054       -19.9202
  45   2.0000      -0.696900       -18.9636
  46   2.0000      -0.688156       -18.7257
  47   2.0000      -0.677052       -18.4235
  48   2.0000      -0.673644       -18.3308
  49   2.0000      -0.664328       -18.0773
  50   2.0000      -0.657811       -17.8999
  51   2.0000      -0.650966       -17.7137
  52   2.0000      -0.639506       -17.4019
  53   2.0000      -0.615062       -16.7367
  54   2.0000      -0.609281       -16.5794
  55   2.0000      -0.604544       -16.4505
  56   2.0000      -0.601915       -16.3790
  57   2.0000      -0.591851       -16.1051
  58   2.0000      -0.578426       -15.7398
  59   2.0000      -0.576409       -15.6849
  60   2.0000      -0.563788       -15.3415
  61   2.0000      -0.558727       -15.2037
  62   2.0000      -0.543994       -14.8028
  63   2.0000      -0.530660       -14.4400
  64   2.0000      -0.519025       -14.1234
  65   2.0000      -0.513558       -13.9746
  66   2.0000      -0.503484       -13.7005
  67   2.0000      -0.501665       -13.6510
  68   2.0000      -0.487223       -13.2580
  69   2.0000      -0.463768       -12.6198
  70   2.0000      -0.453574       -12.3424
  71   2.0000      -0.452726       -12.3193
  72   2.0000      -0.354402        -9.6438
  73   2.0000      -0.349987        -9.5236
  74   2.0000      -0.328550        -8.9403
  75   2.0000      -0.325247        -8.8504
  76   2.0000      -0.318479        -8.6663
  77   0.0000       0.089585         2.4377
  78   0.0000       0.105817         2.8794
  79   0.0000       0.114066         3.1039
  80   0.0000       0.126476         3.4416
  81   0.0000       0.129921         3.5353

MULLIKEN ATOMIC CHARGES
-----------------------
   0 C :   -0.332921
   1 C :    0.044597
   2 O :   -0.330678
   3 C :    0.426382
   4 O :   -0.382562
   5 C :   -0.195931
   6 C :    0.135657
   7 C :   -0.333008
   8 N :   -0.144459
   9 C :    0.211471
  10 S :   -0.444602
  11 N :   -0.230231
  12 C :    0.071428
  13 C :    0.015893
  14 C :   -0.221097
  15 C :   -0.130941
  16 C :   -0.276645
  17 C :    0.322727
  18 O :   -0.356192
  19 C :   -0.262774
  20 H :    0.128184
  21 H :    0.118847
  22 H :    0.105657
  23 H :    0.128401
  24 H :    0.084756
  25 H :    0.131382
  26 H :    0.130997
  27 H :    0.122159
  28 H :    0.198025
  29 H :    0.204717
  30 H :    0.170861
  31 H :    0.175319
  32 H :    0.164518
  33 H :    0.132433
  34 H :    0.241266
  35 H :    0.176365
Sum of atomic charges:   -0.0000000

LOEWDIN ATOMIC CHARGES
----------------------
   0 C :    0.101959
   1 C :   -0.013161
   2 O :    0.295321
   3 C :   -0.418000
   4 O :    0.120561
   5 C :   -0.078758
   6 C :   -0.095623
   7 C :    0.126663
   8 N :    0.402178
   9 C :   -0.455787
  10 S :   -0.039591
  11 N :    0.396723
  12 C :   -0.048641
  13 C :   -0.044032
  14 C :    0.018632
  15 C :    0.045696
  16 C :   -0.000354
  17 C :   -0.191358
  18 O :    0.395862
  19 C :    0.028006
  20 H :   -0.022148
  21 H :   -0.023139
  22 H :   -0.035328
  23 H :   -0.017387
  24 H :   -0.035427
  25 H :   -0.007188
  26 H :   -0.010632
  27 H :   -0.018481
  28 H :   -0.058399
  29 H :   -0.063922
  30 H :   -0.003264
  31 H :   -0.021377
  32 H :   -0.018264
  33 H :   -0.034759
  34 H :   -0.153181
  35 H :   -0.023400

  Mayer bond orders larger than 0.100000
B(  0-C ,  1-C ) :   0.9532 B(  0-C , 20-H ) :   0.9651 B(  0-C , 21-H ) :   0.9790
B(  0-C , 22-H ) :   0.9754 B(  1-C ,  2-O ) :   0.9101 B(  1-C , 23-H ) :   0.9797
B(  1-C , 24-H ) :   0.9757 B(  2-O ,  3-C ) :   1.1660 B(  3-C ,  4-O ) :   2.0920
B(  3-C ,  5-C ) :   0.9223 B(  5-C ,  6-C ) :   1.7315 B(  5-C , 12-C ) :   0.9345
B(  6-C ,  7-C ) :   0.9375 B(  6-C ,  8-N ) :   1.0897 B(  7-C , 25-H ) :   0.9754
B(  7-C , 26-H ) :   0.9789 B(  7-C , 27-H ) :   0.9652 B(  8-N ,  9-C ) :   1.2015
B(  8-N , 28-H ) :   0.9506 B(  9-C , 10-S ) :   1.6067 B(  9-C , 11-N ) :   1.2895
B( 11-N , 12-C ) :   0.9742 B( 11-N , 29-H ) :   0.9464 B( 12-C , 13-C ) :   0.9674
B( 12-C , 30-H ) :   0.9880 B( 13-C , 14-C ) :   1.3847 B( 13-C , 19-C ) :   1.3482
B( 14-C , 15-C ) :   1.3992 B( 14-C , 31-H ) :   0.9600 B( 15-C , 16-C ) :   1.3609
B( 15-C , 32-H ) :   0.9696 B( 16-C , 17-C ) :   1.3318 B( 16-C , 33-H ) :   0.9846
B( 17-C , 18-O ) :   1.1097 B( 17-C , 19-C ) :   1.3610 B( 18-O , 34-H ) :   0.9793
B( 19-C , 35-H ) :   0.9569

MP2 TOTAL ENERGY:    -1274.317766084 Eh
FINAL SINGLE POINT ENERGY     -1274.317766084453

DIPOLE MOMENT
-------------
                                X             Y             Z
Electronic contribution:      9.03572       5.91654       7.41281
Nuclear contribution   :    -10.76287      -7.24254      -7.97117
                        -----------------------------------------
Total Dipole Moment    :     -1.72715      -1.32601      -0.55836
                        -----------------------------------------
Magnitude (a.u.)       :      2.24791
Magnitude (Debye)      :      5.71373

Rotational constants in cm-1:     0.011453     0.009232     0.006473
Rotational constants in MHz :   343.351425   276.771881   194.056493

                             ****ORCA TERMINATED NORMALLY****
TOTAL RUN TIME: 0 days 2 hours 2 minutes 47 seconds 557 msec
