                         Program Version 4.2.0 -  RELEASE  -
|  1> ! ri-mp2 cc-pvtz cc-pvtz/c TightSCF NoKeepInts
|  2>
|  3> %scf
|  4>   MaxCore 4096
|  5> end
|  6> *xyz  0  1
|  7>     C       14.0857173   15.3933800   15.3526217
|  8>     C       15.3165354   15.6740439   16.2301078
|  9>     O       16.4290850   15.8922332   15.3393878
| 10>     C       17.1029245   17.0807585   15.2365519
| 11>     O       17.6854173   17.3788637   14.2105025
| 12>     C       17.0734463   17.9830014   16.4303382
| 13>     C       16.8645525   19.3041077   16.2228776
| 14>     C       16.2647548   19.9184977   14.9763449
| 15>     N       17.2111240   20.2546990   17.1841045
| 16>     C       17.9991845   19.9883829   18.2720256
| 17>     S       18.4781131   21.1757300   19.3185900
| 18>     N       18.3923687   18.6828343   18.4373091
| 19>     C       17.9063665   17.5375911   17.6422786
| 20>     C       17.3238628   16.4162242   18.4876981
| 21>     C       17.8418631   15.1112882   18.3966741
| 22>     C       17.2989183   14.0737789   19.1730386
| 23>     C       16.2334981   14.3448735   20.0488384
| 24>     C       15.7216027   15.6460086   20.1467640
| 25>     O       14.6904857   15.9100959   20.9873776
| 26>     C       16.2626954   16.6767620   19.3717586
| 27>     H       13.8620877   16.2546018   14.7107779
| 28>     H       13.2062790   15.1904701   15.9758213
| 29>     H       14.2606785   14.5207851   14.7106304
| 30>     H       15.1036374   16.5384672   16.8698295
| 31>     H       15.5130218   14.8038100   16.8694974
| 32>     H       15.5000521   19.2642681   14.5394775
| 33>     H       17.0409199   20.0666609   14.2136540
| 34>     H       15.7916120   20.8880582   15.1724389
| 35>     H       16.9687424   21.2230254   17.0454325
| 36>     H       18.9656371   18.5152894   19.2549692
| 37>     H       18.8613284   17.2050532   17.2093224
| 38>     H       18.6617410   14.8979405   17.7147923
| 39>     H       17.7034946   13.0657297   19.0940926
| 40>     H       15.8112514   13.5458736   20.6499028
| 41>     H       14.4971821   15.0974116   21.4793175
| 42>     H       15.8568183   17.6794003   19.4628543
| 43> *
| 44>
| 45>                          ****END OF INPUT****

CARTESIAN COORDINATES (ANGSTROEM)
---------------------------------
  C     14.085717   15.393380   15.352622
  C     15.316535   15.674044   16.230108
  O     16.429085   15.892233   15.339388
  C     17.102925   17.080759   15.236552
  O     17.685417   17.378864   14.210502
  C     17.073446   17.983001   16.430338
  C     16.864552   19.304108   16.222878
  C     16.264755   19.918498   14.976345
  N     17.211124   20.254699   17.184105
  C     17.999184   19.988383   18.272026
  S     18.478113   21.175730   19.318590
  N     18.392369   18.682834   18.437309
  C     17.906367   17.537591   17.642279
  C     17.323863   16.416224   18.487698
  C     17.841863   15.111288   18.396674
  C     17.298918   14.073779   19.173039
  C     16.233498   14.344873   20.048838
  C     15.721603   15.646009   20.146764
  O     14.690486   15.910096   20.987378
  C     16.262695   16.676762   19.371759
  H     13.862088   16.254602   14.710778
  H     13.206279   15.190470   15.975821
  H     14.260678   14.520785   14.710630
  H     15.103637   16.538467   16.869830
  H     15.513022   14.803810   16.869497
  H     15.500052   19.264268   14.539478
  H     17.040920   20.066661   14.213654
  H     15.791612   20.888058   15.172439
  H     16.968742   21.223025   17.045433
  H     18.965637   18.515289   19.254969
  H     18.861328   17.205053   17.209322
  H     18.661741   14.897940   17.714792
  H     17.703495   13.065730   19.094093
  H     15.811251   13.545874   20.649903
  H     14.497182   15.097412   21.479318
  H     15.856818   17.679400   19.462854

 Total Charge           Charge          ....    0
 Multiplicity           Mult            ....    1
 Number of Electrons    NEL             ....  154
 Basis Dimension        Dim             ....  828

ORBITAL ENERGIES
----------------

  NO   OCC          E(Eh)            E(eV)
   0   2.0000     -91.890566     -2500.4694
   1   2.0000     -20.605690      -560.7093
   2   2.0000     -20.598120      -560.5033
   3   2.0000     -20.548531      -559.1540
   4   2.0000     -15.627662      -425.2503
   5   2.0000     -15.611266      -424.8041
   6   2.0000     -11.395559      -310.0889
   7   2.0000     -11.385896      -309.8260
   8   2.0000     -11.330274      -308.3124
   9   2.0000     -11.324162      -308.1461
  10   2.0000     -11.317272      -307.9586
  11   2.0000     -11.297253      -307.4139
  12   2.0000     -11.270438      -306.6842
  13   2.0000     -11.265092      -306.5387
  14   2.0000     -11.257628      -306.3356
  15   2.0000     -11.256559      -306.3065
  16   2.0000     -11.254306      -306.2452
  17   2.0000     -11.248827      -306.0961
  18   2.0000     -11.248446      -306.0858
  19   2.0000     -11.228591      -305.5455
  20   2.0000      -8.895638      -242.0626
  21   2.0000      -6.577210      -178.9750
  22   2.0000      -6.575209      -178.9205
  23   2.0000      -6.574619      -178.9045
  24   2.0000      -1.445707       -39.3397
  25   2.0000      -1.425472       -38.7891
  26   2.0000      -1.358779       -36.9742
  27   2.0000      -1.340723       -36.4829
  28   2.0000      -1.240548       -33.7570
  29   2.0000      -1.167364       -31.7656
  30   2.0000      -1.125468       -30.6255
  31   2.0000      -1.051786       -28.6206
  32   2.0000      -1.035615       -28.1805
  33   2.0000      -1.025493       -27.9051
  34   2.0000      -1.003403       -27.3040
  35   2.0000      -0.989559       -26.9273
  36   2.0000      -0.927658       -25.2429
  37   2.0000      -0.882155       -24.0047
  38   2.0000      -0.852844       -23.2071
  39   2.0000      -0.844998       -22.9936
  40   2.0000      -0.844375       -22.9766
  41   2.0000      -0.837028       -22.7767
  42   2.0000      -0.759490       -20.6668
  43   2.0000      -0.740325       -20.1453
  44   2.0000      -0.723603       -19.6902
  45   2.0000      -0.704379       -19.1671
  46   2.0000      -0.693623       -18.8744
  47   2.0000      -0.677196       -18.4274
  48   2.0000      -0.676124       -18.3983
  49   2.0000      -0.670851       -18.2548
  50   2.0000      -0.651038       -17.7157
  51   2.0000      -0.647141       -17.6096
  52   2.0000      -0.636004       -17.3066
  53   2.0000      -0.615262       -16.7421
  54   2.0000      -0.609603       -16.5882
  55   2.0000      -0.604439       -16.4476
  56   2.0000      -0.595857       -16.2141
  57   2.0000      -0.584529       -15.9059
  58   2.0000      -0.577605       -15.7174
  59   2.0000      -0.569504       -15.4970
  60   2.0000      -0.560460       -15.2509
  61   2.0000      -0.554756       -15.0957
  62   2.0000      -0.547618       -14.9014
  63   2.0000      -0.531078       -14.4514
  64   2.0000      -0.525613       -14.3027
  65   2.0000      -0.517714       -14.0877
  66   2.0000      -0.505759       -13.7624
  67   2.0000      -0.502812       -13.6822
  68   2.0000      -0.488856       -13.3024
  69   2.0000      -0.468532       -12.7494
  70   2.0000      -0.453655       -12.3446
  71   2.0000      -0.446694       -12.1552
  72   2.0000      -0.359446        -9.7810
  73   2.0000      -0.352010        -9.5787
  74   2.0000      -0.333098        -9.0641
  75   2.0000      -0.329181        -8.9575
  76   2.0000      -0.320371        -8.7177
  77   0.0000       0.082595         2.2475
  78   0.0000       0.093294         2.5387
  79   0.0000       0.118151         3.2150
  80   0.0000       0.125610         3.4180
  81   0.0000       0.128811         3.5051

MULLIKEN ATOMIC CHARGES
-----------------------
   0 C :   -0.254882
   1 C :    0.016196
   2 O :   -0.313381
   3 C :    0.398816
   4 O :   -0.376578
   5 C :   -0.234090
   6 C :    0.156307
   7 C :   -0.279665
   8 N :   -0.132510
   9 C :    0.211559
  10 S :   -0.439748
  11 N :   -0.211571
  12 C :    0.032178
  13 C :   -0.006418
  14 C :   -0.180472
  15 C :   -0.144968
  16 C :   -0.268361
  17 C :    0.303688
  18 O :   -0.353918
  19 C :   -0.213473
  20 H :    0.089663
  21 H :    0.089714
  22 H :    0.104323
  23 H :    0.099339
  24 H :    0.114688
  25 H :    0.115197
  26 H :    0.143964
  27 H :    0.098123
  28 H :    0.198508
  29 H :    0.200135
  30 H :    0.161280
  31 H :    0.155663
  32 H :    0.166618
  33 H :    0.136079
  34 H :    0.242074
  35 H :    0.175924
Sum of atomic charges:    0.0000000

LOEWDIN ATOMIC CHARGES
----------------------
   0 C :    0.106265
   1 C :   -0.024169
   2 O :    0.310248
   3 C :   -0.421722
   4 O :    0.122840
   5 C :   -0.099115
   6 C :   -0.079616
   7 C :    0.129464
   8 N :    0.405171
   9 C :   -0.455093
  10 S :   -0.035250
  11 N :    0.395312
  12 C :   -0.054709
  13 C :   -0.044190
  14 C :    0.019414
  15 C :    0.043258
  16 C :    0.001845
  17 C :   -0.191559
  18 O :    0.397197
  19 C :    0.034604
  20 H :   -0.029536
  21 H :   -0.026648
  22 H :   -0.024455
  23 H :   -0.038765
  24 H :   -0.025591
  25 H :   -0.009589
  26 H :   -0.003426
  27 H :   -0.020889
  28 H :   -0.057379
  29 H :   -0.063802
  30 H :   -0.009655
  31 H :   -0.025906
  32 H :   -0.018345
  33 H :   -0.033101
  34 H :   -0.151939
  35 H :   -0.021167

  Mayer bond orders larger than 0.100000
B(  0-C ,  1-C ) :   0.9801 B(  0-C , 20-H ) :   0.9782 B(  0-C , 21-H ) :   0.9774
B(  0-C , 22-H ) :   0.9805 B(  1-C ,  2-O ) :   0.8859 B(  1-C , 23-H ) :   0.9566
B(  1-C , 24-H ) :   0.9744 B(  2-O ,  3-C ) :   1.1965 B(  3-C ,  4-O ) :   2.1188
B(  3-C ,  5-C ) :   0.9333 B(  5-C ,  6-C ) :   1.6925 B(  5-C , 12-C ) :   0.9554
B(  6-C ,  7-C ) :   0.9464 B(  6-C ,  8-N ) :   1.1310 B(  7-C , 25-H ) :   0.9762
B(  7-C , 26-H ) :   0.9562 B(  7-C , 27-H ) :   0.9848 B(  8-N ,  9-C ) :   1.1968
B(  8-N , 28-H ) :   0.9489 B(  9-C , 10-S ) :   1.6133 B(  9-C , 11-N ) :   1.2892
B( 11-N , 12-C ) :   0.9806 B( 11-N , 29-H ) :   0.9471 B( 12-C , 13-C ) :   0.9619
B( 12-C , 30-H ) :   1.0066 B( 13-C , 14-C ) :   1.3666 B( 13-C , 19-C ) :   1.3493
B( 14-C , 15-C ) :   1.3968 B( 14-C , 31-H ) :   0.9722 B( 15-C , 16-C ) :   1.3627
B( 15-C , 32-H ) :   0.9697 B( 16-C , 17-C ) :   1.3271 B( 16-C , 33-H ) :   0.9829
B( 17-C , 18-O ) :   1.1118 B( 17-C , 19-C ) :   1.3671 B( 18-O , 34-H ) :   0.9784
B( 19-C , 35-H ) :   0.9571

MP2 TOTAL ENERGY:    -1274.325744475 Eh
FINAL SINGLE POINT ENERGY     -1274.325744474709

DIPOLE MOMENT
-------------
                                X             Y             Z
Electronic contribution:     10.26254       8.51976       7.32032
Nuclear contribution   :    -11.70584     -10.17998      -6.97575
                        -----------------------------------------
Total Dipole Moment    :     -1.44330      -1.66022       0.34457
                        -----------------------------------------
Magnitude (a.u.)       :      2.22669
Magnitude (Debye)      :      5.65981

Rotational constants in cm-1:     0.011853     0.008909     0.006120
Rotational constants in MHz :   355.333246   267.090569   183.480523

                             ****ORCA TERMINATED NORMALLY****
TOTAL RUN TIME: 0 days 2 hours 3 minutes 6 seconds 108 msec
