                         Program Version 4.2.0 -  RELEASE  -
|  1> ! ri-mp2 cc-pvtz cc-pvtz/c TightSCF NoKeepInts
|  2>
|  3> %scf
|  4>   MaxCore 4096
|  5> end
|  6> *xyz  0  1
|  7>     C       14.5305884   15.8993106   16.0302957
|  8>     C       15.7200854   14.9499477   15.7532192
|  9>     O       16.9875536   15.6301936   15.5831674
| 10>     C       17.0398559   16.9342953   15.1926273
| 11>     O       16.9173332   17.2301343   14.0178419
| 12>     C       17.1104999   17.9089547   16.3399619
| 13>     C       17.0019977   19.2419601   16.1027776
| 14>     C       16.4532175   19.9086717   14.8581569
| 15>     N       17.3996960   20.1809754   17.0566533
| 16>     C       18.1334576   19.8831704   18.1722667
| 17>     S       18.6793907   21.0563118   19.2021551
| 18>     N       18.4142951   18.5567720   18.3797857
| 19>     C       17.8571963   17.4330957   17.6022736
| 20>     C       17.1286346   16.4285904   18.4856726
| 21>     C       17.5901963   15.1040013   18.5987728
| 22>     C       16.9244712   14.1840841   19.4261890
| 23>     C       15.7946465   14.5950605   20.1540790
| 24>     C       15.3436481   15.9186498   20.0570167
| 25>     O       14.2552431   16.3194747   20.7605373
| 26>     C       16.0090052   16.8319129   19.2332507
| 27>     H       14.6980605   16.5130719   16.9202361
| 28>     H       13.6179761   15.3150284   16.1992158
| 29>     H       14.3438345   16.5615608   15.1753088
| 30>     H       15.8062130   14.2210454   16.5692100
| 31>     H       15.4999896   14.3884835   14.8357681
| 32>     H       17.1889186   19.8697534   14.0443422
| 33>     H       16.1855684   20.9596373   15.0190043
| 34>     H       15.5493305   19.3951531   14.5068105
| 35>     H       17.2293342   21.1609642   16.8960461
| 36>     H       18.9390800   18.3651542   19.2240524
| 37>     H       18.7935841   16.9954032   17.2277664
| 38>     H       18.4617306   14.7840887   18.0330980
| 39>     H       17.2853361   13.1596366   19.5024514
| 40>     H       15.2771983   13.8882442   20.7945953
| 41>     H       13.9686268   15.5723598   21.3072804
| 42>     H       15.6512065   17.8548485   19.1761140
| 43> *
| 44>
| 45>                          ****END OF INPUT****

CARTESIAN COORDINATES (ANGSTROEM)
---------------------------------
  C     14.530588   15.899311   16.030296
  C     15.720085   14.949948   15.753219
  O     16.987554   15.630194   15.583167
  C     17.039856   16.934295   15.192627
  O     16.917333   17.230134   14.017842
  C     17.110500   17.908955   16.339962
  C     17.001998   19.241960   16.102778
  C     16.453218   19.908672   14.858157
  N     17.399696   20.180975   17.056653
  C     18.133458   19.883170   18.172267
  S     18.679391   21.056312   19.202155
  N     18.414295   18.556772   18.379786
  C     17.857196   17.433096   17.602274
  C     17.128635   16.428590   18.485673
  C     17.590196   15.104001   18.598773
  C     16.924471   14.184084   19.426189
  C     15.794646   14.595061   20.154079
  C     15.343648   15.918650   20.057017
  O     14.255243   16.319475   20.760537
  C     16.009005   16.831913   19.233251
  H     14.698061   16.513072   16.920236
  H     13.617976   15.315028   16.199216
  H     14.343834   16.561561   15.175309
  H     15.806213   14.221045   16.569210
  H     15.499990   14.388483   14.835768
  H     17.188919   19.869753   14.044342
  H     16.185568   20.959637   15.019004
  H     15.549330   19.395153   14.506811
  H     17.229334   21.160964   16.896046
  H     18.939080   18.365154   19.224052
  H     18.793584   16.995403   17.227766
  H     18.461731   14.784089   18.033098
  H     17.285336   13.159637   19.502451
  H     15.277198   13.888244   20.794595
  H     13.968627   15.572360   21.307280
  H     15.651207   17.854848   19.176114

 Total Charge           Charge          ....    0
 Multiplicity           Mult            ....    1
 Number of Electrons    NEL             ....  154
 Basis Dimension        Dim             ....  828

ORBITAL ENERGIES
----------------

  NO   OCC          E(Eh)            E(eV)
   0   2.0000     -91.891195     -2500.4865
   1   2.0000     -20.601242      -560.5883
   2   2.0000     -20.578901      -559.9804
   3   2.0000     -20.547931      -559.1376
   4   2.0000     -15.630777      -425.3351
   5   2.0000     -15.609420      -424.7539
   6   2.0000     -11.392691      -310.0109
   7   2.0000     -11.385480      -309.8147
   8   2.0000     -11.338172      -308.5273
   9   2.0000     -11.318722      -307.9981
  10   2.0000     -11.312219      -307.8211
  11   2.0000     -11.300520      -307.5028
  12   2.0000     -11.265610      -306.5528
  13   2.0000     -11.259673      -306.3913
  14   2.0000     -11.258671      -306.3640
  15   2.0000     -11.253645      -306.2272
  16   2.0000     -11.248896      -306.0980
  17   2.0000     -11.244013      -305.9651
  18   2.0000     -11.243020      -305.9381
  19   2.0000     -11.228482      -305.5425
  20   2.0000      -8.896242      -242.0791
  21   2.0000      -6.577807      -178.9912
  22   2.0000      -6.575817      -178.9371
  23   2.0000      -6.575218      -178.9208
  24   2.0000      -1.443912       -39.2909
  25   2.0000      -1.421015       -38.6678
  26   2.0000      -1.351313       -36.7711
  27   2.0000      -1.342673       -36.5360
  28   2.0000      -1.240944       -33.7678
  29   2.0000      -1.161956       -31.6184
  30   2.0000      -1.122407       -30.5422
  31   2.0000      -1.046604       -28.4796
  32   2.0000      -1.031705       -28.0741
  33   2.0000      -1.020128       -27.7591
  34   2.0000      -1.001121       -27.2419
  35   2.0000      -0.988007       -26.8850
  36   2.0000      -0.924966       -25.1696
  37   2.0000      -0.897574       -24.4242
  38   2.0000      -0.849187       -23.1076
  39   2.0000      -0.842673       -22.9303
  40   2.0000      -0.839300       -22.8385
  41   2.0000      -0.819228       -22.2923
  42   2.0000      -0.745985       -20.2993
  43   2.0000      -0.736910       -20.0523
  44   2.0000      -0.722504       -19.6603
  45   2.0000      -0.699362       -19.0306
  46   2.0000      -0.690070       -18.7778
  47   2.0000      -0.674931       -18.3658
  48   2.0000      -0.672225       -18.2922
  49   2.0000      -0.661571       -18.0023
  50   2.0000      -0.651840       -17.7375
  51   2.0000      -0.644391       -17.5348
  52   2.0000      -0.638354       -17.3705
  53   2.0000      -0.622925       -16.9507
  54   2.0000      -0.611293       -16.6341
  55   2.0000      -0.603851       -16.4316
  56   2.0000      -0.601722       -16.3737
  57   2.0000      -0.580429       -15.7943
  58   2.0000      -0.572257       -15.5719
  59   2.0000      -0.566419       -15.4131
  60   2.0000      -0.549879       -14.9630
  61   2.0000      -0.545467       -14.8429
  62   2.0000      -0.540910       -14.7189
  63   2.0000      -0.531593       -14.4654
  64   2.0000      -0.527084       -14.3427
  65   2.0000      -0.515569       -14.0293
  66   2.0000      -0.502750       -13.6805
  67   2.0000      -0.494837       -13.4652
  68   2.0000      -0.482332       -13.1249
  69   2.0000      -0.465689       -12.6720
  70   2.0000      -0.454744       -12.3742
  71   2.0000      -0.445085       -12.1114
  72   2.0000      -0.356323        -9.6960
  73   2.0000      -0.351358        -9.5609
  74   2.0000      -0.330330        -8.9887
  75   2.0000      -0.326077        -8.8730
  76   2.0000      -0.320974        -8.7342
  77   0.0000       0.071431         1.9437
  78   0.0000       0.099626         2.7110
  79   0.0000       0.121203         3.2981
  80   0.0000       0.128694         3.5019
  81   0.0000       0.131845         3.5877

MULLIKEN ATOMIC CHARGES
-----------------------
   0 C :   -0.336860
   1 C :    0.033755
   2 O :   -0.385345
   3 C :    0.476586
   4 O :   -0.397895
   5 C :   -0.258714
   6 C :    0.162619
   7 C :   -0.268990
   8 N :   -0.126604
   9 C :    0.206446
  10 S :   -0.437397
  11 N :   -0.210917
  12 C :    0.056949
  13 C :    0.039121
  14 C :   -0.193833
  15 C :   -0.135151
  16 C :   -0.274886
  17 C :    0.322333
  18 O :   -0.357358
  19 C :   -0.270663
  20 H :    0.114455
  21 H :    0.113464
  22 H :    0.111447
  23 H :    0.114626
  24 H :    0.120329
  25 H :    0.136542
  26 H :    0.094466
  27 H :    0.126123
  28 H :    0.199634
  29 H :    0.200046
  30 H :    0.151846
  31 H :    0.157970
  32 H :    0.167232
  33 H :    0.133870
  34 H :    0.241166
  35 H :    0.173589
Sum of atomic charges:   -0.0000000

LOEWDIN ATOMIC CHARGES
----------------------
   0 C :    0.105680
   1 C :   -0.011437
   2 O :    0.285575
   3 C :   -0.427489
   4 O :    0.119771
   5 C :   -0.101456
   6 C :   -0.057261
   7 C :    0.130510
   8 N :    0.407629
   9 C :   -0.458278
  10 S :   -0.033277
  11 N :    0.395344
  12 C :   -0.053227
  13 C :   -0.041676
  14 C :    0.022348
  15 C :    0.039449
  16 C :   -0.001047
  17 C :   -0.191832
  18 O :    0.395964
  19 C :    0.033702
  20 H :   -0.034180
  21 H :   -0.021684
  22 H :   -0.027558
  23 H :   -0.026251
  24 H :   -0.027767
  25 H :   -0.003976
  26 H :   -0.023081
  27 H :   -0.006662
  28 H :   -0.056712
  29 H :   -0.063477
  30 H :   -0.011416
  31 H :   -0.026234
  32 H :   -0.020154
  33 H :   -0.034443
  34 H :   -0.153011
  35 H :   -0.022386

  Mayer bond orders larger than 0.100000
B(  0-C ,  1-C ) :   0.9563 B(  0-C , 20-H ) :   0.9684 B(  0-C , 21-H ) :   0.9763
B(  0-C , 22-H ) :   0.9735 B(  1-C ,  2-O ) :   0.8899 B(  1-C , 23-H ) :   0.9744
B(  1-C , 24-H ) :   0.9875 B(  2-O ,  3-C ) :   1.1066 B(  3-C ,  4-O ) :   2.0499
B(  3-C ,  5-C ) :   1.0311 B(  5-C ,  6-C ) :   1.6412 B(  5-C , 12-C ) :   0.9576
B(  6-C ,  7-C ) :   0.9641 B(  6-C ,  8-N ) :   1.1478 B(  7-C , 25-H ) :   0.9550
B(  7-C , 26-H ) :   0.9880 B(  7-C , 27-H ) :   0.9675 B(  8-N ,  9-C ) :   1.1866
B(  8-N , 28-H ) :   0.9473 B(  9-C , 10-S ) :   1.6148 B(  9-C , 11-N ) :   1.3014
B( 11-N , 12-C ) :   0.9766 B( 11-N , 29-H ) :   0.9483 B( 12-C , 13-C ) :   0.9604
B( 12-C , 30-H ) :   1.0023 B( 13-C , 14-C ) :   1.3506 B( 13-C , 19-C ) :   1.3588
B( 14-C , 15-C ) :   1.3926 B( 14-C , 31-H ) :   0.9713 B( 15-C , 16-C ) :   1.3556
B( 15-C , 32-H ) :   0.9694 B( 16-C , 17-C ) :   1.3333 B( 16-C , 33-H ) :   0.9838
B( 17-C , 18-O ) :   1.1075 B( 17-C , 19-C ) :   1.3578 B( 18-O , 34-H ) :   0.9794
B( 19-C , 35-H ) :   0.9598

MP2 TOTAL ENERGY:    -1274.321341281 Eh
FINAL SINGLE POINT ENERGY     -1274.321341281401

DIPOLE MOMENT
-------------
                                X             Y             Z
Electronic contribution:      9.27567       8.05627       6.22973
Nuclear contribution   :    -10.47601      -9.66130      -6.11127
                        -----------------------------------------
Total Dipole Moment    :     -1.20034      -1.60503       0.11846
                        -----------------------------------------
Magnitude (a.u.)       :      2.00773
Magnitude (Debye)      :      5.10323

Rotational constants in cm-1:     0.012251     0.009122     0.006283
Rotational constants in MHz :   367.263187   273.469307   188.349189

                             ****ORCA TERMINATED NORMALLY****
TOTAL RUN TIME: 0 days 2 hours 5 minutes 24 seconds 243 msec
