                         Program Version 4.2.0 -  RELEASE  -
|  1> ! ri-mp2 cc-pvtz cc-pvtz/c TightSCF NoKeepInts
|  2>
|  3> %scf
|  4>   MaxCore 4096
|  5> end
|  6> *xyz  0  1
|  7>     C       13.7902262   15.6976278   14.8096945
|  8>     C       15.2484349   15.5515197   14.3423606
|  9>     O       15.9590620   16.7212273   14.7873149
| 10>     C       16.9561187   16.5973012   15.7108002
| 11>     O       17.6125134   15.5756219   15.8270640
| 12>     C       17.0880415   17.7573014   16.6576496
| 13>     C       16.7716639   19.0333968   16.3104680
| 14>     C       16.0385121   19.5101429   15.0718205
| 15>     N       17.1623760   20.1082358   17.1133430
| 16>     C       18.0499640   20.0184723   18.1512748
| 17>     S       18.5510500   21.3535203   18.9892007
| 18>     N       18.5193429   18.7636251   18.4450228
| 19>     C       18.0346445   17.5083668   17.8391353
| 20>     C       17.4833980   16.5237462   18.8620669
| 21>     C       18.0023124   15.2197873   18.9551606
| 22>     C       17.4931716   14.3137967   19.9006609
| 23>     C       16.4571511   14.7158400   20.7611387
| 24>     C       15.9369009   16.0141824   20.6689888
| 25>     O       14.9336197   16.4035440   21.4955356
| 26>     C       16.4455046   16.9135015   19.7264195
| 27>     H       13.7385091   15.7411949   15.9049849
| 28>     H       13.1914122   14.8426984   14.4727206
| 29>     H       13.3419507   16.6128397   14.4036034
| 30>     H       15.6770623   14.6235356   14.7450811
| 31>     H       15.2797191   15.4951730   13.2466552
| 32>     H       16.5488207   19.1708885   14.1616399
| 33>     H       15.9688391   20.6030573   15.0113955
| 34>     H       15.0141582   19.1174913   15.0526601
| 35>     H       16.8436310   21.0388229   16.8960227
| 36>     H       19.1556747   18.7212293   19.2310516
| 37>     H       18.9688536   17.1290475   17.3999495
| 38>     H       18.7928364   14.9036745   18.2785889
| 39>     H       17.8980850   13.3050967   19.9588507
| 40>     H       16.0600042   14.0188230   21.4914453
| 41>     H       14.7406124   15.6603710   22.0864795
| 42>     H       16.0328231   17.9152992   19.6717509
| 43> *
| 44>
| 45>                          ****END OF INPUT****

CARTESIAN COORDINATES (ANGSTROEM)
---------------------------------
  C     13.790226   15.697628   14.809695
  C     15.248435   15.551520   14.342361
  O     15.959062   16.721227   14.787315
  C     16.956119   16.597301   15.710800
  O     17.612513   15.575622   15.827064
  C     17.088041   17.757301   16.657650
  C     16.771664   19.033397   16.310468
  C     16.038512   19.510143   15.071820
  N     17.162376   20.108236   17.113343
  C     18.049964   20.018472   18.151275
  S     18.551050   21.353520   18.989201
  N     18.519343   18.763625   18.445023
  C     18.034644   17.508367   17.839135
  C     17.483398   16.523746   18.862067
  C     18.002312   15.219787   18.955161
  C     17.493172   14.313797   19.900661
  C     16.457151   14.715840   20.761139
  C     15.936901   16.014182   20.668989
  O     14.933620   16.403544   21.495536
  C     16.445505   16.913501   19.726419
  H     13.738509   15.741195   15.904985
  H     13.191412   14.842698   14.472721
  H     13.341951   16.612840   14.403603
  H     15.677062   14.623536   14.745081
  H     15.279719   15.495173   13.246655
  H     16.548821   19.170889   14.161640
  H     15.968839   20.603057   15.011395
  H     15.014158   19.117491   15.052660
  H     16.843631   21.038823   16.896023
  H     19.155675   18.721229   19.231052
  H     18.968854   17.129047   17.399949
  H     18.792836   14.903674   18.278589
  H     17.898085   13.305097   19.958851
  H     16.060004   14.018823   21.491445
  H     14.740612   15.660371   22.086479
  H     16.032823   17.915299   19.671751

 Total Charge           Charge          ....    0
 Multiplicity           Mult            ....    1
 Number of Electrons    NEL             ....  154
 Basis Dimension        Dim             ....  828

ORBITAL ENERGIES
----------------

  NO   OCC          E(Eh)            E(eV)
   0   2.0000     -91.888085     -2500.4019
   1   2.0000     -20.600775      -560.5756
   2   2.0000     -20.592124      -560.3402
   3   2.0000     -20.545829      -559.0804
   4   2.0000     -15.628695      -425.2784
   5   2.0000     -15.605739      -424.6537
   6   2.0000     -11.395804      -310.0956
   7   2.0000     -11.382626      -309.7370
   8   2.0000     -11.338298      -308.5308
   9   2.0000     -11.308106      -307.7092
  10   2.0000     -11.304266      -307.6047
  11   2.0000     -11.299550      -307.4764
  12   2.0000     -11.260856      -306.4235
  13   2.0000     -11.259122      -306.3763
  14   2.0000     -11.255253      -306.2710
  15   2.0000     -11.248110      -306.0766
  16   2.0000     -11.238336      -305.8107
  17   2.0000     -11.234494      -305.7061
  18   2.0000     -11.232493      -305.6517
  19   2.0000     -11.231165      -305.6155
  20   2.0000      -8.893167      -241.9954
  21   2.0000      -6.574744      -178.9079
  22   2.0000      -6.572742      -178.8534
  23   2.0000      -6.572154      -178.8374
  24   2.0000      -1.453635       -39.5554
  25   2.0000      -1.411874       -38.4191
  26   2.0000      -1.357313       -36.9344
  27   2.0000      -1.339978       -36.4627
  28   2.0000      -1.237123       -33.6638
  29   2.0000      -1.152643       -31.3650
  30   2.0000      -1.120836       -30.4995
  31   2.0000      -1.044191       -28.4139
  32   2.0000      -1.036383       -28.2014
  33   2.0000      -1.010194       -27.4888
  34   2.0000      -0.999096       -27.1868
  35   2.0000      -0.984085       -26.7783
  36   2.0000      -0.920885       -25.0586
  37   2.0000      -0.890959       -24.2442
  38   2.0000      -0.847332       -23.0571
  39   2.0000      -0.835044       -22.7227
  40   2.0000      -0.828333       -22.5401
  41   2.0000      -0.816778       -22.2257
  42   2.0000      -0.761149       -20.7119
  43   2.0000      -0.736434       -20.0394
  44   2.0000      -0.726310       -19.7639
  45   2.0000      -0.691219       -18.8090
  46   2.0000      -0.685056       -18.6413
  47   2.0000      -0.679098       -18.4792
  48   2.0000      -0.672567       -18.3015
  49   2.0000      -0.660479       -17.9726
  50   2.0000      -0.649534       -17.6747
  51   2.0000      -0.643638       -17.5143
  52   2.0000      -0.633385       -17.2353
  53   2.0000      -0.604182       -16.4406
  54   2.0000      -0.599116       -16.3028
  55   2.0000      -0.595799       -16.2125
  56   2.0000      -0.592587       -16.1251
  57   2.0000      -0.583629       -15.8814
  58   2.0000      -0.573578       -15.6078
  59   2.0000      -0.562997       -15.3199
  60   2.0000      -0.560630       -15.2555
  61   2.0000      -0.558048       -15.1853
  62   2.0000      -0.541018       -14.7218
  63   2.0000      -0.525747       -14.3063
  64   2.0000      -0.516181       -14.0460
  65   2.0000      -0.509411       -13.8618
  66   2.0000      -0.500329       -13.6146
  67   2.0000      -0.494332       -13.4515
  68   2.0000      -0.481137       -13.0924
  69   2.0000      -0.464565       -12.6414
  70   2.0000      -0.456914       -12.4333
  71   2.0000      -0.453649       -12.3444
  72   2.0000      -0.353199        -9.6110
  73   2.0000      -0.344836        -9.3835
  74   2.0000      -0.327158        -8.9024
  75   2.0000      -0.317262        -8.6331
  76   2.0000      -0.314699        -8.5634
  77   0.0000       0.076487         2.0813
  78   0.0000       0.110814         3.0154
  79   0.0000       0.120113         3.2684
  80   0.0000       0.135733         3.6935
  81   0.0000       0.139761         3.8031

MULLIKEN ATOMIC CHARGES
-----------------------
   0 C :   -0.271014
   1 C :    0.017719
   2 O :   -0.348502
   3 C :    0.433637
   4 O :   -0.419354
   5 C :   -0.180513
   6 C :    0.157341
   7 C :   -0.281617
   8 N :   -0.128650
   9 C :    0.207618
  10 S :   -0.442296
  11 N :   -0.210226
  12 C :    0.042152
  13 C :    0.031490
  14 C :   -0.166772
  15 C :   -0.134526
  16 C :   -0.277310
  17 C :    0.313836
  18 O :   -0.359102
  19 C :   -0.252334
  20 H :    0.100912
  21 H :    0.099004
  22 H :    0.090017
  23 H :    0.115654
  24 H :    0.100841
  25 H :    0.126463
  26 H :    0.102358
  27 H :    0.128122
  28 H :    0.198789
  29 H :    0.199833
  30 H :    0.155506
  31 H :    0.158928
  32 H :    0.160120
  33 H :    0.128339
  34 H :    0.240002
  35 H :    0.163536
Sum of atomic charges:   -0.0000000

LOEWDIN ATOMIC CHARGES
----------------------
   0 C :    0.103600
   1 C :   -0.013501
   2 O :    0.306853
   3 C :   -0.416454
   4 O :    0.106069
   5 C :   -0.092993
   6 C :   -0.064376
   7 C :    0.125176
   8 N :    0.405500
   9 C :   -0.458595
  10 S :   -0.037594
  11 N :    0.396459
  12 C :   -0.048312
  13 C :   -0.040600
  14 C :    0.025056
  15 C :    0.040974
  16 C :   -0.001265
  17 C :   -0.192793
  18 O :    0.392997
  19 C :    0.029243
  20 H :   -0.025368
  21 H :   -0.024863
  22 H :   -0.030132
  23 H :   -0.025902
  24 H :   -0.029183
  25 H :   -0.008829
  26 H :   -0.021194
  27 H :   -0.010177
  28 H :   -0.058719
  29 H :   -0.063140
  30 H :   -0.008140
  31 H :   -0.023886
  32 H :   -0.021018
  33 H :   -0.036158
  34 H :   -0.154841
  35 H :   -0.023893

  Mayer bond orders larger than 0.100000
B(  0-C ,  1-C ) :   0.9705 B(  0-C , 20-H ) :   0.9763 B(  0-C , 21-H ) :   0.9771
B(  0-C , 22-H ) :   0.9792 B(  1-C ,  2-O ) :   0.8910 B(  1-C , 23-H ) :   0.9723
B(  1-C , 24-H ) :   0.9839 B(  2-O ,  3-C ) :   1.1378 B(  3-C ,  4-O ) :   1.9938
B(  3-C ,  5-C ) :   1.0349 B(  5-C ,  6-C ) :   1.6596 B(  5-C , 12-C ) :   0.9495
B(  6-C ,  7-C ) :   0.9554 B(  6-C ,  8-N ) :   1.1364 B(  7-C , 25-H ) :   0.9651
B(  7-C , 26-H ) :   0.9904 B(  7-C , 27-H ) :   0.9639 B(  8-N ,  9-C ) :   1.1852
B(  8-N , 28-H ) :   0.9468 B(  9-C , 10-S ) :   1.6083 B(  9-C , 11-N ) :   1.3062
B( 11-N , 12-C ) :   0.9771 B( 11-N , 29-H ) :   0.9486 B( 12-C , 13-C ) :   0.9726
B( 12-C , 30-H ) :   0.9967 B( 13-C , 14-C ) :   1.3770 B( 13-C , 19-C ) :   1.3654
B( 14-C , 15-C ) :   1.3973 B( 14-C , 31-H ) :   0.9638 B( 15-C , 16-C ) :   1.3587
B( 15-C , 32-H ) :   0.9711 B( 16-C , 17-C ) :   1.3334 B( 16-C , 33-H ) :   0.9859
B( 17-C , 18-O ) :   1.1035 B( 17-C , 19-C ) :   1.3673 B( 18-O , 34-H ) :   0.9806
B( 19-C , 35-H ) :   0.9603

MP2 TOTAL ENERGY:    -1274.338043389 Eh
FINAL SINGLE POINT ENERGY     -1274.338043388629

DIPOLE MOMENT
-------------
                                X             Y             Z
Electronic contribution:     10.87662       8.71515      10.31007
Nuclear contribution   :    -12.26239     -10.05639     -11.37183
                        -----------------------------------------
Total Dipole Moment    :     -1.38577      -1.34124      -1.06176
                        -----------------------------------------
Magnitude (a.u.)       :      2.20151
Magnitude (Debye)      :      5.59578

Rotational constants in cm-1:     0.009735     0.009325     0.005786
Rotational constants in MHz :   291.857197   279.556765   173.452537

                             ****ORCA TERMINATED NORMALLY****
TOTAL RUN TIME: 0 days 1 hours 48 minutes 0 seconds 128 msec
