                         Program Version 4.2.0 -  RELEASE  -
|  1> ! ri-mp2 cc-pvtz cc-pvtz/c TightSCF NoKeepInts
|  2>
|  3> %scf
|  4>   MaxCore 4096
|  5> end
|  6> *xyz  0  1
|  7>     C       14.5745552   15.6155625   16.1290696
|  8>     C       15.7878130   14.8913338   15.5050875
|  9>     O       17.0010013   15.6725468   15.5750685
| 10>     C       16.9761089   16.9807260   15.1971096
| 11>     O       16.7384375   17.2818214   14.0410422
| 12>     C       17.0825926   17.9461149   16.3500046
| 13>     C       16.9886167   19.2828161   16.1237520
| 14>     C       16.4321574   19.9698453   14.8933383
| 15>     N       17.4176392   20.2093326   17.0764872
| 16>     C       18.1727063   19.8946238   18.1728060
| 17>     S       18.7582769   21.0534593   19.1971384
| 18>     N       18.4404839   18.5634174   18.3644629
| 19>     C       17.8467441   17.4528037   17.5949973
| 20>     C       17.1085487   16.4661462   18.4901176
| 21>     C       17.5049421   15.1176500   18.5584822
| 22>     C       16.8300514   14.2167521   19.3992391
| 23>     C       15.7579303   14.6706590   20.1865597
| 24>     C       15.3711679   16.0168861   20.1323991
| 25>     O       14.3376057   16.4582106   20.8922108
| 26>     C       16.0431423   16.9106030   19.2924635
| 27>     H       14.7431523   15.8323480   17.1874483
| 28>     H       13.6841563   14.9790011   16.0611570
| 29>     H       14.3496674   16.5533559   15.6061681
| 30>     H       15.9442647   13.9329992   16.0167806
| 31>     H       15.5630030   14.6741711   14.4521654
| 32>     H       17.1388711   19.8946414   14.0567868
| 33>     H       16.2182372   21.0327716   15.0560001
| 34>     H       15.4947510   19.4969953   14.5740585
| 35>     H       17.2550842   21.1924203   16.9274349
| 36>     H       18.9813418   18.3586429   19.1953611
| 37>     H       18.7682598   16.9983708   17.2040033
| 38>     H       18.3330645   14.7654669   17.9486301
| 39>     H       17.1400963   13.1739464   19.4407474
| 40>     H       15.2344896   13.9787962   20.8383429
| 41>     H       14.0345084   15.7143774   21.4343721
| 42>     H       15.7335308   17.9503851   19.2667074
| 43> *
| 44>
| 45>                          ****END OF INPUT****

CARTESIAN COORDINATES (ANGSTROEM)
---------------------------------
  C     14.574555   15.615562   16.129070
  C     15.787813   14.891334   15.505087
  O     17.001001   15.672547   15.575068
  C     16.976109   16.980726   15.197110
  O     16.738437   17.281821   14.041042
  C     17.082593   17.946115   16.350005
  C     16.988617   19.282816   16.123752
  C     16.432157   19.969845   14.893338
  N     17.417639   20.209333   17.076487
  C     18.172706   19.894624   18.172806
  S     18.758277   21.053459   19.197138
  N     18.440484   18.563417   18.364463
  C     17.846744   17.452804   17.594997
  C     17.108549   16.466146   18.490118
  C     17.504942   15.117650   18.558482
  C     16.830051   14.216752   19.399239
  C     15.757930   14.670659   20.186560
  C     15.371168   16.016886   20.132399
  O     14.337606   16.458211   20.892211
  C     16.043142   16.910603   19.292464
  H     14.743152   15.832348   17.187448
  H     13.684156   14.979001   16.061157
  H     14.349667   16.553356   15.606168
  H     15.944265   13.932999   16.016781
  H     15.563003   14.674171   14.452165
  H     17.138871   19.894641   14.056787
  H     16.218237   21.032772   15.056000
  H     15.494751   19.496995   14.574058
  H     17.255084   21.192420   16.927435
  H     18.981342   18.358643   19.195361
  H     18.768260   16.998371   17.204003
  H     18.333064   14.765467   17.948630
  H     17.140096   13.173946   19.440747
  H     15.234490   13.978796   20.838343
  H     14.034508   15.714377   21.434372
  H     15.733531   17.950385   19.266707

 Total Charge           Charge          ....    0
 Multiplicity           Mult            ....    1
 Number of Electrons    NEL             ....  154
 Basis Dimension        Dim             ....  828

ORBITAL ENERGIES
----------------

  NO   OCC          E(Eh)            E(eV)
   0   2.0000     -91.891138     -2500.4850
   1   2.0000     -20.599620      -560.5442
   2   2.0000     -20.582073      -560.0667
   3   2.0000     -20.546554      -559.1002
   4   2.0000     -15.631139      -425.3449
   5   2.0000     -15.608999      -424.7424
   6   2.0000     -11.392874      -310.0159
   7   2.0000     -11.385256      -309.8086
   8   2.0000     -11.339360      -308.5597
   9   2.0000     -11.317062      -307.9529
  10   2.0000     -11.311339      -307.7972
  11   2.0000     -11.299730      -307.4813
  12   2.0000     -11.264099      -306.5117
  13   2.0000     -11.259581      -306.3888
  14   2.0000     -11.258540      -306.3605
  15   2.0000     -11.253564      -306.2251
  16   2.0000     -11.247414      -306.0577
  17   2.0000     -11.242226      -305.9165
  18   2.0000     -11.241536      -305.8977
  19   2.0000     -11.225395      -305.4585
  20   2.0000      -8.896180      -242.0774
  21   2.0000      -6.577745      -178.9895
  22   2.0000      -6.575755      -178.9354
  23   2.0000      -6.575156      -178.9191
  24   2.0000      -1.446798       -39.3694
  25   2.0000      -1.419422       -38.6244
  26   2.0000      -1.351679       -36.7811
  27   2.0000      -1.342860       -36.5411
  28   2.0000      -1.240816       -33.7643
  29   2.0000      -1.160544       -31.5800
  30   2.0000      -1.122327       -30.5401
  31   2.0000      -1.045425       -28.4475
  32   2.0000      -1.032044       -28.0833
  33   2.0000      -1.018487       -27.7144
  34   2.0000      -1.000096       -27.2140
  35   2.0000      -0.987573       -26.8732
  36   2.0000      -0.924389       -25.1539
  37   2.0000      -0.896083       -24.3837
  38   2.0000      -0.848788       -23.0967
  39   2.0000      -0.841586       -22.9007
  40   2.0000      -0.837643       -22.7934
  41   2.0000      -0.817322       -22.2405
  42   2.0000      -0.749234       -20.3877
  43   2.0000      -0.736226       -20.0337
  44   2.0000      -0.723476       -19.6868
  45   2.0000      -0.697896       -18.9907
  46   2.0000      -0.690397       -18.7867
  47   2.0000      -0.674568       -18.3559
  48   2.0000      -0.671889       -18.2830
  49   2.0000      -0.664390       -18.0790
  50   2.0000      -0.648933       -17.6584
  51   2.0000      -0.644263       -17.5313
  52   2.0000      -0.637263       -17.3408
  53   2.0000      -0.617015       -16.7898
  54   2.0000      -0.609701       -16.5908
  55   2.0000      -0.602407       -16.3923
  56   2.0000      -0.601251       -16.3609
  57   2.0000      -0.579373       -15.7655
  58   2.0000      -0.571339       -15.5469
  59   2.0000      -0.566462       -15.4142
  60   2.0000      -0.552320       -15.0294
  61   2.0000      -0.545188       -14.8353
  62   2.0000      -0.541334       -14.7304
  63   2.0000      -0.529238       -14.4013
  64   2.0000      -0.525602       -14.3024
  65   2.0000      -0.514979       -14.0133
  66   2.0000      -0.501839       -13.6557
  67   2.0000      -0.500009       -13.6059
  68   2.0000      -0.479347       -13.0437
  69   2.0000      -0.464882       -12.6501
  70   2.0000      -0.453641       -12.3442
  71   2.0000      -0.445695       -12.1280
  72   2.0000      -0.355542        -9.6748
  73   2.0000      -0.351418        -9.5626
  74   2.0000      -0.330112        -8.9828
  75   2.0000      -0.324859        -8.8399
  76   2.0000      -0.320709        -8.7269
  77   0.0000       0.070855         1.9281
  78   0.0000       0.101594         2.7645
  79   0.0000       0.121931         3.3179
  80   0.0000       0.129493         3.5237
  81   0.0000       0.133069         3.6210

MULLIKEN ATOMIC CHARGES
-----------------------
   0 C :   -0.329906
   1 C :    0.031078
   2 O :   -0.381976
   3 C :    0.451215
   4 O :   -0.404556
   5 C :   -0.223891
   6 C :    0.162641
   7 C :   -0.266984
   8 N :   -0.125283
   9 C :    0.205424
  10 S :   -0.436886
  11 N :   -0.210966
  12 C :    0.042976
  13 C :    0.004350
  14 C :   -0.170161
  15 C :   -0.143194
  16 C :   -0.268675
  17 C :    0.305374
  18 O :   -0.359125
  19 C :   -0.230876
  20 H :    0.119077
  21 H :    0.112383
  22 H :    0.105462
  23 H :    0.113551
  24 H :    0.121185
  25 H :    0.134998
  26 H :    0.094369
  27 H :    0.127227
  28 H :    0.200245
  29 H :    0.199646
  30 H :    0.153355
  31 H :    0.161443
  32 H :    0.164827
  33 H :    0.133334
  34 H :    0.240671
  35 H :    0.167647
Sum of atomic charges:   -0.0000000

LOEWDIN ATOMIC CHARGES
----------------------
   0 C :    0.107486
   1 C :   -0.016426
   2 O :    0.289552
   3 C :   -0.425676
   4 O :    0.114286
   5 C :   -0.100935
   6 C :   -0.054363
   7 C :    0.130792
   8 N :    0.408048
   9 C :   -0.459112
  10 S :   -0.032980
  11 N :    0.395670
  12 C :   -0.052853
  13 C :   -0.042822
  14 C :    0.021528
  15 C :    0.039111
  16 C :   -0.001008
  17 C :   -0.192853
  18 O :    0.396103
  19 C :    0.032215
  20 H :   -0.029442
  21 H :   -0.023215
  22 H :   -0.028575
  23 H :   -0.024026
  24 H :   -0.028075
  25 H :   -0.004049
  26 H :   -0.023209
  27 H :   -0.006194
  28 H :   -0.056662
  29 H :   -0.063417
  30 H :   -0.011614
  31 H :   -0.026531
  32 H :   -0.020412
  33 H :   -0.034702
  34 H :   -0.153352
  35 H :   -0.022292

  Mayer bond orders larger than 0.100000
B(  0-C ,  1-C ) :   0.9558 B(  0-C , 20-H ) :   0.9675 B(  0-C , 21-H ) :   0.9775
B(  0-C , 22-H ) :   0.9740 B(  1-C ,  2-O ) :   0.8900 B(  1-C , 23-H ) :   0.9800
B(  1-C , 24-H ) :   0.9862 B(  2-O ,  3-C ) :   1.1076 B(  3-C ,  4-O ) :   2.0307
B(  3-C ,  5-C ) :   1.0532 B(  5-C ,  6-C ) :   1.6297 B(  5-C , 12-C ) :   0.9617
B(  6-C ,  7-C ) :   0.9670 B(  6-C ,  8-N ) :   1.1490 B(  7-C , 25-H ) :   0.9554
B(  7-C , 26-H ) :   0.9886 B(  7-C , 27-H ) :   0.9658 B(  8-N ,  9-C ) :   1.1852
B(  8-N , 28-H ) :   0.9470 B(  9-C , 10-S ) :   1.6156 B(  9-C , 11-N ) :   1.3021
B( 11-N , 12-C ) :   0.9755 B( 11-N , 29-H ) :   0.9485 B( 12-C , 13-C ) :   0.9558
B( 12-C , 30-H ) :   1.0029 B( 13-C , 14-C ) :   1.3658 B( 13-C , 19-C ) :   1.3674
B( 14-C , 15-C ) :   1.3907 B( 14-C , 31-H ) :   0.9673 B( 15-C , 16-C ) :   1.3587
B( 15-C , 32-H ) :   0.9697 B( 16-C , 17-C ) :   1.3340 B( 16-C , 33-H ) :   0.9838
B( 17-C , 18-O ) :   1.1065 B( 17-C , 19-C ) :   1.3638 B( 18-O , 34-H ) :   0.9796
B( 19-C , 35-H ) :   0.9613

MP2 TOTAL ENERGY:    -1274.325930376 Eh
FINAL SINGLE POINT ENERGY     -1274.325930376418

DIPOLE MOMENT
-------------
                                X             Y             Z
Electronic contribution:      9.24209       8.77296       6.36951
Nuclear contribution   :    -10.36689     -10.42156      -6.38271
                        -----------------------------------------
Total Dipole Moment    :     -1.12479      -1.64859      -0.01320
                        -----------------------------------------
Magnitude (a.u.)       :      1.99579
Magnitude (Debye)      :      5.07291

Rotational constants in cm-1:     0.012082     0.009155     0.006193
Rotational constants in MHz :   362.214336   274.463809   185.646930

                             ****ORCA TERMINATED NORMALLY****
TOTAL RUN TIME: 0 days 1 hours 55 minutes 29 seconds 825 msec
