                         Program Version 4.2.0 -  RELEASE  -
|  1> ! ri-mp2 cc-pvtz cc-pvtz/c TightSCF NoKeepInts
|  2>
|  3> %scf
|  4>   MaxCore 4096
|  5> end
|  6> *xyz  0  1
|  7>     C       15.0546062   14.5050096   14.4459717
|  8>     C       14.6055323   15.9746245   14.5914531
|  9>     O       15.6767462   16.9063668   14.8840656
| 10>     C       16.7093450   16.6734031   15.7536674
| 11>     O       17.2723202   15.5987110   15.8695316
| 12>     C       17.0082786   17.8269042   16.6702149
| 13>     C       16.8585588   19.1247355   16.2930228
| 14>     C       16.1859927   19.6626483   15.0449780
| 15>     N       17.3986028   20.1581353   17.0631244
| 16>     C       18.2838280   19.9777782   18.0912390
| 17>     S       18.9684638   21.2554598   18.8877231
| 18>     N       18.5902233   18.6796359   18.4108047
| 19>     C       17.9341991   17.4848913   17.8450701
| 20>     C       17.2758305   16.6049300   18.8996437
| 21>     C       17.6050962   15.2414338   19.0032427
| 22>     C       16.9971794   14.4312247   19.9768621
| 23>     C       16.0527351   14.9897848   20.8551578
| 24>     C       15.7211406   16.3478630   20.7525770
| 25>     O       14.8062122   16.8886379   21.5962645
| 26>     C       16.3274444   17.1515306   19.7817640
| 27>     H       15.9239900   14.4250532   13.7811907
| 28>     H       14.2448728   13.9006491   14.0199715
| 29>     H       15.3132275   14.0692406   15.4191402
| 30>     H       14.1118768   16.2906643   13.6635216
| 31>     H       13.8569948   16.0265875   15.3928857
| 32>     H       15.1115752   19.4414980   15.0572021
| 33>     H       16.6160773   19.2084210   14.1434043
| 34>     H       16.2942956   20.7488068   14.9371557
| 35>     H       17.2012986   21.1170054   16.8255187
| 36>     H       19.2299352   18.5726460   19.1878806
| 37>     H       18.8031228   16.9753555   17.4034966
| 38>     H       18.3243032   14.8058330   18.3134511
| 39>     H       17.2555272   13.3759097   20.0432499
| 40>     H       15.5799184   14.3673563   21.6074521
| 41>     H       14.5271087   16.1900819   22.2069307
| 42>     H       16.0605406   18.2011834   19.7191700
| 43> *
| 44>
| 45>                          ****END OF INPUT****

CARTESIAN COORDINATES (ANGSTROEM)
---------------------------------
  C     15.054606   14.505010   14.445972
  C     14.605532   15.974624   14.591453
  O     15.676746   16.906367   14.884066
  C     16.709345   16.673403   15.753667
  O     17.272320   15.598711   15.869532
  C     17.008279   17.826904   16.670215
  C     16.858559   19.124735   16.293023
  C     16.185993   19.662648   15.044978
  N     17.398603   20.158135   17.063124
  C     18.283828   19.977778   18.091239
  S     18.968464   21.255460   18.887723
  N     18.590223   18.679636   18.410805
  C     17.934199   17.484891   17.845070
  C     17.275831   16.604930   18.899644
  C     17.605096   15.241434   19.003243
  C     16.997179   14.431225   19.976862
  C     16.052735   14.989785   20.855158
  C     15.721141   16.347863   20.752577
  O     14.806212   16.888638   21.596265
  C     16.327444   17.151531   19.781764
  H     15.923990   14.425053   13.781191
  H     14.244873   13.900649   14.019972
  H     15.313227   14.069241   15.419140
  H     14.111877   16.290664   13.663522
  H     13.856995   16.026588   15.392886
  H     15.111575   19.441498   15.057202
  H     16.616077   19.208421   14.143404
  H     16.294296   20.748807   14.937156
  H     17.201299   21.117005   16.825519
  H     19.229935   18.572646   19.187881
  H     18.803123   16.975355   17.403497
  H     18.324303   14.805833   18.313451
  H     17.255527   13.375910   20.043250
  H     15.579918   14.367356   21.607452
  H     14.527109   16.190082   22.206931
  H     16.060541   18.201183   19.719170

 Total Charge           Charge          ....    0
 Multiplicity           Mult            ....    1
 Number of Electrons    NEL             ....  154
 Basis Dimension        Dim             ....  828

ORBITAL ENERGIES
----------------

  NO   OCC          E(Eh)            E(eV)
   0   2.0000     -91.887482     -2500.3855
   1   2.0000     -20.595353      -560.4280
   2   2.0000     -20.592397      -560.3476
   3   2.0000     -20.547248      -559.1191
   4   2.0000     -15.627669      -425.2505
   5   2.0000     -15.605213      -424.6394
   6   2.0000     -11.397881      -310.1521
   7   2.0000     -11.381997      -309.7199
   8   2.0000     -11.336686      -308.4869
   9   2.0000     -11.308464      -307.7189
  10   2.0000     -11.306876      -307.6757
  11   2.0000     -11.303632      -307.5875
  12   2.0000     -11.259303      -306.3812
  13   2.0000     -11.258148      -306.3498
  14   2.0000     -11.255556      -306.2793
  15   2.0000     -11.248621      -306.0905
  16   2.0000     -11.238701      -305.8206
  17   2.0000     -11.234692      -305.7115
  18   2.0000     -11.231517      -305.6251
  19   2.0000     -11.223253      -305.4002
  20   2.0000      -8.892573      -241.9792
  21   2.0000      -6.574153      -178.8918
  22   2.0000      -6.572148      -178.8372
  23   2.0000      -6.571562      -178.8213
  24   2.0000      -1.446214       -39.3535
  25   2.0000      -1.412142       -38.4263
  26   2.0000      -1.357517       -36.9399
  27   2.0000      -1.339129       -36.4395
  28   2.0000      -1.236399       -33.6441
  29   2.0000      -1.152714       -31.3669
  30   2.0000      -1.119823       -30.4719
  31   2.0000      -1.042304       -28.3625
  32   2.0000      -1.033565       -28.1247
  33   2.0000      -1.010358       -27.4933
  34   2.0000      -0.997958       -27.1558
  35   2.0000      -0.982773       -26.7426
  36   2.0000      -0.920750       -25.0549
  37   2.0000      -0.893931       -24.3251
  38   2.0000      -0.847722       -23.0677
  39   2.0000      -0.835731       -22.7414
  40   2.0000      -0.828686       -22.5497
  41   2.0000      -0.820116       -22.3165
  42   2.0000      -0.744746       -20.2656
  43   2.0000      -0.728075       -19.8119
  44   2.0000      -0.725419       -19.7396
  45   2.0000      -0.690528       -18.7902
  46   2.0000      -0.684240       -18.6191
  47   2.0000      -0.679246       -18.4832
  48   2.0000      -0.671297       -18.2669
  49   2.0000      -0.666233       -18.1291
  50   2.0000      -0.644898       -17.5486
  51   2.0000      -0.643230       -17.5032
  52   2.0000      -0.633146       -17.2288
  53   2.0000      -0.605187       -16.4680
  54   2.0000      -0.601467       -16.3668
  55   2.0000      -0.598483       -16.2855
  56   2.0000      -0.595765       -16.2116
  57   2.0000      -0.578831       -15.7508
  58   2.0000      -0.572718       -15.5845
  59   2.0000      -0.571125       -15.5411
  60   2.0000      -0.558849       -15.2070
  61   2.0000      -0.546233       -14.8637
  62   2.0000      -0.537505       -14.6262
  63   2.0000      -0.525043       -14.2872
  64   2.0000      -0.516142       -14.0449
  65   2.0000      -0.510083       -13.8801
  66   2.0000      -0.497829       -13.5466
  67   2.0000      -0.493455       -13.4276
  68   2.0000      -0.479200       -13.0397
  69   2.0000      -0.462081       -12.5739
  70   2.0000      -0.456524       -12.4227
  71   2.0000      -0.445360       -12.1189
  72   2.0000      -0.352181        -9.5833
  73   2.0000      -0.344956        -9.3867
  74   2.0000      -0.326632        -8.8881
  75   2.0000      -0.316691        -8.6176
  76   2.0000      -0.315170        -8.5762
  77   0.0000       0.076354         2.0777
  78   0.0000       0.110511         3.0072
  79   0.0000       0.121974         3.3191
  80   0.0000       0.135392         3.6842
  81   0.0000       0.138380         3.7655

MULLIKEN ATOMIC CHARGES
-----------------------
   0 C :   -0.281670
   1 C :    0.044587
   2 O :   -0.372195
   3 C :    0.429938
   4 O :   -0.411635
   5 C :   -0.156231
   6 C :    0.153506
   7 C :   -0.281528
   8 N :   -0.128561
   9 C :    0.207315
  10 S :   -0.443470
  11 N :   -0.211260
  12 C :    0.040059
  13 C :    0.032433
  14 C :   -0.174316
  15 C :   -0.134438
  16 C :   -0.277530
  17 C :    0.313932
  18 O :   -0.358791
  19 C :   -0.251579
  20 H :    0.106234
  21 H :    0.094110
  22 H :    0.112762
  23 H :    0.097698
  24 H :    0.086523
  25 H :    0.126305
  26 H :    0.126174
  27 H :    0.102028
  28 H :    0.198641
  29 H :    0.199793
  30 H :    0.156808
  31 H :    0.161127
  32 H :    0.160511
  33 H :    0.128503
  34 H :    0.239971
  35 H :    0.164244
Sum of atomic charges:    0.0000000

LOEWDIN ATOMIC CHARGES
----------------------
   0 C :    0.103464
   1 C :   -0.012253
   2 O :    0.289763
   3 C :   -0.411884
   4 O :    0.120185
   5 C :   -0.092920
   6 C :   -0.065148
   7 C :    0.124869
   8 N :    0.405223
   9 C :   -0.458710
  10 S :   -0.038507
  11 N :    0.396320
  12 C :   -0.048388
  13 C :   -0.040717
  14 C :    0.023696
  15 C :    0.040388
  16 C :   -0.001422
  17 C :   -0.192610
  18 O :    0.393166
  19 C :    0.029539
  20 H :   -0.023631
  21 H :   -0.028894
  22 H :   -0.025800
  23 H :   -0.024440
  24 H :   -0.031112
  25 H :   -0.009945
  26 H :   -0.008827
  27 H :   -0.021318
  28 H :   -0.058847
  29 H :   -0.063339
  30 H :   -0.008364
  31 H :   -0.023870
  32 H :   -0.021020
  33 H :   -0.036151
  34 H :   -0.154808
  35 H :   -0.023689

  Mayer bond orders larger than 0.100000
B(  0-C ,  1-C ) :   0.9798 B(  0-C , 20-H ) :   0.9737 B(  0-C , 21-H ) :   0.9733
B(  0-C , 22-H ) :   0.9727 B(  1-C ,  2-O ) :   0.9095 B(  1-C , 23-H ) :   0.9809
B(  1-C , 24-H ) :   0.9765 B(  2-O ,  3-C ) :   1.0811 B(  3-C ,  4-O ) :   2.0009
B(  3-C ,  5-C ) :   1.0386 B(  5-C ,  6-C ) :   1.6667 B(  5-C , 12-C ) :   0.9473
B(  6-C ,  7-C ) :   0.9540 B(  6-C ,  8-N ) :   1.1328 B(  7-C , 25-H ) :   0.9642
B(  7-C , 26-H ) :   0.9653 B(  7-C , 27-H ) :   0.9912 B(  8-N ,  9-C ) :   1.1867
B(  8-N , 28-H ) :   0.9470 B(  9-C , 10-S ) :   1.6073 B(  9-C , 11-N ) :   1.3058
B( 11-N , 12-C ) :   0.9755 B( 11-N , 29-H ) :   0.9486 B( 12-C , 13-C ) :   0.9716
B( 12-C , 30-H ) :   0.9966 B( 13-C , 14-C ) :   1.3764 B( 13-C , 19-C ) :   1.3655
B( 14-C , 15-C ) :   1.3964 B( 14-C , 31-H ) :   0.9633 B( 15-C , 16-C ) :   1.3590
B( 15-C , 32-H ) :   0.9710 B( 16-C , 17-C ) :   1.3331 B( 16-C , 33-H ) :   0.9859
B( 17-C , 18-O ) :   1.1039 B( 17-C , 19-C ) :   1.3670 B( 18-O , 34-H ) :   0.9806
B( 19-C , 35-H ) :   0.9600

MP2 TOTAL ENERGY:    -1274.327373016 Eh
FINAL SINGLE POINT ENERGY     -1274.327373016298

DIPOLE MOMENT
-------------
                                X             Y             Z
Electronic contribution:      9.17680      10.62729      10.76555
Nuclear contribution   :    -10.78456     -11.86038     -11.73980
                        -----------------------------------------
Total Dipole Moment    :     -1.60776      -1.23309      -0.97425
                        -----------------------------------------
Magnitude (a.u.)       :      2.24824
Magnitude (Debye)      :      5.71456

Rotational constants in cm-1:     0.010111     0.009130     0.005644
Rotational constants in MHz :   303.110196   273.706305   169.199467

                             ****ORCA TERMINATED NORMALLY****
TOTAL RUN TIME: 0 days 1 hours 59 minutes 31 seconds 145 msec
