                         Program Version 4.2.0 -  RELEASE  -
|  1> ! ri-mp2 cc-pvtz cc-pvtz/c TightSCF NoKeepInts
|  2>
|  3> %scf
|  4>   MaxCore 4096
|  5> end
|  6> *xyz  0  1
|  7>     C       14.4424634   16.4414114   16.0107040
|  8>     C       15.4633536   15.2810936   15.9920604
|  9>     O       16.7036854   15.6021989   15.3128112
| 10>     C       17.3386684   16.8163145   15.2272522
| 11>     O       18.0383581   17.0760495   14.2658030
| 12>     C       17.1375442   17.7913608   16.3431062
| 13>     C       16.9134492   19.0873764   16.0209224
| 14>     C       16.4537842   19.5992069   14.6724089
| 15>     N       17.1139897   20.1124162   16.9464437
| 16>     C       17.7802552   19.9513829   18.1317890
| 17>     S       18.0964027   21.2241025   19.1392398
| 18>     N       18.1961782   18.6771695   18.4301668
| 19>     C       17.8403459   17.4632653   17.6689402
| 20>     C       17.2076679   16.3785903   18.5242549
| 21>     C       17.7942403   15.1021109   18.6059011
| 22>     C       17.2100705   14.0995471   19.3982458
| 23>     C       16.0348230   14.3779401   20.1173927
| 24>     C       15.4554277   15.6522849   20.0455586
| 25>     O       14.3198948   15.9234634   20.7360478
| 26>     C       16.0385631   16.6483224   19.2560433
| 27>     H       14.6727081   17.1854508   16.7801893
| 28>     H       13.4435641   16.0497412   16.2387395
| 29>     H       14.3900239   16.9355471   15.0328571
| 30>     H       15.6562146   14.9526557   17.0180700
| 31>     H       15.0101604   14.4257533   15.4744789
| 32>     H       15.7971101   18.8767215   14.1729322
| 33>     H       17.3172134   19.7617691   14.0136569
| 34>     H       15.9012928   20.5432125   14.7492581
| 35>     H       16.8579229   21.0587411   16.7132075
| 36>     H       18.6768911   18.5868903   19.3166534
| 37>     H       18.8485286   17.1422942   17.3683599
| 38>     H       18.7004924   14.8832154   18.0461350
| 39>     H       17.6680036   13.1129962   19.4529796
| 40>     H       15.5804765   13.6059841   20.7302043
| 41>     H       14.1064455   15.1417981   21.2681567
| 42>     H       15.5807866   17.6316217   19.2170296
| 43> *
| 44>
| 45>                          ****END OF INPUT****

CARTESIAN COORDINATES (ANGSTROEM)
---------------------------------
  C     14.442463   16.441411   16.010704
  C     15.463354   15.281094   15.992060
  O     16.703685   15.602199   15.312811
  C     17.338668   16.816315   15.227252
  O     18.038358   17.076049   14.265803
  C     17.137544   17.791361   16.343106
  C     16.913449   19.087376   16.020922
  C     16.453784   19.599207   14.672409
  N     17.113990   20.112416   16.946444
  C     17.780255   19.951383   18.131789
  S     18.096403   21.224103   19.139240
  N     18.196178   18.677170   18.430167
  C     17.840346   17.463265   17.668940
  C     17.207668   16.378590   18.524255
  C     17.794240   15.102111   18.605901
  C     17.210071   14.099547   19.398246
  C     16.034823   14.377940   20.117393
  C     15.455428   15.652285   20.045559
  O     14.319895   15.923463   20.736048
  C     16.038563   16.648322   19.256043
  H     14.672708   17.185451   16.780189
  H     13.443564   16.049741   16.238740
  H     14.390024   16.935547   15.032857
  H     15.656215   14.952656   17.018070
  H     15.010160   14.425753   15.474479
  H     15.797110   18.876721   14.172932
  H     17.317213   19.761769   14.013657
  H     15.901293   20.543212   14.749258
  H     16.857923   21.058741   16.713207
  H     18.676891   18.586890   19.316653
  H     18.848529   17.142294   17.368360
  H     18.700492   14.883215   18.046135
  H     17.668004   13.112996   19.452980
  H     15.580476   13.605984   20.730204
  H     14.106445   15.141798   21.268157
  H     15.580787   17.631622   19.217030

 Total Charge           Charge          ....    0
 Multiplicity           Mult            ....    1
 Number of Electrons    NEL             ....  154
 Basis Dimension        Dim             ....  828

ORBITAL ENERGIES
----------------

  NO   OCC          E(Eh)            E(eV)
   0   2.0000     -91.889864     -2500.4503
   1   2.0000     -20.606280      -560.7254
   2   2.0000     -20.592854      -560.3600
   3   2.0000     -20.548637      -559.1568
   4   2.0000     -15.626461      -425.2176
   5   2.0000     -15.610669      -424.7879
   6   2.0000     -11.396154      -310.1051
   7   2.0000     -11.385091      -309.8041
   8   2.0000     -11.327640      -308.2408
   9   2.0000     -11.324870      -308.1654
  10   2.0000     -11.316679      -307.9425
  11   2.0000     -11.301752      -307.5363
  12   2.0000     -11.270994      -306.6993
  13   2.0000     -11.265647      -306.5539
  14   2.0000     -11.255859      -306.2875
  15   2.0000     -11.255581      -306.2799
  16   2.0000     -11.254933      -306.2623
  17   2.0000     -11.249470      -306.1136
  18   2.0000     -11.249287      -306.1086
  19   2.0000     -11.233346      -305.6749
  20   2.0000      -8.894943      -242.0437
  21   2.0000      -6.576518      -178.9562
  22   2.0000      -6.574516      -178.9017
  23   2.0000      -6.573928      -178.8857
  24   2.0000      -1.440816       -39.2066
  25   2.0000      -1.426054       -38.8049
  26   2.0000      -1.354730       -36.8641
  27   2.0000      -1.339906       -36.4607
  28   2.0000      -1.239911       -33.7397
  29   2.0000      -1.167967       -31.7820
  30   2.0000      -1.124673       -30.6039
  31   2.0000      -1.051814       -28.6213
  32   2.0000      -1.034628       -28.1537
  33   2.0000      -1.025979       -27.9183
  34   2.0000      -1.003876       -27.3169
  35   2.0000      -0.989482       -26.9252
  36   2.0000      -0.927369       -25.2350
  37   2.0000      -0.898988       -24.4627
  38   2.0000      -0.850997       -23.1568
  39   2.0000      -0.845072       -22.9956
  40   2.0000      -0.844730       -22.9863
  41   2.0000      -0.827780       -22.5251
  42   2.0000      -0.750137       -20.4123
  43   2.0000      -0.740537       -20.1510
  44   2.0000      -0.719586       -19.5809
  45   2.0000      -0.704817       -19.1790
  46   2.0000      -0.691674       -18.8214
  47   2.0000      -0.678043       -18.4505
  48   2.0000      -0.676109       -18.3979
  49   2.0000      -0.661706       -18.0059
  50   2.0000      -0.653477       -17.7820
  51   2.0000      -0.649547       -17.6751
  52   2.0000      -0.638701       -17.3800
  53   2.0000      -0.618942       -16.8423
  54   2.0000      -0.614817       -16.7300
  55   2.0000      -0.608393       -16.5552
  56   2.0000      -0.603763       -16.4292
  57   2.0000      -0.584883       -15.9155
  58   2.0000      -0.577429       -15.7126
  59   2.0000      -0.566987       -15.4285
  60   2.0000      -0.563615       -15.3367
  61   2.0000      -0.551263       -15.0006
  62   2.0000      -0.540123       -14.6975
  63   2.0000      -0.534775       -14.5520
  64   2.0000      -0.529604       -14.4113
  65   2.0000      -0.517065       -14.0701
  66   2.0000      -0.505693       -13.7606
  67   2.0000      -0.499420       -13.5899
  68   2.0000      -0.487501       -13.2656
  69   2.0000      -0.466282       -12.6882
  70   2.0000      -0.451649       -12.2900
  71   2.0000      -0.445736       -12.1291
  72   2.0000      -0.360193        -9.8013
  73   2.0000      -0.350636        -9.5413
  74   2.0000      -0.333776        -9.0825
  75   2.0000      -0.328618        -8.9421
  76   2.0000      -0.319060        -8.6821
  77   0.0000       0.082384         2.2418
  78   0.0000       0.095327         2.5940
  79   0.0000       0.120072         3.2673
  80   0.0000       0.126744         3.4489
  81   0.0000       0.128391         3.4937

MULLIKEN ATOMIC CHARGES
-----------------------
   0 C :   -0.328694
   1 C :    0.033835
   2 O :   -0.326829
   3 C :    0.406339
   4 O :   -0.372663
   5 C :   -0.246002
   6 C :    0.160042
   7 C :   -0.285540
   8 N :   -0.130782
   9 C :    0.210152
  10 S :   -0.441217
  11 N :   -0.211854
  12 C :    0.051764
  13 C :   -0.002814
  14 C :   -0.176514
  15 C :   -0.131958
  16 C :   -0.272859
  17 C :    0.314155
  18 O :   -0.355037
  19 C :   -0.255590
  20 H :    0.114057
  21 H :    0.118441
  22 H :    0.104420
  23 H :    0.101003
  24 H :    0.125714
  25 H :    0.115632
  26 H :    0.146637
  27 H :    0.098006
  28 H :    0.197681
  29 H :    0.200028
  30 H :    0.160655
  31 H :    0.156609
  32 H :    0.165239
  33 H :    0.135679
  34 H :    0.242334
  35 H :    0.179933
Sum of atomic charges:   -0.0000000

LOEWDIN ATOMIC CHARGES
----------------------
   0 C :    0.102009
   1 C :   -0.011946
   2 O :    0.294535
   3 C :   -0.421389
   4 O :    0.126122
   5 C :   -0.091564
   6 C :   -0.079030
   7 C :    0.129051
   8 N :    0.405361
   9 C :   -0.455535
  10 S :   -0.036506
  11 N :    0.395586
  12 C :   -0.055661
  13 C :   -0.045779
  14 C :    0.019138
  15 C :    0.043963
  16 C :    0.002081
  17 C :   -0.191723
  18 O :    0.397531
  19 C :    0.034090
  20 H :   -0.036182
  21 H :   -0.022125
  22 H :   -0.030059
  23 H :   -0.033629
  24 H :   -0.021849
  25 H :   -0.011773
  26 H :   -0.003308
  27 H :   -0.020892
  28 H :   -0.057547
  29 H :   -0.063986
  30 H :   -0.009126
  31 H :   -0.025614
  32 H :   -0.018080
  33 H :   -0.032890
  34 H :   -0.151878
  35 H :   -0.021396

  Mayer bond orders larger than 0.100000
B(  0-C ,  1-C ) :   0.9571 B(  0-C , 20-H ) :   0.9688 B(  0-C , 21-H ) :   0.9764
B(  0-C , 22-H ) :   0.9756 B(  1-C ,  2-O ) :   0.9056 B(  1-C , 23-H ) :   0.9676
B(  1-C , 24-H ) :   0.9840 B(  2-O ,  3-C ) :   1.1846 B(  3-C ,  4-O ) :   2.1168
B(  3-C ,  5-C ) :   0.9298 B(  5-C ,  6-C ) :   1.6940 B(  5-C , 12-C ) :   0.9514
B(  6-C ,  7-C ) :   0.9448 B(  6-C ,  8-N ) :   1.1289 B(  7-C , 25-H ) :   0.9762
B(  7-C , 26-H ) :   0.9572 B(  7-C , 27-H ) :   0.9839 B(  8-N ,  9-C ) :   1.1985
B(  8-N , 28-H ) :   0.9496 B(  9-C , 10-S ) :   1.6121 B(  9-C , 11-N ) :   1.2876
B( 11-N , 12-C ) :   0.9795 B( 11-N , 29-H ) :   0.9475 B( 12-C , 13-C ) :   0.9503
B( 12-C , 30-H ) :   1.0048 B( 13-C , 14-C ) :   1.3665 B( 13-C , 19-C ) :   1.3560
B( 14-C , 15-C ) :   1.3974 B( 14-C , 31-H ) :   0.9703 B( 15-C , 16-C ) :   1.3617
B( 15-C , 32-H ) :   0.9698 B( 16-C , 17-C ) :   1.3287 B( 16-C , 33-H ) :   0.9832
B( 17-C , 18-O ) :   1.1120 B( 17-C , 19-C ) :   1.3615 B( 18-O , 34-H ) :   0.9783
B( 19-C , 35-H ) :   0.9537

MP2 TOTAL ENERGY:    -1274.319188875 Eh
FINAL SINGLE POINT ENERGY     -1274.319188874899

DIPOLE MOMENT
-------------
                                X             Y             Z
Electronic contribution:      8.92343       6.67021       6.10637
Nuclear contribution   :    -10.41405      -8.39559      -5.78675
                        -----------------------------------------
Total Dipole Moment    :     -1.49062      -1.72537       0.31962
                        -----------------------------------------
Magnitude (a.u.)       :      2.30239
Magnitude (Debye)      :      5.85222

Rotational constants in cm-1:     0.012384     0.009037     0.006434
Rotational constants in MHz :   371.273100   270.917812   192.873010

                             ****ORCA TERMINATED NORMALLY****
TOTAL RUN TIME: 0 days 1 hours 47 minutes 53 seconds 433 msec
