                         Program Version 4.2.0 -  RELEASE  -
|  1> ! ri-mp2 cc-pvtz cc-pvtz/c TightSCF NoKeepInts
|  2>
|  3> %scf
|  4>   MaxCore 4096
|  5> end
|  6> *xyz  0  1
|  7>     C       14.5412625   14.8696491   14.6719644
|  8>     C       15.3740732   15.1751180   15.9324125
|  9>     O       16.4631166   16.0569990   15.6004741
| 10>     C       16.2209600   17.3969850   15.5012198
| 11>     O       15.4686238   17.8516900   14.6583481
| 12>     C       16.8790724   18.1946776   16.5961455
| 13>     C       16.9250542   19.5507618   16.5354274
| 14>     C       16.1550752   20.4528642   15.5930311
| 15>     N       17.7531220   20.2823745   17.3897999
| 16>     C       18.7069251   19.7320893   18.2022879
| 17>     S       19.7205225   20.6631103   19.1195245
| 18>     N       18.7943717   18.3631696   18.2004626
| 19>     C       17.8698308   17.4475898   17.5061913
| 20>     C       17.2222237   16.4453614   18.4525796
| 21>     C       17.6752780   15.1141031   18.5009280
| 22>     C       17.0705148   14.1857937   19.3649566
| 23>     C       16.0079327   14.5937905   20.1895102
| 24>     C       15.5606060   15.9216530   20.1487941
| 25>     O       14.5352136   16.3184390   20.9434416
| 26>     C       16.1630933   16.8427707   19.2862567
| 27>     H       13.9963010   15.7579072   14.3299858
| 28>     H       13.8048250   14.0845840   14.8810856
| 29>     H       15.1874850   14.5251114   13.8551481
| 30>     H       14.7414637   15.6125760   16.7168164
| 31>     H       15.7852978   14.2331590   16.3174610
| 32>     H       15.0806644   20.2333919   15.6394702
| 33>     H       16.4770433   20.2934747   14.5559132
| 34>     H       16.2800333   21.5184920   15.8184117
| 35>     H       17.7156244   21.2891758   17.3823027
| 36>     H       19.4880202   17.9855291   18.8334767
| 37>     H       18.5689656   16.9400721   16.8261405
| 38>     H       18.4941030   14.7968730   17.8602190
| 39>     H       17.4264129   13.1571873   19.3953080
| 40>     H       15.5386344   13.8808001   20.8596644
| 41>     H       14.2875998   15.5648821   21.5003515
| 42>     H       15.8076539   17.8677947   19.2724896
| 43> *
| 44>
| 45>                          ****END OF INPUT****

CARTESIAN COORDINATES (ANGSTROEM)
---------------------------------
  C     14.541263   14.869649   14.671964
  C     15.374073   15.175118   15.932412
  O     16.463117   16.056999   15.600474
  C     16.220960   17.396985   15.501220
  O     15.468624   17.851690   14.658348
  C     16.879072   18.194678   16.596145
  C     16.925054   19.550762   16.535427
  C     16.155075   20.452864   15.593031
  N     17.753122   20.282374   17.389800
  C     18.706925   19.732089   18.202288
  S     19.720523   20.663110   19.119525
  N     18.794372   18.363170   18.200463
  C     17.869831   17.447590   17.506191
  C     17.222224   16.445361   18.452580
  C     17.675278   15.114103   18.500928
  C     17.070515   14.185794   19.364957
  C     16.007933   14.593791   20.189510
  C     15.560606   15.921653   20.148794
  O     14.535214   16.318439   20.943442
  C     16.163093   16.842771   19.286257
  H     13.996301   15.757907   14.329986
  H     13.804825   14.084584   14.881086
  H     15.187485   14.525111   13.855148
  H     14.741464   15.612576   16.716816
  H     15.785298   14.233159   16.317461
  H     15.080664   20.233392   15.639470
  H     16.477043   20.293475   14.555913
  H     16.280033   21.518492   15.818412
  H     17.715624   21.289176   17.382303
  H     19.488020   17.985529   18.833477
  H     18.568966   16.940072   16.826141
  H     18.494103   14.796873   17.860219
  H     17.426413   13.157187   19.395308
  H     15.538634   13.880800   20.859664
  H     14.287600   15.564882   21.500351
  H     15.807654   17.867795   19.272490

 Total Charge           Charge          ....    0
 Multiplicity           Mult            ....    1
 Number of Electrons    NEL             ....  154
 Basis Dimension        Dim             ....  828

ORBITAL ENERGIES
----------------

  NO   OCC          E(Eh)            E(eV)
   0   2.0000     -91.890275     -2500.4615
   1   2.0000     -20.601073      -560.5837
   2   2.0000     -20.584628      -560.1362
   3   2.0000     -20.546024      -559.0857
   4   2.0000     -15.630820      -425.3362
   5   2.0000     -15.608371      -424.7254
   6   2.0000     -11.393586      -310.0352
   7   2.0000     -11.384880      -309.7983
   8   2.0000     -11.338943      -308.5483
   9   2.0000     -11.318736      -307.9985
  10   2.0000     -11.309260      -307.7406
  11   2.0000     -11.297139      -307.4108
  12   2.0000     -11.265007      -306.5364
  13   2.0000     -11.260020      -306.4007
  14   2.0000     -11.258496      -306.3593
  15   2.0000     -11.253049      -306.2110
  16   2.0000     -11.248372      -306.0838
  17   2.0000     -11.243304      -305.9459
  18   2.0000     -11.243043      -305.9387
  19   2.0000     -11.216495      -305.2164
  20   2.0000      -8.895336      -242.0544
  21   2.0000      -6.576905      -178.9667
  22   2.0000      -6.574909      -178.9124
  23   2.0000      -6.574315      -178.8962
  24   2.0000      -1.446816       -39.3699
  25   2.0000      -1.420769       -38.6611
  26   2.0000      -1.354157       -36.8485
  27   2.0000      -1.341920       -36.5155
  28   2.0000      -1.239885       -33.7390
  29   2.0000      -1.161851       -31.6156
  30   2.0000      -1.122273       -30.5386
  31   2.0000      -1.046082       -28.4653
  32   2.0000      -1.031074       -28.0570
  33   2.0000      -1.019789       -27.7499
  34   2.0000      -0.997337       -27.1389
  35   2.0000      -0.985814       -26.8254
  36   2.0000      -0.924161       -25.1477
  37   2.0000      -0.884563       -24.0702
  38   2.0000      -0.849039       -23.1035
  39   2.0000      -0.841805       -22.9067
  40   2.0000      -0.838469       -22.8159
  41   2.0000      -0.825753       -22.4699
  42   2.0000      -0.754741       -20.5375
  43   2.0000      -0.736153       -20.0317
  44   2.0000      -0.720662       -19.6102
  45   2.0000      -0.699553       -19.0358
  46   2.0000      -0.690190       -18.7810
  47   2.0000      -0.679149       -18.4806
  48   2.0000      -0.670872       -18.2554
  49   2.0000      -0.657400       -17.8888
  50   2.0000      -0.647726       -17.6255
  51   2.0000      -0.646979       -17.6052
  52   2.0000      -0.636948       -17.3322
  53   2.0000      -0.611321       -16.6349
  54   2.0000      -0.605286       -16.4707
  55   2.0000      -0.602289       -16.3891
  56   2.0000      -0.590645       -16.0723
  57   2.0000      -0.582201       -15.8425
  58   2.0000      -0.576977       -15.7003
  59   2.0000      -0.570564       -15.5258
  60   2.0000      -0.565207       -15.3801
  61   2.0000      -0.541608       -14.7379
  62   2.0000      -0.535272       -14.5655
  63   2.0000      -0.527724       -14.3601
  64   2.0000      -0.517133       -14.0719
  65   2.0000      -0.513132       -13.9630
  66   2.0000      -0.502062       -13.6618
  67   2.0000      -0.495569       -13.4851
  68   2.0000      -0.486562       -13.2400
  69   2.0000      -0.464197       -12.6314
  70   2.0000      -0.456095       -12.4110
  71   2.0000      -0.441422       -12.0117
  72   2.0000      -0.355484        -9.6732
  73   2.0000      -0.353096        -9.6082
  74   2.0000      -0.329907        -8.9772
  75   2.0000      -0.325841        -8.8666
  76   2.0000      -0.319737        -8.7005
  77   0.0000       0.072210         1.9649
  78   0.0000       0.099503         2.7076
  79   0.0000       0.123382         3.3574
  80   0.0000       0.130338         3.5467
  81   0.0000       0.132711         3.6113

MULLIKEN ATOMIC CHARGES
-----------------------
   0 C :   -0.268734
   1 C :    0.027940
   2 O :   -0.377106
   3 C :    0.470785
   4 O :   -0.416991
   5 C :   -0.272615
   6 C :    0.186377
   7 C :   -0.266284
   8 N :   -0.126755
   9 C :    0.212902
  10 S :   -0.440414
  11 N :   -0.217897
  12 C :    0.076364
  13 C :    0.027197
  14 C :   -0.184195
  15 C :   -0.129119
  16 C :   -0.276170
  17 C :    0.315941
  18 O :   -0.356075
  19 C :   -0.250460
  20 H :    0.114008
  21 H :    0.087619
  22 H :    0.094239
  23 H :    0.092328
  24 H :    0.107190
  25 H :    0.132124
  26 H :    0.130912
  27 H :    0.094907
  28 H :    0.199263
  29 H :    0.201082
  30 H :    0.152062
  31 H :    0.153351
  32 H :    0.165128
  33 H :    0.133176
  34 H :    0.241584
  35 H :    0.166337
Sum of atomic charges:   -0.0000000

LOEWDIN ATOMIC CHARGES
----------------------
   0 C :    0.105578
   1 C :   -0.021087
   2 O :    0.292949
   3 C :   -0.417497
   4 O :    0.115407
   5 C :   -0.100365
   6 C :   -0.054562
   7 C :    0.131498
   8 N :    0.407627
   9 C :   -0.456058
  10 S :   -0.035160
  11 N :    0.394229
  12 C :   -0.054665
  13 C :   -0.038541
  14 C :    0.018619
  15 C :    0.040609
  16 C :   -0.000696
  17 C :   -0.190722
  18 O :    0.395968
  19 C :    0.032209
  20 H :   -0.027287
  21 H :   -0.030883
  22 H :   -0.026334
  23 H :   -0.031351
  24 H :   -0.024633
  25 H :   -0.004589
  26 H :   -0.004251
  27 H :   -0.023438
  28 H :   -0.056881
  29 H :   -0.064617
  30 H :   -0.012363
  31 H :   -0.028007
  32 H :   -0.020255
  33 H :   -0.034537
  34 H :   -0.152932
  35 H :   -0.022981

  Mayer bond orders larger than 0.100000
B(  0-C ,  1-C ) :   0.9871 B(  0-C , 20-H ) :   0.9724 B(  0-C , 21-H ) :   0.9772
B(  0-C , 22-H ) :   0.9770 B(  1-C ,  2-O ) :   0.8869 B(  1-C , 23-H ) :   0.9678
B(  1-C , 24-H ) :   0.9788 B(  2-O ,  3-C ) :   1.0842 B(  3-C ,  4-O ) :   1.9947
B(  3-C ,  5-C ) :   1.0825 B(  5-C ,  6-C ) :   1.6296 B(  5-C , 12-C ) :   0.9517
B(  6-C ,  7-C ) :   0.9656 B(  6-C ,  8-N ) :   1.1587 B(  7-C , 25-H ) :   0.9611
B(  7-C , 26-H ) :   0.9581 B(  7-C , 27-H ) :   0.9902 B(  8-N ,  9-C ) :   1.1852
B(  8-N , 28-H ) :   0.9461 B(  9-C , 10-S ) :   1.6058 B(  9-C , 11-N ) :   1.3108
B( 11-N , 12-C ) :   0.9624 B( 11-N , 29-H ) :   0.9483 B( 12-C , 13-C ) :   0.9663
B( 12-C , 30-H ) :   1.0003 B( 13-C , 14-C ) :   1.3427 B( 13-C , 19-C ) :   1.3756
B( 14-C , 15-C ) :   1.3913 B( 14-C , 31-H ) :   0.9748 B( 15-C , 16-C ) :   1.3597
B( 15-C , 32-H ) :   0.9694 B( 16-C , 17-C ) :   1.3325 B( 16-C , 33-H ) :   0.9840
B( 17-C , 18-O ) :   1.1067 B( 17-C , 19-C ) :   1.3630 B( 18-O , 34-H ) :   0.9789
B( 19-C , 35-H ) :   0.9596

MP2 TOTAL ENERGY:    -1274.330689392 Eh
FINAL SINGLE POINT ENERGY     -1274.330689392409

DIPOLE MOMENT
-------------
                                X             Y             Z
Electronic contribution:     10.03150       9.75349       8.35642
Nuclear contribution   :    -11.05182     -11.33516      -8.28492
                        -----------------------------------------
Total Dipole Moment    :     -1.02032      -1.58167       0.07150
                        -----------------------------------------
Magnitude (a.u.)       :      1.88357
Magnitude (Debye)      :      4.78766

Rotational constants in cm-1:     0.011917     0.008556     0.005968
Rotational constants in MHz :   357.271532   256.494532   178.909275

                             ****ORCA TERMINATED NORMALLY****
TOTAL RUN TIME: 0 days 2 hours 1 minutes 42 seconds 757 msec
