                         Program Version 4.2.0 -  RELEASE  -
|  1> ! ri-mp2 cc-pvtz cc-pvtz/c TightSCF NoKeepInts
|  2>
|  3> %scf
|  4>   MaxCore 4096
|  5> end
|  6> *xyz  0  1
|  7>     C       14.0928398   16.4593314   15.3523674
|  8>     C       15.2334353   15.6577129   16.0050503
|  9>     O       16.4258246   15.7977702   15.2048822
| 10>     C       17.3686219   16.7800531   15.3713513
| 11>     O       18.3525497   16.8496962   14.6599819
| 12>     C       17.1266327   17.7560137   16.4687006
| 13>     C       16.7912876   19.0203453   16.1264715
| 14>     C       16.3159751   19.4777007   14.7637082
| 15>     N       16.9428861   20.0769614   17.0254050
| 16>     C       17.6586735   19.9908559   18.1908429
| 17>     S       17.9068926   21.3049723   19.1634244
| 18>     N       18.1851563   18.7590687   18.4968153
| 19>     C       17.9035861   17.5081539   17.7639595
| 20>     C       17.3671317   16.3692965   18.6166257
| 21>     C       17.8578246   15.0630406   18.4390728
| 22>     C       17.3476296   13.9998266   19.2024049
| 23>     C       16.3384154   14.2452931   20.1492966
| 24>     C       15.8463259   15.5457248   20.3262934
| 25>     O       14.8653502   15.7838736   21.2323332
| 26>     C       16.3539029   16.6022078   19.5631265
| 27>     H       14.2496800   17.5369801   15.4688437
| 28>     H       13.1346078   16.2083638   15.8235999
| 29>     H       14.0176185   16.2277829   14.2822783
| 30>     H       15.3756927   15.9609034   17.0468902
| 31>     H       14.9459466   14.5982741   16.0106124
| 32>     H       15.9409402   18.6479734   14.1523908
| 33>     H       17.1437011   19.9363877   14.2072450
| 34>     H       15.5073960   20.2144734   14.8423917
| 35>     H       16.6088118   20.9966921   16.7839308
| 36>     H       18.7102566   18.7243048   19.3618174
| 37>     H       18.9229096   17.2593238   17.4318797
| 38>     H       18.6329855   14.8699769   17.7005421
| 39>     H       17.7340031   12.9919241   19.0581554
| 40>     H       15.9417719   13.4265447   20.7410033
| 41>     H       14.6845133   14.9510970   21.6942435
| 42>     H       15.9552241   17.6010992   19.7100621
| 43> *
| 44>
| 45>                          ****END OF INPUT****

CARTESIAN COORDINATES (ANGSTROEM)
---------------------------------
  C     14.092840   16.459331   15.352367
  C     15.233435   15.657713   16.005050
  O     16.425825   15.797770   15.204882
  C     17.368622   16.780053   15.371351
  O     18.352550   16.849696   14.659982
  C     17.126633   17.756014   16.468701
  C     16.791288   19.020345   16.126472
  C     16.315975   19.477701   14.763708
  N     16.942886   20.076961   17.025405
  C     17.658673   19.990856   18.190843
  S     17.906893   21.304972   19.163424
  N     18.185156   18.759069   18.496815
  C     17.903586   17.508154   17.763959
  C     17.367132   16.369297   18.616626
  C     17.857825   15.063041   18.439073
  C     17.347630   13.999827   19.202405
  C     16.338415   14.245293   20.149297
  C     15.846326   15.545725   20.326293
  O     14.865350   15.783874   21.232333
  C     16.353903   16.602208   19.563126
  H     14.249680   17.536980   15.468844
  H     13.134608   16.208364   15.823600
  H     14.017618   16.227783   14.282278
  H     15.375693   15.960903   17.046890
  H     14.945947   14.598274   16.010612
  H     15.940940   18.647973   14.152391
  H     17.143701   19.936388   14.207245
  H     15.507396   20.214473   14.842392
  H     16.608812   20.996692   16.783931
  H     18.710257   18.724305   19.361817
  H     18.922910   17.259324   17.431880
  H     18.632985   14.869977   17.700542
  H     17.734003   12.991924   19.058155
  H     15.941772   13.426545   20.741003
  H     14.684513   14.951097   21.694243
  H     15.955224   17.601099   19.710062

 Total Charge           Charge          ....    0
 Multiplicity           Mult            ....    1
 Number of Electrons    NEL             ....  154
 Basis Dimension        Dim             ....  828

ORBITAL ENERGIES
----------------

  NO   OCC          E(Eh)            E(eV)
   0   2.0000     -91.889384     -2500.4373
   1   2.0000     -20.605053      -560.6920
   2   2.0000     -20.602111      -560.6119
   3   2.0000     -20.552214      -559.2542
   4   2.0000     -15.625129      -425.1814
   5   2.0000     -15.610972      -424.7961
   6   2.0000     -11.398733      -310.1753
   7   2.0000     -11.385428      -309.8132
   8   2.0000     -11.326884      -308.2202
   9   2.0000     -11.323797      -308.1362
  10   2.0000     -11.316513      -307.9380
  11   2.0000     -11.302153      -307.5472
  12   2.0000     -11.271399      -306.7104
  13   2.0000     -11.264974      -306.5355
  14   2.0000     -11.261096      -306.4300
  15   2.0000     -11.259357      -306.3827
  16   2.0000     -11.252666      -306.2006
  17   2.0000     -11.247872      -306.0702
  18   2.0000     -11.247830      -306.0690
  19   2.0000     -11.233794      -305.6871
  20   2.0000      -8.894478      -242.0310
  21   2.0000      -6.576058      -178.9436
  22   2.0000      -6.574048      -178.8889
  23   2.0000      -6.573466      -178.8731
  24   2.0000      -1.447604       -39.3913
  25   2.0000      -1.424760       -38.7697
  26   2.0000      -1.362416       -37.0732
  27   2.0000      -1.339234       -36.4424
  28   2.0000      -1.239330       -33.7239
  29   2.0000      -1.167325       -31.7645
  30   2.0000      -1.127066       -30.6690
  31   2.0000      -1.052187       -28.6315
  32   2.0000      -1.038439       -28.2574
  33   2.0000      -1.025316       -27.9003
  34   2.0000      -1.005520       -27.3616
  35   2.0000      -0.990316       -26.9479
  36   2.0000      -0.928026       -25.2529
  37   2.0000      -0.892386       -24.2831
  38   2.0000      -0.852843       -23.2070
  39   2.0000      -0.844810       -22.9885
  40   2.0000      -0.842934       -22.9374
  41   2.0000      -0.835910       -22.7463
  42   2.0000      -0.757497       -20.6125
  43   2.0000      -0.739420       -20.1207
  44   2.0000      -0.726790       -19.7770
  45   2.0000      -0.703211       -19.1353
  46   2.0000      -0.694316       -18.8933
  47   2.0000      -0.680612       -18.5204
  48   2.0000      -0.677584       -18.4380
  49   2.0000      -0.667184       -18.1550
  50   2.0000      -0.652707       -17.7611
  51   2.0000      -0.642906       -17.4944
  52   2.0000      -0.631571       -17.1859
  53   2.0000      -0.621645       -16.9158
  54   2.0000      -0.614181       -16.7127
  55   2.0000      -0.608640       -16.5619
  56   2.0000      -0.606561       -16.5054
  57   2.0000      -0.585314       -15.9272
  58   2.0000      -0.580029       -15.7834
  59   2.0000      -0.568955       -15.4820
  60   2.0000      -0.566807       -15.4236
  61   2.0000      -0.555402       -15.1132
  62   2.0000      -0.542869       -14.7722
  63   2.0000      -0.536207       -14.5909
  64   2.0000      -0.528059       -14.3692
  65   2.0000      -0.518273       -14.1029
  66   2.0000      -0.505152       -13.7459
  67   2.0000      -0.504323       -13.7233
  68   2.0000      -0.489720       -13.3260
  69   2.0000      -0.466608       -12.6970
  70   2.0000      -0.454930       -12.3793
  71   2.0000      -0.451030       -12.2732
  72   2.0000      -0.358161        -9.7461
  73   2.0000      -0.353337        -9.6148
  74   2.0000      -0.332064        -9.0359
  75   2.0000      -0.328578        -8.9411
  76   2.0000      -0.319554        -8.6955
  77   0.0000       0.090522         2.4632
  78   0.0000       0.098635         2.6840
  79   0.0000       0.120371         3.2755
  80   0.0000       0.126211         3.4344
  81   0.0000       0.127929         3.4811

MULLIKEN ATOMIC CHARGES
-----------------------
   0 C :   -0.305478
   1 C :    0.037670
   2 O :   -0.313562
   3 C :    0.415507
   4 O :   -0.381751
   5 C :   -0.196111
   6 C :    0.133074
   7 C :   -0.317299
   8 N :   -0.137737
   9 C :    0.213542
  10 S :   -0.443174
  11 N :   -0.227082
  12 C :    0.035858
  13 C :    0.016714
  14 C :   -0.215959
  15 C :   -0.132594
  16 C :   -0.271971
  17 C :    0.311979
  18 O :   -0.353015
  19 C :   -0.237319
  20 H :    0.093822
  21 H :    0.106892
  22 H :    0.111184
  23 H :    0.104795
  24 H :    0.119707
  25 H :    0.118177
  26 H :    0.150396
  27 H :    0.109778
  28 H :    0.196837
  29 H :    0.203184
  30 H :    0.167481
  31 H :    0.165374
  32 H :    0.166092
  33 H :    0.135158
  34 H :    0.241877
  35 H :    0.177954
Sum of atomic charges:   -0.0000000

LOEWDIN ATOMIC CHARGES
----------------------
   0 C :    0.103233
   1 C :   -0.018300
   2 O :    0.307601
   3 C :   -0.418967
   4 O :    0.123752
   5 C :   -0.088374
   6 C :   -0.094606
   7 C :    0.126525
   8 N :    0.403854
   9 C :   -0.454274
  10 S :   -0.038114
  11 N :    0.395730
  12 C :   -0.053689
  13 C :   -0.046172
  14 C :    0.017277
  15 C :    0.046450
  16 C :    0.001553
  17 C :   -0.190372
  18 O :    0.397527
  19 C :    0.028463
  20 H :   -0.033951
  21 H :   -0.023830
  22 H :   -0.024410
  23 H :   -0.035711
  24 H :   -0.021360
  25 H :   -0.010589
  26 H :   -0.005312
  27 H :   -0.017867
  28 H :   -0.057498
  29 H :   -0.064377
  30 H :   -0.005615
  31 H :   -0.024042
  32 H :   -0.017496
  33 H :   -0.033513
  34 H :   -0.152060
  35 H :   -0.021465

  Mayer bond orders larger than 0.100000
B(  0-C ,  1-C ) :   0.9668 B(  0-C , 20-H ) :   0.9780 B(  0-C , 21-H ) :   0.9775
B(  0-C , 22-H ) :   0.9750 B(  1-C ,  2-O ) :   0.8931 B(  1-C , 23-H ) :   0.9571
B(  1-C , 24-H ) :   0.9834 B(  2-O ,  3-C ) :   1.1899 B(  3-C ,  4-O ) :   2.1204
B(  3-C ,  5-C ) :   0.8918 B(  5-C ,  6-C ) :   1.7273 B(  5-C , 12-C ) :   0.9533
B(  6-C ,  7-C ) :   0.9462 B(  6-C ,  8-N ) :   1.1111 B(  7-C , 25-H ) :   0.9799
B(  7-C , 26-H ) :   0.9607 B(  7-C , 27-H ) :   0.9760 B(  8-N ,  9-C ) :   1.2037
B(  8-N , 28-H ) :   0.9503 B(  9-C , 10-S ) :   1.6097 B(  9-C , 11-N ) :   1.2845
B( 11-N , 12-C ) :   0.9783 B( 11-N , 29-H ) :   0.9459 B( 12-C , 13-C ) :   0.9686
B( 12-C , 30-H ) :   0.9965 B( 13-C , 14-C ) :   1.3782 B( 13-C , 19-C ) :   1.3477
B( 14-C , 15-C ) :   1.3971 B( 14-C , 31-H ) :   0.9675 B( 15-C , 16-C ) :   1.3638
B( 15-C , 32-H ) :   0.9689 B( 16-C , 17-C ) :   1.3308 B( 16-C , 33-H ) :   0.9833
B( 17-C , 18-O ) :   1.1131 B( 17-C , 19-C ) :   1.3601 B( 18-O , 34-H ) :   0.9785
B( 19-C , 35-H ) :   0.9561

MP2 TOTAL ENERGY:    -1274.326820868 Eh
FINAL SINGLE POINT ENERGY     -1274.326820867517

DIPOLE MOMENT
-------------
                                X             Y             Z
Electronic contribution:      9.80796       6.36862       7.97349
Nuclear contribution   :    -11.36173      -8.06578      -7.89627
                        -----------------------------------------
Total Dipole Moment    :     -1.55378      -1.69716       0.07722
                        -----------------------------------------
Magnitude (a.u.)       :      2.30229
Magnitude (Debye)      :      5.85196

Rotational constants in cm-1:     0.011567     0.009078     0.006336
Rotational constants in MHz :   346.784244   272.138482   189.955964

                             ****ORCA TERMINATED NORMALLY****
TOTAL RUN TIME: 0 days 1 hours 54 minutes 5 seconds 809 msec
