                         Program Version 4.2.0 -  RELEASE  -
|  1> ! ri-mp2 cc-pvtz cc-pvtz/c TightSCF NoKeepInts
|  2>
|  3> %scf
|  4>   MaxCore 4096
|  5> end
|  6> *xyz  0  1
|  7>     C       14.5679107   16.0558925   16.1707028
|  8>     C       15.5938767   15.0842746   15.5487589
|  9>     O       16.9627310   15.5533456   15.5798804
| 10>     C       17.2742082   16.8308993   15.2234863
| 11>     O       17.5069335   17.1057836   14.0605787
| 12>     C       17.1400308   17.8371527   16.3325434
| 13>     C       16.9690406   19.1474621   16.0239796
| 14>     C       16.4846764   19.7131907   14.7051797
| 15>     N       17.2246619   20.1514365   16.9595608
| 16>     C       17.8973396   19.9522031   18.1344782
| 17>     S       18.2870844   21.2020367   19.1447980
| 18>     N       18.2552593   18.6585924   18.4196867
| 19>     C       17.8236472   17.4657964   17.6636211
| 20>     C       17.1295772   16.4324252   18.5430660
| 21>     C       17.5389067   15.0860738   18.5291513
| 22>     C       16.9109385   14.1386459   19.3547890
| 23>     C       15.8731872   14.5426007   20.2118827
| 24>     C       15.4746355   15.8858899   20.2418763
| 25>     O       14.4742859   16.2794988   21.0692929
| 26>     C       16.1006894   16.8264511   19.4176835
| 27>     H       14.7696970   16.2296312   17.2296063
| 28>     H       13.5611498   15.6267368   16.0990443
| 29>     H       14.5504256   17.0179896   15.6451391
| 30>     H       15.5366526   14.1192322   16.0688052
| 31>     H       15.3095790   14.9085157   14.5026519
| 32>     H       17.3170800   19.7928736   13.9937920
| 33>     H       16.0331640   20.7066530   14.8115726
| 34>     H       15.7288273   19.0611130   14.2501955
| 35>     H       17.0032158   21.1096664   16.7404173
| 36>     H       18.7382867   18.5397302   19.3015521
| 37>     H       18.8125033   17.0859178   17.3690325
| 38>     H       18.3407137   14.7708070   17.8659542
| 39>     H       17.2307174   13.0982088   19.3299471
| 40>     H       15.3857414   13.8144075   20.8519048
| 41>     H       14.2008617   15.5066420   21.5861110
| 42>     H       15.7787641   17.8622238   19.4572779
| 43> *
| 44>
| 45>                          ****END OF INPUT****

CARTESIAN COORDINATES (ANGSTROEM)
---------------------------------
  C     14.567911   16.055892   16.170703
  C     15.593877   15.084275   15.548759
  O     16.962731   15.553346   15.579880
  C     17.274208   16.830899   15.223486
  O     17.506933   17.105784   14.060579
  C     17.140031   17.837153   16.332543
  C     16.969041   19.147462   16.023980
  C     16.484676   19.713191   14.705180
  N     17.224662   20.151436   16.959561
  C     17.897340   19.952203   18.134478
  S     18.287084   21.202037   19.144798
  N     18.255259   18.658592   18.419687
  C     17.823647   17.465796   17.663621
  C     17.129577   16.432425   18.543066
  C     17.538907   15.086074   18.529151
  C     16.910939   14.138646   19.354789
  C     15.873187   14.542601   20.211883
  C     15.474635   15.885890   20.241876
  O     14.474286   16.279499   21.069293
  C     16.100689   16.826451   19.417683
  H     14.769697   16.229631   17.229606
  H     13.561150   15.626737   16.099044
  H     14.550426   17.017990   15.645139
  H     15.536653   14.119232   16.068805
  H     15.309579   14.908516   14.502652
  H     17.317080   19.792874   13.993792
  H     16.033164   20.706653   14.811573
  H     15.728827   19.061113   14.250195
  H     17.003216   21.109666   16.740417
  H     18.738287   18.539730   19.301552
  H     18.812503   17.085918   17.369032
  H     18.340714   14.770807   17.865954
  H     17.230717   13.098209   19.329947
  H     15.385741   13.814407   20.851905
  H     14.200862   15.506642   21.586111
  H     15.778764   17.862224   19.457278

 Total Charge           Charge          ....    0
 Multiplicity           Mult            ....    1
 Number of Electrons    NEL             ....  154
 Basis Dimension        Dim             ....  828

ORBITAL ENERGIES
----------------

  NO   OCC          E(Eh)            E(eV)
   0   2.0000     -91.890941     -2500.4796
   1   2.0000     -20.599929      -560.5526
   2   2.0000     -20.581033      -560.0384
   3   2.0000     -20.553648      -559.2932
   4   2.0000     -15.629401      -425.2976
   5   2.0000     -15.609675      -424.7608
   6   2.0000     -11.393889      -310.0435
   7   2.0000     -11.385394      -309.8123
   8   2.0000     -11.335015      -308.4414
   9   2.0000     -11.317316      -307.9598
  10   2.0000     -11.313845      -307.8654
  11   2.0000     -11.304005      -307.5976
  12   2.0000     -11.265363      -306.5461
  13   2.0000     -11.258537      -306.3604
  14   2.0000     -11.257955      -306.3445
  15   2.0000     -11.254975      -306.2634
  16   2.0000     -11.247652      -306.0642
  17   2.0000     -11.242853      -305.9336
  18   2.0000     -11.241790      -305.9047
  19   2.0000     -11.228877      -305.5533
  20   2.0000      -8.895992      -242.0722
  21   2.0000      -6.577559      -178.9845
  22   2.0000      -6.575566      -178.9303
  23   2.0000      -6.574969      -178.9140
  24   2.0000      -1.446425       -39.3592
  25   2.0000      -1.419765       -38.6338
  26   2.0000      -1.354860       -36.8676
  27   2.0000      -1.341785       -36.5118
  28   2.0000      -1.240467       -33.7548
  29   2.0000      -1.160860       -31.5886
  30   2.0000      -1.122618       -30.5480
  31   2.0000      -1.046174       -28.4678
  32   2.0000      -1.034113       -28.1396
  33   2.0000      -1.019061       -27.7301
  34   2.0000      -1.002111       -27.2688
  35   2.0000      -0.988414       -26.8961
  36   2.0000      -0.924875       -25.1671
  37   2.0000      -0.897572       -24.4242
  38   2.0000      -0.848991       -23.1022
  39   2.0000      -0.842018       -22.9125
  40   2.0000      -0.837839       -22.7988
  41   2.0000      -0.820441       -22.3253
  42   2.0000      -0.749600       -20.3977
  43   2.0000      -0.736550       -20.0425
  44   2.0000      -0.725028       -19.7290
  45   2.0000      -0.697906       -18.9910
  46   2.0000      -0.689900       -18.7731
  47   2.0000      -0.674781       -18.3617
  48   2.0000      -0.671867       -18.2824
  49   2.0000      -0.667118       -18.1532
  50   2.0000      -0.650571       -17.7029
  51   2.0000      -0.647400       -17.6167
  52   2.0000      -0.637441       -17.3456
  53   2.0000      -0.616164       -16.7667
  54   2.0000      -0.609486       -16.5850
  55   2.0000      -0.602806       -16.4032
  56   2.0000      -0.601286       -16.3618
  57   2.0000      -0.579692       -15.7742
  58   2.0000      -0.574712       -15.6387
  59   2.0000      -0.565712       -15.3938
  60   2.0000      -0.560127       -15.2418
  61   2.0000      -0.552680       -15.0392
  62   2.0000      -0.542571       -14.7641
  63   2.0000      -0.527813       -14.3625
  64   2.0000      -0.524109       -14.2617
  65   2.0000      -0.514632       -14.0039
  66   2.0000      -0.502603       -13.6765
  67   2.0000      -0.498764       -13.5720
  68   2.0000      -0.479657       -13.0521
  69   2.0000      -0.465442       -12.6653
  70   2.0000      -0.455136       -12.3849
  71   2.0000      -0.449661       -12.2359
  72   2.0000      -0.356447        -9.6994
  73   2.0000      -0.349019        -9.4973
  74   2.0000      -0.329941        -8.9781
  75   2.0000      -0.324757        -8.8371
  76   2.0000      -0.320658        -8.7255
  77   0.0000       0.074042         2.0148
  78   0.0000       0.101426         2.7599
  79   0.0000       0.120728         3.2852
  80   0.0000       0.128793         3.5046
  81   0.0000       0.130245         3.5441

MULLIKEN ATOMIC CHARGES
-----------------------
   0 C :   -0.327600
   1 C :    0.035586
   2 O :   -0.376885
   3 C :    0.448680
   4 O :   -0.376189
   5 C :   -0.239218
   6 C :    0.167920
   7 C :   -0.277611
   8 N :   -0.129792
   9 C :    0.208330
  10 S :   -0.437542
  11 N :   -0.218568
  12 C :    0.042618
  13 C :    0.012965
  14 C :   -0.181171
  15 C :   -0.145462
  16 C :   -0.270696
  17 C :    0.311523
  18 O :   -0.357654
  19 C :   -0.237550
  20 H :    0.123730
  21 H :    0.117439
  22 H :    0.096738
  23 H :    0.114165
  24 H :    0.114374
  25 H :    0.141516
  26 H :    0.095969
  27 H :    0.119577
  28 H :    0.199052
  29 H :    0.201990
  30 H :    0.151516
  31 H :    0.157869
  32 H :    0.165632
  33 H :    0.133604
  34 H :    0.240761
  35 H :    0.174381
Sum of atomic charges:   -0.0000000

LOEWDIN ATOMIC CHARGES
----------------------
   0 C :    0.105920
   1 C :   -0.015785
   2 O :    0.287943
   3 C :   -0.425873
   4 O :    0.129393
   5 C :   -0.097675
   6 C :   -0.064379
   7 C :    0.128975
   8 N :    0.407404
   9 C :   -0.458044
  10 S :   -0.033669
  11 N :    0.395773
  12 C :   -0.051887
  13 C :   -0.042906
  14 C :    0.022595
  15 C :    0.039938
  16 C :   -0.000962
  17 C :   -0.193533
  18 O :    0.395928
  19 C :    0.030620
  20 H :   -0.030267
  21 H :   -0.022319
  22 H :   -0.032443
  23 H :   -0.021688
  24 H :   -0.028261
  25 H :   -0.004153
  26 H :   -0.022086
  27 H :   -0.009996
  28 H :   -0.056875
  29 H :   -0.063561
  30 H :   -0.011582
  31 H :   -0.026337
  32 H :   -0.019864
  33 H :   -0.034613
  34 H :   -0.153290
  35 H :   -0.022439

  Mayer bond orders larger than 0.100000
B(  0-C ,  1-C ) :   0.9614 B(  0-C , 20-H ) :   0.9668 B(  0-C , 21-H ) :   0.9771
B(  0-C , 22-H ) :   0.9718 B(  1-C ,  2-O ) :   0.8932 B(  1-C , 23-H ) :   0.9797
B(  1-C , 24-H ) :   0.9856 B(  2-O ,  3-C ) :   1.1069 B(  3-C ,  4-O ) :   2.0856
B(  3-C ,  5-C ) :   0.9991 B(  5-C ,  6-C ) :   1.6486 B(  5-C , 12-C ) :   0.9665
B(  6-C ,  7-C ) :   0.9580 B(  6-C ,  8-N ) :   1.1410 B(  7-C , 25-H ) :   0.9556
B(  7-C , 26-H ) :   0.9853 B(  7-C , 27-H ) :   0.9721 B(  8-N ,  9-C ) :   1.1904
B(  8-N , 28-H ) :   0.9484 B(  9-C , 10-S ) :   1.6148 B(  9-C , 11-N ) :   1.2945
B( 11-N , 12-C ) :   0.9776 B( 11-N , 29-H ) :   0.9467 B( 12-C , 13-C ) :   0.9587
B( 12-C , 30-H ) :   1.0025 B( 13-C , 14-C ) :   1.3706 B( 13-C , 19-C ) :   1.3515
B( 14-C , 15-C ) :   1.3990 B( 14-C , 31-H ) :   0.9679 B( 15-C , 16-C ) :   1.3557
B( 15-C , 32-H ) :   0.9694 B( 16-C , 17-C ) :   1.3341 B( 16-C , 33-H ) :   0.9838
B( 17-C , 18-O ) :   1.1069 B( 17-C , 19-C ) :   1.3631 B( 18-O , 34-H ) :   0.9796
B( 19-C , 35-H ) :   0.9600

MP2 TOTAL ENERGY:    -1274.316365071 Eh
FINAL SINGLE POINT ENERGY     -1274.316365071021

DIPOLE MOMENT
-------------
                                X             Y             Z
Electronic contribution:      9.15432       7.75883       6.55187
Nuclear contribution   :    -10.47556      -9.40703      -6.60497
                        -----------------------------------------
Total Dipole Moment    :     -1.32124      -1.64820      -0.05310
                        -----------------------------------------
Magnitude (a.u.)       :      2.11307
Magnitude (Debye)      :      5.37099

Rotational constants in cm-1:     0.012017     0.009297     0.006205
Rotational constants in MHz :   360.270924   278.715426   186.020975

                             ****ORCA TERMINATED NORMALLY****
TOTAL RUN TIME: 0 days 2 hours 13 minutes 1 seconds 110 msec
