                         Program Version 4.2.0 -  RELEASE  -
|  1> ! ri-mp2 cc-pvtz cc-pvtz/c TightSCF NoKeepInts
|  2>
|  3> %scf
|  4>   MaxCore 4096
|  5> end
|  6> *xyz  0  1
|  7>     C       14.8435207   14.6703622   15.2231613
|  8>     C       14.8495085   15.9666339   14.3812937
|  9>     O       15.8891437   16.9196730   14.7222892
| 10>     C       16.8718861   16.7179952   15.6523938
| 11>     O       17.4948068   15.6739982   15.7462723
| 12>     C       17.0696251   17.8593388   16.6094372
| 13>     C       16.8649057   19.1580552   16.2637412
| 14>     C       16.2155677   19.6968838   15.0040779
| 15>     N       17.3130917   20.1937931   17.0877279
| 16>     C       18.1560530   20.0274796   18.1532374
| 17>     S       18.7309469   21.3134561   19.0200254
| 18>     N       18.5157488   18.7376446   18.4508080
| 19>     C       17.9562459   17.5283381   17.8163832
| 20>     C       17.2934330   16.5800657   18.8070830
| 21>     C       17.6826030   15.2303338   18.8778092
| 22>     C       17.0667399   14.3555339   19.7884502
| 23>     C       16.0536717   14.8350299   20.6364365
| 24>     C       15.6622759   16.1791688   20.5663778
| 25>     O       14.6807384   16.6434798   21.3801799
| 26>     C       16.2764878   17.0471740   19.6579450
| 27>     H       15.7143569   14.0437050   14.9932826
| 28>     H       13.9470033   14.0794781   15.0005026
| 29>     H       14.8409985   14.8925565   16.2980509
| 30>     H       14.9507274   15.6944733   13.3226789
| 31>     H       13.8761325   16.4607602   14.4954649
| 32>     H       15.1582514   19.4081459   14.9585953
| 33>     H       16.7141371   19.3030339   14.1093919
| 34>     H       16.2580223   20.7908787   14.9374645
| 35>     H       17.0762706   21.1480578   16.8683771
| 36>     H       19.1219382   18.6400800   19.2555101
| 37>     H       18.8717530   17.0800146   17.4033954
| 38>     H       18.4551279   14.8554971   18.2102812
| 39>     H       17.3722118   13.3115618   19.8295204
| 40>     H       15.5745449   14.1625288   21.3400872
| 41>     H       14.4069449   15.9101742   21.9512453
| 42>     H       15.9615786   18.0846164   19.6190215
| 43> *
| 44>
| 45>                          ****END OF INPUT****

CARTESIAN COORDINATES (ANGSTROEM)
---------------------------------
  C     14.843521   14.670362   15.223161
  C     14.849508   15.966634   14.381294
  O     15.889144   16.919673   14.722289
  C     16.871886   16.717995   15.652394
  O     17.494807   15.673998   15.746272
  C     17.069625   17.859339   16.609437
  C     16.864906   19.158055   16.263741
  C     16.215568   19.696884   15.004078
  N     17.313092   20.193793   17.087728
  C     18.156053   20.027480   18.153237
  S     18.730947   21.313456   19.020025
  N     18.515749   18.737645   18.450808
  C     17.956246   17.528338   17.816383
  C     17.293433   16.580066   18.807083
  C     17.682603   15.230334   18.877809
  C     17.066740   14.355534   19.788450
  C     16.053672   14.835030   20.636436
  C     15.662276   16.179169   20.566378
  O     14.680738   16.643480   21.380180
  C     16.276488   17.047174   19.657945
  H     15.714357   14.043705   14.993283
  H     13.947003   14.079478   15.000503
  H     14.840998   14.892556   16.298051
  H     14.950727   15.694473   13.322679
  H     13.876133   16.460760   14.495465
  H     15.158251   19.408146   14.958595
  H     16.714137   19.303034   14.109392
  H     16.258022   20.790879   14.937465
  H     17.076271   21.148058   16.868377
  H     19.121938   18.640080   19.255510
  H     18.871753   17.080015   17.403395
  H     18.455128   14.855497   18.210281
  H     17.372212   13.311562   19.829520
  H     15.574545   14.162529   21.340087
  H     14.406945   15.910174   21.951245
  H     15.961579   18.084616   19.619021

 Total Charge           Charge          ....    0
 Multiplicity           Mult            ....    1
 Number of Electrons    NEL             ....  154
 Basis Dimension        Dim             ....  828

ORBITAL ENERGIES
----------------

  NO   OCC          E(Eh)            E(eV)
   0   2.0000     -91.887676     -2500.3908
   1   2.0000     -20.593401      -560.3749
   2   2.0000     -20.592927      -560.3620
   3   2.0000     -20.546658      -559.1030
   4   2.0000     -15.627915      -425.2572
   5   2.0000     -15.605461      -424.6462
   6   2.0000     -11.396786      -310.1223
   7   2.0000     -11.382258      -309.7270
   8   2.0000     -11.336901      -308.4927
   9   2.0000     -11.309049      -307.7349
  10   2.0000     -11.307071      -307.6810
  11   2.0000     -11.303824      -307.5927
  12   2.0000     -11.259479      -306.3860
  13   2.0000     -11.258226      -306.3519
  14   2.0000     -11.256038      -306.2924
  15   2.0000     -11.249096      -306.1035
  16   2.0000     -11.239282      -305.8364
  17   2.0000     -11.235278      -305.7275
  18   2.0000     -11.231895      -305.6354
  19   2.0000     -11.227184      -305.5072
  20   2.0000      -8.892765      -241.9844
  21   2.0000      -6.574344      -178.8970
  22   2.0000      -6.572340      -178.8425
  23   2.0000      -6.571754      -178.8265
  24   2.0000      -1.445631       -39.3376
  25   2.0000      -1.412685       -38.4411
  26   2.0000      -1.355475       -36.8844
  27   2.0000      -1.339269       -36.4434
  28   2.0000      -1.236584       -33.6492
  29   2.0000      -1.153283       -31.3824
  30   2.0000      -1.120100       -30.4795
  31   2.0000      -1.042553       -28.3693
  32   2.0000      -1.033663       -28.1274
  33   2.0000      -1.010906       -27.5081
  34   2.0000      -0.998602       -27.1733
  35   2.0000      -0.983488       -26.7621
  36   2.0000      -0.921243       -25.0683
  37   2.0000      -0.897240       -24.4152
  38   2.0000      -0.847817       -23.0703
  39   2.0000      -0.835954       -22.7475
  40   2.0000      -0.829181       -22.5632
  41   2.0000      -0.818494       -22.2723
  42   2.0000      -0.742923       -20.2160
  43   2.0000      -0.728398       -19.8207
  44   2.0000      -0.725205       -19.7338
  45   2.0000      -0.690173       -18.7806
  46   2.0000      -0.684608       -18.6291
  47   2.0000      -0.676825       -18.4173
  48   2.0000      -0.673618       -18.3301
  49   2.0000      -0.663939       -18.0667
  50   2.0000      -0.648494       -17.6464
  51   2.0000      -0.643852       -17.5201
  52   2.0000      -0.632227       -17.2038
  53   2.0000      -0.618321       -16.8254
  54   2.0000      -0.603518       -16.4226
  55   2.0000      -0.598894       -16.2967
  56   2.0000      -0.596271       -16.2254
  57   2.0000      -0.575243       -15.6531
  58   2.0000      -0.573588       -15.6081
  59   2.0000      -0.564791       -15.3688
  60   2.0000      -0.554651       -15.0928
  61   2.0000      -0.545754       -14.8507
  62   2.0000      -0.538311       -14.6482
  63   2.0000      -0.525748       -14.3063
  64   2.0000      -0.515973       -14.0403
  65   2.0000      -0.510383       -13.8882
  66   2.0000      -0.499625       -13.5955
  67   2.0000      -0.494173       -13.4471
  68   2.0000      -0.479414       -13.0455
  69   2.0000      -0.463280       -12.6065
  70   2.0000      -0.455463       -12.3938
  71   2.0000      -0.447814       -12.1856
  72   2.0000      -0.352297        -9.5865
  73   2.0000      -0.345543        -9.4027
  74   2.0000      -0.326829        -8.8935
  75   2.0000      -0.316868        -8.6224
  76   2.0000      -0.315679        -8.5901
  77   0.0000       0.076226         2.0742
  78   0.0000       0.110010         2.9935
  79   0.0000       0.121961         3.3187
  80   0.0000       0.134789         3.6678
  81   0.0000       0.138963         3.7814

MULLIKEN ATOMIC CHARGES
-----------------------
   0 C :   -0.306408
   1 C :    0.057849
   2 O :   -0.368646
   3 C :    0.428889
   4 O :   -0.408599
   5 C :   -0.171710
   6 C :    0.152414
   7 C :   -0.280280
   8 N :   -0.128080
   9 C :    0.207930
  10 S :   -0.443031
  11 N :   -0.212115
  12 C :    0.045557
  13 C :    0.031572
  14 C :   -0.176959
  15 C :   -0.133822
  16 C :   -0.278262
  17 C :    0.314830
  18 O :   -0.358588
  19 C :   -0.254058
  20 H :    0.122774
  21 H :    0.100263
  22 H :    0.106725
  23 H :    0.095531
  24 H :    0.089117
  25 H :    0.126113
  26 H :    0.127459
  27 H :    0.101734
  28 H :    0.198624
  29 H :    0.199817
  30 H :    0.156994
  31 H :    0.161800
  32 H :    0.160721
  33 H :    0.129013
  34 H :    0.240037
  35 H :    0.164792
Sum of atomic charges:    0.0000000

LOEWDIN ATOMIC CHARGES
----------------------
   0 C :    0.105409
   1 C :   -0.009156
   2 O :    0.289649
   3 C :   -0.416362
   4 O :    0.116892
   5 C :   -0.093848
   6 C :   -0.065203
   7 C :    0.125160
   8 N :    0.405296
   9 C :   -0.458432
  10 S :   -0.038287
  11 N :    0.396330
  12 C :   -0.048426
  13 C :   -0.041231
  14 C :    0.024178
  15 C :    0.040406
  16 C :   -0.001571
  17 C :   -0.192900
  18 O :    0.393239
  19 C :    0.029102
  20 H :   -0.023477
  21 H :   -0.025917
  22 H :   -0.024835
  23 H :   -0.027600
  24 H :   -0.029534
  25 H :   -0.009973
  26 H :   -0.008276
  27 H :   -0.021322
  28 H :   -0.058811
  29 H :   -0.063412
  30 H :   -0.008135
  31 H :   -0.023677
  32 H :   -0.020878
  33 H :   -0.036041
  34 H :   -0.154733
  35 H :   -0.023623

  Mayer bond orders larger than 0.100000
B(  0-C ,  1-C ) :   0.9725 B(  0-C , 20-H ) :   0.9717 B(  0-C , 21-H ) :   0.9730
B(  0-C , 22-H ) :   0.9723 B(  1-C ,  2-O ) :   0.9062 B(  1-C , 23-H ) :   0.9800
B(  1-C , 24-H ) :   0.9782 B(  2-O ,  3-C ) :   1.1022 B(  3-C ,  4-O ) :   2.0053
B(  3-C ,  5-C ) :   1.0227 B(  5-C ,  6-C ) :   1.6636 B(  5-C , 12-C ) :   0.9462
B(  6-C ,  7-C ) :   0.9548 B(  6-C ,  8-N ) :   1.1375 B(  7-C , 25-H ) :   0.9649
B(  7-C , 26-H ) :   0.9648 B(  7-C , 27-H ) :   0.9908 B(  8-N ,  9-C ) :   1.1859
B(  8-N , 28-H ) :   0.9471 B(  9-C , 10-S ) :   1.6079 B(  9-C , 11-N ) :   1.3052
B( 11-N , 12-C ) :   0.9768 B( 11-N , 29-H ) :   0.9486 B( 12-C , 13-C ) :   0.9698
B( 12-C , 30-H ) :   0.9970 B( 13-C , 14-C ) :   1.3775 B( 13-C , 19-C ) :   1.3645
B( 14-C , 15-C ) :   1.3967 B( 14-C , 31-H ) :   0.9627 B( 15-C , 16-C ) :   1.3588
B( 15-C , 32-H ) :   0.9710 B( 16-C , 17-C ) :   1.3329 B( 16-C , 33-H ) :   0.9857
B( 17-C , 18-O ) :   1.1043 B( 17-C , 19-C ) :   1.3667 B( 18-O , 34-H ) :   0.9805
B( 19-C , 35-H ) :   0.9597

MP2 TOTAL ENERGY:    -1274.328029887 Eh
FINAL SINGLE POINT ENERGY     -1274.328029887093

DIPOLE MOMENT
-------------
                                X             Y             Z
Electronic contribution:      9.25568      10.38213       9.47477
Nuclear contribution   :    -10.80874     -11.67665     -10.48050
                        -----------------------------------------
Total Dipole Moment    :     -1.55305      -1.29452      -1.00573
                        -----------------------------------------
Magnitude (a.u.)       :      2.25815
Magnitude (Debye)      :      5.73977

Rotational constants in cm-1:     0.010504     0.009197     0.005809
Rotational constants in MHz :   314.909115   275.704554   174.159446

                             ****ORCA TERMINATED NORMALLY****
TOTAL RUN TIME: 0 days 1 hours 57 minutes 57 seconds 775 msec
