                         Program Version 4.2.0 -  RELEASE  -
|  1> ! ri-mp2 cc-pvtz cc-pvtz/c TightSCF NoKeepInts
|  2>
|  3> %scf
|  4>   MaxCore 4096
|  5> end
|  6> *xyz  0  1
|  7>     C       15.5013833   13.9469547   15.1229417
|  8>     C       14.9626046   15.3741016   15.3169185
|  9>     O       16.0801436   16.2138211   15.6469646
| 10>     C       15.9271421   17.5689047   15.5792543
| 11>     O       15.1369771   18.0910469   14.8113746
| 12>     C       16.7453854   18.2975640   16.6113294
| 13>     C       16.9175023   19.6425308   16.5388952
| 14>     C       16.1671276   20.6152467   15.6526905
| 15>     N       17.8785230   20.2883142   17.3201565
| 16>     C       18.8349761   19.6457837   18.0586976
| 17>     S       20.0042843   20.4721974   18.8866408
| 18>     N       18.7871781   18.2747449   18.0594471
| 19>     C       17.7259529   17.4549748   17.4448282
| 20>     C       17.0532413   16.5224358   18.4438328
| 21>     C       17.2856822   15.1355403   18.3970118
| 22>     C       16.6619745   14.2759944   19.3169383
| 23>     C       15.8027113   14.8088193   20.2932960
| 24>     C       15.5741664   16.1909979   20.3449743
| 25>     O       14.7460514   16.7080243   21.2872442
| 26>     C       16.1957076   17.0437277   19.4273373
| 27>     H       15.9631645   13.5798202   16.0476966
| 28>     H       16.2533103   13.9226485   14.3243962
| 29>     H       14.6882675   13.2633031   14.8503761
| 30>     H       14.4890705   15.7058895   14.3825669
| 31>     H       14.2136049   15.4000583   16.1194714
| 32>     H       15.0837834   20.5077372   15.7925190
| 33>     H       16.3819699   20.4195874   14.5943817
| 34>     H       16.4193189   21.6631216   15.8535493
| 35>     H       17.9384537   21.2939608   17.3104336
| 36>     H       19.4864621   17.8294098   18.6400499
| 37>     H       18.3175500   16.8809298   16.7175079
| 38>     H       17.9455320   14.7228628   17.6384613
| 39>     H       16.8452985   13.2038917   19.2719118
| 40>     H       15.3192067   14.1493517   21.0064842
| 41>     H       14.4411742   15.9743199   21.8418564
| 42>     H       16.0121177   18.1113827   19.4855638
| 43> *
| 44>
| 45>                          ****END OF INPUT****

CARTESIAN COORDINATES (ANGSTROEM)
---------------------------------
  C     15.501383   13.946955   15.122942
  C     14.962605   15.374102   15.316918
  O     16.080144   16.213821   15.646965
  C     15.927142   17.568905   15.579254
  O     15.136977   18.091047   14.811375
  C     16.745385   18.297564   16.611329
  C     16.917502   19.642531   16.538895
  C     16.167128   20.615247   15.652690
  N     17.878523   20.288314   17.320156
  C     18.834976   19.645784   18.058698
  S     20.004284   20.472197   18.886641
  N     18.787178   18.274745   18.059447
  C     17.725953   17.454975   17.444828
  C     17.053241   16.522436   18.443833
  C     17.285682   15.135540   18.397012
  C     16.661974   14.275994   19.316938
  C     15.802711   14.808819   20.293296
  C     15.574166   16.190998   20.344974
  O     14.746051   16.708024   21.287244
  C     16.195708   17.043728   19.427337
  H     15.963164   13.579820   16.047697
  H     16.253310   13.922648   14.324396
  H     14.688268   13.263303   14.850376
  H     14.489071   15.705889   14.382567
  H     14.213605   15.400058   16.119471
  H     15.083783   20.507737   15.792519
  H     16.381970   20.419587   14.594382
  H     16.419319   21.663122   15.853549
  H     17.938454   21.293961   17.310434
  H     19.486462   17.829410   18.640050
  H     18.317550   16.880930   16.717508
  H     17.945532   14.722863   17.638461
  H     16.845298   13.203892   19.271912
  H     15.319207   14.149352   21.006484
  H     14.441174   15.974320   21.841856
  H     16.012118   18.111383   19.485564

 Total Charge           Charge          ....    0
 Multiplicity           Mult            ....    1
 Number of Electrons    NEL             ....  154
 Basis Dimension        Dim             ....  828

ORBITAL ENERGIES
----------------

  NO   OCC          E(Eh)            E(eV)
   0   2.0000     -91.889345     -2500.4362
   1   2.0000     -20.597536      -560.4874
   2   2.0000     -20.597061      -560.4745
   3   2.0000     -20.541867      -558.9726
   4   2.0000     -15.629729      -425.3065
   5   2.0000     -15.607488      -424.7013
   6   2.0000     -11.393538      -310.0339
   7   2.0000     -11.384009      -309.7746
   8   2.0000     -11.337801      -308.5172
   9   2.0000     -11.314853      -307.8928
  10   2.0000     -11.308097      -307.7090
  11   2.0000     -11.294948      -307.3512
  12   2.0000     -11.261826      -306.4499
  13   2.0000     -11.258760      -306.3664
  14   2.0000     -11.256357      -306.3010
  15   2.0000     -11.251919      -306.1803
  16   2.0000     -11.244747      -305.9851
  17   2.0000     -11.240029      -305.8567
  18   2.0000     -11.239710      -305.8480
  19   2.0000     -11.229413      -305.5679
  20   2.0000      -8.894410      -242.0292
  21   2.0000      -6.575980      -178.9415
  22   2.0000      -6.573984      -178.8872
  23   2.0000      -6.573392      -178.8711
  24   2.0000      -1.451269       -39.4911
  25   2.0000      -1.417207       -38.5642
  26   2.0000      -1.354045       -36.8454
  27   2.0000      -1.340806       -36.4852
  28   2.0000      -1.238725       -33.7074
  29   2.0000      -1.158635       -31.5281
  30   2.0000      -1.121570       -30.5195
  31   2.0000      -1.043808       -28.4034
  32   2.0000      -1.039358       -28.2824
  33   2.0000      -1.016266       -27.6540
  34   2.0000      -0.996748       -27.1229
  35   2.0000      -0.985202       -26.8087
  36   2.0000      -0.922430       -25.1006
  37   2.0000      -0.886055       -24.1108
  38   2.0000      -0.846761       -23.0416
  39   2.0000      -0.838666       -22.8213
  40   2.0000      -0.835206       -22.7271
  41   2.0000      -0.819271       -22.2935
  42   2.0000      -0.764905       -20.8141
  43   2.0000      -0.734454       -19.9855
  44   2.0000      -0.721535       -19.6340
  45   2.0000      -0.696266       -18.9464
  46   2.0000      -0.686605       -18.6835
  47   2.0000      -0.678831       -18.4719
  48   2.0000      -0.676896       -18.4193
  49   2.0000      -0.661465       -17.9994
  50   2.0000      -0.647575       -17.6214
  51   2.0000      -0.641070       -17.4444
  52   2.0000      -0.633827       -17.2473
  53   2.0000      -0.608055       -16.5460
  54   2.0000      -0.604958       -16.4617
  55   2.0000      -0.600969       -16.3532
  56   2.0000      -0.599412       -16.3108
  57   2.0000      -0.578183       -15.7332
  58   2.0000      -0.570197       -15.5158
  59   2.0000      -0.565640       -15.3918
  60   2.0000      -0.559610       -15.2278
  61   2.0000      -0.543698       -14.7948
  62   2.0000      -0.541624       -14.7383
  63   2.0000      -0.525110       -14.2890
  64   2.0000      -0.522069       -14.2062
  65   2.0000      -0.513681       -13.9780
  66   2.0000      -0.504176       -13.7193
  67   2.0000      -0.498118       -13.5545
  68   2.0000      -0.485596       -13.2137
  69   2.0000      -0.465130       -12.6568
  70   2.0000      -0.457902       -12.4602
  71   2.0000      -0.445732       -12.1290
  72   2.0000      -0.353448        -9.6178
  73   2.0000      -0.350819        -9.5463
  74   2.0000      -0.328516        -8.9394
  75   2.0000      -0.322127        -8.7655
  76   2.0000      -0.318597        -8.6695
  77   0.0000       0.075394         2.0516
  78   0.0000       0.102961         2.8017
  79   0.0000       0.125146         3.4054
  80   0.0000       0.132097         3.5945
  81   0.0000       0.136524         3.7150

MULLIKEN ATOMIC CHARGES
-----------------------
   0 C :   -0.272045
   1 C :    0.029532
   2 O :   -0.349759
   3 C :    0.443227
   4 O :   -0.429575
   5 C :   -0.238369
   6 C :    0.175011
   7 C :   -0.267546
   8 N :   -0.126267
   9 C :    0.210772
  10 S :   -0.441122
  11 N :   -0.215815
  12 C :    0.063690
  13 C :    0.040976
  14 C :   -0.191764
  15 C :   -0.127443
  16 C :   -0.277753
  17 C :    0.316224
  18 O :   -0.356540
  19 C :   -0.249701
  20 H :    0.091599
  21 H :    0.097743
  22 H :    0.094956
  23 H :    0.120064
  24 H :    0.093576
  25 H :    0.133775
  26 H :    0.129350
  27 H :    0.094579
  28 H :    0.199798
  29 H :    0.200679
  30 H :    0.152424
  31 H :    0.158299
  32 H :    0.162488
  33 H :    0.130868
  34 H :    0.240751
  35 H :    0.163320
Sum of atomic charges:   -0.0000000

LOEWDIN ATOMIC CHARGES
----------------------
   0 C :    0.107061
   1 C :   -0.016426
   2 O :    0.307295
   3 C :   -0.415473
   4 O :    0.098959
   5 C :   -0.096862
   6 C :   -0.055735
   7 C :    0.131475
   8 N :    0.407342
   9 C :   -0.456307
  10 S :   -0.035878
  11 N :    0.394501
  12 C :   -0.054602
  13 C :   -0.039388
  14 C :    0.017279
  15 C :    0.038622
  16 C :   -0.000718
  17 C :   -0.189818
  18 O :    0.395212
  19 C :    0.033092
  20 H :   -0.030819
  21 H :   -0.026393
  22 H :   -0.024781
  23 H :   -0.027482
  24 H :   -0.030181
  25 H :   -0.004135
  26 H :   -0.004788
  27 H :   -0.023614
  28 H :   -0.057067
  29 H :   -0.064409
  30 H :   -0.013290
  31 H :   -0.029517
  32 H :   -0.021437
  33 H :   -0.035235
  34 H :   -0.153821
  35 H :   -0.022661

  Mayer bond orders larger than 0.100000
B(  0-C ,  1-C ) :   0.9731 B(  0-C , 20-H ) :   0.9774 B(  0-C , 21-H ) :   0.9771
B(  0-C , 22-H ) :   0.9780 B(  1-C ,  2-O ) :   0.8938 B(  1-C , 23-H ) :   0.9798
B(  1-C , 24-H ) :   0.9725 B(  2-O ,  3-C ) :   1.1528 B(  3-C ,  4-O ) :   1.9812
B(  3-C ,  5-C ) :   1.0649 B(  5-C ,  6-C ) :   1.6345 B(  5-C , 12-C ) :   0.9570
B(  6-C ,  7-C ) :   0.9656 B(  6-C ,  8-N ) :   1.1546 B(  7-C , 25-H ) :   0.9609
B(  7-C , 26-H ) :   0.9588 B(  7-C , 27-H ) :   0.9905 B(  8-N ,  9-C ) :   1.1869
B(  8-N , 28-H ) :   0.9464 B(  9-C , 10-S ) :   1.6065 B(  9-C , 11-N ) :   1.3095
B( 11-N , 12-C ) :   0.9674 B( 11-N , 29-H ) :   0.9484 B( 12-C , 13-C ) :   0.9619
B( 12-C , 30-H ) :   1.0014 B( 13-C , 14-C ) :   1.3578 B( 13-C , 19-C ) :   1.3791
B( 14-C , 15-C ) :   1.3870 B( 14-C , 31-H ) :   0.9688 B( 15-C , 16-C ) :   1.3620
B( 15-C , 32-H ) :   0.9697 B( 16-C , 17-C ) :   1.3335 B( 16-C , 33-H ) :   0.9846
B( 17-C , 18-O ) :   1.1049 B( 17-C , 19-C ) :   1.3651 B( 18-O , 34-H ) :   0.9797
B( 19-C , 35-H ) :   0.9595

MP2 TOTAL ENERGY:    -1274.341422968 Eh
FINAL SINGLE POINT ENERGY     -1274.341422967585

DIPOLE MOMENT
-------------
                                X             Y             Z
Electronic contribution:      8.42911      11.33863       8.11225
Nuclear contribution   :     -9.58642     -12.94799      -8.37219
                        -----------------------------------------
Total Dipole Moment    :     -1.15731      -1.60936      -0.25994
                        -----------------------------------------
Magnitude (a.u.)       :      1.99924
Magnitude (Debye)      :      5.08167

Rotational constants in cm-1:     0.011671     0.008338     0.005949
Rotational constants in MHz :   349.896984   249.966869   178.356262

                             ****ORCA TERMINATED NORMALLY****
TOTAL RUN TIME: 0 days 1 hours 38 minutes 35 seconds 609 msec
