                         Program Version 4.2.0 -  RELEASE  -
|  1> ! ri-mp2 cc-pvtz cc-pvtz/c TightSCF NoKeepInts
|  2>
|  3> %scf
|  4>   MaxCore 4096
|  5> end
|  6> *xyz  0  1
|  7>     C       14.8685734   14.1980350   15.3294857
|  8>     C       15.1040175   15.5529101   16.0162667
|  9>     O       16.3301345   16.0898007   15.4888003
| 10>     C       16.3759312   17.4347464   15.2832835
| 11>     O       15.9328498   17.9078322   14.2529910
| 12>     C       16.8818567   18.2265090   16.4623476
| 13>     C       16.9196750   19.5838941   16.4026133
| 14>     C       16.1983035   20.4809416   15.4174414
| 15>     N       17.6718450   20.3275714   17.3144872
| 16>     C       18.5958630   19.7935603   18.1701044
| 17>     S       19.5422098   20.7396747   19.1418751
| 18>     N       18.7146662   18.4275068   18.1607461
| 19>     C       17.8293392   17.4976390   17.4346710
| 20>     C       17.1769675   16.4875698   18.3659131
| 21>     C       17.5893459   15.1421426   18.3656632
| 22>     C       16.9854143   14.2119645   19.2282961
| 23>     C       15.9680353   14.6327521   20.1021817
| 24>     C       15.5643634   15.9751332   20.1119076
| 25>     O       14.5823452   16.3840433   20.9536189
| 26>     C       16.1645631   16.8982484   19.2497464
| 27>     H       13.9306372   13.7477634   15.6761303
| 28>     H       15.6879454   13.5042658   15.5548159
| 29>     H       14.8092090   14.3229818   14.2408103
| 30>     H       14.2596635   16.2161497   15.7817569
| 31>     H       15.1510175   15.4248620   17.1031039
| 32>     H       15.1568556   20.1600655   15.2881926
| 33>     H       16.6793801   20.4363533   14.4317192
| 34>     H       16.1757133   21.5313296   15.7309219
| 35>     H       17.6171299   21.3336407   17.3057783
| 36>     H       19.3885502   18.0601216   18.8208434
| 37>     H       18.5723298   17.0034414   16.7922985
| 38>     H       18.3727790   14.8148094   17.6867776
| 39>     H       17.3068114   13.1716396   19.2185806
| 40>     H       15.4997902   13.9177035   20.7709224
| 41>     H       14.3372477   15.6272864   21.5075060
| 42>     H       15.8456411   17.9351110   19.2754021
| 43> *
| 44>
| 45>                          ****END OF INPUT****

CARTESIAN COORDINATES (ANGSTROEM)
---------------------------------
  C     14.868573   14.198035   15.329486
  C     15.104017   15.552910   16.016267
  O     16.330134   16.089801   15.488800
  C     16.375931   17.434746   15.283283
  O     15.932850   17.907832   14.252991
  C     16.881857   18.226509   16.462348
  C     16.919675   19.583894   16.402613
  C     16.198304   20.480942   15.417441
  N     17.671845   20.327571   17.314487
  C     18.595863   19.793560   18.170104
  S     19.542210   20.739675   19.141875
  N     18.714666   18.427507   18.160746
  C     17.829339   17.497639   17.434671
  C     17.176967   16.487570   18.365913
  C     17.589346   15.142143   18.365663
  C     16.985414   14.211965   19.228296
  C     15.968035   14.632752   20.102182
  C     15.564363   15.975133   20.111908
  O     14.582345   16.384043   20.953619
  C     16.164563   16.898248   19.249746
  H     13.930637   13.747763   15.676130
  H     15.687945   13.504266   15.554816
  H     14.809209   14.322982   14.240810
  H     14.259664   16.216150   15.781757
  H     15.151018   15.424862   17.103104
  H     15.156856   20.160066   15.288193
  H     16.679380   20.436353   14.431719
  H     16.175713   21.531330   15.730922
  H     17.617130   21.333641   17.305778
  H     19.388550   18.060122   18.820843
  H     18.572330   17.003441   16.792299
  H     18.372779   14.814809   17.686778
  H     17.306811   13.171640   19.218581
  H     15.499790   13.917704   20.770922
  H     14.337248   15.627286   21.507506
  H     15.845641   17.935111   19.275402

 Total Charge           Charge          ....    0
 Multiplicity           Mult            ....    1
 Number of Electrons    NEL             ....  154
 Basis Dimension        Dim             ....  828

ORBITAL ENERGIES
----------------

  NO   OCC          E(Eh)            E(eV)
   0   2.0000     -91.891380     -2500.4916
   1   2.0000     -20.602687      -560.6276
   2   2.0000     -20.581498      -560.0510
   3   2.0000     -20.547050      -559.1137
   4   2.0000     -15.631543      -425.3559
   5   2.0000     -15.609586      -424.7584
   6   2.0000     -11.391569      -309.9804
   7   2.0000     -11.385641      -309.8190
   8   2.0000     -11.339796      -308.5715
   9   2.0000     -11.320768      -308.0538
  10   2.0000     -11.311908      -307.8127
  11   2.0000     -11.294486      -307.3386
  12   2.0000     -11.266355      -306.5731
  13   2.0000     -11.261903      -306.4520
  14   2.0000     -11.259321      -306.3817
  15   2.0000     -11.253518      -306.2238
  16   2.0000     -11.250620      -306.1449
  17   2.0000     -11.245202      -305.9975
  18   2.0000     -11.244703      -305.9839
  19   2.0000     -11.224372      -305.4307
  20   2.0000      -8.896427      -242.0841
  21   2.0000      -6.577993      -178.9963
  22   2.0000      -6.576001      -178.9421
  23   2.0000      -6.575403      -178.9258
  24   2.0000      -1.447709       -39.3942
  25   2.0000      -1.422427       -38.7062
  26   2.0000      -1.353389       -36.8276
  27   2.0000      -1.343302       -36.5531
  28   2.0000      -1.241441       -33.7813
  29   2.0000      -1.163732       -31.6668
  30   2.0000      -1.123042       -30.5595
  31   2.0000      -1.047754       -28.5108
  32   2.0000      -1.033499       -28.1229
  33   2.0000      -1.021656       -27.8007
  34   2.0000      -0.999524       -27.1984
  35   2.0000      -0.987373       -26.8678
  36   2.0000      -0.925674       -25.1889
  37   2.0000      -0.876070       -23.8391
  38   2.0000      -0.850117       -23.1329
  39   2.0000      -0.843278       -22.9468
  40   2.0000      -0.840339       -22.8668
  41   2.0000      -0.831378       -22.6229
  42   2.0000      -0.761945       -20.7336
  43   2.0000      -0.738553       -20.0970
  44   2.0000      -0.724831       -19.7237
  45   2.0000      -0.701304       -19.0835
  46   2.0000      -0.690976       -18.8024
  47   2.0000      -0.678434       -18.4611
  48   2.0000      -0.673359       -18.3230
  49   2.0000      -0.655550       -17.8384
  50   2.0000      -0.649368       -17.6702
  51   2.0000      -0.643263       -17.5041
  52   2.0000      -0.638151       -17.3650
  53   2.0000      -0.613542       -16.6953
  54   2.0000      -0.611600       -16.6425
  55   2.0000      -0.604238       -16.4422
  56   2.0000      -0.601356       -16.3637
  57   2.0000      -0.581958       -15.8359
  58   2.0000      -0.572307       -15.5733
  59   2.0000      -0.566879       -15.4256
  60   2.0000      -0.559390       -15.2218
  61   2.0000      -0.544025       -14.8037
  62   2.0000      -0.537984       -14.6393
  63   2.0000      -0.529255       -14.4018
  64   2.0000      -0.517349       -14.0778
  65   2.0000      -0.511051       -13.9064
  66   2.0000      -0.504130       -13.7181
  67   2.0000      -0.497097       -13.5267
  68   2.0000      -0.487572       -13.2675
  69   2.0000      -0.466161       -12.6849
  70   2.0000      -0.456798       -12.4301
  71   2.0000      -0.445819       -12.1314
  72   2.0000      -0.356425        -9.6988
  73   2.0000      -0.355060        -9.6617
  74   2.0000      -0.331202        -9.0125
  75   2.0000      -0.327916        -8.9230
  76   2.0000      -0.321057        -8.7364
  77   0.0000       0.070936         1.9303
  78   0.0000       0.098526         2.6810
  79   0.0000       0.122192         3.3250
  80   0.0000       0.128347         3.4925
  81   0.0000       0.130627         3.5545

MULLIKEN ATOMIC CHARGES
-----------------------
   0 C :   -0.259468
   1 C :    0.021358
   2 O :   -0.374625
   3 C :    0.464787
   4 O :   -0.393759
   5 C :   -0.282142
   6 C :    0.183184
   7 C :   -0.265225
   8 N :   -0.127300
   9 C :    0.209682
  10 S :   -0.438028
  11 N :   -0.212153
  12 C :    0.058771
  13 C :   -0.019750
  14 C :   -0.153194
  15 C :   -0.136586
  16 C :   -0.271305
  17 C :    0.305488
  18 O :   -0.356778
  19 C :   -0.223154
  20 H :    0.085150
  21 H :    0.091791
  22 H :    0.107061
  23 H :    0.097651
  24 H :    0.118619
  25 H :    0.128107
  26 H :    0.134820
  27 H :    0.093981
  28 H :    0.200113
  29 H :    0.200633
  30 H :    0.152022
  31 H :    0.154394
  32 H :    0.164353
  33 H :    0.134196
  34 H :    0.241728
  35 H :    0.165577
Sum of atomic charges:   -0.0000000

LOEWDIN ATOMIC CHARGES
----------------------
   0 C :    0.109395
   1 C :   -0.018756
   2 O :    0.295241
   3 C :   -0.427472
   4 O :    0.118950
   5 C :   -0.103753
   6 C :   -0.053646
   7 C :    0.130794
   8 N :    0.407919
   9 C :   -0.457710
  10 S :   -0.033292
  11 N :    0.395023
  12 C :   -0.054661
  13 C :   -0.042559
  14 C :    0.018589
  15 C :    0.041652
  16 C :   -0.000114
  17 C :   -0.191799
  18 O :    0.396583
  19 C :    0.032573
  20 H :   -0.027365
  21 H :   -0.029028
  22 H :   -0.022934
  23 H :   -0.030573
  24 H :   -0.033367
  25 H :   -0.005292
  26 H :   -0.003902
  27 H :   -0.023284
  28 H :   -0.056435
  29 H :   -0.063803
  30 H :   -0.011685
  31 H :   -0.027216
  32 H :   -0.019369
  33 H :   -0.033890
  34 H :   -0.152522
  35 H :   -0.022293

  Mayer bond orders larger than 0.100000
B(  0-C ,  1-C ) :   0.9851 B(  0-C , 20-H ) :   0.9763 B(  0-C , 21-H ) :   0.9793
B(  0-C , 22-H ) :   0.9786 B(  1-C ,  2-O ) :   0.8781 B(  1-C , 23-H ) :   0.9748
B(  1-C , 24-H ) :   0.9646 B(  2-O ,  3-C ) :   1.1064 B(  3-C ,  4-O ) :   2.0513
B(  3-C ,  5-C ) :   1.0541 B(  5-C ,  6-C ) :   1.6228 B(  5-C , 12-C ) :   0.9572
B(  6-C ,  7-C ) :   0.9674 B(  6-C ,  8-N ) :   1.1557 B(  7-C , 25-H ) :   0.9652
B(  7-C , 26-H ) :   0.9549 B(  7-C , 27-H ) :   0.9886 B(  8-N ,  9-C ) :   1.1858
B(  8-N , 28-H ) :   0.9466 B(  9-C , 10-S ) :   1.6106 B(  9-C , 11-N ) :   1.3070
B( 11-N , 12-C ) :   0.9665 B( 11-N , 29-H ) :   0.9486 B( 12-C , 13-C ) :   0.9625
B( 12-C , 30-H ) :   1.0044 B( 13-C , 14-C ) :   1.3571 B( 13-C , 19-C ) :   1.3766
B( 14-C , 15-C ) :   1.3935 B( 14-C , 31-H ) :   0.9715 B( 15-C , 16-C ) :   1.3581
B( 15-C , 32-H ) :   0.9699 B( 16-C , 17-C ) :   1.3308 B( 16-C , 33-H ) :   0.9839
B( 17-C , 18-O ) :   1.1077 B( 17-C , 19-C ) :   1.3666 B( 18-O , 34-H ) :   0.9786
B( 19-C , 35-H ) :   0.9596

MP2 TOTAL ENERGY:    -1274.325819922 Eh
FINAL SINGLE POINT ENERGY     -1274.325819921912

DIPOLE MOMENT
-------------
                                X             Y             Z
Electronic contribution:      9.58113      10.77268       6.77447
Nuclear contribution   :    -10.75284     -12.25881      -6.48430
                        -----------------------------------------
Total Dipole Moment    :     -1.17171      -1.48614       0.29017
                        -----------------------------------------
Magnitude (a.u.)       :      1.91460
Magnitude (Debye)      :      4.86653

Rotational constants in cm-1:     0.012268     0.008546     0.005965
Rotational constants in MHz :   367.798849   256.212482   178.839863

                             ****ORCA TERMINATED NORMALLY****
TOTAL RUN TIME: 0 days 1 hours 45 minutes 5 seconds 502 msec
