                         Program Version 4.2.0 -  RELEASE  -
|  1> ! ri-mp2 cc-pvtz cc-pvtz/c TightSCF NoKeepInts
|  2>
|  3> %scf
|  4>   MaxCore 4096
|  5> end
|  6> *xyz  0  1
|  7>     C       15.3643627   15.1213755   13.7531084
|  8>     C       15.0052302   15.0776386   15.2532615
|  9>     O       15.8472337   15.9875238   15.9869074
| 10>     C       15.6810792   17.3428361   15.8890227
| 11>     O       14.8430769   17.8487007   15.1617685
| 12>     C       16.6063757   18.1045300   16.8010435
| 13>     C       16.7811543   19.4432600   16.6521209
| 14>     C       15.9486897   20.3894072   15.8113702
| 15>     N       17.8250623   20.1096675   17.2980255
| 16>     C       18.8516026   19.4875431   17.9551212
| 17>     S       20.1109209   20.3337777   18.6137555
| 18>     N       18.7937811   18.1186116   18.0199284
| 19>     C       17.6644333   17.2871174   17.5623824
| 20>     C       17.0977363   16.4103094   18.6714595
| 21>     C       17.2862691   15.0160494   18.6507882
| 22>     C       16.7665691   14.2105954   19.6781828
| 23>     C       16.0560987   14.8049874   20.7353243
| 24>     C       15.8709580   16.1943726   20.7597824
| 25>     O       15.1870573   16.7708396   21.7801248
| 26>     C       16.3895553   16.9933125   19.7359526
| 27>     H       15.1124455   16.0911250   13.3070854
| 28>     H       14.8089623   14.3494675   13.2069112
| 29>     H       16.4359486   14.9395051   13.6056983
| 30>     H       13.9461922   15.3313001   15.3980881
| 31>     H       15.1648353   14.0590670   15.6294922
| 32>     H       14.8840413   20.2906733   16.0595328
| 33>     H       16.0594622   20.1584856   14.7442575
| 34>     H       16.2192399   21.4423953   15.9527049
| 35>     H       17.8907175   21.1132295   17.2388729
| 36>     H       19.5479941   17.6896207   18.5410221
| 37>     H       18.1706677   16.6740998   16.8033294
| 38>     H       17.8310160   14.5555784   17.8309942
| 39>     H       16.9143764   13.1324253   19.6530614
| 40>     H       15.6529367   14.1872873   21.5310101
| 41>     H       14.9280535   16.0657550   22.3920998
| 42>     H       16.2428644   18.0675297   19.7744093
| 43> *
| 44>
| 45>                          ****END OF INPUT****

CARTESIAN COORDINATES (ANGSTROEM)
---------------------------------
  C     15.364363   15.121375   13.753108
  C     15.005230   15.077639   15.253262
  O     15.847234   15.987524   15.986907
  C     15.681079   17.342836   15.889023
  O     14.843077   17.848701   15.161768
  C     16.606376   18.104530   16.801043
  C     16.781154   19.443260   16.652121
  C     15.948690   20.389407   15.811370
  N     17.825062   20.109668   17.298025
  C     18.851603   19.487543   17.955121
  S     20.110921   20.333778   18.613755
  N     18.793781   18.118612   18.019928
  C     17.664433   17.287117   17.562382
  C     17.097736   16.410309   18.671460
  C     17.286269   15.016049   18.650788
  C     16.766569   14.210595   19.678183
  C     16.056099   14.804987   20.735324
  C     15.870958   16.194373   20.759782
  O     15.187057   16.770840   21.780125
  C     16.389555   16.993312   19.735953
  H     15.112445   16.091125   13.307085
  H     14.808962   14.349467   13.206911
  H     16.435949   14.939505   13.605698
  H     13.946192   15.331300   15.398088
  H     15.164835   14.059067   15.629492
  H     14.884041   20.290673   16.059533
  H     16.059462   20.158486   14.744257
  H     16.219240   21.442395   15.952705
  H     17.890718   21.113229   17.238873
  H     19.547994   17.689621   18.541022
  H     18.170668   16.674100   16.803329
  H     17.831016   14.555578   17.830994
  H     16.914376   13.132425   19.653061
  H     15.652937   14.187287   21.531010
  H     14.928054   16.065755   22.392100
  H     16.242864   18.067530   19.774409

 Total Charge           Charge          ....    0
 Multiplicity           Mult            ....    1
 Number of Electrons    NEL             ....  154
 Basis Dimension        Dim             ....  828

ORBITAL ENERGIES
----------------

  NO   OCC          E(Eh)            E(eV)
   0   2.0000     -91.888558     -2500.4148
   1   2.0000     -20.601300      -560.5899
   2   2.0000     -20.595268      -560.4257
   3   2.0000     -20.541637      -558.9664
   4   2.0000     -15.628952      -425.2854
   5   2.0000     -15.606618      -424.6777
   6   2.0000     -11.396319      -310.1096
   7   2.0000     -11.383158      -309.7515
   8   2.0000     -11.337284      -308.5032
   9   2.0000     -11.312300      -307.8233
  10   2.0000     -11.307086      -307.6815
  11   2.0000     -11.299201      -307.4669
  12   2.0000     -11.259551      -306.3880
  13   2.0000     -11.259528      -306.3873
  14   2.0000     -11.253785      -306.2310
  15   2.0000     -11.251640      -306.1727
  16   2.0000     -11.242221      -305.9164
  17   2.0000     -11.237632      -305.7915
  18   2.0000     -11.237548      -305.7892
  19   2.0000     -11.224202      -305.4261
  20   2.0000      -8.893632      -242.0080
  21   2.0000      -6.575206      -178.9205
  22   2.0000      -6.573207      -178.8661
  23   2.0000      -6.572617      -178.8500
  24   2.0000      -1.450550       -39.4715
  25   2.0000      -1.414922       -38.5020
  26   2.0000      -1.354819       -36.8665
  27   2.0000      -1.340168       -36.4678
  28   2.0000      -1.237958       -33.6866
  29   2.0000      -1.156381       -31.4667
  30   2.0000      -1.120708       -30.4960
  31   2.0000      -1.042033       -28.3552
  32   2.0000      -1.036609       -28.2076
  33   2.0000      -1.013654       -27.5829
  34   2.0000      -0.995752       -27.0958
  35   2.0000      -0.983987       -26.7756
  36   2.0000      -0.921262       -25.0688
  37   2.0000      -0.895030       -24.3550
  38   2.0000      -0.846409       -23.0319
  39   2.0000      -0.837060       -22.7776
  40   2.0000      -0.832915       -22.6648
  41   2.0000      -0.817353       -22.2413
  42   2.0000      -0.755527       -20.5589
  43   2.0000      -0.732211       -19.9245
  44   2.0000      -0.721825       -19.6419
  45   2.0000      -0.694478       -18.8977
  46   2.0000      -0.688206       -18.7270
  47   2.0000      -0.679702       -18.4956
  48   2.0000      -0.671026       -18.2596
  49   2.0000      -0.653992       -17.7960
  50   2.0000      -0.646228       -17.5848
  51   2.0000      -0.643602       -17.5133
  52   2.0000      -0.630844       -17.1662
  53   2.0000      -0.611746       -16.6465
  54   2.0000      -0.605247       -16.4696
  55   2.0000      -0.599571       -16.3151
  56   2.0000      -0.597855       -16.2685
  57   2.0000      -0.578515       -15.7422
  58   2.0000      -0.571336       -15.5468
  59   2.0000      -0.569397       -15.4941
  60   2.0000      -0.562672       -15.3111
  61   2.0000      -0.540118       -14.6974
  62   2.0000      -0.537333       -14.6216
  63   2.0000      -0.526430       -14.3249
  64   2.0000      -0.522930       -14.2296
  65   2.0000      -0.512601       -13.9486
  66   2.0000      -0.500415       -13.6170
  67   2.0000      -0.496876       -13.5207
  68   2.0000      -0.483998       -13.1703
  69   2.0000      -0.462777       -12.5928
  70   2.0000      -0.455980       -12.4078
  71   2.0000      -0.445985       -12.1359
  72   2.0000      -0.352828        -9.6009
  73   2.0000      -0.348595        -9.4858
  74   2.0000      -0.327676        -8.9165
  75   2.0000      -0.319783        -8.7017
  76   2.0000      -0.317667        -8.6442
  77   0.0000       0.077923         2.1204
  78   0.0000       0.106644         2.9019
  79   0.0000       0.123495         3.3605
  80   0.0000       0.133423         3.6306
  81   0.0000       0.136292         3.7087

MULLIKEN ATOMIC CHARGES
-----------------------
   0 C :   -0.297075
   1 C :    0.037861
   2 O :   -0.344450
   3 C :    0.439160
   4 O :   -0.440906
   5 C :   -0.213954
   6 C :    0.171312
   7 C :   -0.269586
   8 N :   -0.125692
   9 C :    0.210245
  10 S :   -0.442450
  11 N :   -0.214398
  12 C :    0.052312
  13 C :    0.049594
  14 C :   -0.174396
  15 C :   -0.134620
  16 C :   -0.275324
  17 C :    0.316633
  18 O :   -0.357167
  19 C :   -0.247681
  20 H :    0.121081
  21 H :    0.095331
  22 H :    0.090455
  23 H :    0.098185
  24 H :    0.107626
  25 H :    0.134100
  26 H :    0.128006
  27 H :    0.094859
  28 H :    0.199682
  29 H :    0.200385
  30 H :    0.152076
  31 H :    0.147923
  32 H :    0.159370
  33 H :    0.129205
  34 H :    0.240373
  35 H :    0.161924
Sum of atomic charges:    0.0000000

LOEWDIN ATOMIC CHARGES
----------------------
   0 C :    0.104502
   1 C :   -0.014654
   2 O :    0.307490
   3 C :   -0.412135
   4 O :    0.096302
   5 C :   -0.093552
   6 C :   -0.056590
   7 C :    0.130803
   8 N :    0.407087
   9 C :   -0.456861
  10 S :   -0.036949
  11 N :    0.394729
  12 C :   -0.055008
  13 C :   -0.039145
  14 C :    0.016916
  15 C :    0.039253
  16 C :   -0.000380
  17 C :   -0.189475
  18 O :    0.394856
  19 C :    0.033424
  20 H :   -0.025923
  21 H :   -0.027265
  22 H :   -0.031021
  23 H :   -0.027799
  24 H :   -0.025039
  25 H :   -0.004202
  26 H :   -0.005564
  27 H :   -0.023645
  28 H :   -0.057203
  29 H :   -0.064302
  30 H :   -0.014496
  31 H :   -0.029817
  32 H :   -0.021628
  33 H :   -0.035592
  34 H :   -0.154161
  35 H :   -0.022955

  Mayer bond orders larger than 0.100000
B(  0-C ,  1-C ) :   0.9645 B(  0-C , 20-H ) :   0.9732 B(  0-C , 21-H ) :   0.9770
B(  0-C , 22-H ) :   0.9768 B(  1-C ,  2-O ) :   0.9043 B(  1-C , 23-H ) :   0.9777
B(  1-C , 24-H ) :   0.9838 B(  2-O ,  3-C ) :   1.1679 B(  3-C ,  4-O ) :   1.9433
B(  3-C ,  5-C ) :   1.0816 B(  5-C ,  6-C ) :   1.6400 B(  5-C , 12-C ) :   0.9540
B(  6-C ,  7-C ) :   0.9658 B(  6-C ,  8-N ) :   1.1536 B(  7-C , 25-H ) :   0.9614
B(  7-C , 26-H ) :   0.9587 B(  7-C , 27-H ) :   0.9909 B(  8-N ,  9-C ) :   1.1876
B(  8-N , 28-H ) :   0.9463 B(  9-C , 10-S ) :   1.6057 B(  9-C , 11-N ) :   1.3093
B( 11-N , 12-C ) :   0.9683 B( 11-N , 29-H ) :   0.9483 B( 12-C , 13-C ) :   0.9671
B( 12-C , 30-H ) :   1.0006 B( 13-C , 14-C ) :   1.3543 B( 13-C , 19-C ) :   1.3812
B( 14-C , 15-C ) :   1.3966 B( 14-C , 31-H ) :   0.9725 B( 15-C , 16-C ) :   1.3605
B( 15-C , 32-H ) :   0.9710 B( 16-C , 17-C ) :   1.3341 B( 16-C , 33-H ) :   0.9853
B( 17-C , 18-O ) :   1.1037 B( 17-C , 19-C ) :   1.3652 B( 18-O , 34-H ) :   0.9801
B( 19-C , 35-H ) :   0.9597

MP2 TOTAL ENERGY:    -1274.342843693 Eh
FINAL SINGLE POINT ENERGY     -1274.342843692581

DIPOLE MOMENT
-------------
                                X             Y             Z
Electronic contribution:      8.52901       8.78045      11.23760
Nuclear contribution   :     -9.66133     -10.40631     -11.62418
                        -----------------------------------------
Total Dipole Moment    :     -1.13232      -1.62585      -0.38658
                        -----------------------------------------
Magnitude (a.u.)       :      2.01866
Magnitude (Debye)      :      5.13103

Rotational constants in cm-1:     0.010124     0.009025     0.005799
Rotational constants in MHz :   303.505578   270.549979   173.850382

                             ****ORCA TERMINATED NORMALLY****
TOTAL RUN TIME: 0 days 1 hours 36 minutes 41 seconds 483 msec
